<LesHouchesEvents version="3.0">
<header>
<!--
#*********************************************************************
#                                                                    *
#                        MadGraph5_aMC@NLO                           *
#                                                                    *
#                           Going Beyond                             *
#                                                                    *
#                   http://madgraph.hep.uiuc.edu                     *
#                   http://madgraph.phys.ucl.ac.be                   *
#                   http://amcatnlo.cern.ch                          *
#                                                                    *
#                     The MadGraph5_aMC@NLO team                     *
#                                                                    *
#....................................................................*
#                                                                    *
# This file contains all the information necessary to reproduce      *
# the events generated:                                              *
#                                                                    *
# 1. software version                                                *
# 2. proc_card          : code generation info including model       *
# 3. param_card         : model primary parameters in the LH format  *
# 4. run_card           : running parameters (collider and cuts)     *
# 5. pythia_card        : present only if pythia has been run        *
# 6. pgs_card           : present only if pgs has been run           *
# 7. delphes_cards      : present only if delphes has been run       *
#                                                                    *
#                                                                    *
#*********************************************************************
-->
<MGVersion>
#5.2.2.3
</MGVersion>
<MG5ProcCard>
#************************************************************
#*                     MadGraph5_aMC@NLO                    *
#*                                                          *
#*                *                       *                 *
#*                  *        * *        *                   *
#*                    * * * * 5 * * * *                     *
#*                  *        * *        *                   *
#*                *                       *                 *
#*                                                          *
#*                                                          *
#*         VERSION 2.2.3                 2015-02-10         *
#*                                                          *
#*    The MadGraph5_aMC@NLO Development Team - Find us at   *
#*    https://server06.fynu.ucl.ac.be/projects/madgraph     *
#*                                                          *
#************************************************************
#*                                                          *
#*               Command File for MadGraph5_aMC@NLO         *
#*                                                          *
#*     run as ./bin/mg5_aMC  filename                       *
#*                                                          *
#************************************************************
set group_subprocesses Auto
set ignore_six_quark_processes False
set loop_optimized_output True
set gauge unitary
set complex_mass_scheme False
import model sm
define p = g u c d s u~ c~ d~ s~
define j = g u c d s u~ c~ d~ s~
define l+ = e+ mu+
define l- = e- mu-
define vl = ve vm vt
define vl~ = ve~ vm~ vt~
import model Zprime_UFO
generate p p > zph, zph > j j
add process p p > zph, zph > b b~
output Dijet_signal
</MG5ProcCard>
<MGProcCard>
#*********************************************************************
#                        MadGraph/MadEvent                           *
#                   http://madgraph.hep.uiuc.edu                     *
#                                                                    *
#                          proc_card.dat                             *
#*********************************************************************
#                                                                    *
#            This Files is generated by MADGRAPH 5                   *
#                                                                    *
# WARNING: This Files is generated for MADEVENT (compatibility issue)*
#          This files is NOT a valid MG4 proc_card.dat               *
#          Running this in MG4 will NEVER reproduce the result of MG5*
#                                                                    *
#*********************************************************************
#*********************************************************************
# Process(es) requested : mg2 input                                  *
#*********************************************************************
# Begin PROCESS # This is TAG. Do not modify this line
p p > zph , zph > j j           #Process
# Be carefull the coupling are here in MG5 convention
          
end_coup           # End the couplings input

done               # this tells MG there are no more procs
# End PROCESS  # This is TAG. Do not modify this line
#*********************************************************************
# Model information                                                  *
#*********************************************************************
# Begin MODEL  # This is TAG. Do not modify this line
Zprime_UFO
# End   MODEL  # This is TAG. Do not modify this line
#*********************************************************************
# Start multiparticle definitions                                    *
#*********************************************************************
# Begin MULTIPARTICLES # This is TAG. Do not modify this line

# End  MULTIPARTICLES # This is TAG. Do not modify this line
</MGProcCard>
<MGRunCard>
#*********************************************************************
#                       MadGraph5_aMC@NLO                            *
#                                                                    *
#                     run_card.dat MadEvent                          *
#                                                                    *
#  This file is used to set the parameters of the run.               *
#                                                                    *
#  Some notation/conventions:                                        *
#                                                                    *
#   Lines starting with a '# ' are info or comments                  *
#                                                                    *
#   mind the format:   value    = variable     ! comment             *
#*********************************************************************
#
#*******************                                                 
# Running parameters
#*******************                                                 
#                                                                    
#*********************************************************************
# Tag name for the run (one word)                                    *
#*********************************************************************
  tag_1     = run_tag ! name of the run 
#*********************************************************************
# Run to generate the grid pack                                      *
#*********************************************************************
  .false.     = gridpack  !True = setting up the grid pack
#*********************************************************************
# Number of events and rnd seed                                      *
# Warning: Do not generate more than 1M events in a single run       *
# If you want to run Pythia, avoid more than 50k events in a run.    *
#*********************************************************************
  2000 = nevents ! Number of unweighted events requested 
 1938 = iseed   ! rnd seed (0=assigned automatically=default))
#*********************************************************************
# Collider type and energy                                           *
# lpp: 0=No PDF, 1=proton, -1=antiproton, 2=photon from proton,      *
#                                         3=photon from electron     *
#*********************************************************************
        1     = lpp1    ! beam 1 type 
        1     = lpp2    ! beam 2 type
     4000     = ebeam1  ! beam 1 total energy in GeV
     4000     = ebeam2  ! beam 2 total energy in GeV
#*********************************************************************
# Beam polarization from -100 (left-handed) to 100 (right-handed)    *
#*********************************************************************
        0     = polbeam1 ! beam polarization for beam 1
        0     = polbeam2 ! beam polarization for beam 2
#*********************************************************************
# PDF CHOICE: this automatically fixes also alpha_s and its evol.    *
#*********************************************************************
 'nn23lo1'    = pdlabel     ! PDF set                                     
 230000    = lhaid     ! if pdlabel=lhapdf, this is the lhapdf number
#*********************************************************************
# Renormalization and factorization scales                           *
#*********************************************************************
 F        = fixed_ren_scale  ! if .true. use fixed ren scale
 F        = fixed_fac_scale  ! if .true. use fixed fac scale
 91.1880  = scale            ! fixed ren scale
 91.1880  = dsqrt_q2fact1    ! fixed fact scale for pdf1
 91.1880  = dsqrt_q2fact2    ! fixed fact scale for pdf2
 1        = scalefact        ! scale factor for event-by-event scales
#*********************************************************************
# Matching - Warning! ickkw > 1 is still beta
#*********************************************************************
 0        = ickkw            ! 0 no matching, 1 MLM, 2 CKKW matching
 1        = highestmult      ! for ickkw=2, highest mult group
 1        = ktscheme         ! for ickkw=1, 1 Durham kT, 2 Pythia pTE
 1        = alpsfact         ! scale factor for QCD emission vx
 F        = chcluster        ! cluster only according to channel diag
 T        = pdfwgt           ! for ickkw=1, perform pdf reweighting
 5        = asrwgtflavor     ! highest quark flavor for a_s reweight
 T        = clusinfo         ! include clustering tag in output
 3.0      = lhe_version       ! Change the way clustering information pass to shower.        
#*********************************************************************
#**********************************************************
#
#**********************************************************
# Automatic ptj and mjj cuts if xqcut > 0
# (turn off for VBF and single top processes)
#**********************************************************
   T  = auto_ptj_mjj  ! Automatic setting of ptj and mjj
#**********************************************************
#                                                                    
#**********************************
# BW cutoff (M+/-bwcutoff*Gamma)
#**********************************
  15  = bwcutoff      ! (M+/-bwcutoff*Gamma)
#**********************************************************
# Apply pt/E/eta/dr/mij cuts on decay products or not
# (note that etmiss/ptll/ptheavy/ht/sorted cuts always apply)
#**********************************************************
   T  = cut_decays    ! Cut decay products 
#*************************************************************
# Number of helicities to sum per event (0 = all helicities)
# 0 gives more stable result, but longer run time (needed for
# long decay chains e.g.).
# Use >=2 if most helicities contribute, e.g. pure QCD.
#*************************************************************
   0  = nhel          ! Number of helicities used per event
#*******************                                                 
# Standard Cuts
#*******************                                                 
#                                                                    
#*********************************************************************
# Minimum and maximum pt's (for max, -1 means no cut)                *
#*********************************************************************
 20  = ptj       ! minimum pt for the jets 
  0  = ptb       ! minimum pt for the b 
 10  = pta       ! minimum pt for the photons 
 10  = ptl       ! minimum pt for the charged leptons 
  0  = misset    ! minimum missing Et (sum of neutrino's momenta)
  0  = ptheavy   ! minimum pt for one heavy final state
 1.0 = ptonium   ! minimum pt for the quarkonium states
 -1  = ptjmax    ! maximum pt for the jets
 -1  = ptbmax    ! maximum pt for the b
 -1  = ptamax    ! maximum pt for the photons
 -1  = ptlmax    ! maximum pt for the charged leptons
 -1  = missetmax ! maximum missing Et (sum of neutrino's momenta)
#*********************************************************************
# Minimum and maximum E's (in the center of mass frame)              *
#*********************************************************************
  0  = ej     ! minimum E for the jets 
  0  = eb     ! minimum E for the b 
  0  = ea     ! minimum E for the photons 
  0  = el     ! minimum E for the charged leptons 
 -1   = ejmax ! maximum E for the jets
 -1   = ebmax ! maximum E for the b
 -1   = eamax ! maximum E for the photons
 -1   = elmax ! maximum E for the charged leptons
#*********************************************************************
# Maximum and minimum absolute rapidity (for max, -1 means no cut)   *
#*********************************************************************
   5  = etaj    ! max rap for the jets 
  -1  = etab    ! max rap for the b
 2.5  = etaa    ! max rap for the photons 
 2.5  = etal    ! max rap for the charged leptons 
 0.6  = etaonium ! max rap for the quarkonium states
   0  = etajmin ! min rap for the jets
   0  = etabmin ! min rap for the b
   0  = etaamin ! min rap for the photons
   0  = etalmin ! main rap for the charged leptons
#*********************************************************************
# Minimum and maximum DeltaR distance                                *
#*********************************************************************
 0.4 = drjj    ! min distance between jets 
 0   = drbb    ! min distance between b's 
 0.4 = drll    ! min distance between leptons 
 0.4 = draa    ! min distance between gammas 
 0   = drbj    ! min distance between b and jet 
 0.4 = draj    ! min distance between gamma and jet 
 0.4 = drjl    ! min distance between jet and lepton 
 0   = drab    ! min distance between gamma and b 
 0   = drbl    ! min distance between b and lepton 
 0.4 = dral    ! min distance between gamma and lepton 
 -1  = drjjmax ! max distance between jets
 -1  = drbbmax ! max distance between b's
 -1  = drllmax ! max distance between leptons
 -1  = draamax ! max distance between gammas
 -1  = drbjmax ! max distance between b and jet
 -1  = drajmax ! max distance between gamma and jet
 -1  = drjlmax ! max distance between jet and lepton
 -1  = drabmax ! max distance between gamma and b
 -1  = drblmax ! max distance between b and lepton
 -1  = dralmax ! maxdistance between gamma and lepton
#*********************************************************************
# Minimum and maximum invariant mass for pairs                       *
# WARNING: for four lepton final state mmll cut require to have      *
#          different lepton masses for each flavor!                  *           
#*********************************************************************
 0   = mmjj    ! min invariant mass of a jet pair 
 0   = mmbb    ! min invariant mass of a b pair 
 0   = mmaa    ! min invariant mass of gamma gamma pair
 0   = mmll    ! min invariant mass of l+l- (same flavour) lepton pair
 -1  = mmjjmax ! max invariant mass of a jet pair
 -1  = mmbbmax ! max invariant mass of a b pair
 -1  = mmaamax ! max invariant mass of gamma gamma pair
 -1  = mmllmax ! max invariant mass of l+l- (same flavour) lepton pair
#*********************************************************************
# Minimum and maximum invariant mass for all letpons                 *
#*********************************************************************
 0   = mmnl    ! min invariant mass for all letpons (l+- and vl) 
 -1  = mmnlmax ! max invariant mass for all letpons (l+- and vl) 
#*********************************************************************
# Minimum and maximum pt for 4-momenta sum of leptons                *
#*********************************************************************
 0   = ptllmin  ! Minimum pt for 4-momenta sum of leptons(l and vl)
 -1  = ptllmax  ! Maximum pt for 4-momenta sum of leptons(l and vl)
#*********************************************************************
# Inclusive cuts                                                     *
#*********************************************************************
 0  = xptj ! minimum pt for at least one jet  
 0  = xptb ! minimum pt for at least one b 
 0  = xpta ! minimum pt for at least one photon 
 0  = xptl ! minimum pt for at least one charged lepton 
#*********************************************************************
# Control the pt's of the jets sorted by pt                          *
#*********************************************************************
 0   = ptj1min ! minimum pt for the leading jet in pt
 0   = ptj2min ! minimum pt for the second jet in pt
 0   = ptj3min ! minimum pt for the third jet in pt
 0   = ptj4min ! minimum pt for the fourth jet in pt
 -1  = ptj1max ! maximum pt for the leading jet in pt 
 -1  = ptj2max ! maximum pt for the second jet in pt
 -1  = ptj3max ! maximum pt for the third jet in pt
 -1  = ptj4max ! maximum pt for the fourth jet in pt
 0   = cutuse  ! reject event if fails any (0) / all (1) jet pt cuts
#*********************************************************************
# Control the pt's of leptons sorted by pt                           *
#*********************************************************************
 0   = ptl1min ! minimum pt for the leading lepton in pt
 0   = ptl2min ! minimum pt for the second lepton in pt
 0   = ptl3min ! minimum pt for the third lepton in pt
 0   = ptl4min ! minimum pt for the fourth lepton in pt
 -1  = ptl1max ! maximum pt for the leading lepton in pt 
 -1  = ptl2max ! maximum pt for the second lepton in pt
 -1  = ptl3max ! maximum pt for the third lepton in pt
 -1  = ptl4max ! maximum pt for the fourth lepton in pt
#*********************************************************************
# Control the Ht(k)=Sum of k leading jets                            *
#*********************************************************************
 0   = htjmin ! minimum jet HT=Sum(jet pt)
 -1  = htjmax ! maximum jet HT=Sum(jet pt)
 0   = ihtmin  !inclusive Ht for all partons (including b)
 -1  = ihtmax  !inclusive Ht for all partons (including b)
 0   = ht2min ! minimum Ht for the two leading jets
 0   = ht3min ! minimum Ht for the three leading jets
 0   = ht4min ! minimum Ht for the four leading jets
 -1  = ht2max ! maximum Ht for the two leading jets
 -1  = ht3max ! maximum Ht for the three leading jets
 -1  = ht4max ! maximum Ht for the four leading jets
#***********************************************************************
# Photon-isolation cuts, according to hep-ph/9801442                   *
# When ptgmin=0, all the other parameters are ignored                  *
# When ptgmin>0, pta and draj are not going to be used                 *
#***********************************************************************
   0 = ptgmin ! Min photon transverse momentum
 0.4 = R0gamma ! Radius of isolation code
 1.0 = xn ! n parameter of eq.(3.4) in hep-ph/9801442
 1.0 = epsgamma ! epsilon_gamma parameter of eq.(3.4) in hep-ph/9801442
 .true. = isoEM ! isolate photons from EM energy (photons and leptons)
#*********************************************************************
# WBF cuts                                                           *
#*********************************************************************
 0   = xetamin ! minimum rapidity for two jets in the WBF case  
 0   = deltaeta ! minimum rapidity for two jets in the WBF case 
#*********************************************************************
# KT DURHAM CUT                                                      *
#*********************************************************************
 -1    =  ktdurham        
 0.4  =  dparameter 
#*********************************************************************
# maximal pdg code for quark to be considered as a light jet         *
# (otherwise b cuts are applied)                                     *
#*********************************************************************
 4 = maxjetflavor    ! Maximum jet pdg code
#*********************************************************************
# Jet measure cuts                                                   *
#*********************************************************************
 0   = xqcut   ! minimum kt jet measure between partons
#*********************************************************************
#
#*********************************************************************
# Store info for systematics studies                                 *
# WARNING: If use_syst is T, matched Pythia output is                *
#          meaningful ONLY if plotted taking matchscale              *
#          reweighting into account!                                 *
#*********************************************************************
   F  = use_syst      ! Enable systematics studies
#
#**************************************
# Parameter of the systematics study
#  will be used by SysCalc (if installed)
#**************************************                                  
#
0.5 1 2 = sys_scalefact  # factorization/renormalization scale factor
0.5 1 2 = sys_alpsfact  # \alpha_s emission scale factors
30 50 = sys_matchscale # variation of merging scale
# PDF sets and number of members (0 or none for all members).
CT10nlo.LHgrid = sys_pdf # matching scales
# MSTW2008nlo68cl.LHgrid 1  = sys_pdf
</MGRunCard>
<slha>
######################################################################
## PARAM_CARD AUTOMATICALY GENERATED BY MG5 FOLLOWING UFO MODEL   ####
######################################################################
##                                                                  ##
##  Width set on Auto will be computed following the information    ##
##        present in the decay.py files of the model.               ##
##        See  arXiv:1402.1178 for more details.                    ##
##                                                                  ##
######################################################################

###################################
## INFORMATION FOR CKMBLOCK
###################################
Block ckmblock 
    1 2.277360e-01 # cabi 

###################################
## INFORMATION FOR FRBLOCK
###################################
Block frblock 
    1 1.000000e+00 # gz 

###################################
## INFORMATION FOR MASS
###################################
Block mass 
    1 5.040000e-03 # MD 
    2 2.550000e-03 # MU 
    3 1.010000e-01 # MS 
    4 1.270000e+00 # MC 
    5 4.700000e+00 # MB 
    6 1.720000e+02 # MT 
   11 5.110000e-04 # Me 
   13 1.056600e-01 # MM 
   15 1.777000e+00 # MTA 
   23 9.118760e+01 # MZ 
   25 1.200000e+02 # MH 
  10030 2.100000e+03 # MZph 
  10031 3.000000e+02 # MZpl 
## Dependent parameters, given by model restrictions.
## Those values should be edited following the 
## analytical expression. MG5 ignores those values 
## but they are important for interfacing the output of MG5
## to external program such as Pythia.
  12 0.000000 # ve : 0.0 
  14 0.000000 # vm : 0.0 
  16 0.000000 # vt : 0.0 
  21 0.000000 # g : 0.0 
  22 0.000000 # a : 0.0 
  24 79.824360 # w+ : cmath.sqrt(MZ__exp__2/2. + cmath.sqrt(MZ__exp__4/4. - (aEW*cmath.pi*MZ__exp__2)/(Gf*sqrt__2))) 

###################################
## INFORMATION FOR SMINPUTS
###################################
Block sminputs 
    1 1.279000e+02 # aEWM1 
    2 1.166370e-05 # Gf 
    3 1.184000e-01 # aS 

###################################
## INFORMATION FOR YUKAWA
###################################
Block yukawa 
    1 5.040000e-03 # ymdo 
    2 2.550000e-03 # ymup 
    3 1.010000e-01 # yms 
    4 1.270000e+00 # ymc 
    5 4.700000e+00 # ymb 
    6 1.720000e+02 # ymt 
   11 5.110000e-04 # yme 
   13 1.056600e-01 # ymm 
   15 1.777000e+00 # ymtau 

###################################
## INFORMATION FOR DECAY
###################################
DECAY   6 1.508336e+00 # WT 
DECAY  23 2.495200e+00 # WZ 
DECAY  24 2.085000e+00 # WW 
DECAY  25 5.753088e-03 # WH 
## Dependent parameters, given by model restrictions.
## Those values should be edited following the 
## analytical expression. MG5 ignores those values 
## but they are important for interfacing the output of MG5
## to external program such as Pythia.
DECAY  1 0.000000 # d : 0.0 
DECAY  2 0.000000 # u : 0.0 
DECAY  3 0.000000 # s : 0.0 
DECAY  4 0.000000 # c : 0.0 
DECAY  5 0.000000 # b : 0.0 
DECAY  11 0.000000 # e- : 0.0 
DECAY  12 0.000000 # ve : 0.0 
DECAY  13 0.000000 # mu- : 0.0 
DECAY  14 0.000000 # vm : 0.0 
DECAY  15 0.000000 # ta- : 0.0 
DECAY  16 0.000000 # vt : 0.0 
DECAY  21 0.000000 # g : 0.0 
DECAY  22 0.000000 # a : 0.0 
DECAY  10030 0.308725 # zph : (gz__exp__2*MZph*(5 + cmath.sqrt(1 - (4*MT__exp__2)/MZph__exp__2)))/(144.*cmath.pi) 
DECAY  10031 0.132629 # zpl : (5*gz__exp__2*MZpl)/(144.*cmath.pi) 
#===========================================================
# QUANTUM NUMBERS OF NEW STATE(S) (NON SM PDG CODE)
#===========================================================

Block QNUMBERS 10030  # zph 
        1 0  # 3 times electric charge
        2 3  # number of spin states (2S+1)
        3 1  # colour rep (1: singlet, 3: triplet, 8: octet)
        4 0  # Particle/Antiparticle distinction (0=own anti)
Block QNUMBERS 10031  # zpl 
        1 0  # 3 times electric charge
        2 3  # number of spin states (2S+1)
        3 1  # colour rep (1: singlet, 3: triplet, 8: octet)
        4 0  # Particle/Antiparticle distinction (0=own anti)
</slha>
## END BANNER##
<MGGenerationInfo>
#  Number of Events        :         3965
#  Integrated weight (pb)  :  0.25409E-01
#  Max wgt                 :  0.90870E-05
#  Average wgt             :  0.64083E-05
</MGGenerationInfo>
</header>
<init>
     2212     2212  0.40000000000E+04  0.40000000000E+04 0 0  247000  247000 2   1
  0.25413115260E-01  0.55606004530E-04  0.90869850000E-05   0
</init>
<event>
 5   0  0.8858590E-05  0.2090303E+04  0.7818609E-02  0.8565527E-01
       -2   -1    0    0    0  501  0.00000000000E+00  0.00000000000E+00  0.10186850045E+04  0.10186850045E+04  0.25500000920E-02 0.  1.
        2   -1    0    0  501    0  0.00000000000E+00  0.00000000000E+00 -0.10723056690E+04  0.10723056690E+04  0.25500000920E-02 0. -1.
    10030    2    1    2    0    0  0.00000000000E+00  0.00000000000E+00 -0.53620664516E+02  0.20909906735E+04  0.20903030452E+04 0.  0.
        1    1    3    3  502    0  0.55054638975E+03  0.64438091216E+03 -0.63857804166E+03  0.10611833030E+04  0.50400001928E-02 0. -1.
       -1    1    3    3    0  502 -0.55054638975E+03 -0.64438091216E+03  0.58495737714E+03  0.10298073705E+04  0.50400001928E-02 0.  1.
</event>
<event>
 5   0  0.8858590E-05  0.2119213E+04  0.7818609E-02  0.8552827E-01
       -2   -1    0    0    0  501  0.00000000000E+00  0.00000000000E+00  0.71078251226E+03  0.71078251226E+03  0.25500000920E-02 0.  1.
        2   -1    0    0  501    0  0.00000000000E+00  0.00000000000E+00 -0.15796190382E+04  0.15796190382E+04  0.25500000920E-02 0. -1.
    10030    2    1    2    0    0  0.00000000000E+00  0.00000000000E+00 -0.86883652596E+03  0.22904015505E+04  0.21192126730E+04 0.  0.
        1    1    3    3  502    0 -0.81248325358E+03  0.42644609241E+03 -0.10071093037E+04  0.13624442949E+04  0.50400001928E-02 0. -1.
       -1    1    3    3    0  502  0.81248325358E+03 -0.42644609241E+03  0.13827277775E+03  0.92795725557E+03  0.50400001928E-02 0.  1.
</event>
<event>
 5   0  0.8872777E-05  0.2088158E+04  0.7818609E-02  0.8566478E-01
       -2   -1    0    0    0  501  0.00000000000E+00  0.00000000000E+00  0.44544754002E+03  0.44544754003E+03  0.25500000920E-02 0.  1.
        2   -1    0    0  501    0  0.00000000000E+00  0.00000000000E+00 -0.24472036444E+04  0.24472036444E+04  0.25500000920E-02 0. -1.
    10030    2    1    2    0    0  0.00000000000E+00  0.00000000000E+00 -0.20017561043E+04  0.28926511844E+04  0.20881578899E+04 0.  0.
        3    1    3    3  502    0  0.33756274151E+02  0.79654386724E+03 -0.67000909107E+02  0.80006921607E+03  0.10100000352E+00 0.  1.
       -3    1    3    3    0  502 -0.33756274151E+02 -0.79654386724E+03 -0.19347551952E+04  0.20925819683E+04  0.10100000352E+00 0. -1.
</event>
<event>
 5   0  0.8858590E-05  0.2145294E+04  0.7818609E-02  0.8541549E-01
        2   -1    0    0  501    0  0.00000000000E+00  0.00000000000E+00  0.17015139104E+04  0.17015139104E+04  0.25500000920E-02 0. -1.
       -2   -1    0    0    0  501  0.00000000000E+00  0.00000000000E+00 -0.67620465259E+03  0.67620465259E+03  0.25500000920E-02 0.  1.
    10030    2    1    2    0    0  0.00000000000E+00  0.00000000000E+00  0.10253092578E+04  0.23777185630E+04  0.21452940336E+04 0.  0.
        1    1    3    3  502    0  0.92964364981E+03 -0.41700982747E+03  0.88429977255E+03  0.13491184528E+04  0.50400001928E-02 0. -1.
       -1    1    3    3    0  502 -0.92964364981E+03  0.41700982747E+03  0.14100948528E+03  0.10286001102E+04  0.50400001928E-02 0.  1.
</event>
<event>
 5   0  0.8872777E-05  0.2035503E+04  0.7818609E-02  0.8590200E-01
        2   -1    0    0  501    0  0.00000000000E+00  0.00000000000E+00  0.86251709168E+03  0.86251709169E+03  0.25500000920E-02 0.  1.
       -2   -1    0    0    0  501  0.00000000000E+00  0.00000000000E+00 -0.12009241787E+04  0.12009241787E+04  0.25500000920E-02 0. -1.
    10030    2    1    2    0    0  0.00000000000E+00  0.00000000000E+00 -0.33840708697E+03  0.20634412703E+04  0.20355025226E+04 0.  0.
        3    1    3    3  502    0  0.99926903226E+03  0.76551413415E+02 -0.34889025858E+03  0.10611894932E+04  0.10100000352E+00 0. -1.
       -3    1    3    3    0  502 -0.99926903226E+03 -0.76551413415E+02  0.10483171612E+02  0.10022517772E+04  0.10100000352E+00 0.  1.
</event>
<event>
 5   0  0.4182977E-05  0.2090690E+04  0.7818609E-02  0.8565356E-01
        1   -1    0    0  501    0  0.00000000000E+00  0.00000000000E+00  0.17529128493E+04  0.17529128493E+04  0.50400001928E-02 0.  1.
       -1   -1    0    0    0  501  0.00000000000E+00  0.00000000000E+00 -0.62338886827E+03  0.62338886829E+03  0.50400001928E-02 0. -1.
    10030    2    1    2    0    0  0.00000000000E+00  0.00000000000E+00  0.11295239811E+04  0.23763017176E+04  0.20906901802E+04 0.  0.
        1    1    3    3  502    0 -0.73022287131E+03 -0.46970389705E+03  0.12264406862E+04  0.15026656146E+04  0.50400001928E-02 0.  1.
       -1    1    3    3    0  502  0.73022287131E+03  0.46970389705E+03 -0.96916705123E+02  0.87363610298E+03  0.50400001928E-02 0. -1.
</event>
<event>
 5   0  0.4174093E-05  0.2115518E+04  0.7818609E-02  0.8554438E-01
        1   -1    0    0  501    0  0.00000000000E+00  0.00000000000E+00  0.43224432488E+03  0.43224432491E+03  0.50400001928E-02 0. -1.
       -1   -1    0    0    0  501  0.00000000000E+00  0.00000000000E+00 -0.25884753117E+04  0.25884753117E+04  0.50400001928E-02 0.  1.
    10030    2    1    2    0    0  0.00000000000E+00  0.00000000000E+00 -0.21562309868E+04  0.30207196366E+04  0.21155176800E+04 0.  0.
        3    1    3    3  502    0 -0.84527154915E+03 -0.37043078561E+03 -0.34008892773E+03  0.98354636275E+03  0.10100000352E+00 0. -1.
       -3    1    3    3    0  502  0.84527154915E+03  0.37043078561E+03 -0.18161420590E+04  0.20371732738E+04  0.10100000352E+00 0.  1.
</event>
<event>
 5   0  0.8858590E-05  0.2094095E+04  0.7818609E-02  0.8563849E-01
        2   -1    0    0  501    0  0.00000000000E+00  0.00000000000E+00  0.15977525397E+04  0.15977525397E+04  0.25500000920E-02 0. -1.
       -2   -1    0    0    0  501  0.00000000000E+00  0.00000000000E+00 -0.68615650055E+03  0.68615650055E+03  0.25500000920E-02 0.  1.
    10030    2    1    2    0    0  0.00000000000E+00  0.00000000000E+00  0.91159603916E+03  0.22839090403E+04  0.20940948320E+04 0.  0.
        1    1    3    3  502    0 -0.19512263533E+03  0.75704214942E+03 -0.30384268290E+03  0.83875266605E+03  0.50400001928E-02 0.  1.
       -1    1    3    3    0  502  0.19512263533E+03 -0.75704214942E+03  0.12154387221E+04  0.14451563742E+04  0.50400001928E-02 0. -1.
</event>
<event>
 5   0  0.4050368E-05  0.2126862E+04  0.7818609E-02  0.8549502E-01
       -1   -1    0    0    0  501  0.00000000000E+00  0.00000000000E+00  0.17255498000E+04  0.17255498000E+04  0.50400001928E-02 0.  1.
        1   -1    0    0  501    0  0.00000000000E+00  0.00000000000E+00 -0.65537689778E+03  0.65537689780E+03  0.50400001928E-02 0. -1.
    10030    2    1    2    0    0  0.00000000000E+00  0.00000000000E+00  0.10701729022E+04  0.23809266978E+04  0.21268619842E+04 0.  0.
        2    1    3    3  502    0 -0.46464031743E+03  0.95332460597E+03  0.44717502827E+03  0.11509491452E+04  0.25500000920E-02 0. -1.
       -2    1    3    3    0  502  0.46464031743E+03 -0.95332460597E+03  0.62299787391E+03  0.12299775526E+04  0.25500000920E-02 0.  1.
</event>
<event>
 5   0  0.8858590E-05  0.2259834E+04  0.7818609E-02  0.8493928E-01
        2   -1    0    0  501    0  0.00000000000E+00  0.00000000000E+00  0.13809406408E+04  0.13809406408E+04  0.25500000920E-02 0.  1.
       -2   -1    0    0    0  501  0.00000000000E+00  0.00000000000E+00 -0.92452399613E+03  0.92452399613E+03  0.25500000920E-02 0. -1.
    10030    2    1    2    0    0  0.00000000000E+00  0.00000000000E+00  0.45641664471E+03  0.23054646370E+04  0.22598342945E+04 0.  0.
        1    1    3    3  502    0  0.71622222015E+03  0.77871756834E+03 -0.17645878920E+03  0.10726197016E+04  0.50400001928E-02 0. -1.
       -1    1    3    3    0  502 -0.71622222015E+03 -0.77871756834E+03  0.63287543391E+03  0.12328449354E+04  0.50400001928E-02 0.  1.
</event>
<event>
 5   0  0.3176125E-05  0.2073147E+04  0.7818609E-02  0.8573165E-01
       -4   -1    0    0    0  501  0.00000000000E+00  0.00000000000E+00  0.13149114631E+04  0.13149120764E+04  0.12699999809E+01 0.  1.
        4   -1    0    0  501    0  0.00000000000E+00  0.00000000000E+00 -0.81715244798E+03  0.81715343488E+03  0.12699999809E+01 0. -1.
    10030    2    1    2    0    0  0.00000000000E+00  0.00000000000E+00  0.49775901514E+03  0.21320655113E+04  0.20731471987E+04 0.  0.
        2    1    3    3  502    0 -0.46231267298E+03  0.26879149185E+03  0.11620924711E+04  0.12792344528E+04  0.25500000920E-02 0.  1.
       -2    1    3    3    0  502  0.46231267298E+03 -0.26879149185E+03 -0.66433345598E+03  0.85283105855E+03  0.25500000920E-02 0. -1.
</event>
<event>
 5   0  0.9086985E-05  0.2080634E+04  0.7818609E-02  0.8569822E-01
       -2   -1    0    0    0  501  0.00000000000E+00  0.00000000000E+00  0.83856104933E+03  0.83856104934E+03  0.25500000920E-02 0. -1.
        2   -1    0    0  501    0  0.00000000000E+00  0.00000000000E+00 -0.12906153122E+04  0.12906153122E+04  0.25500000920E-02 0.  1.
    10030    2    1    2    0    0  0.00000000000E+00  0.00000000000E+00 -0.45205426285E+03  0.21291763615E+04  0.20806342595E+04 0.  0.
        5    1    3    3  502    0  0.88573419185E+03  0.74209165729E+02  0.32714481139E+03  0.94714195162E+03  0.46999998093E+01 0. -1.
       -5    1    3    3    0  502 -0.88573419185E+03 -0.74209165729E+02 -0.77919907424E+03  0.11820344099E+04  0.46999998093E+01 0.  1.
</event>
<event>
 5   0  0.4128678E-05  0.2034793E+04  0.7818609E-02  0.8590525E-01
        1   -1    0    0  501    0  0.00000000000E+00  0.00000000000E+00  0.83824087461E+03  0.83824087463E+03  0.50400001928E-02 0. -1.
       -1   -1    0    0    0  501  0.00000000000E+00  0.00000000000E+00 -0.12348423475E+04  0.12348423475E+04  0.50400001928E-02 0.  1.
    10030    2    1    2    0    0  0.00000000000E+00  0.00000000000E+00 -0.39660147284E+03  0.20730832221E+04  0.20347926964E+04 0.  0.
        5    1    3    3  502    0 -0.94605227251E+03  0.30525536131E+03  0.22285694848E+02  0.99434122922E+03  0.46999998093E+01 0.  1.
       -5    1    3    3    0  502  0.94605227251E+03 -0.30525536131E+03 -0.41888716769E+03  0.10787419929E+04  0.46999998093E+01 0. -1.
</event>
<event>
 5   0  0.4182977E-05  0.2096576E+04  0.7818609E-02  0.8562753E-01
        1   -1    0    0  501    0  0.00000000000E+00  0.00000000000E+00  0.12067950357E+04  0.12067950358E+04  0.50400001928E-02 0.  1.
       -1   -1    0    0    0  501  0.00000000000E+00  0.00000000000E+00 -0.91059999309E+03  0.91059999311E+03  0.50400001928E-02 0. -1.
    10030    2    1    2    0    0  0.00000000000E+00  0.00000000000E+00  0.29619504265E+03  0.21173950289E+04  0.20965758286E+04 0.  0.
        1    1    3    3  502    0  0.59671752125E+02 -0.11072333909E+03 -0.90295161906E+03  0.91166989761E+03  0.50400001928E-02 0. -1.
       -1    1    3    3    0  502 -0.59671752125E+02  0.11072333909E+03  0.11991466617E+04  0.12057251313E+04  0.50400001928E-02 0.  1.
</event>
<event>
 5   0  0.4174093E-05  0.2072765E+04  0.7818609E-02  0.8573336E-01
       -1   -1    0    0    0  501  0.00000000000E+00  0.00000000000E+00  0.74119906056E+03  0.74119906057E+03  0.50400001928E-02 0.  1.
        1   -1    0    0  501    0  0.00000000000E+00  0.00000000000E+00 -0.14491236781E+04  0.14491236781E+04  0.50400001928E-02 0. -1.
    10030    2    1    2    0    0  0.00000000000E+00  0.00000000000E+00 -0.70792461752E+03  0.21903227387E+04  0.20727654077E+04 0.  0.
        3    1    3    3  502    0  0.85110998026E+03 -0.17513665293E+03  0.24289758370E+03  0.90225289807E+03  0.10100000352E+00 0.  1.
       -3    1    3    3    0  502 -0.85110998026E+03  0.17513665293E+03 -0.95082220122E+03  0.12880698406E+04  0.10100000352E+00 0. -1.
</event>
<event>
 5   0  0.4174093E-05  0.1967016E+04  0.7818609E-02  0.8622199E-01
       -1   -1    0    0    0  501  0.00000000000E+00  0.00000000000E+00  0.73881610900E+03  0.73881610901E+03  0.50400001928E-02 0. -1.
        1   -1    0    0  501    0  0.00000000000E+00  0.00000000000E+00 -0.13092406334E+04  0.13092406334E+04  0.50400001928E-02 0.  1.
    10030    2    1    2    0    0  0.00000000000E+00  0.00000000000E+00 -0.57042452437E+03  0.20480567424E+04  0.19670160859E+04 0.  0.
        3    1    3    3  502    0  0.94159372055E+02 -0.44104581436E+03 -0.11952355719E+04  0.12774879570E+04  0.10100000352E+00 0.  1.
       -3    1    3    3    0  502 -0.94159372055E+02  0.44104581436E+03  0.62481104753E+03  0.77056878540E+03  0.10100000352E+00 0. -1.
</event>
<event>
 5   0  0.8858590E-05  0.2105029E+04  0.7818609E-02  0.8559031E-01
       -2   -1    0    0    0  501  0.00000000000E+00  0.00000000000E+00  0.90988244896E+03  0.90988244896E+03  0.25500000920E-02 0. -1.
        2   -1    0    0  501    0  0.00000000000E+00  0.00000000000E+00 -0.12175049333E+04  0.12175049333E+04  0.25500000920E-02 0.  1.
    10030    2    1    2    0    0  0.00000000000E+00  0.00000000000E+00 -0.30762248433E+03  0.21273873823E+04  0.21050286177E+04 0.  0.
        1    1    3    3  502    0 -0.37554970599E+03  0.67675543072E+03  0.56703254470E+03  0.95945891077E+03  0.50400001928E-02 0. -1.
       -1    1    3    3    0  502  0.37554970599E+03 -0.67675543072E+03 -0.87465502903E+03  0.11679284715E+04  0.50400001928E-02 0.  1.
</event>
<event>
 5   0  0.4200061E-05  0.2098713E+04  0.7818609E-02  0.8561810E-01
       -1   -1    0    0    0  501  0.00000000000E+00  0.00000000000E+00  0.59710588546E+03  0.59710588549E+03  0.50400001928E-02 0. -1.
        1   -1    0    0  501    0  0.00000000000E+00  0.00000000000E+00 -0.18441441662E+04  0.18441441662E+04  0.50400001928E-02 0.  1.
    10030    2    1    2    0    0  0.00000000000E+00  0.00000000000E+00 -0.12470382808E+04  0.24412500517E+04  0.20987132585E+04 0.  0.
        4    1    3    3  502    0  0.36452360838E+03 -0.69031630288E+03 -0.14392072462E+04  0.16372944663E+04  0.12699999809E+01 0.  1.
       -4    1    3    3    0  502 -0.36452360838E+03  0.69031630288E+03  0.19216896544E+03  0.80395558538E+03  0.12699999809E+01 0. -1.
</event>
<event>
 5   0  0.4182977E-05  0.2023987E+04  0.7818609E-02  0.8595488E-01
       -1   -1    0    0    0  501  0.00000000000E+00  0.00000000000E+00  0.55219671439E+03  0.55219671441E+03  0.50400001928E-02 0.  1.
        1   -1    0    0  501    0  0.00000000000E+00  0.00000000000E+00 -0.18546479327E+04  0.18546479328E+04  0.50400001928E-02 0. -1.
    10030    2    1    2    0    0  0.00000000000E+00  0.00000000000E+00 -0.13024512184E+04  0.24068446472E+04  0.20239866549E+04 0.  0.
        1    1    3    3  502    0  0.24458620084E+03  0.70034301059E+03  0.16733466056E+03  0.76046277409E+03  0.50400001928E-02 0.  1.
       -1    1    3    3    0  502 -0.24458620084E+03 -0.70034301059E+03 -0.14697858789E+04  0.16463818731E+04  0.50400001928E-02 0. -1.
</event>
<event>
 5   0  0.9012466E-05  0.2111036E+04  0.7818609E-02  0.8556397E-01
       -2   -1    0    0    0  501  0.00000000000E+00  0.00000000000E+00  0.72802269437E+03  0.72802269437E+03  0.25500000920E-02 0.  1.
        2   -1    0    0  501    0  0.00000000000E+00  0.00000000000E+00 -0.15303352177E+04  0.15303352177E+04  0.25500000920E-02 0. -1.
    10030    2    1    2    0    0  0.00000000000E+00  0.00000000000E+00 -0.80231252337E+03  0.22583579121E+04  0.21110364928E+04 0.  0.
        2    1    3    3  502    0 -0.92993301926E+03  0.49931856541E+03 -0.39588074633E+03  0.11273047571E+04  0.25500000920E-02 0.  1.
       -2    1    3    3    0  502  0.92993301926E+03 -0.49931856541E+03 -0.40643177704E+03  0.11310531550E+04  0.25500000920E-02 0. -1.
</event>
<event>
 5   0  0.4174093E-05  0.2110339E+04  0.7818609E-02  0.8556702E-01
       -1   -1    0    0    0  501  0.00000000000E+00  0.00000000000E+00  0.58127498371E+03  0.58127498373E+03  0.50400001928E-02 0. -1.
        1   -1    0    0  501    0  0.00000000000E+00  0.00000000000E+00 -0.19154151696E+04  0.19154151696E+04  0.50400001928E-02 0.  1.
    10030    2    1    2    0    0  0.00000000000E+00  0.00000000000E+00 -0.13341401859E+04  0.24966901534E+04  0.21103392349E+04 0.  0.
        3    1    3    3  502    0  0.65005299043E+03  0.31127015934E+03  0.24468488898E+03  0.76113645791E+03  0.10100000352E+00 0. -1.
       -3    1    3    3    0  502 -0.65005299043E+03 -0.31127015934E+03 -0.15788250749E+04  0.17355536955E+04  0.10100000352E+00 0.  1.
</event>
<event>
 5   0  0.8872777E-05  0.2094360E+04  0.7818609E-02  0.8563732E-01
       -2   -1    0    0    0  501  0.00000000000E+00  0.00000000000E+00  0.62725842284E+03  0.62725842285E+03  0.25500000920E-02 0. -1.
        2   -1    0    0  501    0  0.00000000000E+00  0.00000000000E+00 -0.17482205500E+04  0.17482205500E+04  0.25500000920E-02 0.  1.
    10030    2    1    2    0    0  0.00000000000E+00  0.00000000000E+00 -0.11209621272E+04  0.23754789729E+04  0.20943601075E+04 0.  0.
        3    1    3    3  502    0 -0.48411442336E+03  0.75651644130E+03 -0.11711777373E+04  0.14759204598E+04  0.10100000352E+00 0.  1.
       -3    1    3    3    0  502  0.48411442336E+03 -0.75651644130E+03  0.50215610146E+02  0.89955851314E+03  0.10100000352E+00 0. -1.
</event>
<event>
 5   0  0.4182977E-05  0.2096290E+04  0.7818609E-02  0.8562880E-01
       -1   -1    0    0    0  501  0.00000000000E+00  0.00000000000E+00  0.81100171858E+03  0.81100171859E+03  0.50400001928E-02 0. -1.
        1   -1    0    0  501    0  0.00000000000E+00  0.00000000000E+00 -0.13546304865E+04  0.13546304865E+04  0.50400001928E-02 0.  1.
    10030    2    1    2    0    0  0.00000000000E+00  0.00000000000E+00 -0.54362876790E+03  0.21656322051E+04  0.20962897248E+04 0.  0.
        1    1    3    3  502    0  0.52658520163E+03 -0.34154296745E+03  0.59539598598E+03  0.86512424156E+03  0.50400001928E-02 0. -1.
       -1    1    3    3    0  502 -0.52658520163E+03  0.34154296745E+03 -0.11390247539E+04  0.13005079635E+04  0.50400001928E-02 0.  1.
</event>
<event>
 5   0  0.9012466E-05  0.2094238E+04  0.7818609E-02  0.8563786E-01
        2   -1    0    0  501    0  0.00000000000E+00  0.00000000000E+00  0.56340590626E+03  0.56340590626E+03  0.25500000920E-02 0. -1.
       -2   -1    0    0    0  501  0.00000000000E+00  0.00000000000E+00 -0.19461251263E+04  0.19461251263E+04  0.25500000920E-02 0.  1.
    10030    2    1    2    0    0  0.00000000000E+00  0.00000000000E+00 -0.13827192201E+04  0.25095310326E+04  0.20942381818E+04 0.  0.
        2    1    3    3  502    0  0.50950742150E+03 -0.28875063533E+03  0.34880820870E+03  0.68164646880E+03  0.25500000920E-02 0. -1.
       -2    1    3    3    0  502 -0.50950742150E+03  0.28875063533E+03 -0.17315274288E+04  0.18278845638E+04  0.25500000920E-02 0.  1.
</event>
<event>
 5   0  0.4050368E-05  0.2103660E+04  0.7818609E-02  0.8559633E-01
       -1   -1    0    0    0  501  0.00000000000E+00  0.00000000000E+00  0.96436607541E+03  0.96436607543E+03  0.50400001928E-02 0.  1.
        1   -1    0    0  501    0  0.00000000000E+00  0.00000000000E+00 -0.11472262495E+04  0.11472262495E+04  0.50400001928E-02 0. -1.
    10030    2    1    2    0    0  0.00000000000E+00  0.00000000000E+00 -0.18286017407E+03  0.21115923249E+04  0.21036597404E+04 0.  0.
        2    1    3    3  502    0 -0.39697238806E+03 -0.96759537151E+03  0.20876557788E+02  0.10460706049E+04  0.25500000920E-02 0. -1.
       -2    1    3    3    0  502  0.39697238806E+03  0.96759537151E+03 -0.20373673186E+03  0.10655217200E+04  0.25500000920E-02 0.  1.
</event>
<event>
 5   0  0.8872777E-05  0.2088105E+04  0.7818609E-02  0.8566501E-01
       -2   -1    0    0    0  501  0.00000000000E+00  0.00000000000E+00  0.20100471009E+04  0.20100471009E+04  0.25500000920E-02 0.  1.
        2   -1    0    0  501    0  0.00000000000E+00  0.00000000000E+00 -0.54229875311E+03  0.54229875312E+03  0.25500000920E-02 0. -1.
    10030    2    1    2    0    0  0.00000000000E+00  0.00000000000E+00  0.14677483478E+04  0.25523458540E+04  0.20881053963E+04 0.  0.
        3    1    3    3  502    0 -0.44459807966E+03 -0.46394179631E+03 -0.27195735769E+03  0.69776088841E+03  0.10100000352E+00 0. -1.
       -3    1    3    3    0  502  0.44459807966E+03  0.46394179631E+03  0.17397057054E+04  0.18545849656E+04  0.10100000352E+00 0.  1.
</event>
<event>
 5   0  0.9086985E-05  0.2108476E+04  0.7818609E-02  0.8557519E-01
       -2   -1    0    0    0  501  0.00000000000E+00  0.00000000000E+00  0.90748439616E+03  0.90748439616E+03  0.25500000920E-02 0. -1.
        2   -1    0    0  501    0  0.00000000000E+00  0.00000000000E+00 -0.12247233408E+04  0.12247233408E+04  0.25500000920E-02 0.  1.
    10030    2    1    2    0    0  0.00000000000E+00  0.00000000000E+00 -0.31723894466E+03  0.21322077370E+04  0.21084755834E+04 0.  0.
        5    1    3    3  502    0 -0.41638177577E+03  0.95809593830E+03 -0.30189558879E+03  0.10874210991E+04  0.46999998093E+01 0. -1.
       -5    1    3    3    0  502  0.41638177577E+03 -0.95809593830E+03 -0.15343355869E+02  0.10447866379E+04  0.46999998093E+01 0.  1.
</event>
<event>
 5   0  0.4050368E-05  0.2112231E+04  0.7818609E-02  0.8555875E-01
       -1   -1    0    0    0  501  0.00000000000E+00  0.00000000000E+00  0.72728815066E+03  0.72728815068E+03  0.50400001928E-02 0. -1.
        1   -1    0    0  501    0  0.00000000000E+00  0.00000000000E+00 -0.15336151787E+04  0.15336151787E+04  0.50400001928E-02 0.  1.
    10030    2    1    2    0    0  0.00000000000E+00  0.00000000000E+00 -0.80632702803E+03  0.22609033294E+04  0.21122311873E+04 0.  0.
        2    1    3    3  502    0 -0.94289124891E+03 -0.35011587759E+03 -0.58380950218E+02  0.10074886453E+04  0.25500000920E-02 0. -1.
       -2    1    3    3    0  502  0.94289124891E+03  0.35011587759E+03 -0.74794607781E+03  0.12534146841E+04  0.25500000920E-02 0.  1.
</event>
<event>
 5   0  0.8872777E-05  0.2117503E+04  0.7818609E-02  0.8553572E-01
       -2   -1    0    0    0  501  0.00000000000E+00  0.00000000000E+00  0.86079161157E+03  0.86079161157E+03  0.25500000920E-02 0.  1.
        2   -1    0    0  501    0  0.00000000000E+00  0.00000000000E+00 -0.13022374100E+04  0.13022374100E+04  0.25500000920E-02 0. -1.
    10030    2    1    2    0    0  0.00000000000E+00  0.00000000000E+00 -0.44144579844E+03  0.21630290216E+04  0.21175032834E+04 0.  0.
        3    1    3    3  502    0 -0.29261721449E+02 -0.35189335854E+03 -0.12403156678E+04  0.12895999961E+04  0.10100000352E+00 0. -1.
       -3    1    3    3    0  502  0.29261721449E+02  0.35189335854E+03  0.79886986934E+03  0.87342902543E+03  0.10100000352E+00 0.  1.
</event>
<event>
 5   0  0.8858590E-05  0.2095550E+04  0.7818609E-02  0.8563206E-01
        2   -1    0    0  501    0  0.00000000000E+00  0.00000000000E+00  0.97440091314E+03  0.97440091315E+03  0.25500000920E-02 0. -1.
       -2   -1    0    0    0  501  0.00000000000E+00  0.00000000000E+00 -0.11266740416E+04  0.11266740416E+04  0.25500000920E-02 0.  1.
    10030    2    1    2    0    0  0.00000000000E+00  0.00000000000E+00 -0.15227312841E+03  0.21010749547E+04  0.20955497750E+04 0.  0.
        1    1    3    3  502    0  0.69187939495E+03 -0.65411974664E+03 -0.51462530907E+03  0.10823164735E+04  0.50400001928E-02 0.  1.
       -1    1    3    3    0  502 -0.69187939495E+03  0.65411974664E+03  0.36235218066E+03  0.10187584812E+04  0.50400001928E-02 0. -1.
</event>
<event>
 5   0  0.4128678E-05  0.2064363E+04  0.7818609E-02  0.8577106E-01
        1   -1    0    0  501    0  0.00000000000E+00  0.00000000000E+00  0.10743084096E+04  0.10743084096E+04  0.50400001928E-02 0.  1.
       -1   -1    0    0    0  501  0.00000000000E+00  0.00000000000E+00 -0.99170699414E+03  0.99170699415E+03  0.50400001928E-02 0. -1.
    10030    2    1    2    0    0  0.00000000000E+00  0.00000000000E+00  0.82601415489E+02  0.20660154038E+04  0.20643634987E+04 0.  0.
        5    1    3    3  502    0 -0.14027861350E+03 -0.88924920547E+03 -0.46401404187E+03  0.10128046998E+04  0.46999998093E+01 0. -1.
       -5    1    3    3    0  502  0.14027861350E+03  0.88924920547E+03  0.54661545736E+03  0.10532107040E+04  0.46999998093E+01 0.  1.
</event>
<event>
 5   0  0.8872777E-05  0.2090846E+04  0.7818609E-02  0.8565286E-01
       -2   -1    0    0    0  501  0.00000000000E+00  0.00000000000E+00  0.65132208813E+03  0.65132208813E+03  0.25500000920E-02 0. -1.
        2   -1    0    0  501    0  0.00000000000E+00  0.00000000000E+00 -0.16779862112E+04  0.16779862112E+04  0.25500000920E-02 0.  1.
    10030    2    1    2    0    0  0.00000000000E+00  0.00000000000E+00 -0.10266641230E+04  0.23293082993E+04  0.20908462238E+04 0.  0.
        3    1    3    3  502    0 -0.58175330970E+03  0.86696151197E+03 -0.57280917355E+03  0.11908692355E+04  0.10100000352E+00 0. -1.
       -3    1    3    3    0  502  0.58175330970E+03 -0.86696151197E+03 -0.45385494948E+03  0.11384390638E+04  0.10100000352E+00 0.  1.
</event>
<event>
 5   0  0.4200061E-05  0.2045409E+04  0.7818609E-02  0.8585680E-01
        1   -1    0    0  501    0  0.00000000000E+00  0.00000000000E+00  0.15016135923E+04  0.15016135923E+04  0.50400001928E-02 0.  1.
       -1   -1    0    0    0  501  0.00000000000E+00  0.00000000000E+00 -0.69653404759E+03  0.69653404761E+03  0.50400001928E-02 0. -1.
    10030    2    1    2    0    0  0.00000000000E+00  0.00000000000E+00  0.80507954474E+03  0.21981476400E+04  0.20454094880E+04 0.  0.
        4    1    3    3  502    0  0.33749553121E+03 -0.11210473033E+03  0.14330238440E+04  0.14764923483E+04  0.12699999809E+01 0.  1.
       -4    1    3    3    0  502 -0.33749553121E+03  0.11210473033E+03 -0.62794429925E+03  0.72165529168E+03  0.12699999809E+01 0. -1.
</event>
<event>
 5   0  0.4182977E-05  0.2087310E+04  0.7818609E-02  0.8566854E-01
       -1   -1    0    0    0  501  0.00000000000E+00  0.00000000000E+00  0.14433137267E+04  0.14433137267E+04  0.50400001928E-02 0.  1.
        1   -1    0    0  501    0  0.00000000000E+00  0.00000000000E+00 -0.75466350834E+03  0.75466350835E+03  0.50400001928E-02 0. -1.
    10030    2    1    2    0    0  0.00000000000E+00  0.00000000000E+00  0.68865021833E+03  0.21979772350E+04  0.20873104231E+04 0.  0.
        1    1    3    3  502    0  0.54900653206E+03 -0.28304944430E+03 -0.54152041848E+03  0.82144356095E+03  0.50400001928E-02 0. -1.
       -1    1    3    3    0  502 -0.54900653206E+03  0.28304944430E+03  0.12301706368E+04  0.13765336741E+04  0.50400001928E-02 0.  1.
</event>
<event>
 5   0  0.4174093E-05  0.2056342E+04  0.7818609E-02  0.8580723E-01
       -1   -1    0    0    0  501  0.00000000000E+00  0.00000000000E+00  0.11547326333E+04  0.11547326333E+04  0.50400001928E-02 0.  1.
        1   -1    0    0  501    0  0.00000000000E+00  0.00000000000E+00 -0.91548123850E+03  0.91548123851E+03  0.50400001928E-02 0. -1.
    10030    2    1    2    0    0  0.00000000000E+00  0.00000000000E+00  0.23925139483E+03  0.20702138718E+04  0.20563424436E+04 0.  0.
        3    1    3    3  502    0  0.65160563183E+02 -0.58312953747E+02  0.11509823535E+04  0.11542992193E+04  0.10100000352E+00 0.  1.
       -3    1    3    3    0  502 -0.65160563183E+02  0.58312953747E+02 -0.91173095863E+03  0.91591465252E+03  0.10100000352E+00 0. -1.
</event>
<event>
 5   0  0.8547605E-05  0.2094768E+04  0.7818609E-02  0.8563552E-01
        2   -1    0    0  501    0  0.00000000000E+00  0.00000000000E+00  0.10420405050E+04  0.10420405050E+04  0.25500000920E-02 0. -1.
       -2   -1    0    0    0  501  0.00000000000E+00  0.00000000000E+00 -0.10527543995E+04  0.10527543995E+04  0.25500000920E-02 0.  1.
    10030    2    1    2    0    0  0.00000000000E+00  0.00000000000E+00 -0.10713894559E+02  0.20947949045E+04  0.20947675061E+04 0.  0.
        4    1    3    3  502    0  0.84346646677E+03  0.49136209668E+03  0.37430407672E+03  0.10454556640E+04  0.12699999809E+01 0. -1.
       -4    1    3    3    0  502 -0.84346646677E+03 -0.49136209668E+03 -0.38501797128E+03  0.10493392405E+04  0.12699999809E+01 0.  1.
</event>
<event>
 5   0  0.8547605E-05  0.1973547E+04  0.7818609E-02  0.8619089E-01
        2   -1    0    0  501    0  0.00000000000E+00  0.00000000000E+00  0.12415664376E+04  0.12415664376E+04  0.25500000920E-02 0.  1.
       -2   -1    0    0    0  501  0.00000000000E+00  0.00000000000E+00 -0.78426868755E+03  0.78426868755E+03  0.25500000920E-02 0. -1.
    10030    2    1    2    0    0  0.00000000000E+00  0.00000000000E+00  0.45729775002E+03  0.20258351251E+04  0.19735467367E+04 0.  0.
        4    1    3    3  502    0 -0.30494215065E+03  0.40403514343E+03  0.10981364562E+04  0.12091895640E+04  0.12699999809E+01 0.  1.
       -4    1    3    3    0  502  0.30494215065E+03 -0.40403514343E+03 -0.64083870613E+03  0.81664556115E+03  0.12699999809E+01 0. -1.
</event>
<event>
 5   0  0.3176125E-05  0.2078156E+04  0.7818609E-02  0.8570928E-01
       -4   -1    0    0    0  501  0.00000000000E+00  0.00000000000E+00  0.11370015559E+04  0.11370022652E+04  0.12699999809E+01 0. -1.
        4   -1    0    0  501    0  0.00000000000E+00  0.00000000000E+00 -0.94958621046E+03  0.94958705973E+03  0.12699999809E+01 0.  1.
    10030    2    1    2    0    0  0.00000000000E+00  0.00000000000E+00  0.18741534542E+03  0.20865893249E+04  0.20781555522E+04 0.  0.
        5    1    3    3  502    0 -0.33651606036E+03 -0.72388082748E+03 -0.57413377933E+03  0.98330981783E+03  0.46999998093E+01 0.  1.
       -5    1    3    3    0  502  0.33651606036E+03  0.72388082748E+03  0.76154912475E+03  0.11032795071E+04  0.46999998093E+01 0. -1.
</event>
<event>
 5   0  0.4174093E-05  0.2114038E+04  0.7818609E-02  0.8555085E-01
       -1   -1    0    0    0  501  0.00000000000E+00  0.00000000000E+00  0.73323460621E+03  0.73323460623E+03  0.50400001928E-02 0. -1.
        1   -1    0    0  501    0  0.00000000000E+00  0.00000000000E+00 -0.15237814039E+04  0.15237814040E+04  0.50400001928E-02 0.  1.
    10030    2    1    2    0    0  0.00000000000E+00  0.00000000000E+00 -0.79054679774E+03  0.22570160102E+04  0.21140380864E+04 0.  0.
        3    1    3    3  502    0 -0.61306708116E+03  0.37461353519E+01 -0.13145689178E+04  0.14505022335E+04  0.10100000352E+00 0.  1.
       -3    1    3    3    0  502  0.61306708116E+03 -0.37461353519E+01  0.52402212004E+03  0.80651377671E+03  0.10100000352E+00 0. -1.
</event>
<event>
 5   0  0.4128678E-05  0.2070639E+04  0.7818609E-02  0.8574288E-01
        1   -1    0    0  501    0  0.00000000000E+00  0.00000000000E+00  0.24685786133E+04  0.24685786133E+04  0.50400001928E-02 0.  1.
       -1   -1    0    0    0  501  0.00000000000E+00  0.00000000000E+00 -0.43421211380E+03  0.43421211382E+03  0.50400001928E-02 0. -1.
    10030    2    1    2    0    0  0.00000000000E+00  0.00000000000E+00  0.20343664995E+04  0.29027907271E+04  0.20706392615E+04 0.  0.
        5    1    3    3  502    0  0.81166833486E+03 -0.54815960348E+03  0.14875561709E+04  0.17810474133E+04  0.46999998093E+01 0.  1.
       -5    1    3    3    0  502 -0.81166833486E+03  0.54815960348E+03  0.54681032857E+03  0.11217433138E+04  0.46999998093E+01 0. -1.
</event>
<event>
 5   0  0.9012466E-05  0.2108931E+04  0.7818609E-02  0.8557319E-01
       -2   -1    0    0    0  501  0.00000000000E+00  0.00000000000E+00  0.10607341198E+04  0.10607341198E+04  0.25500000920E-02 0. -1.
        2   -1    0    0  501    0  0.00000000000E+00  0.00000000000E+00 -0.10482338243E+04  0.10482338243E+04  0.25500000920E-02 0.  1.
    10030    2    1    2    0    0  0.00000000000E+00  0.00000000000E+00  0.12500295560E+02  0.21089679441E+04  0.21089308978E+04 0.  0.
        2    1    3    3  502    0 -0.68630756967E+03  0.37022654230E+03  0.71605949582E+03  0.10586911610E+04  0.25500000920E-02 0. -1.
       -2    1    3    3    0  502  0.68630756967E+03 -0.37022654230E+03 -0.70355920026E+03  0.10502767831E+04  0.25500000920E-02 0.  1.
</event>
<event>
 5   0  0.8872777E-05  0.2146849E+04  0.7818609E-02  0.8540882E-01
        2   -1    0    0  501    0  0.00000000000E+00  0.00000000000E+00  0.12337320715E+04  0.12337320716E+04  0.25500000920E-02 0.  1.
       -2   -1    0    0    0  501  0.00000000000E+00  0.00000000000E+00 -0.93394725204E+03  0.93394725204E+03  0.25500000920E-02 0. -1.
    10030    2    1    2    0    0  0.00000000000E+00  0.00000000000E+00  0.29978481951E+03  0.21676793236E+04  0.21468494852E+04 0.  0.
        3    1    3    3  502    0  0.48597599309E+03  0.65687180455E+03  0.85276970066E+03  0.11810458950E+04  0.10100000352E+00 0.  1.
       -3    1    3    3    0  502 -0.48597599309E+03 -0.65687180455E+03 -0.55298488115E+03  0.98663342862E+03  0.10100000352E+00 0. -1.
</event>
<event>
 5   0  0.8858590E-05  0.2112307E+04  0.7818609E-02  0.8555841E-01
       -2   -1    0    0    0  501  0.00000000000E+00  0.00000000000E+00  0.72124583565E+03  0.72124583566E+03  0.25500000920E-02 0. -1.
        2   -1    0    0  501    0  0.00000000000E+00  0.00000000000E+00 -0.15465738093E+04  0.15465738093E+04  0.25500000920E-02 0.  1.
    10030    2    1    2    0    0  0.00000000000E+00  0.00000000000E+00 -0.82532797365E+03  0.22678196450E+04  0.21123067197E+04 0.  0.
        1    1    3    3  502    0  0.56470072691E+03  0.79951948758E+03  0.13202348020E+02  0.97892421771E+03  0.50400001928E-02 0. -1.
       -1    1    3    3    0  502 -0.56470072691E+03 -0.79951948758E+03 -0.83853032167E+03  0.12888954272E+04  0.50400001928E-02 0.  1.
</event>
<event>
 5   0  0.9012466E-05  0.1992171E+04  0.7818609E-02  0.8610290E-01
        2   -1    0    0  501    0  0.00000000000E+00  0.00000000000E+00  0.58548003962E+03  0.58548003962E+03  0.25500000920E-02 0.  1.
       -2   -1    0    0    0  501  0.00000000000E+00  0.00000000000E+00 -0.16946549439E+04  0.16946549439E+04  0.25500000920E-02 0. -1.
    10030    2    1    2    0    0  0.00000000000E+00  0.00000000000E+00 -0.11091749043E+04  0.22801349835E+04  0.19921713217E+04 0.  0.
        2    1    3    3  502    0  0.73152546949E+03 -0.56628640681E+03 -0.97726013478E+03  0.13456772191E+04  0.25500000920E-02 0. -1.
       -2    1    3    3    0  502 -0.73152546949E+03  0.56628640681E+03 -0.13191476952E+03  0.93445776441E+03  0.25500000920E-02 0.  1.
</event>
<event>
 5   0  0.8872777E-05  0.2094191E+04  0.7818609E-02  0.8563807E-01
        2   -1    0    0  501    0  0.00000000000E+00  0.00000000000E+00  0.90144600132E+03  0.90144600133E+03  0.25500000920E-02 0. -1.
       -2   -1    0    0    0  501  0.00000000000E+00  0.00000000000E+00 -0.12162779302E+04  0.12162779302E+04  0.25500000920E-02 0.  1.
    10030    2    1    2    0    0  0.00000000000E+00  0.00000000000E+00 -0.31483192885E+03  0.21177239315E+04  0.20941908955E+04 0.  0.
        3    1    3    3  502    0 -0.52036785977E+03  0.58227786566E+03 -0.86280645273E+03  0.11637290094E+04  0.10100000352E+00 0.  1.
       -3    1    3    3    0  502  0.52036785977E+03 -0.58227786566E+03  0.54797452388E+03  0.95399492207E+03  0.10100000352E+00 0. -1.
</event>
<event>
 5   0  0.4174093E-05  0.2093035E+04  0.7818609E-02  0.8564318E-01
        1   -1    0    0  501    0  0.00000000000E+00  0.00000000000E+00  0.14090712551E+04  0.14090712551E+04  0.50400001928E-02 0.  1.
       -1   -1    0    0    0  501  0.00000000000E+00  0.00000000000E+00 -0.77724854341E+03  0.77724854343E+03  0.50400001928E-02 0. -1.
    10030    2    1    2    0    0  0.00000000000E+00  0.00000000000E+00  0.63182271169E+03  0.21863197985E+04  0.20930347160E+04 0.  0.
        3    1    3    3  502    0  0.73731446428E+03  0.15439603476E+02 -0.45969634249E+03  0.86901768572E+03  0.10100000352E+00 0. -1.
       -3    1    3    3    0  502 -0.73731446428E+03 -0.15439603476E+02  0.10915190542E+04  0.13173021128E+04  0.10100000352E+00 0.  1.
</event>
<event>
 5   0  0.9086985E-05  0.2184794E+04  0.7818609E-02  0.8524784E-01
        2   -1    0    0  501    0  0.00000000000E+00  0.00000000000E+00  0.85331731828E+03  0.85331731828E+03  0.25500000920E-02 0. -1.
       -2   -1    0    0    0  501  0.00000000000E+00  0.00000000000E+00 -0.13984609202E+04  0.13984609202E+04  0.25500000920E-02 0.  1.
    10030    2    1    2    0    0  0.00000000000E+00  0.00000000000E+00 -0.54514360191E+03  0.22517782385E+04  0.21847937405E+04 0.  0.
        5    1    3    3  502    0 -0.12795507611E+03 -0.16204145654E+03 -0.13781570842E+04  0.13935454689E+04  0.46999998093E+01 0.  1.
       -5    1    3    3    0  502  0.12795507611E+03  0.16204145654E+03  0.83301348228E+03  0.85823276959E+03  0.46999998093E+01 0. -1.
</event>
<event>
 5   0  0.4128678E-05  0.2113794E+04  0.7818609E-02  0.8555191E-01
        1   -1    0    0  501    0  0.00000000000E+00  0.00000000000E+00  0.14805271675E+04  0.14805271675E+04  0.50400001928E-02 0.  1.
       -1   -1    0    0    0  501  0.00000000000E+00  0.00000000000E+00 -0.75448228108E+03  0.75448228110E+03  0.50400001928E-02 0. -1.
    10030    2    1    2    0    0  0.00000000000E+00  0.00000000000E+00  0.72604488646E+03  0.22350094486E+04  0.21137942327E+04 0.  0.
        5    1    3    3  502    0  0.23520494127E+03  0.97515669289E+03  0.11135464349E+02  0.10031939138E+04  0.46999998093E+01 0.  1.
       -5    1    3    3    0  502 -0.23520494127E+03 -0.97515669289E+03  0.71490942211E+03  0.12318155349E+04  0.46999998093E+01 0. -1.
</event>
<event>
 5   0  0.4174093E-05  0.2084480E+04  0.7818609E-02  0.8568111E-01
       -1   -1    0    0    0  501  0.00000000000E+00  0.00000000000E+00  0.72972139997E+03  0.72972139999E+03  0.50400001928E-02 0.  1.
        1   -1    0    0  501    0  0.00000000000E+00  0.00000000000E+00 -0.14886007698E+04  0.14886007698E+04  0.50400001928E-02 0. -1.
    10030    2    1    2    0    0  0.00000000000E+00  0.00000000000E+00 -0.75887936980E+03  0.22183221698E+04  0.20844796355E+04 0.  0.
        3    1    3    3  502    0 -0.62554609763E+03  0.81929308380E+03 -0.54332356562E+03  0.11652251218E+04  0.10100000352E+00 0. -1.
       -3    1    3    3    0  502  0.62554609763E+03 -0.81929308380E+03 -0.21555580418E+03  0.10530970479E+04  0.10100000352E+00 0.  1.
</event>
<event>
 5   0  0.8872777E-05  0.2070751E+04  0.7818609E-02  0.8574239E-01
        2   -1    0    0  501    0  0.00000000000E+00  0.00000000000E+00  0.11712320700E+04  0.11712320700E+04  0.25500000920E-02 0.  1.
       -2   -1    0    0    0  501  0.00000000000E+00  0.00000000000E+00 -0.91527718240E+03  0.91527718241E+03  0.25500000920E-02 0. -1.
    10030    2    1    2    0    0  0.00000000000E+00  0.00000000000E+00  0.25595488759E+03  0.20865092524E+04  0.20707505779E+04 0.  0.
        3    1    3    3  502    0  0.99050842595E+03 -0.32160450016E+02  0.43002652894E+03  0.10803073925E+04  0.10100000352E+00 0.  1.
       -3    1    3    3    0  502 -0.99050842595E+03  0.32160450016E+02 -0.17407164135E+03  0.10062018599E+04  0.10100000352E+00 0. -1.
</event>
<event>
 5   0  0.4182977E-05  0.2105216E+04  0.7818609E-02  0.8558949E-01
        1   -1    0    0  501    0  0.00000000000E+00  0.00000000000E+00  0.12725741245E+04  0.12725741246E+04  0.50400001928E-02 0. -1.
       -1   -1    0    0    0  501  0.00000000000E+00  0.00000000000E+00 -0.87066360940E+03  0.87066360941E+03  0.50400001928E-02 0.  1.
    10030    2    1    2    0    0  0.00000000000E+00  0.00000000000E+00  0.40191051515E+03  0.21432377340E+04  0.21052163599E+04 0.  0.
        1    1    3    3  502    0 -0.83741090166E+03  0.61622179875E+03  0.36823241831E+03  0.11029875056E+04  0.50400001928E-02 0.  1.
       -1    1    3    3    0  502  0.83741090166E+03 -0.61622179875E+03  0.33678096838E+02  0.10402502284E+04  0.50400001928E-02 0. -1.
</event>
<event>
 5   0  0.4174093E-05  0.2111899E+04  0.7818609E-02  0.8556020E-01
       -1   -1    0    0    0  501  0.00000000000E+00  0.00000000000E+00  0.12598802726E+04  0.12598802726E+04  0.50400001928E-02 0. -1.
        1   -1    0    0  501    0  0.00000000000E+00  0.00000000000E+00 -0.88502775221E+03  0.88502775223E+03  0.50400001928E-02 0.  1.
    10030    2    1    2    0    0  0.00000000000E+00  0.00000000000E+00  0.37485252039E+03  0.21449080248E+04  0.21118986773E+04 0.  0.
        3    1    3    3  502    0  0.60766343460E+03 -0.35582936087E+03 -0.61173956808E+03  0.93278866479E+03  0.10100000352E+00 0.  1.
       -3    1    3    3    0  502 -0.60766343460E+03  0.35582936087E+03  0.98659208847E+03  0.12121193601E+04  0.10100000352E+00 0. -1.
</event>
<event>
 5   0  0.4050368E-05  0.2097423E+04  0.7818609E-02  0.8562380E-01
        1   -1    0    0  501    0  0.00000000000E+00  0.00000000000E+00  0.13655495165E+04  0.13655495165E+04  0.50400001928E-02 0. -1.
       -1   -1    0    0    0  501  0.00000000000E+00  0.00000000000E+00 -0.80538668478E+03  0.80538668479E+03  0.50400001928E-02 0.  1.
    10030    2    1    2    0    0  0.00000000000E+00  0.00000000000E+00  0.56016283172E+03  0.21709362013E+04  0.20974226069E+04 0.  0.
        2    1    3    3  502    0 -0.26880100151E+03 -0.75078045905E+03  0.98503304122E+03  0.12673655228E+04  0.25500000920E-02 0. -1.
       -2    1    3    3    0  502  0.26880100151E+03  0.75078045905E+03 -0.42487020951E+03  0.90357067849E+03  0.25500000920E-02 0.  1.
</event>
<event>
 5   0  0.4128678E-05  0.2115657E+04  0.7818609E-02  0.8554377E-01
        1   -1    0    0  501    0  0.00000000000E+00  0.00000000000E+00  0.16467020300E+04  0.16467020300E+04  0.50400001928E-02 0.  1.
       -1   -1    0    0    0  501  0.00000000000E+00  0.00000000000E+00 -0.67954086450E+03  0.67954086452E+03  0.50400001928E-02 0. -1.
    10030    2    1    2    0    0  0.00000000000E+00  0.00000000000E+00  0.96716116553E+03  0.23262428946E+04  0.21156571755E+04 0.  0.
        5    1    3    3  502    0 -0.18821407816E+02  0.76338981142E+02  0.16434732553E+04  0.16453596313E+04  0.46999998093E+01 0.  1.
       -5    1    3    3    0  502  0.18821407816E+02 -0.76338981142E+02 -0.67631208976E+03  0.68088326326E+03  0.46999998093E+01 0. -1.
</event>
<event>
 5   0  0.8547605E-05  0.2102503E+04  0.7818609E-02  0.8560142E-01
       -2   -1    0    0    0  501  0.00000000000E+00  0.00000000000E+00  0.10420769706E+04  0.10420769706E+04  0.25500000920E-02 0.  1.
        2   -1    0    0  501    0  0.00000000000E+00  0.00000000000E+00 -0.10605065856E+04  0.10605065856E+04  0.25500000920E-02 0. -1.
    10030    2    1    2    0    0  0.00000000000E+00  0.00000000000E+00 -0.18429614916E+02  0.21025835562E+04  0.21025027848E+04 0.  0.
        4    1    3    3  502    0  0.64354903908E+03 -0.18582154003E+03  0.80102793674E+03  0.10441898193E+04  0.12699999809E+01 0.  1.
       -4    1    3    3    0  502 -0.64354903908E+03  0.18582154003E+03 -0.81945755165E+03  0.10583937369E+04  0.12699999809E+01 0. -1.
</event>
<event>
 5   0  0.8858590E-05  0.1957765E+04  0.7818609E-02  0.8626625E-01
        2   -1    0    0  501    0  0.00000000000E+00  0.00000000000E+00  0.13086308072E+04  0.13086308072E+04  0.25500000920E-02 0. -1.
       -2   -1    0    0    0  501  0.00000000000E+00  0.00000000000E+00 -0.73222426182E+03  0.73222426183E+03  0.25500000920E-02 0.  1.
    10030    2    1    2    0    0  0.00000000000E+00  0.00000000000E+00  0.57640654539E+03  0.20408550690E+04  0.19577652840E+04 0.  0.
        1    1    3    3  502    0 -0.79746222434E+03 -0.56756532022E+03  0.30030793185E+03  0.10238463000E+04  0.50400001928E-02 0. -1.
       -1    1    3    3    0  502  0.79746222434E+03  0.56756532022E+03  0.27609861353E+03  0.10170087691E+04  0.50400001928E-02 0.  1.
</event>
<event>
 5   0  0.4200061E-05  0.2102822E+04  0.7818609E-02  0.8560001E-01
       -1   -1    0    0    0  501  0.00000000000E+00  0.00000000000E+00  0.82673886825E+03  0.82673886827E+03  0.50400001928E-02 0. -1.
        1   -1    0    0  501    0  0.00000000000E+00  0.00000000000E+00 -0.13371387993E+04  0.13371387993E+04  0.50400001928E-02 0.  1.
    10030    2    1    2    0    0  0.00000000000E+00  0.00000000000E+00 -0.51039993108E+03  0.21638776676E+04  0.21028215499E+04 0.  0.
        4    1    3    3  502    0  0.15600895270E+03  0.27774861466E+03 -0.12862810005E+04  0.13251428268E+04  0.12699999809E+01 0.  1.
       -4    1    3    3    0  502 -0.15600895270E+03 -0.27774861466E+03  0.77588106946E+03  0.83873484077E+03  0.12699999809E+01 0. -1.
</event>
<event>
 5   0  0.9012466E-05  0.2101004E+04  0.7818609E-02  0.8560801E-01
       -2   -1    0    0    0  501  0.00000000000E+00  0.00000000000E+00  0.16774532391E+04  0.16774532391E+04  0.25500000920E-02 0. -1.
        2   -1    0    0  501    0  0.00000000000E+00  0.00000000000E+00 -0.65787508461E+03  0.65787508462E+03  0.25500000920E-02 0.  1.
    10030    2    1    2    0    0  0.00000000000E+00  0.00000000000E+00  0.10195781545E+04  0.23353283237E+04  0.21010042281E+04 0.  0.
        2    1    3    3  502    0 -0.50705540046E+03  0.66098413814E+03  0.12211241307E+04  0.14782250683E+04  0.25500000920E-02 0. -1.
       -2    1    3    3    0  502  0.50705540046E+03 -0.66098413814E+03 -0.20154597615E+03  0.85710325546E+03  0.25500000920E-02 0.  1.
</event>
<event>
 5   0  0.4128678E-05  0.2084952E+04  0.7818609E-02  0.8567901E-01
        1   -1    0    0  501    0  0.00000000000E+00  0.00000000000E+00  0.14966821152E+04  0.14966821153E+04  0.50400001928E-02 0. -1.
       -1   -1    0    0    0  501  0.00000000000E+00  0.00000000000E+00 -0.72611006282E+03  0.72611006284E+03  0.50400001928E-02 0.  1.
    10030    2    1    2    0    0  0.00000000000E+00  0.00000000000E+00  0.77057205243E+03  0.22227921781E+04  0.20849517450E+04 0.  0.
        5    1    3    3  502    0 -0.38287984656E+03 -0.95593887227E+03  0.55823868124E+03  0.11713533283E+04  0.46999998093E+01 0.  1.
       -5    1    3    3    0  502  0.38287984656E+03  0.95593887227E+03  0.21233337118E+03  0.10514388498E+04  0.46999998093E+01 0. -1.
</event>
<event>
 5   0  0.9012466E-05  0.2068185E+04  0.7818609E-02  0.8575389E-01
        2   -1    0    0  501    0  0.00000000000E+00  0.00000000000E+00  0.56743704947E+03  0.56743704948E+03  0.25500000920E-02 0. -1.
       -2   -1    0    0    0  501  0.00000000000E+00  0.00000000000E+00 -0.18845209757E+04  0.18845209757E+04  0.25500000920E-02 0.  1.
    10030    2    1    2    0    0  0.00000000000E+00  0.00000000000E+00 -0.13170839262E+04  0.24519580251E+04  0.20681847327E+04 0.  0.
        2    1    3    3  502    0 -0.86228880271E+03 -0.28814633266E+03 -0.74388123555E+02  0.91219728197E+03  0.25500000920E-02 0.  1.
       -2    1    3    3    0  502  0.86228880271E+03  0.28814633266E+03 -0.12426958026E+04  0.15397607432E+04  0.25500000920E-02 0. -1.
</event>
<event>
 5   0  0.4200061E-05  0.2107499E+04  0.7818609E-02  0.8557947E-01
        1   -1    0    0  501    0  0.00000000000E+00  0.00000000000E+00  0.14436158357E+04  0.14436158357E+04  0.50400001928E-02 0.  1.
       -1   -1    0    0    0  501  0.00000000000E+00  0.00000000000E+00 -0.76917109226E+03  0.76917109227E+03  0.50400001928E-02 0. -1.
    10030    2    1    2    0    0  0.00000000000E+00  0.00000000000E+00  0.67444474346E+03  0.22127869280E+04  0.21074985829E+04 0.  0.
        4    1    3    3  502    0 -0.33583974144E+03  0.59853551722E+03  0.11767647276E+04  0.13622811510E+04  0.12699999809E+01 0.  1.
       -4    1    3    3    0  502  0.33583974144E+03 -0.59853551722E+03 -0.50231998417E+03  0.85050577699E+03  0.12699999809E+01 0. -1.
</event>
<event>
 5   0  0.4050368E-05  0.2231673E+04  0.7818609E-02  0.8505359E-01
        1   -1    0    0  501    0  0.00000000000E+00  0.00000000000E+00  0.17753125357E+04  0.17753125357E+04  0.50400001928E-02 0. -1.
       -1   -1    0    0    0  501  0.00000000000E+00  0.00000000000E+00 -0.70133658428E+03  0.70133658430E+03  0.50400001928E-02 0.  1.
    10030    2    1    2    0    0  0.00000000000E+00  0.00000000000E+00  0.10739759514E+04  0.24766491200E+04  0.22316734795E+04 0.  0.
        2    1    3    3  502    0  0.81048697339E+03  0.70383131575E+03  0.19887338664E+03  0.10917043002E+04  0.25500000920E-02 0.  1.
       -2    1    3    3    0  502 -0.81048697339E+03 -0.70383131575E+03  0.87510256475E+03  0.13849448198E+04  0.25500000920E-02 0. -1.
</event>
<event>
 5   0  0.4050368E-05  0.2097818E+04  0.7818609E-02  0.8562205E-01
       -1   -1    0    0    0  501  0.00000000000E+00  0.00000000000E+00  0.55106562303E+03  0.55106562306E+03  0.50400001928E-02 0. -1.
        1   -1    0    0  501    0  0.00000000000E+00  0.00000000000E+00 -0.19965142393E+04  0.19965142393E+04  0.50400001928E-02 0.  1.
    10030    2    1    2    0    0  0.00000000000E+00  0.00000000000E+00 -0.14454486162E+04  0.25475798623E+04  0.20978182602E+04 0.  0.
        2    1    3    3  502    0  0.32810359206E+03  0.76954864980E+03  0.45665572741E+02  0.83782004993E+03  0.25500000920E-02 0. -1.
       -2    1    3    3    0  502 -0.32810359206E+03 -0.76954864980E+03 -0.14911141890E+04  0.17097598124E+04  0.25500000920E-02 0.  1.
</event>
<event>
 5   0  0.9012466E-05  0.2063709E+04  0.7818609E-02  0.8577401E-01
        2   -1    0    0  501    0  0.00000000000E+00  0.00000000000E+00  0.80424703039E+03  0.80424703039E+03  0.25500000920E-02 0. -1.
       -2   -1    0    0    0  501  0.00000000000E+00  0.00000000000E+00 -0.13238761543E+04  0.13238761543E+04  0.25500000920E-02 0.  1.
    10030    2    1    2    0    0  0.00000000000E+00  0.00000000000E+00 -0.51962912392E+03  0.21281231847E+04  0.20637087641E+04 0.  0.
        2    1    3    3  502    0 -0.20911523509E+03  0.10039771620E+04 -0.14212907133E+03  0.10353260338E+04  0.25500000920E-02 0. -1.
       -2    1    3    3    0  502  0.20911523509E+03 -0.10039771620E+04 -0.37750005259E+03  0.10927971509E+04  0.25500000920E-02 0.  1.
</event>
<event>
 5   0  0.4128678E-05  0.2102666E+04  0.7818609E-02  0.8560070E-01
       -1   -1    0    0    0  501  0.00000000000E+00  0.00000000000E+00  0.75398489222E+03  0.75398489224E+03  0.50400001928E-02 0.  1.
        1   -1    0    0  501    0  0.00000000000E+00  0.00000000000E+00 -0.14659463032E+04  0.14659463032E+04  0.50400001928E-02 0. -1.
    10030    2    1    2    0    0  0.00000000000E+00  0.00000000000E+00 -0.71196141098E+03  0.22199311954E+04  0.21026662745E+04 0.  0.
        5    1    3    3  502    0 -0.33429428084E+03 -0.57700907016E+03 -0.12140734371E+04  0.13851673306E+04  0.46999998093E+01 0. -1.
       -5    1    3    3    0  502  0.33429428084E+03  0.57700907016E+03  0.50211202610E+03  0.83476386481E+03  0.46999998093E+01 0.  1.
</event>
<event>
 5   0  0.9086985E-05  0.2059183E+04  0.7818609E-02  0.8579440E-01
        2   -1    0    0  501    0  0.00000000000E+00  0.00000000000E+00  0.14681990470E+04  0.14681990470E+04  0.25500000920E-02 0. -1.
       -2   -1    0    0    0  501  0.00000000000E+00  0.00000000000E+00 -0.72201304645E+03  0.72201304646E+03  0.25500000920E-02 0.  1.
    10030    2    1    2    0    0  0.00000000000E+00  0.00000000000E+00  0.74618600056E+03  0.21902120935E+04  0.20591832038E+04 0.  0.
        5    1    3    3  502    0 -0.45000786570E+03 -0.80162052023E+03  0.86620320209E+03  0.12631043563E+04  0.46999998093E+01 0. -1.
       -5    1    3    3    0  502  0.45000786570E+03  0.80162052023E+03 -0.12001720153E+03  0.92710773716E+03  0.46999998093E+01 0.  1.
</event>
<event>
 5   0  0.9086985E-05  0.2135295E+04  0.7818609E-02  0.8545853E-01
        2   -1    0    0  501    0  0.00000000000E+00  0.00000000000E+00  0.13375449170E+04  0.13375449170E+04  0.25500000920E-02 0. -1.
       -2   -1    0    0    0  501  0.00000000000E+00  0.00000000000E+00 -0.85221150160E+03  0.85221150160E+03  0.25500000920E-02 0.  1.
    10030    2    1    2    0    0  0.00000000000E+00  0.00000000000E+00  0.48533341540E+03  0.21897564186E+04  0.21352949793E+04 0.  0.
        5    1    3    3  502    0 -0.68186120523E+03  0.79112034421E+03  0.15561909294E+02  0.10445431371E+04  0.46999998093E+01 0.  1.
       -5    1    3    3    0  502  0.68186120523E+03 -0.79112034421E+03  0.46977150611E+03  0.11452132815E+04  0.46999998093E+01 0. -1.
</event>
<event>
 5   0  0.8547605E-05  0.2137550E+04  0.7818609E-02  0.8544881E-01
       -2   -1    0    0    0  501  0.00000000000E+00  0.00000000000E+00  0.56761972505E+03  0.56761972506E+03  0.25500000920E-02 0.  1.
        2   -1    0    0  501    0  0.00000000000E+00  0.00000000000E+00 -0.20124027861E+04  0.20124027861E+04  0.25500000920E-02 0. -1.
    10030    2    1    2    0    0  0.00000000000E+00  0.00000000000E+00 -0.14447830611E+04  0.25800225112E+04  0.21375495467E+04 0.  0.
        4    1    3    3  502    0 -0.99629208842E+03  0.14441576576E+03 -0.28917421818E+03  0.10474145217E+04  0.12699999809E+01 0.  1.
       -4    1    3    3    0  502  0.99629208842E+03 -0.14441576576E+03 -0.11556088429E+04  0.15326079895E+04  0.12699999809E+01 0. -1.
</event>
<event>
 5   0  0.4200061E-05  0.2147757E+04  0.7818609E-02  0.8540493E-01
        1   -1    0    0  501    0  0.00000000000E+00  0.00000000000E+00  0.14327689562E+04  0.14327689562E+04  0.50400001928E-02 0.  1.
       -1   -1    0    0    0  501  0.00000000000E+00  0.00000000000E+00 -0.80488563724E+03  0.80488563726E+03  0.50400001928E-02 0. -1.
    10030    2    1    2    0    0  0.00000000000E+00  0.00000000000E+00  0.62788331891E+03  0.22376545934E+04  0.21477571132E+04 0.  0.
        4    1    3    3  502    0  0.10138573889E+02  0.10700771358E+04  0.22048955168E+03  0.10926047422E+04  0.12699999809E+01 0.  1.
       -4    1    3    3    0  502 -0.10138573889E+02 -0.10700771358E+04  0.40739376723E+03  0.11450498512E+04  0.12699999809E+01 0. -1.
</event>
<event>
 5   0  0.4050368E-05  0.2091889E+04  0.7818609E-02  0.8564825E-01
       -1   -1    0    0    0  501  0.00000000000E+00  0.00000000000E+00  0.70392734142E+03  0.70392734144E+03  0.50400001928E-02 0. -1.
        1   -1    0    0  501    0  0.00000000000E+00  0.00000000000E+00 -0.15541375833E+04  0.15541375833E+04  0.50400001928E-02 0.  1.
    10030    2    1    2    0    0  0.00000000000E+00  0.00000000000E+00 -0.85021024188E+03  0.22580649247E+04  0.20918890384E+04 0.  0.
        2    1    3    3  502    0 -0.92815085389E+03  0.29365161772E+03 -0.12222259600E+02  0.97357314251E+03  0.25500000920E-02 0. -1.
       -2    1    3    3    0  502  0.92815085389E+03 -0.29365161772E+03 -0.83798798228E+03  0.12844917822E+04  0.25500000920E-02 0.  1.
</event>
<event>
 5   0  0.9012466E-05  0.2113709E+04  0.7818609E-02  0.8555228E-01
       -2   -1    0    0    0  501  0.00000000000E+00  0.00000000000E+00  0.42576464516E+03  0.42576464517E+03  0.25500000920E-02 0.  1.
        2   -1    0    0  501    0  0.00000000000E+00  0.00000000000E+00 -0.26233770362E+04  0.26233770362E+04  0.25500000920E-02 0. -1.
    10030    2    1    2    0    0  0.00000000000E+00  0.00000000000E+00 -0.21976123911E+04  0.30491416814E+04  0.21137087718E+04 0.  0.
        2    1    3    3  502    0  0.25928687633E+02 -0.46762584580E+03 -0.24655045100E+04  0.25095933370E+04  0.25500000920E-02 0. -1.
       -2    1    3    3    0  502 -0.25928687633E+02  0.46762584580E+03  0.26789211893E+03  0.53954834435E+03  0.25500000920E-02 0.  1.
</event>
<event>
 5   0  0.4050368E-05  0.2061535E+04  0.7818609E-02  0.8578379E-01
        1   -1    0    0  501    0  0.00000000000E+00  0.00000000000E+00  0.11102007850E+04  0.11102007850E+04  0.50400001928E-02 0.  1.
       -1   -1    0    0    0  501  0.00000000000E+00  0.00000000000E+00 -0.95701771425E+03  0.95701771426E+03  0.50400001928E-02 0. -1.
    10030    2    1    2    0    0  0.00000000000E+00  0.00000000000E+00  0.15318307074E+03  0.20672184993E+04  0.20615351732E+04 0.  0.
        2    1    3    3  502    0 -0.36883596131E+03 -0.91776233708E+03 -0.21430154256E+03  0.10120537658E+04  0.25500000920E-02 0. -1.
       -2    1    3    3    0  502  0.36883596131E+03  0.91776233708E+03  0.36748461330E+03  0.10551647335E+04  0.25500000920E-02 0.  1.
</event>
<event>
 5   0  0.8872777E-05  0.2063059E+04  0.7818609E-02  0.8577693E-01
        2   -1    0    0  501    0  0.00000000000E+00  0.00000000000E+00  0.10944718974E+04  0.10944718974E+04  0.25500000920E-02 0. -1.
       -2   -1    0    0    0  501  0.00000000000E+00  0.00000000000E+00 -0.97220683681E+03  0.97220683681E+03  0.25500000920E-02 0.  1.
    10030    2    1    2    0    0  0.00000000000E+00  0.00000000000E+00  0.12226506060E+03  0.20666787342E+04  0.20630589535E+04 0.  0.
        3    1    3    3  502    0 -0.39338209454E+03 -0.43280847883E+03 -0.79005261527E+03  0.98298311112E+03  0.10100000352E+00 0.  1.
       -3    1    3    3    0  502  0.39338209454E+03  0.43280847883E+03  0.91231767586E+03  0.10836956231E+04  0.10100000352E+00 0. -1.
</event>
<event>
 5   0  0.9086985E-05  0.2168067E+04  0.7818609E-02  0.8531838E-01
        2   -1    0    0  501    0  0.00000000000E+00  0.00000000000E+00  0.90700496676E+03  0.90700496676E+03  0.25500000920E-02 0.  1.
       -2   -1    0    0    0  501  0.00000000000E+00  0.00000000000E+00 -0.12956137725E+04  0.12956137725E+04  0.25500000920E-02 0. -1.
    10030    2    1    2    0    0  0.00000000000E+00  0.00000000000E+00 -0.38860880571E+03  0.22026187392E+04  0.21680665365E+04 0.  0.
        5    1    3    3  502    0  0.22619211401E+03  0.68298307240E+03 -0.10180765442E+04  0.12466477808E+04  0.46999998093E+01 0. -1.
       -5    1    3    3    0  502 -0.22619211401E+03 -0.68298307240E+03  0.62946773844E+03  0.95597095843E+03  0.46999998093E+01 0.  1.
</event>
<event>
 5   0  0.4128678E-05  0.2070028E+04  0.7818609E-02  0.8574562E-01
        1   -1    0    0  501    0  0.00000000000E+00  0.00000000000E+00  0.49612690753E+03  0.49612690756E+03  0.50400001928E-02 0.  1.
       -1   -1    0    0    0  501  0.00000000000E+00  0.00000000000E+00 -0.21592344944E+04  0.21592344944E+04  0.50400001928E-02 0. -1.
    10030    2    1    2    0    0  0.00000000000E+00  0.00000000000E+00 -0.16631075868E+04  0.26553614019E+04  0.20700283403E+04 0.  0.
        5    1    3    3  502    0 -0.18218573279E+03 -0.43421758779E+03  0.35074687757E+03  0.58718141736E+03  0.46999998093E+01 0.  1.
       -5    1    3    3    0  502  0.18218573279E+03  0.43421758779E+03 -0.20138544644E+04  0.20681799846E+04  0.46999998093E+01 0. -1.
</event>
<event>
 5   0  0.4174093E-05  0.1688061E+04  0.7818609E-02  0.8768203E-01
        1   -1    0    0  501    0  0.00000000000E+00  0.00000000000E+00  0.61074353156E+03  0.61074353158E+03  0.50400001928E-02 0.  1.
       -1   -1    0    0    0  501  0.00000000000E+00  0.00000000000E+00 -0.11664262632E+04  0.11664262632E+04  0.50400001928E-02 0. -1.
    10030    2    1    2    0    0  0.00000000000E+00  0.00000000000E+00 -0.55568273161E+03  0.17771697948E+04  0.16880607753E+04 0.  0.
        3    1    3    3  502    0 -0.34023733816E+03 -0.17465364242E+03 -0.10699702313E+04  0.11362665387E+04  0.10100000352E+00 0. -1.
       -3    1    3    3    0  502  0.34023733816E+03  0.17465364242E+03  0.51428749965E+03  0.64090325603E+03  0.10100000352E+00 0.  1.
</event>
<event>
 5   0  0.8872777E-05  0.2097091E+04  0.7818609E-02  0.8562526E-01
       -2   -1    0    0    0  501  0.00000000000E+00  0.00000000000E+00  0.75743348241E+03  0.75743348242E+03  0.25500000920E-02 0. -1.
        2   -1    0    0  501    0  0.00000000000E+00  0.00000000000E+00 -0.14515431340E+04  0.14515431340E+04  0.25500000920E-02 0.  1.
    10030    2    1    2    0    0  0.00000000000E+00  0.00000000000E+00 -0.69410965161E+03  0.22089766164E+04  0.20970907190E+04 0.  0.
        3    1    3    3  502    0 -0.96914496587E+03  0.15055854673E+03  0.43592175259E+02  0.98173831993E+03  0.10100000352E+00 0. -1.
       -3    1    3    3    0  502  0.96914496587E+03 -0.15055854673E+03 -0.73770182687E+03  0.12272382965E+04  0.10100000352E+00 0.  1.
</event>
<event>
 5   0  0.8858590E-05  0.2105861E+04  0.7818609E-02  0.8558666E-01
       -2   -1    0    0    0  501  0.00000000000E+00  0.00000000000E+00  0.57843229842E+03  0.57843229842E+03  0.25500000920E-02 0. -1.
        2   -1    0    0  501    0  0.00000000000E+00  0.00000000000E+00 -0.19166684200E+04  0.19166684200E+04  0.25500000920E-02 0.  1.
    10030    2    1    2    0    0  0.00000000000E+00  0.00000000000E+00 -0.13382361216E+04  0.24951007184E+04  0.21058612675E+04 0.  0.
        1    1    3    3  502    0 -0.86639620693E+03 -0.49990642665E+03 -0.27953551927E+03  0.10385995038E+04  0.50400001928E-02 0.  1.
       -1    1    3    3    0  502  0.86639620693E+03  0.49990642665E+03 -0.10587006023E+04  0.14565012146E+04  0.50400001928E-02 0. -1.
</event>
<event>
 5   0  0.8858590E-05  0.2186639E+04  0.7818609E-02  0.8524010E-01
        2   -1    0    0  501    0  0.00000000000E+00  0.00000000000E+00  0.20694610863E+04  0.20694610863E+04  0.25500000920E-02 0.  1.
       -2   -1    0    0    0  501  0.00000000000E+00  0.00000000000E+00 -0.57761297277E+03  0.57761297278E+03  0.25500000920E-02 0. -1.
    10030    2    1    2    0    0  0.00000000000E+00  0.00000000000E+00  0.14918481135E+04  0.26470740590E+04  0.21866390375E+04 0.  0.
        1    1    3    3  502    0 -0.62839895723E+03 -0.23518382668E+03  0.17909115834E+04  0.19124750930E+04  0.50400001928E-02 0.  1.
       -1    1    3    3    0  502  0.62839895723E+03  0.23518382668E+03 -0.29906346994E+03  0.73459896601E+03  0.50400001928E-02 0. -1.
</event>
<event>
 5   0  0.9012466E-05  0.2092440E+04  0.7818609E-02  0.8564581E-01
        2   -1    0    0  501    0  0.00000000000E+00  0.00000000000E+00  0.85320748253E+03  0.85320748254E+03  0.25500000920E-02 0. -1.
       -2   -1    0    0    0  501  0.00000000000E+00  0.00000000000E+00 -0.12828954064E+04  0.12828954064E+04  0.25500000920E-02 0.  1.
    10030    2    1    2    0    0  0.00000000000E+00  0.00000000000E+00 -0.42968792388E+03  0.21361028889E+04  0.20924396862E+04 0.  0.
        2    1    3    3  502    0  0.19980371208E+03 -0.60935274023E+03 -0.10587397286E+04  0.12378053556E+04  0.25500000920E-02 0.  1.
       -2    1    3    3    0  502 -0.19980371208E+03  0.60935274023E+03  0.62905180473E+03  0.89829753336E+03  0.25500000920E-02 0. -1.
</event>
<event>
 5   0  0.4182977E-05  0.2090552E+04  0.7818609E-02  0.8565417E-01
        1   -1    0    0  501    0  0.00000000000E+00  0.00000000000E+00  0.28815876744E+04  0.28815876744E+04  0.50400001928E-02 0. -1.
       -1   -1    0    0    0  501  0.00000000000E+00  0.00000000000E+00 -0.37916674557E+03  0.37916674560E+03  0.50400001928E-02 0.  1.
    10030    2    1    2    0    0  0.00000000000E+00  0.00000000000E+00  0.25024209288E+04  0.32607544200E+04  0.20905522913E+04 0.  0.
        1    1    3    3  502    0  0.12469200703E+03  0.20997596321E+03 -0.33404659417E+03  0.41379358241E+03  0.50400001928E-02 0.  1.
       -1    1    3    3    0  502 -0.12469200703E+03 -0.20997596321E+03  0.28364675230E+04  0.28469608376E+04  0.50400001928E-02 0. -1.
</event>
<event>
 5   0  0.8858590E-05  0.2070437E+04  0.7818609E-02  0.8574379E-01
        2   -1    0    0  501    0  0.00000000000E+00  0.00000000000E+00  0.12084888744E+04  0.12084888744E+04  0.25500000920E-02 0.  1.
       -2   -1    0    0    0  501  0.00000000000E+00  0.00000000000E+00 -0.88679116668E+03  0.88679116669E+03  0.25500000920E-02 0. -1.
    10030    2    1    2    0    0  0.00000000000E+00  0.00000000000E+00  0.32169770771E+03  0.20952800411E+04  0.20704369190E+04 0.  0.
        1    1    3    3  502    0 -0.83389236164E+03 -0.20842533369E+03 -0.42301375156E+03  0.95799698567E+03  0.50400001928E-02 0. -1.
       -1    1    3    3    0  502  0.83389236164E+03  0.20842533369E+03  0.74471145927E+03  0.11372830554E+04  0.50400001928E-02 0.  1.
</event>
<event>
 5   0  0.8547605E-05  0.1892028E+04  0.7818609E-02  0.8658835E-01
        2   -1    0    0  501    0  0.00000000000E+00  0.00000000000E+00  0.11094787558E+04  0.11094787558E+04  0.25500000920E-02 0. -1.
       -2   -1    0    0    0  501  0.00000000000E+00  0.00000000000E+00 -0.80663364701E+03  0.80663364702E+03  0.25500000920E-02 0.  1.
    10030    2    1    2    0    0  0.00000000000E+00  0.00000000000E+00  0.30284510879E+03  0.19161124028E+04  0.18920284301E+04 0.  0.
        4    1    3    3  502    0 -0.12499298194E+03  0.79306040869E+03  0.65816497970E+03  0.10381477789E+04  0.12699999809E+01 0. -1.
       -4    1    3    3    0  502  0.12499298194E+03 -0.79306040869E+03 -0.35531987091E+03  0.87796462396E+03  0.12699999809E+01 0.  1.
</event>
<event>
 5   0  0.8872777E-05  0.2096015E+04  0.7818609E-02  0.8563001E-01
        2   -1    0    0  501    0  0.00000000000E+00  0.00000000000E+00  0.22299719987E+04  0.22299719987E+04  0.25500000920E-02 0. -1.
       -2   -1    0    0    0  501  0.00000000000E+00  0.00000000000E+00 -0.49252646877E+03  0.49252646878E+03  0.25500000920E-02 0.  1.
    10030    2    1    2    0    0  0.00000000000E+00  0.00000000000E+00  0.17374455299E+04  0.27224984675E+04  0.20960154904E+04 0.  0.
        3    1    3    3  502    0 -0.77919844343E+02  0.26083116851E+03 -0.44580237569E+03  0.52234487552E+03  0.10100000352E+00 0.  1.
       -3    1    3    3    0  502  0.77919844343E+02 -0.26083116851E+03  0.21832479056E+04  0.22001535920E+04  0.10100000352E+00 0. -1.
</event>
<event>
 5   0  0.4128678E-05  0.2073078E+04  0.7818609E-02  0.8573196E-01
       -1   -1    0    0    0  501  0.00000000000E+00  0.00000000000E+00  0.14827907788E+04  0.14827907789E+04  0.50400001928E-02 0. -1.
        1   -1    0    0  501    0  0.00000000000E+00  0.00000000000E+00 -0.72458827033E+03  0.72458827034E+03  0.50400001928E-02 0.  1.
    10030    2    1    2    0    0  0.00000000000E+00  0.00000000000E+00  0.75820250852E+03  0.22073790492E+04  0.20730777175E+04 0.  0.
        5    1    3    3  502    0 -0.28625049010E+03  0.77321736414E+03  0.10479567858E+04  0.13334316443E+04  0.46999998093E+01 0. -1.
       -5    1    3    3    0  502  0.28625049010E+03 -0.77321736414E+03 -0.28975427724E+03  0.87394740486E+03  0.46999998093E+01 0.  1.
</event>
<event>
 5   0  0.4050368E-05  0.2169068E+04  0.7818609E-02  0.8531414E-01
        1   -1    0    0  501    0  0.00000000000E+00  0.00000000000E+00  0.93999078644E+03  0.93999078645E+03  0.50400001928E-02 0. -1.
       -1   -1    0    0    0  501  0.00000000000E+00  0.00000000000E+00 -0.12513038984E+04  0.12513038984E+04  0.50400001928E-02 0.  1.
    10030    2    1    2    0    0  0.00000000000E+00  0.00000000000E+00 -0.31131311194E+03  0.21912946848E+04  0.21690681276E+04 0.  0.
        2    1    3    3  502    0 -0.72450996606E+03 -0.25931498173E+03 -0.92772274575E+03  0.12053333330E+04  0.25500000920E-02 0.  1.
       -2    1    3    3    0  502  0.72450996606E+03  0.25931498173E+03  0.61640963381E+03  0.98596135184E+03  0.25500000920E-02 0. -1.
</event>
<event>
 5   0  0.8858590E-05  0.2207754E+04  0.7818609E-02  0.8515208E-01
       -2   -1    0    0    0  501  0.00000000000E+00  0.00000000000E+00  0.77518078780E+03  0.77518078780E+03  0.25500000920E-02 0.  1.
        2   -1    0    0  501    0  0.00000000000E+00  0.00000000000E+00 -0.15719489290E+04  0.15719489290E+04  0.25500000920E-02 0. -1.
    10030    2    1    2    0    0  0.00000000000E+00  0.00000000000E+00 -0.79676814121E+03  0.23471297168E+04  0.22077541613E+04 0.  0.
        1    1    3    3  502    0  0.92487919428E+03 -0.18265605928E+03 -0.10089020210E+04  0.13808142699E+04  0.50400001928E-02 0. -1.
       -1    1    3    3    0  502 -0.92487919428E+03  0.18265605928E+03  0.21213387975E+03  0.96631544693E+03  0.50400001928E-02 0.  1.
</event>
<event>
 5   0  0.8547605E-05  0.2198115E+04  0.7818609E-02  0.8519213E-01
       -2   -1    0    0    0  501  0.00000000000E+00  0.00000000000E+00  0.10314789836E+04  0.10314789836E+04  0.25500000920E-02 0. -1.
        2   -1    0    0  501    0  0.00000000000E+00  0.00000000000E+00 -0.11710634683E+04  0.11710634683E+04  0.25500000920E-02 0.  1.
    10030    2    1    2    0    0  0.00000000000E+00  0.00000000000E+00 -0.13958448476E+03  0.22025424519E+04  0.21981149706E+04 0.  0.
        4    1    3    3  502    0 -0.76240775608E+02  0.42012746558E+03 -0.10845541591E+04  0.11655810054E+04  0.12699999809E+01 0.  1.
       -4    1    3    3    0  502  0.76240775608E+02 -0.42012746558E+03  0.94496967436E+03  0.10369614465E+04  0.12699999809E+01 0. -1.
</event>
<event>
 5   0  0.8872777E-05  0.1952184E+04  0.7818609E-02  0.8629308E-01
        2   -1    0    0  501    0  0.00000000000E+00  0.00000000000E+00  0.20863141059E+04  0.20863141059E+04  0.25500000920E-02 0. -1.
       -2   -1    0    0    0  501  0.00000000000E+00  0.00000000000E+00 -0.45666939184E+03  0.45666939185E+03  0.25500000920E-02 0.  1.
    10030    2    1    2    0    0  0.00000000000E+00  0.00000000000E+00  0.16296447141E+04  0.25429834978E+04  0.19521842064E+04 0.  0.
        3    1    3    3  502    0 -0.11697451239E+03  0.49690319659E+03  0.18985645538E+04  0.19659967442E+04  0.10100000352E+00 0. -1.
       -3    1    3    3    0  502  0.11697451239E+03 -0.49690319659E+03 -0.26891983972E+03  0.57698675351E+03  0.10100000352E+00 0.  1.
</event>
<event>
 5   0  0.4182977E-05  0.2099585E+04  0.7818609E-02  0.8561426E-01
       -1   -1    0    0    0  501  0.00000000000E+00  0.00000000000E+00  0.43644454737E+03  0.43644454740E+03  0.50400001928E-02 0. -1.
        1   -1    0    0  501    0  0.00000000000E+00  0.00000000000E+00 -0.25250963639E+04  0.25250963639E+04  0.50400001928E-02 0.  1.
    10030    2    1    2    0    0  0.00000000000E+00  0.00000000000E+00 -0.20886518165E+04  0.29615409113E+04  0.20995852349E+04 0.  0.
        1    1    3    3  502    0  0.36877557857E+03  0.36198574575E+03 -0.23332777114E+04  0.23898146342E+04  0.50400001928E-02 0.  1.
       -1    1    3    3    0  502 -0.36877557857E+03 -0.36198574575E+03  0.24462589484E+03  0.57172627710E+03  0.50400001928E-02 0. -1.
</event>
<event>
 5   0  0.9012466E-05  0.2093043E+04  0.7818609E-02  0.8564314E-01
        2   -1    0    0  501    0  0.00000000000E+00  0.00000000000E+00  0.16152652489E+04  0.16152652489E+04  0.25500000920E-02 0.  1.
       -2   -1    0    0    0  501  0.00000000000E+00  0.00000000000E+00 -0.67803568124E+03  0.67803568124E+03  0.25500000920E-02 0. -1.
    10030    2    1    2    0    0  0.00000000000E+00  0.00000000000E+00  0.93722956763E+03  0.22933009301E+04  0.20930432135E+04 0.  0.
        2    1    3    3  502    0  0.18177962837E+03 -0.23282172826E+03  0.15686434479E+04  0.15962117833E+04  0.25500000920E-02 0.  1.
       -2    1    3    3    0  502 -0.18177962837E+03  0.23282172826E+03 -0.63141388027E+03  0.69708914684E+03  0.25500000920E-02 0. -1.
</event>
<event>
 5   0  0.4182977E-05  0.2054610E+04  0.7818609E-02  0.8581506E-01
       -1   -1    0    0    0  501  0.00000000000E+00  0.00000000000E+00  0.10613068118E+04  0.10613068118E+04  0.50400001928E-02 0.  1.
        1   -1    0    0  501    0  0.00000000000E+00  0.00000000000E+00 -0.99439217418E+03  0.99439217419E+03  0.50400001928E-02 0. -1.
    10030    2    1    2    0    0  0.00000000000E+00  0.00000000000E+00  0.66914637629E+02  0.20556989860E+04  0.20546096350E+04 0.  0.
        1    1    3    3  502    0  0.86172709519E+03  0.19938470825E+02  0.59266693767E+03  0.10460522110E+04  0.50400001928E-02 0.  1.
       -1    1    3    3    0  502 -0.86172709519E+03 -0.19938470825E+02 -0.52575230004E+03  0.10096467750E+04  0.50400001928E-02 0. -1.
</event>
<event>
 5   0  0.4050368E-05  0.2099959E+04  0.7818609E-02  0.8561261E-01
        1   -1    0    0  501    0  0.00000000000E+00  0.00000000000E+00  0.15408495310E+04  0.15408495310E+04  0.50400001928E-02 0. -1.
       -1   -1    0    0    0  501  0.00000000000E+00  0.00000000000E+00 -0.71548651874E+03  0.71548651876E+03  0.50400001928E-02 0.  1.
    10030    2    1    2    0    0  0.00000000000E+00  0.00000000000E+00  0.82536301222E+03  0.22563360497E+04  0.20999591109E+04 0.  0.
        2    1    3    3  502    0  0.98012960698E+03 -0.15285148329E+03  0.42903459027E+02  0.99290398791E+03  0.25500000920E-02 0.  1.
       -2    1    3    3    0  502 -0.98012960698E+03  0.15285148329E+03  0.78245955319E+03  0.12634320618E+04  0.25500000920E-02 0. -1.
</event>
<event>
 5   0  0.9086985E-05  0.2093468E+04  0.7818609E-02  0.8564126E-01
       -2   -1    0    0    0  501  0.00000000000E+00  0.00000000000E+00  0.43904668125E+03  0.43904668126E+03  0.25500000920E-02 0.  1.
        2   -1    0    0  501    0  0.00000000000E+00  0.00000000000E+00 -0.24955254963E+04  0.24955254963E+04  0.25500000920E-02 0. -1.
    10030    2    1    2    0    0  0.00000000000E+00  0.00000000000E+00 -0.20564788150E+04  0.29345721775E+04  0.20934681150E+04 0.  0.
        5    1    3    3  502    0  0.28561029495E+03  0.10030468090E+04 -0.90322213401E+03  0.13796769386E+04  0.46999998093E+01 0.  1.
       -5    1    3    3    0  502 -0.28561029495E+03 -0.10030468090E+04 -0.11532566810E+04  0.15548952389E+04  0.46999998093E+01 0. -1.
</event>
<event>
 5   0  0.4182977E-05  0.2090424E+04  0.7818609E-02  0.8565473E-01
       -1   -1    0    0    0  501  0.00000000000E+00  0.00000000000E+00  0.12863985577E+04  0.12863985578E+04  0.50400001928E-02 0. -1.
        1   -1    0    0  501    0  0.00000000000E+00  0.00000000000E+00 -0.84924546576E+03  0.84924546577E+03  0.50400001928E-02 0.  1.
    10030    2    1    2    0    0  0.00000000000E+00  0.00000000000E+00  0.43715309199E+03  0.21356440235E+04  0.20904240166E+04 0.  0.
        1    1    3    3  502    0  0.45604626227E+03 -0.91537317295E+03 -0.19206610329E+01  0.10226876004E+04  0.50400001928E-02 0.  1.
       -1    1    3    3    0  502 -0.45604626227E+03  0.91537317295E+03  0.43907375302E+03  0.11129564231E+04  0.50400001928E-02 0. -1.
</event>
<event>
 5   0  0.8547605E-05  0.2103906E+04  0.7818609E-02  0.8559525E-01
       -2   -1    0    0    0  501  0.00000000000E+00  0.00000000000E+00  0.18666615779E+04  0.18666615779E+04  0.25500000920E-02 0.  1.
        2   -1    0    0  501    0  0.00000000000E+00  0.00000000000E+00 -0.59282570102E+03  0.59282570103E+03  0.25500000920E-02 0. -1.
    10030    2    1    2    0    0  0.00000000000E+00  0.00000000000E+00  0.12738358769E+04  0.24594872789E+04  0.21039058520E+04 0.  0.
        4    1    3    3  502    0 -0.19651439953E+03 -0.39938584595E+03  0.17511485859E+04  0.18068342331E+04  0.12699999809E+01 0.  1.
       -4    1    3    3    0  502  0.19651439953E+03  0.39938584595E+03 -0.47731270900E+03  0.65265304584E+03  0.12699999809E+01 0. -1.
</event>
<event>
 5   0  0.4128678E-05  0.2090147E+04  0.7818609E-02  0.8565596E-01
        1   -1    0    0  501    0  0.00000000000E+00  0.00000000000E+00  0.17858712934E+04  0.17858712934E+04  0.50400001928E-02 0. -1.
       -1   -1    0    0    0  501  0.00000000000E+00  0.00000000000E+00 -0.61156623405E+03  0.61156623407E+03  0.50400001928E-02 0.  1.
    10030    2    1    2    0    0  0.00000000000E+00  0.00000000000E+00  0.11743050594E+04  0.23974375275E+04  0.20901469627E+04 0.  0.
        5    1    3    3  502    0  0.40318074541E+03 -0.65658750689E+03 -0.22269025128E+03  0.80204420432E+03  0.46999998093E+01 0.  1.
       -5    1    3    3    0  502 -0.40318074541E+03  0.65658750689E+03  0.13969953107E+04  0.15953933232E+04  0.46999998093E+01 0. -1.
</event>
<event>
 5   0  0.8872777E-05  0.2092220E+04  0.7818609E-02  0.8564678E-01
       -2   -1    0    0    0  501  0.00000000000E+00  0.00000000000E+00  0.58730347195E+03  0.58730347196E+03  0.25500000920E-02 0. -1.
        2   -1    0    0  501    0  0.00000000000E+00  0.00000000000E+00 -0.18633393376E+04  0.18633393376E+04  0.25500000920E-02 0.  1.
    10030    2    1    2    0    0  0.00000000000E+00  0.00000000000E+00 -0.12760358657E+04  0.24506428096E+04  0.20922195510E+04 0.  0.
        3    1    3    3  502    0  0.28787275090E+03 -0.82497852508E+03  0.35751863990E+02  0.87449327815E+03  0.10100000352E+00 0. -1.
       -3    1    3    3    0  502 -0.28787275090E+03  0.82497852508E+03 -0.13117877296E+04  0.15761495314E+04  0.10100000352E+00 0.  1.
</event>
<event>
 5   0  0.8872777E-05  0.2072607E+04  0.7818609E-02  0.8573407E-01
        2   -1    0    0  501    0  0.00000000000E+00  0.00000000000E+00  0.92697614213E+03  0.92697614213E+03  0.25500000920E-02 0.  1.
       -2   -1    0    0    0  501  0.00000000000E+00  0.00000000000E+00 -0.11585244079E+04  0.11585244079E+04  0.25500000920E-02 0. -1.
    10030    2    1    2    0    0  0.00000000000E+00  0.00000000000E+00 -0.23154826582E+03  0.20855005501E+04  0.20726065582E+04 0.  0.
        3    1    3    3  502    0 -0.51773375219E+03  0.85260675862E+03  0.16693274271E+03  0.10113619895E+04  0.10100000352E+00 0.  1.
       -3    1    3    3    0  502  0.51773375219E+03 -0.85260675862E+03 -0.39848100853E+03  0.10741385606E+04  0.10100000352E+00 0. -1.
</event>
<event>
 5   0  0.4174093E-05  0.2089220E+04  0.7818609E-02  0.8566007E-01
       -1   -1    0    0    0  501  0.00000000000E+00  0.00000000000E+00  0.84862697178E+03  0.84862697180E+03  0.50400001928E-02 0.  1.
        1   -1    0    0  501    0  0.00000000000E+00  0.00000000000E+00 -0.12858540112E+04  0.12858540112E+04  0.50400001928E-02 0. -1.
    10030    2    1    2    0    0  0.00000000000E+00  0.00000000000E+00 -0.43722703941E+03  0.21344809830E+04  0.20892203289E+04 0.  0.
        3    1    3    3  502    0  0.79267878178E+03  0.61169573308E+03  0.85662387964E+02  0.10049126210E+04  0.10100000352E+00 0.  1.
       -3    1    3    3    0  502 -0.79267878178E+03 -0.61169573308E+03 -0.52288942738E+03  0.11295683620E+04  0.10100000352E+00 0. -1.
</event>
<event>
 5   0  0.9012466E-05  0.2091011E+04  0.7818609E-02  0.8565213E-01
        2   -1    0    0  501    0  0.00000000000E+00  0.00000000000E+00  0.13669214300E+04  0.13669214300E+04  0.25500000920E-02 0.  1.
       -2   -1    0    0    0  501  0.00000000000E+00  0.00000000000E+00 -0.79966678612E+03  0.79966678612E+03  0.25500000920E-02 0. -1.
    10030    2    1    2    0    0  0.00000000000E+00  0.00000000000E+00  0.56725464391E+03  0.21665882162E+04  0.20910109199E+04 0.  0.
        2    1    3    3  502    0 -0.43953586448E+02  0.29351875226E+03  0.13223565417E+04  0.13552534815E+04  0.25500000920E-02 0.  1.
       -2    1    3    3    0  502  0.43953586448E+02 -0.29351875226E+03 -0.75510189777E+03  0.81133473469E+03  0.25500000920E-02 0. -1.
</event>
<event>
 5   0  0.8547605E-05  0.2087582E+04  0.7818609E-02  0.8566733E-01
        2   -1    0    0  501    0  0.00000000000E+00  0.00000000000E+00  0.73768569384E+03  0.73768569384E+03  0.25500000920E-02 0.  1.
       -2   -1    0    0    0  501  0.00000000000E+00  0.00000000000E+00 -0.14769158725E+04  0.14769158725E+04  0.25500000920E-02 0. -1.
    10030    2    1    2    0    0  0.00000000000E+00  0.00000000000E+00 -0.73923017866E+03  0.22146015663E+04  0.20875820560E+04 0.  0.
        4    1    3    3  502    0  0.34610451810E+03 -0.27485651323E+03 -0.13727527944E+04  0.14421464169E+04  0.12699999809E+01 0. -1.
       -4    1    3    3    0  502 -0.34610451810E+03  0.27485651323E+03  0.63352261576E+03  0.77245514944E+03  0.12699999809E+01 0.  1.
</event>
<event>
 5   0  0.8547605E-05  0.2085483E+04  0.7818609E-02  0.8567665E-01
       -2   -1    0    0    0  501  0.00000000000E+00  0.00000000000E+00  0.84894634639E+03  0.84894634639E+03  0.25500000920E-02 0.  1.
        2   -1    0    0  501    0  0.00000000000E+00  0.00000000000E+00 -0.12807752968E+04  0.12807752968E+04  0.25500000920E-02 0. -1.
    10030    2    1    2    0    0  0.00000000000E+00  0.00000000000E+00 -0.43182895044E+03  0.21297216432E+04  0.20854826864E+04 0.  0.
        4    1    3    3  502    0  0.17955173474E+03  0.91784337961E+03  0.25498822580E+03  0.96937913282E+03  0.12699999809E+01 0.  1.
       -4    1    3    3    0  502 -0.17955173474E+03 -0.91784337961E+03 -0.68681717625E+03  0.11603425104E+04  0.12699999809E+01 0. -1.
</event>
<event>
 5   0  0.4200061E-05  0.2103677E+04  0.7818609E-02  0.8559625E-01
       -1   -1    0    0    0  501  0.00000000000E+00  0.00000000000E+00  0.75183975392E+03  0.75183975394E+03  0.50400001928E-02 0. -1.
        1   -1    0    0  501    0  0.00000000000E+00  0.00000000000E+00 -0.14715421537E+04  0.14715421537E+04  0.50400001928E-02 0.  1.
    10030    2    1    2    0    0  0.00000000000E+00  0.00000000000E+00 -0.71970239977E+03  0.22233819076E+04  0.21036766774E+04 0.  0.
        4    1    3    3  502    0  0.28756348402E+03  0.56680543131E+03 -0.12456348790E+04  0.13984166114E+04  0.12699999809E+01 0.  1.
       -4    1    3    3    0  502 -0.28756348402E+03 -0.56680543131E+03  0.52593247927E+03  0.82496529622E+03  0.12699999809E+01 0. -1.
</event>
<event>
 5   0  0.4174093E-05  0.2051928E+04  0.7818609E-02  0.8582720E-01
       -1   -1    0    0    0  501  0.00000000000E+00  0.00000000000E+00  0.85118345436E+03  0.85118345437E+03  0.50400001928E-02 0. -1.
        1   -1    0    0  501    0  0.00000000000E+00  0.00000000000E+00 -0.12366336887E+04  0.12366336887E+04  0.50400001928E-02 0.  1.
    10030    2    1    2    0    0  0.00000000000E+00  0.00000000000E+00 -0.38545023437E+03  0.20878171431E+04  0.20519280055E+04 0.  0.
        3    1    3    3  502    0  0.13562274860E+03  0.40845606815E+03  0.75489243957E+03  0.86896058315E+03  0.10100000352E+00 0. -1.
       -3    1    3    3    0  502 -0.13562274860E+03 -0.40845606815E+03 -0.11403426739E+04  0.12188565600E+04  0.10100000352E+00 0.  1.
</event>
<event>
 5   0  0.4182977E-05  0.2108809E+04  0.7818609E-02  0.8557373E-01
       -1   -1    0    0    0  501  0.00000000000E+00  0.00000000000E+00  0.70183708912E+03  0.70183708914E+03  0.50400001928E-02 0.  1.
        1   -1    0    0  501    0  0.00000000000E+00  0.00000000000E+00 -0.15840835260E+04  0.15840835260E+04  0.50400001928E-02 0. -1.
    10030    2    1    2    0    0  0.00000000000E+00  0.00000000000E+00 -0.88224643684E+03  0.22859206151E+04  0.21088087356E+04 0.  0.
        1    1    3    3  502    0 -0.10287570627E+02 -0.45329359572E+03  0.59076587575E+03  0.74470479924E+03  0.50400001928E-02 0.  1.
       -1    1    3    3    0  502  0.10287570627E+02  0.45329359572E+03 -0.14730123126E+04  0.15412158159E+04  0.50400001928E-02 0. -1.
</event>
<event>
 5   0  0.4200061E-05  0.2053736E+04  0.7818609E-02  0.8581901E-01
       -1   -1    0    0    0  501  0.00000000000E+00  0.00000000000E+00  0.69057219644E+03  0.69057219646E+03  0.50400001928E-02 0. -1.
        1   -1    0    0  501    0  0.00000000000E+00  0.00000000000E+00 -0.15269338090E+04  0.15269338090E+04  0.50400001928E-02 0.  1.
    10030    2    1    2    0    0  0.00000000000E+00  0.00000000000E+00 -0.83636161257E+03  0.22175060055E+04  0.20537361411E+04 0.  0.
        4    1    3    3  502    0  0.22929466490E+01 -0.80757500379E+03  0.26664642395E+03  0.85046138811E+03  0.12699999809E+01 0. -1.
       -4    1    3    3    0  502 -0.22929466490E+01  0.80757500379E+03 -0.11030080365E+04  0.13670446174E+04  0.12699999809E+01 0.  1.
</event>
<event>
 5   0  0.4182977E-05  0.2018272E+04  0.7818609E-02  0.8598125E-01
        1   -1    0    0  501    0  0.00000000000E+00  0.00000000000E+00  0.16633691932E+04  0.16633691932E+04  0.50400001928E-02 0.  1.
       -1   -1    0    0    0  501  0.00000000000E+00  0.00000000000E+00 -0.61222472786E+03  0.61222472788E+03  0.50400001928E-02 0. -1.
    10030    2    1    2    0    0  0.00000000000E+00  0.00000000000E+00  0.10511444654E+04  0.22755939211E+04  0.20182722826E+04 0.  0.
        1    1    3    3  502    0  0.50687912672E+03 -0.76185893239E+03  0.45888909474E+02  0.91622119273E+03  0.50400001928E-02 0.  1.
       -1    1    3    3    0  502 -0.50687912672E+03  0.76185893239E+03  0.10052555559E+04  0.13593727284E+04  0.50400001928E-02 0. -1.
</event>
<event>
 5   0  0.9012466E-05  0.2086835E+04  0.7818609E-02  0.8567065E-01
       -2   -1    0    0    0  501  0.00000000000E+00  0.00000000000E+00  0.98840619799E+03  0.98840619800E+03  0.25500000920E-02 0. -1.
        2   -1    0    0  501    0  0.00000000000E+00  0.00000000000E+00 -0.11014906859E+04  0.11014906859E+04  0.25500000920E-02 0.  1.
    10030    2    1    2    0    0  0.00000000000E+00  0.00000000000E+00 -0.11308448789E+03  0.20898968839E+04  0.20868351358E+04 0.  0.
        2    1    3    3  502    0  0.44780812363E+03  0.31805911144E+03 -0.94498898360E+03  0.10930223662E+04  0.25500000920E-02 0.  1.
       -2    1    3    3    0  502 -0.44780812363E+03 -0.31805911144E+03  0.83190449571E+03  0.99687451765E+03  0.25500000920E-02 0. -1.
</event>
<event>
 5   0  0.4200061E-05  0.2110319E+04  0.7818609E-02  0.8556711E-01
       -1   -1    0    0    0  501  0.00000000000E+00  0.00000000000E+00  0.10551063644E+04  0.10551063644E+04  0.50400001928E-02 0.  1.
        1   -1    0    0  501    0  0.00000000000E+00  0.00000000000E+00 -0.10552123541E+04  0.10552123541E+04  0.50400001928E-02 0. -1.
    10030    2    1    2    0    0  0.00000000000E+00  0.00000000000E+00 -0.10598964473E+00  0.21103187185E+04  0.21103187159E+04 0.  0.
        4    1    3    3  502    0 -0.48100309352E+03 -0.43402557233E+03 -0.83289000532E+03  0.10552011881E+04  0.12699999809E+01 0. -1.
       -4    1    3    3    0  502  0.48100309352E+03  0.43402557233E+03  0.83278401567E+03  0.10551175305E+04  0.12699999809E+01 0.  1.
</event>
<event>
 5   0  0.8547605E-05  0.2147501E+04  0.7818609E-02  0.8540603E-01
        2   -1    0    0  501    0  0.00000000000E+00  0.00000000000E+00  0.97564856236E+03  0.97564856237E+03  0.25500000920E-02 0. -1.
       -2   -1    0    0    0  501  0.00000000000E+00  0.00000000000E+00 -0.11817162947E+04  0.11817162947E+04  0.25500000920E-02 0.  1.
    10030    2    1    2    0    0  0.00000000000E+00  0.00000000000E+00 -0.20606773236E+03  0.21573648571E+04  0.21475006906E+04 0.  0.
        4    1    3    3  502    0 -0.23042833341E+02  0.92893112457E+03 -0.64355192685E+03  0.11303117720E+04  0.12699999809E+01 0.  1.
       -4    1    3    3    0  502  0.23042833341E+02 -0.92893112457E+03  0.43748419449E+03  0.10270530851E+04  0.12699999809E+01 0. -1.
</event>
<event>
 5   0  0.4182977E-05  0.2106162E+04  0.7818609E-02  0.8558534E-01
        1   -1    0    0  501    0  0.00000000000E+00  0.00000000000E+00  0.65800813487E+03  0.65800813489E+03  0.50400001928E-02 0. -1.
       -1   -1    0    0    0  501  0.00000000000E+00  0.00000000000E+00 -0.16853592402E+04  0.16853592402E+04  0.50400001928E-02 0.  1.
    10030    2    1    2    0    0  0.00000000000E+00  0.00000000000E+00 -0.10273511053E+04  0.23433673751E+04  0.21061624726E+04 0.  0.
        1    1    3    3  502    0 -0.40999871732E+03  0.49866787560E+03  0.41201943359E+03  0.76585156006E+03  0.50400001928E-02 0. -1.
       -1    1    3    3    0  502  0.40999871732E+03 -0.49866787560E+03 -0.14393705389E+04  0.15775158150E+04  0.50400001928E-02 0.  1.
</event>
<event>
 5   0  0.4174093E-05  0.2090313E+04  0.7818609E-02  0.8565522E-01
        1   -1    0    0  501    0  0.00000000000E+00  0.00000000000E+00  0.20969046939E+04  0.20969046940E+04  0.50400001928E-02 0.  1.
       -1   -1    0    0    0  501  0.00000000000E+00  0.00000000000E+00 -0.52093574907E+03  0.52093574909E+03  0.50400001928E-02 0. -1.
    10030    2    1    2    0    0  0.00000000000E+00  0.00000000000E+00  0.15759689449E+04  0.26178404430E+04  0.20903134861E+04 0.  0.
        3    1    3    3  502    0  0.58282625822E+03  0.76298195005E+03  0.13051450388E+04  0.16202566112E+04  0.10100000352E+00 0.  1.
       -3    1    3    3    0  502 -0.58282625822E+03 -0.76298195005E+03  0.27082390604E+03  0.99758383189E+03  0.10100000352E+00 0. -1.
</event>
<event>
 5   0  0.9012466E-05  0.2079445E+04  0.7818609E-02  0.8570353E-01
        2   -1    0    0  501    0  0.00000000000E+00  0.00000000000E+00  0.11004367940E+04  0.11004367940E+04  0.25500000920E-02 0. -1.
       -2   -1    0    0    0  501  0.00000000000E+00  0.00000000000E+00 -0.98235755083E+03  0.98235755084E+03  0.25500000920E-02 0.  1.
    10030    2    1    2    0    0  0.00000000000E+00  0.00000000000E+00  0.11807924318E+03  0.20827943449E+04  0.20794445353E+04 0.  0.
        2    1    3    3  502    0  0.57912671841E+03 -0.83074867302E+02  0.91992009816E+03  0.10902028144E+04  0.25500000920E-02 0. -1.
       -2    1    3    3    0  502 -0.57912671841E+03  0.83074867302E+02 -0.80184085498E+03  0.99259153043E+03  0.25500000920E-02 0.  1.
</event>
<event>
 5   0  0.8858590E-05  0.2132589E+04  0.7818609E-02  0.8547022E-01
        2   -1    0    0  501    0  0.00000000000E+00  0.00000000000E+00  0.21196110196E+04  0.21196110196E+04  0.25500000920E-02 0. -1.
       -2   -1    0    0    0  501  0.00000000000E+00  0.00000000000E+00 -0.53641181795E+03  0.53641181796E+03  0.25500000920E-02 0.  1.
    10030    2    1    2    0    0  0.00000000000E+00  0.00000000000E+00  0.15831992016E+04  0.26560228375E+04  0.21325894123E+04 0.  0.
        1    1    3    3  502    0  0.46644353636E+03 -0.28984505641E+02  0.19852627931E+04  0.20395288750E+04  0.50400001928E-02 0. -1.
       -1    1    3    3    0  502 -0.46644353636E+03  0.28984505641E+02 -0.40206359151E+03  0.61649396252E+03  0.50400001928E-02 0.  1.
</event>
<event>
 5   0  0.9086985E-05  0.2110309E+04  0.7818609E-02  0.8556716E-01
        2   -1    0    0  501    0  0.00000000000E+00  0.00000000000E+00  0.13289996213E+04  0.13289996213E+04  0.25500000920E-02 0. -1.
       -2   -1    0    0    0  501  0.00000000000E+00  0.00000000000E+00 -0.83773610981E+03  0.83773610981E+03  0.25500000920E-02 0.  1.
    10030    2    1    2    0    0  0.00000000000E+00  0.00000000000E+00  0.49126351149E+03  0.21667357311E+04  0.21103089562E+04 0.  0.
        5    1    3    3  502    0 -0.77734568467E+03 -0.61748139903E+03  0.61265210171E+03  0.11665823072E+04  0.46999998093E+01 0. -1.
       -5    1    3    3    0  502  0.77734568467E+03  0.61748139903E+03 -0.12138859022E+03  0.10001534240E+04  0.46999998093E+01 0.  1.
</event>
<event>
 5   0  0.4200061E-05  0.2086295E+04  0.7818609E-02  0.8567305E-01
        1   -1    0    0  501    0  0.00000000000E+00  0.00000000000E+00  0.17499635818E+04  0.17499635818E+04  0.50400001928E-02 0.  1.
       -1   -1    0    0    0  501  0.00000000000E+00  0.00000000000E+00 -0.62181690603E+03  0.62181690605E+03  0.50400001928E-02 0. -1.
    10030    2    1    2    0    0  0.00000000000E+00  0.00000000000E+00  0.11281466758E+04  0.23717804879E+04  0.20862952237E+04 0.  0.
        4    1    3    3  502    0  0.18529201006E+03  0.96642052989E+03  0.17050133851E+03  0.99868618140E+03  0.12699999809E+01 0. -1.
       -4    1    3    3    0  502 -0.18529201006E+03 -0.96642052989E+03  0.95764533729E+03  0.13730943065E+04  0.12699999809E+01 0.  1.
</event>
<event>
 5   0  0.4182977E-05  0.2087252E+04  0.7818609E-02  0.8566880E-01
       -1   -1    0    0    0  501  0.00000000000E+00  0.00000000000E+00  0.59617491050E+03  0.59617491052E+03  0.50400001928E-02 0. -1.
        1   -1    0    0  501    0  0.00000000000E+00  0.00000000000E+00 -0.18269047979E+04  0.18269047979E+04  0.50400001928E-02 0.  1.
    10030    2    1    2    0    0  0.00000000000E+00  0.00000000000E+00 -0.12307298874E+04  0.24230797085E+04  0.20872515943E+04 0.  0.
        1    1    3    3  502    0  0.98152015842E+02  0.40948563744E+03  0.49317874617E+03  0.64848869009E+03  0.50400001928E-02 0. -1.
       -1    1    3    3    0  502 -0.98152015842E+02 -0.40948563744E+03 -0.17239086336E+04  0.17745910184E+04  0.50400001928E-02 0.  1.
</event>
<event>
 5   0  0.4174093E-05  0.2099347E+04  0.7818609E-02  0.8561531E-01
        1   -1    0    0  501    0  0.00000000000E+00  0.00000000000E+00  0.91166775214E+03  0.91166775215E+03  0.50400001928E-02 0. -1.
       -1   -1    0    0    0  501  0.00000000000E+00  0.00000000000E+00 -0.12085698755E+04  0.12085698755E+04  0.50400001928E-02 0.  1.
    10030    2    1    2    0    0  0.00000000000E+00  0.00000000000E+00 -0.29690212338E+03  0.21202376277E+04  0.20993467381E+04 0.  0.
        3    1    3    3  502    0 -0.86943150834E+03 -0.58746872292E+03 -0.17672109746E+03  0.10640775369E+04  0.10100000352E+00 0.  1.
       -3    1    3    3    0  502  0.86943150834E+03  0.58746872292E+03 -0.12018102592E+03  0.10561600908E+04  0.10100000352E+00 0. -1.
</event>
<event>
 5   0  0.8872777E-05  0.2119847E+04  0.7818609E-02  0.8552551E-01
        2   -1    0    0  501    0  0.00000000000E+00  0.00000000000E+00  0.12582153569E+04  0.12582153569E+04  0.25500000920E-02 0.  1.
       -2   -1    0    0    0  501  0.00000000000E+00  0.00000000000E+00 -0.89288169566E+03  0.89288169566E+03  0.25500000920E-02 0. -1.
    10030    2    1    2    0    0  0.00000000000E+00  0.00000000000E+00  0.36533366126E+03  0.21510970526E+04  0.21198466562E+04 0.  0.
        3    1    3    3  502    0 -0.45440056570E+03 -0.68973250731E+03 -0.49137434048E+03  0.96107208806E+03  0.10100000352E+00 0. -1.
       -3    1    3    3    0  502  0.45440056570E+03  0.68973250731E+03  0.85670800174E+03  0.11900249645E+04  0.10100000352E+00 0.  1.
</event>
<event>
 5   0  0.9012466E-05  0.2107911E+04  0.7818609E-02  0.8557766E-01
        2   -1    0    0  501    0  0.00000000000E+00  0.00000000000E+00  0.66055502412E+03  0.66055502412E+03  0.25500000920E-02 0.  1.
       -2   -1    0    0    0  501  0.00000000000E+00  0.00000000000E+00 -0.16816498663E+04  0.16816498663E+04  0.25500000920E-02 0. -1.
    10030    2    1    2    0    0  0.00000000000E+00  0.00000000000E+00 -0.10210948422E+04  0.23422048905E+04  0.21079110684E+04 0.  0.
        2    1    3    3  502    0  0.46075191104E+03  0.48737076255E+03  0.39283830699E+03  0.77726734086E+03  0.25500000920E-02 0.  1.
       -2    1    3    3    0  502 -0.46075191104E+03 -0.48737076255E+03 -0.14139331492E+04  0.15649375496E+04  0.25500000920E-02 0. -1.
</event>
<event>
 5   0  0.3176125E-05  0.2101281E+04  0.7818609E-02  0.8560679E-01
        4   -1    0    0  501    0  0.00000000000E+00  0.00000000000E+00  0.19895627592E+04  0.19895631645E+04  0.12699999809E+01 0. -1.
       -4   -1    0    0    0  501  0.00000000000E+00  0.00000000000E+00 -0.55481703424E+03  0.55481848778E+03  0.12699999809E+01 0.  1.
    10030    2    1    2    0    0  0.00000000000E+00  0.00000000000E+00  0.14347457250E+04  0.25443816523E+04  0.21012812038E+04 0.  0.
        5    1    3    3  502    0  0.18056180533E+03  0.49373443295E+03  0.18188316663E+04  0.18932899874E+04  0.46999998093E+01 0. -1.
       -5    1    3    3    0  502 -0.18056180533E+03 -0.49373443295E+03 -0.38408594136E+03  0.65109166496E+03  0.46999998093E+01 0.  1.
</event>
<event>
 5   0  0.4050368E-05  0.2092477E+04  0.7818609E-02  0.8564564E-01
       -1   -1    0    0    0  501  0.00000000000E+00  0.00000000000E+00  0.84828920518E+03  0.84828920519E+03  0.50400001928E-02 0. -1.
        1   -1    0    0  501    0  0.00000000000E+00  0.00000000000E+00 -0.12903800401E+04  0.12903800401E+04  0.50400001928E-02 0.  1.
    10030    2    1    2    0    0  0.00000000000E+00  0.00000000000E+00 -0.44209083494E+03  0.21386692453E+04  0.20924774394E+04 0.  0.
        2    1    3    3  502    0  0.91659914043E+03 -0.25150744449E+03  0.22587789323E+03  0.97694974360E+03  0.25500000920E-02 0. -1.
       -2    1    3    3    0  502 -0.91659914043E+03  0.25150744449E+03 -0.66796872817E+03  0.11617195017E+04  0.25500000920E-02 0.  1.
</event>
<event>
 5   0  0.8547605E-05  0.2092867E+04  0.7818609E-02  0.8564392E-01
        2   -1    0    0  501    0  0.00000000000E+00  0.00000000000E+00  0.60872522618E+03  0.60872522618E+03  0.25500000920E-02 0. -1.
       -2   -1    0    0    0  501  0.00000000000E+00  0.00000000000E+00 -0.17988786122E+04  0.17988786122E+04  0.25500000920E-02 0.  1.
    10030    2    1    2    0    0  0.00000000000E+00  0.00000000000E+00 -0.11901533860E+04  0.24076038384E+04  0.20928667326E+04 0.  0.
        4    1    3    3  502    0  0.72539297237E+03  0.75243384150E+03 -0.65451420351E+03  0.12331837275E+04  0.12699999809E+01 0. -1.
       -4    1    3    3    0  502 -0.72539297237E+03 -0.75243384150E+03 -0.53563918253E+03  0.11744201109E+04  0.12699999809E+01 0.  1.
</event>
<event>
 5   0  0.4174093E-05  0.2111619E+04  0.7818609E-02  0.8556142E-01
       -1   -1    0    0    0  501  0.00000000000E+00  0.00000000000E+00  0.15085370707E+04  0.15085370707E+04  0.50400001928E-02 0. -1.
        1   -1    0    0  501    0  0.00000000000E+00  0.00000000000E+00 -0.73895048402E+03  0.73895048403E+03  0.50400001928E-02 0.  1.
    10030    2    1    2    0    0  0.00000000000E+00  0.00000000000E+00  0.76958658665E+03  0.22474875547E+04  0.21116194719E+04 0.  0.
        3    1    3    3  502    0  0.80297005416E+03  0.68157321050E+03  0.46323212251E+03  0.11506028675E+04  0.10100000352E+00 0.  1.
       -3    1    3    3    0  502 -0.80297005416E+03 -0.68157321050E+03  0.30635446415E+03  0.10968846872E+04  0.10100000352E+00 0. -1.
</event>
<event>
 5   0  0.8858590E-05  0.1956650E+04  0.7818609E-02  0.8627161E-01
        2   -1    0    0  501    0  0.00000000000E+00  0.00000000000E+00  0.15283671417E+04  0.15283671417E+04  0.25500000920E-02 0. -1.
       -2   -1    0    0    0  501  0.00000000000E+00  0.00000000000E+00 -0.62623713082E+03  0.62623713082E+03  0.25500000920E-02 0.  1.
    10030    2    1    2    0    0  0.00000000000E+00  0.00000000000E+00  0.90213001091E+03  0.21546042725E+04  0.19566504580E+04 0.  0.
        1    1    3    3  502    0 -0.82696306023E+03 -0.19288404650E+02 -0.12416345605E+03  0.83645472644E+03  0.50400001928E-02 0. -1.
       -1    1    3    3    0  502  0.82696306023E+03  0.19288404650E+02  0.10262934670E+04  0.13181495461E+04  0.50400001928E-02 0.  1.
</event>
<event>
 5   0  0.4050368E-05  0.2119417E+04  0.7818609E-02  0.8552738E-01
        1   -1    0    0  501    0  0.00000000000E+00  0.00000000000E+00  0.10161114818E+04  0.10161114818E+04  0.50400001928E-02 0.  1.
       -1   -1    0    0    0  501  0.00000000000E+00  0.00000000000E+00 -0.11051760735E+04  0.11051760735E+04  0.50400001928E-02 0. -1.
    10030    2    1    2    0    0  0.00000000000E+00  0.00000000000E+00 -0.89064591736E+02  0.21212875553E+04  0.21194169932E+04 0.  0.
        2    1    3    3  502    0  0.66454007731E+02  0.80896621047E+03  0.63734692970E+03  0.10320143282E+04  0.25500000920E-02 0.  1.
       -2    1    3    3    0  502 -0.66454007731E+02 -0.80896621047E+03 -0.72641152143E+03  0.10892732271E+04  0.25500000920E-02 0. -1.
</event>
<event>
 5   0  0.4200061E-05  0.2171348E+04  0.7818609E-02  0.8530449E-01
       -1   -1    0    0    0  501  0.00000000000E+00  0.00000000000E+00  0.10627864693E+04  0.10627864693E+04  0.50400001928E-02 0. -1.
        1   -1    0    0  501    0  0.00000000000E+00  0.00000000000E+00 -0.11090544963E+04  0.11090544963E+04  0.50400001928E-02 0.  1.
    10030    2    1    2    0    0  0.00000000000E+00  0.00000000000E+00 -0.46268027045E+02  0.21718409656E+04  0.21713480720E+04 0.  0.
        4    1    3    3  502    0  0.65442301701E+03 -0.24785223420E+03 -0.85337441130E+03  0.11036075906E+04  0.12699999809E+01 0.  1.
       -4    1    3    3    0  502 -0.65442301701E+03  0.24785223420E+03  0.80710638425E+03  0.10682333751E+04  0.12699999809E+01 0. -1.
</event>
<event>
 5   0  0.8547605E-05  0.2081635E+04  0.7818609E-02  0.8569377E-01
       -2   -1    0    0    0  501  0.00000000000E+00  0.00000000000E+00  0.52674285845E+03  0.52674285846E+03  0.25500000920E-02 0. -1.
        2   -1    0    0  501    0  0.00000000000E+00  0.00000000000E+00 -0.20566038233E+04  0.20566038233E+04  0.25500000920E-02 0.  1.
    10030    2    1    2    0    0  0.00000000000E+00  0.00000000000E+00 -0.15298609648E+04  0.25833466817E+04  0.20816352962E+04 0.  0.
        4    1    3    3  502    0 -0.11203954287E+03  0.11794642307E+03 -0.20407280055E+04  0.20472021452E+04  0.12699999809E+01 0.  1.
       -4    1    3    3    0  502  0.11203954287E+03 -0.11794642307E+03  0.51086704070E+03  0.53614453653E+03  0.12699999809E+01 0. -1.
</event>
<event>
 5   0  0.9012466E-05  0.2100152E+04  0.7818609E-02  0.8561176E-01
        2   -1    0    0  501    0  0.00000000000E+00  0.00000000000E+00  0.15651602777E+04  0.15651602777E+04  0.25500000920E-02 0. -1.
       -2   -1    0    0    0  501  0.00000000000E+00  0.00000000000E+00 -0.70450268850E+03  0.70450268851E+03  0.25500000920E-02 0.  1.
    10030    2    1    2    0    0  0.00000000000E+00  0.00000000000E+00  0.86065758921E+03  0.22696629662E+04  0.21001520170E+04 0.  0.
        2    1    3    3  502    0  0.44121278004E+03  0.26567474264E+03  0.14192897601E+04  0.15098460879E+04  0.25500000920E-02 0. -1.
       -2    1    3    3    0  502 -0.44121278004E+03 -0.26567474264E+03 -0.55863217089E+03  0.75981687827E+03  0.25500000920E-02 0.  1.
</event>
<event>
 5   0  0.4128678E-05  0.2085986E+04  0.7818609E-02  0.8567442E-01
        1   -1    0    0  501    0  0.00000000000E+00  0.00000000000E+00  0.13490306099E+04  0.13490306099E+04  0.50400001928E-02 0. -1.
       -1   -1    0    0    0  501  0.00000000000E+00  0.00000000000E+00 -0.80638227517E+03  0.80638227519E+03  0.50400001928E-02 0.  1.
    10030    2    1    2    0    0  0.00000000000E+00  0.00000000000E+00  0.54264833468E+03  0.21554128850E+04  0.20859859755E+04 0.  0.
        5    1    3    3  502    0 -0.37198681776E+03 -0.95127149896E+03  0.53302469438E+02  0.10228171394E+04  0.46999998093E+01 0.  1.
       -5    1    3    3    0  502  0.37198681776E+03  0.95127149896E+03  0.48934586524E+03  0.11325957457E+04  0.46999998093E+01 0. -1.
</event>
<event>
 5   0  0.9086985E-05  0.2074720E+04  0.7818609E-02  0.8572462E-01
       -2   -1    0    0    0  501  0.00000000000E+00  0.00000000000E+00  0.67335489075E+03  0.67335489076E+03  0.25500000920E-02 0.  1.
        2   -1    0    0  501    0  0.00000000000E+00  0.00000000000E+00 -0.15981403628E+04  0.15981403628E+04  0.25500000920E-02 0. -1.
    10030    2    1    2    0    0  0.00000000000E+00  0.00000000000E+00 -0.92478547209E+03  0.22714952536E+04  0.20747198649E+04 0.  0.
        5    1    3    3  502    0 -0.36994993672E+03 -0.49843943868E+03 -0.13723583552E+04  0.15062185681E+04  0.46999998093E+01 0. -1.
       -5    1    3    3    0  502  0.36994993672E+03  0.49843943868E+03  0.44757288312E+03  0.76527668553E+03  0.46999998093E+01 0.  1.
</event>
<event>
 5   0  0.9012466E-05  0.2100210E+04  0.7818609E-02  0.8561151E-01
        2   -1    0    0  501    0  0.00000000000E+00  0.00000000000E+00  0.13262872266E+04  0.13262872266E+04  0.25500000920E-02 0. -1.
       -2   -1    0    0    0  501  0.00000000000E+00  0.00000000000E+00 -0.83143449145E+03  0.83143449145E+03  0.25500000920E-02 0.  1.
    10030    2    1    2    0    0  0.00000000000E+00  0.00000000000E+00  0.49485273520E+03  0.21577217181E+04  0.21002104140E+04 0.  0.
        2    1    3    3  502    0  0.19510893706E+03 -0.99894843651E+03 -0.18019551606E+02  0.10179833890E+04  0.25500000920E-02 0.  1.
       -2    1    3    3    0  502 -0.19510893706E+03  0.99894843651E+03  0.51287228681E+03  0.11397383291E+04  0.25500000920E-02 0. -1.
</event>
<event>
 5   0  0.9086985E-05  0.2127957E+04  0.7818609E-02  0.8549027E-01
        2   -1    0    0  501    0  0.00000000000E+00  0.00000000000E+00  0.11721696396E+04  0.11721696396E+04  0.25500000920E-02 0.  1.
       -2   -1    0    0    0  501  0.00000000000E+00  0.00000000000E+00 -0.96577357756E+03  0.96577357757E+03  0.25500000920E-02 0. -1.
    10030    2    1    2    0    0  0.00000000000E+00  0.00000000000E+00  0.20639606208E+03  0.21379432172E+04  0.21279572048E+04 0.  0.
        5    1    3    3  502    0  0.55655989327E+03 -0.53956697973E+03 -0.62901344047E+03  0.99828424745E+03  0.46999998093E+01 0. -1.
       -5    1    3    3    0  502 -0.55655989327E+03  0.53956697973E+03  0.83540950255E+03  0.11396589698E+04  0.46999998093E+01 0.  1.
</event>
<event>
 5   0  0.4174093E-05  0.2088211E+04  0.7818609E-02  0.8566454E-01
        1   -1    0    0  501    0  0.00000000000E+00  0.00000000000E+00  0.10618019376E+04  0.10618019376E+04  0.50400001928E-02 0. -1.
       -1   -1    0    0    0  501  0.00000000000E+00  0.00000000000E+00 -0.10267041381E+04  0.10267041381E+04  0.50400001928E-02 0.  1.
    10030    2    1    2    0    0  0.00000000000E+00  0.00000000000E+00  0.35097799503E+02  0.20885060758E+04  0.20882111419E+04 0.  0.
        3    1    3    3  502    0 -0.77270099521E+02 -0.32004550860E+02  0.10584463305E+04  0.10617455459E+04  0.10100000352E+00 0. -1.
       -3    1    3    3    0  502  0.77270099521E+02  0.32004550860E+02 -0.10233485310E+04  0.10267605299E+04  0.10100000352E+00 0.  1.
</event>
<event>
 5   0  0.8858590E-05  0.2146205E+04  0.7818609E-02  0.8541158E-01
        2   -1    0    0  501    0  0.00000000000E+00  0.00000000000E+00  0.15447356151E+04  0.15447356151E+04  0.25500000920E-02 0. -1.
       -2   -1    0    0    0  501  0.00000000000E+00  0.00000000000E+00 -0.74546663455E+03  0.74546663455E+03  0.25500000920E-02 0.  1.
    10030    2    1    2    0    0  0.00000000000E+00  0.00000000000E+00  0.79926898051E+03  0.22902022496E+04  0.21462048926E+04 0.  0.
        1    1    3    3  502    0 -0.77617751197E+03 -0.54546131849E+03 -0.13558443286E+03  0.95831243263E+03  0.50400001928E-02 0.  1.
       -1    1    3    3    0  502  0.77617751197E+03  0.54546131849E+03  0.93485341337E+03  0.13318898170E+04  0.50400001928E-02 0. -1.
</event>
<event>
 5   0  0.4174093E-05  0.2096559E+04  0.7818609E-02  0.8562761E-01
       -1   -1    0    0    0  501  0.00000000000E+00  0.00000000000E+00  0.15252411927E+04  0.15252411927E+04  0.50400001928E-02 0. -1.
        1   -1    0    0  501    0  0.00000000000E+00  0.00000000000E+00 -0.72046960504E+03  0.72046960506E+03  0.50400001928E-02 0.  1.
    10030    2    1    2    0    0  0.00000000000E+00  0.00000000000E+00  0.80477158762E+03  0.22457107977E+04  0.20965590091E+04 0.  0.
        3    1    3    3  502    0  0.32419610917E+03 -0.79255034013E+03  0.10500948530E+04  0.13549680326E+04  0.10100000352E+00 0. -1.
       -3    1    3    3    0  502 -0.32419610917E+03  0.79255034013E+03 -0.24532326541E+03  0.89074276511E+03  0.10100000352E+00 0.  1.
</event>
<event>
 5   0  0.9012466E-05  0.2115007E+04  0.7818609E-02  0.8554661E-01
        2   -1    0    0  501    0  0.00000000000E+00  0.00000000000E+00  0.15521050752E+04  0.15521050752E+04  0.25500000920E-02 0.  1.
       -2   -1    0    0    0  501  0.00000000000E+00  0.00000000000E+00 -0.72051396289E+03  0.72051396289E+03  0.25500000920E-02 0. -1.
    10030    2    1    2    0    0  0.00000000000E+00  0.00000000000E+00  0.83159111229E+03  0.22726190381E+04  0.21150067409E+04 0.  0.
        2    1    3    3  502    0  0.96057535369E+03  0.28103796724E+03  0.48840708220E+02  0.10020343128E+04  0.25500000920E-02 0. -1.
       -2    1    3    3    0  502 -0.96057535369E+03 -0.28103796724E+03  0.78275040407E+03  0.12705847253E+04  0.25500000920E-02 0.  1.
</event>
<event>
 5   0  0.8872777E-05  0.2115294E+04  0.7818609E-02  0.8554536E-01
        2   -1    0    0  501    0  0.00000000000E+00  0.00000000000E+00  0.20124852629E+04  0.20124852629E+04  0.25500000920E-02 0. -1.
       -2   -1    0    0    0  501  0.00000000000E+00  0.00000000000E+00 -0.55583857967E+03  0.55583857968E+03  0.25500000920E-02 0.  1.
    10030    2    1    2    0    0  0.00000000000E+00  0.00000000000E+00  0.14566466833E+04  0.25683238426E+04  0.21152937859E+04 0.  0.
        3    1    3    3  502    0  0.55223686958E+03  0.24787179935E+03  0.17813731557E+04  0.18814080682E+04  0.10100000352E+00 0. -1.
       -3    1    3    3    0  502 -0.55223686958E+03 -0.24787179935E+03 -0.32472647244E+03  0.68691577442E+03  0.10100000352E+00 0.  1.
</event>
<event>
 5   0  0.8858590E-05  0.2091993E+04  0.7818609E-02  0.8564779E-01
        2   -1    0    0  501    0  0.00000000000E+00  0.00000000000E+00  0.12297829993E+04  0.12297829993E+04  0.25500000920E-02 0. -1.
       -2   -1    0    0    0  501  0.00000000000E+00  0.00000000000E+00 -0.88967592838E+03  0.88967592838E+03  0.25500000920E-02 0.  1.
    10030    2    1    2    0    0  0.00000000000E+00  0.00000000000E+00  0.34010707088E+03  0.21194589277E+04  0.20919926688E+04 0.  0.
        1    1    3    3  502    0 -0.51356093813E+03  0.16308043728E+03 -0.73824847256E+03  0.91397531337E+03  0.50400001928E-02 0.  1.
       -1    1    3    3    0  502  0.51356093813E+03 -0.16308043728E+03  0.10783555434E+04  0.12054836143E+04  0.50400001928E-02 0. -1.
</event>
<event>
 5   0  0.9086985E-05  0.2103378E+04  0.7818609E-02  0.8559757E-01
        2   -1    0    0  501    0  0.00000000000E+00  0.00000000000E+00  0.13712852452E+04  0.13712852452E+04  0.25500000920E-02 0.  1.
       -2   -1    0    0    0  501  0.00000000000E+00  0.00000000000E+00 -0.80657878951E+03  0.80657878952E+03  0.25500000920E-02 0. -1.
    10030    2    1    2    0    0  0.00000000000E+00  0.00000000000E+00  0.56470645572E+03  0.21778640348E+04  0.21033778483E+04 0.  0.
        5    1    3    3  502    0  0.48911100463E+03 -0.90601803918E+03  0.50425363625E+03  0.11464693986E+04  0.46999998093E+01 0.  1.
       -5    1    3    3    0  502 -0.48911100463E+03  0.90601803918E+03  0.60452819472E+02  0.10313946362E+04  0.46999998093E+01 0. -1.
</event>
<event>
 5   0  0.4200061E-05  0.2094968E+04  0.7818609E-02  0.8563463E-01
        1   -1    0    0  501    0  0.00000000000E+00  0.00000000000E+00  0.14414585508E+04  0.14414585508E+04  0.50400001928E-02 0. -1.
       -1   -1    0    0    0  501  0.00000000000E+00  0.00000000000E+00 -0.76118957338E+03  0.76118957340E+03  0.50400001928E-02 0.  1.
    10030    2    1    2    0    0  0.00000000000E+00  0.00000000000E+00  0.68026897738E+03  0.22026481242E+04  0.20949684669E+04 0.  0.
        4    1    3    3  502    0 -0.41397745809E+03  0.94014069057E+03  0.12471372045E+03  0.10347932058E+04  0.12699999809E+01 0. -1.
       -4    1    3    3    0  502  0.41397745809E+03 -0.94014069057E+03  0.55555525693E+03  0.11678549183E+04  0.12699999809E+01 0.  1.
</event>
<event>
 5   0  0.4128678E-05  0.2137922E+04  0.7818609E-02  0.8544720E-01
        1   -1    0    0  501    0  0.00000000000E+00  0.00000000000E+00  0.10658803549E+04  0.10658803549E+04  0.50400001928E-02 0. -1.
       -1   -1    0    0    0  501  0.00000000000E+00  0.00000000000E+00 -0.10720504636E+04  0.10720504636E+04  0.50400001928E-02 0.  1.
    10030    2    1    2    0    0  0.00000000000E+00  0.00000000000E+00 -0.61701087391E+01  0.21379308185E+04  0.21379219150E+04 0.  0.
        5    1    3    3  502    0  0.86672978332E+02 -0.82318444143E+03  0.67331306771E+03  0.10670133115E+04  0.46999998093E+01 0. -1.
       -5    1    3    3    0  502 -0.86672978332E+02  0.82318444143E+03 -0.67948317645E+03  0.10709175070E+04  0.46999998093E+01 0.  1.
</event>
<event>
 5   0  0.8547605E-05  0.2110725E+04  0.7818609E-02  0.8556534E-01
       -2   -1    0    0    0  501  0.00000000000E+00  0.00000000000E+00  0.18580761713E+04  0.18580761713E+04  0.25500000920E-02 0. -1.
        2   -1    0    0  501    0  0.00000000000E+00  0.00000000000E+00 -0.59943158753E+03  0.59943158753E+03  0.25500000920E-02 0.  1.
    10030    2    1    2    0    0  0.00000000000E+00  0.00000000000E+00  0.12586445838E+04  0.24575077588E+04  0.21107245667E+04 0.  0.
        4    1    3    3  502    0  0.81191238215E+03 -0.60073677097E+03  0.98572149536E+03  0.14112883701E+04  0.12699999809E+01 0. -1.
       -4    1    3    3    0  502 -0.81191238215E+03  0.60073677097E+03  0.27292308843E+03  0.10462193887E+04  0.12699999809E+01 0.  1.
</event>
<event>
 5   0  0.4200061E-05  0.2129401E+04  0.7818609E-02  0.8548402E-01
        1   -1    0    0  501    0  0.00000000000E+00  0.00000000000E+00  0.13472942216E+04  0.13472942216E+04  0.50400001928E-02 0.  1.
       -1   -1    0    0    0  501  0.00000000000E+00  0.00000000000E+00 -0.84138023855E+03  0.84138023857E+03  0.50400001928E-02 0. -1.
    10030    2    1    2    0    0  0.00000000000E+00  0.00000000000E+00  0.50591398305E+03  0.21886744602E+04  0.21294006045E+04 0.  0.
        4    1    3    3  502    0  0.63311881566E+03 -0.82064577307E+03  0.50322227473E+03  0.11521862655E+04  0.12699999809E+01 0.  1.
       -4    1    3    3    0  502 -0.63311881566E+03  0.82064577307E+03  0.26917083158E+01  0.10364881947E+04  0.12699999809E+01 0. -1.
</event>
<event>
 5   0  0.4182977E-05  0.2150593E+04  0.7818609E-02  0.8539279E-01
       -1   -1    0    0    0  501  0.00000000000E+00  0.00000000000E+00  0.18512230590E+04  0.18512230590E+04  0.50400001928E-02 0.  1.
        1   -1    0    0  501    0  0.00000000000E+00  0.00000000000E+00 -0.62459367054E+03  0.62459367056E+03  0.50400001928E-02 0. -1.
    10030    2    1    2    0    0  0.00000000000E+00  0.00000000000E+00  0.12266293884E+04  0.24758167296E+04  0.21505926676E+04 0.  0.
        1    1    3    3  502    0  0.33368991830E+03  0.34523251298E+03 -0.49433383484E+03  0.68913016904E+03  0.50400001928E-02 0. -1.
       -1    1    3    3    0  502 -0.33368991830E+03 -0.34523251298E+03  0.17209632233E+04  0.17866865605E+04  0.50400001928E-02 0.  1.
</event>
<event>
 5   0  0.8858590E-05  0.2117133E+04  0.7818609E-02  0.8553734E-01
        2   -1    0    0  501    0  0.00000000000E+00  0.00000000000E+00  0.11652278656E+04  0.11652278656E+04  0.25500000920E-02 0. -1.
       -2   -1    0    0    0  501  0.00000000000E+00  0.00000000000E+00 -0.96166830682E+03  0.96166830682E+03  0.25500000920E-02 0.  1.
    10030    2    1    2    0    0  0.00000000000E+00  0.00000000000E+00  0.20355955880E+03  0.21268961724E+04  0.21171326917E+04 0.  0.
        1    1    3    3  502    0 -0.19623771315E+02  0.77437722118E+03 -0.62301639728E+03  0.99407977767E+03  0.50400001928E-02 0. -1.
       -1    1    3    3    0  502  0.19623771315E+02 -0.77437722118E+03  0.82657595608E+03  0.11328163948E+04  0.50400001928E-02 0.  1.
</event>
<event>
 5   0  0.4128678E-05  0.2094869E+04  0.7818609E-02  0.8563507E-01
        1   -1    0    0  501    0  0.00000000000E+00  0.00000000000E+00  0.14772493146E+04  0.14772493146E+04  0.50400001928E-02 0.  1.
       -1   -1    0    0    0  501  0.00000000000E+00  0.00000000000E+00 -0.74267724981E+03  0.74267724982E+03  0.50400001928E-02 0. -1.
    10030    2    1    2    0    0  0.00000000000E+00  0.00000000000E+00  0.73457206475E+03  0.22199265644E+04  0.20948694071E+04 0.  0.
        5    1    3    3  502    0  0.90143161051E+02 -0.74637683753E+03 -0.40556158206E+03  0.85422857593E+03  0.46999998093E+01 0. -1.
       -5    1    3    3    0  502 -0.90143161051E+02  0.74637683753E+03  0.11401336468E+04  0.13656979885E+04  0.46999998093E+01 0.  1.
</event>
<event>
 5   0  0.8547605E-05  0.1981262E+04  0.7818609E-02  0.8615432E-01
       -2   -1    0    0    0  501  0.00000000000E+00  0.00000000000E+00  0.95365289950E+03  0.95365289951E+03  0.25500000920E-02 0. -1.
        2   -1    0    0  501    0  0.00000000000E+00  0.00000000000E+00 -0.10290428810E+04  0.10290428810E+04  0.25500000920E-02 0.  1.
    10030    2    1    2    0    0  0.00000000000E+00  0.00000000000E+00 -0.75389981487E+02  0.19826957805E+04  0.19812619485E+04 0.  0.
        4    1    3    3  502    0  0.42490949958E+02 -0.76572004650E+03 -0.66521772891E+03  0.10152088013E+04  0.12699999809E+01 0.  1.
       -4    1    3    3    0  502 -0.42490949958E+02  0.76572004650E+03  0.58982774743E+03  0.96748697922E+03  0.12699999809E+01 0. -1.
</event>
<event>
 5   0  0.8858590E-05  0.2117744E+04  0.7818609E-02  0.8553467E-01
        2   -1    0    0  501    0  0.00000000000E+00  0.00000000000E+00  0.11655005727E+04  0.11655005727E+04  0.25500000920E-02 0.  1.
       -2   -1    0    0    0  501  0.00000000000E+00  0.00000000000E+00 -0.96199847834E+03  0.96199847834E+03  0.25500000920E-02 0. -1.
    10030    2    1    2    0    0  0.00000000000E+00  0.00000000000E+00  0.20350209438E+03  0.21274990511E+04  0.21177438726E+04 0.  0.
        1    1    3    3  502    0 -0.57117065646E+03  0.82519931954E+03 -0.23747277908E+03  0.10313016807E+04  0.50400001928E-02 0. -1.
       -1    1    3    3    0  502  0.57117065646E+03 -0.82519931954E+03  0.44097487346E+03  0.10961973704E+04  0.50400001928E-02 0.  1.
</event>
<event>
 5   0  0.8872777E-05  0.2111014E+04  0.7818609E-02  0.8556407E-01
        2   -1    0    0  501    0  0.00000000000E+00  0.00000000000E+00  0.99258676597E+03  0.99258676597E+03  0.25500000920E-02 0. -1.
       -2   -1    0    0    0  501  0.00000000000E+00  0.00000000000E+00 -0.11224153100E+04  0.11224153100E+04  0.25500000920E-02 0.  1.
    10030    2    1    2    0    0  0.00000000000E+00  0.00000000000E+00 -0.12982854402E+03  0.21150020760E+04  0.21110135789E+04 0.  0.
        3    1    3    3  502    0 -0.61708579504E+03 -0.48053742085E+03 -0.77504359576E+03  0.11010920383E+04  0.10100000352E+00 0.  1.
       -3    1    3    3    0  502  0.61708579504E+03  0.48053742085E+03  0.64521505174E+03  0.10139100377E+04  0.10100000352E+00 0. -1.
</event>
<event>
 5   0  0.9012466E-05  0.2105392E+04  0.7818609E-02  0.8558872E-01
       -2   -1    0    0    0  501  0.00000000000E+00  0.00000000000E+00  0.60103541153E+03  0.60103541153E+03  0.25500000920E-02 0.  1.
        2   -1    0    0  501    0  0.00000000000E+00  0.00000000000E+00 -0.18437658300E+04  0.18437658300E+04  0.25500000920E-02 0. -1.
    10030    2    1    2    0    0  0.00000000000E+00  0.00000000000E+00 -0.12427304184E+04  0.24448012415E+04  0.21053917017E+04 0.  0.
        2    1    3    3  502    0 -0.40632354650E+03 -0.35395838772E+03 -0.16714629886E+04  0.17561816213E+04  0.25500000920E-02 0. -1.
       -2    1    3    3    0  502  0.40632354650E+03  0.35395838772E+03  0.42873257013E+03  0.68861962024E+03  0.25500000920E-02 0.  1.
</event>
<event>
 5   0  0.8858590E-05  0.2084294E+04  0.7818609E-02  0.8568194E-01
        2   -1    0    0  501    0  0.00000000000E+00  0.00000000000E+00  0.13885762507E+04  0.13885762507E+04  0.25500000920E-02 0.  1.
       -2   -1    0    0    0  501  0.00000000000E+00  0.00000000000E+00 -0.78214692614E+03  0.78214692614E+03  0.25500000920E-02 0. -1.
    10030    2    1    2    0    0  0.00000000000E+00  0.00000000000E+00  0.60642932461E+03  0.21707231769E+04  0.20842942654E+04 0.  0.
        1    1    3    3  502    0 -0.39575692145E+03  0.43731057783E+03 -0.59160261477E+03  0.83537879802E+03  0.50400001928E-02 0. -1.
       -1    1    3    3    0  502  0.39575692145E+03 -0.43731057783E+03  0.11980319394E+04  0.13353443789E+04  0.50400001928E-02 0.  1.
</event>
<event>
 5   0  0.8872777E-05  0.2087099E+04  0.7818609E-02  0.8566948E-01
       -2   -1    0    0    0  501  0.00000000000E+00  0.00000000000E+00  0.80004724390E+03  0.80004724391E+03  0.25500000920E-02 0.  1.
        2   -1    0    0  501    0  0.00000000000E+00  0.00000000000E+00 -0.13611642965E+04  0.13611642965E+04  0.25500000920E-02 0. -1.
    10030    2    1    2    0    0  0.00000000000E+00  0.00000000000E+00 -0.56111705255E+03  0.21612115404E+04  0.20870991772E+04 0.  0.
        3    1    3    3  502    0 -0.37759875058E+03 -0.37812837200E+03  0.64761516450E+03  0.83962330461E+03  0.10100000352E+00 0.  1.
       -3    1    3    3    0  502  0.37759875058E+03  0.37812837200E+03 -0.12087322171E+04  0.13215882358E+04  0.10100000352E+00 0. -1.
</event>
<event>
 5   0  0.9012466E-05  0.2093262E+04  0.7818609E-02  0.8564217E-01
       -2   -1    0    0    0  501  0.00000000000E+00  0.00000000000E+00  0.11332852569E+04  0.11332852569E+04  0.25500000920E-02 0. -1.
        2   -1    0    0  501    0  0.00000000000E+00  0.00000000000E+00 -0.96660294602E+03  0.96660294602E+03  0.25500000920E-02 0.  1.
    10030    2    1    2    0    0  0.00000000000E+00  0.00000000000E+00  0.16668231091E+03  0.20998882030E+04  0.20932623993E+04 0.  0.
        2    1    3    3  502    0 -0.77383603628E+03 -0.39062129816E+03 -0.50505583596E+03  0.10032390578E+04  0.25500000920E-02 0.  1.
       -2    1    3    3    0  502  0.77383603628E+03  0.39062129816E+03  0.67173814687E+03  0.10966491452E+04  0.25500000920E-02 0. -1.
</event>
<event>
 5   0  0.4174093E-05  0.1874410E+04  0.7818609E-02  0.8667700E-01
       -1   -1    0    0    0  501  0.00000000000E+00  0.00000000000E+00  0.13525252196E+04  0.13525252196E+04  0.50400001928E-02 0. -1.
        1   -1    0    0  501    0  0.00000000000E+00  0.00000000000E+00 -0.64941707843E+03  0.64941707845E+03  0.50400001928E-02 0.  1.
    10030    2    1    2    0    0  0.00000000000E+00  0.00000000000E+00  0.70310814114E+03  0.20019422980E+04  0.18744097488E+04 0.  0.
        3    1    3    3  502    0  0.58273237758E+03  0.35692374869E+02 -0.43147351513E+03  0.72596168905E+03  0.10100000352E+00 0.  1.
       -3    1    3    3    0  502 -0.58273237758E+03 -0.35692374869E+02  0.11345816563E+04  0.12759806090E+04  0.10100000352E+00 0. -1.
</event>
<event>
 5   0  0.4182977E-05  0.2082552E+04  0.7818609E-02  0.8568968E-01
       -1   -1    0    0    0  501  0.00000000000E+00  0.00000000000E+00  0.83170666125E+03  0.83170666127E+03  0.50400001928E-02 0.  1.
        1   -1    0    0  501    0  0.00000000000E+00  0.00000000000E+00 -0.13036517603E+04  0.13036517603E+04  0.50400001928E-02 0. -1.
    10030    2    1    2    0    0  0.00000000000E+00  0.00000000000E+00 -0.47194509904E+03  0.21353584216E+04  0.20825521391E+04 0.  0.
        1    1    3    3  502    0  0.77233697027E+03 -0.44755793712E+03 -0.78570456706E+03  0.11891779385E+04  0.50400001928E-02 0. -1.
       -1    1    3    3    0  502 -0.77233697027E+03  0.44755793712E+03  0.31375946802E+03  0.94618048306E+03  0.50400001928E-02 0.  1.
</event>
<event>
 5   0  0.9012466E-05  0.2102158E+04  0.7818609E-02  0.8560294E-01
        2   -1    0    0  501    0  0.00000000000E+00  0.00000000000E+00  0.12664986253E+04  0.12664986253E+04  0.25500000920E-02 0.  1.
       -2   -1    0    0    0  501  0.00000000000E+00  0.00000000000E+00 -0.87229992135E+03  0.87229992136E+03  0.25500000920E-02 0. -1.
    10030    2    1    2    0    0  0.00000000000E+00  0.00000000000E+00  0.39419870396E+03  0.21387985467E+04  0.21021576071E+04 0.  0.
        2    1    3    3  502    0  0.33952443374E+03  0.80074112488E+03 -0.40335984574E+03  0.95872955276E+03  0.25500000920E-02 0. -1.
       -2    1    3    3    0  502 -0.33952443374E+03 -0.80074112488E+03  0.79755854970E+03  0.11800689939E+04  0.25500000920E-02 0.  1.
</event>
<event>
 5   0  0.9086985E-05  0.2074881E+04  0.7818609E-02  0.8572390E-01
       -2   -1    0    0    0  501  0.00000000000E+00  0.00000000000E+00  0.65341780940E+03  0.65341780940E+03  0.25500000920E-02 0.  1.
        2   -1    0    0  501    0  0.00000000000E+00  0.00000000000E+00 -0.16471580796E+04  0.16471580796E+04  0.25500000920E-02 0. -1.
    10030    2    1    2    0    0  0.00000000000E+00  0.00000000000E+00 -0.99374027020E+03  0.23005758890E+04  0.20748806463E+04 0.  0.
        5    1    3    3  502    0  0.22787560443E+03 -0.59016936320E+02 -0.16171445565E+04  0.16341936533E+04  0.46999998093E+01 0. -1.
       -5    1    3    3    0  502 -0.22787560443E+03  0.59016936320E+02  0.62340428631E+03  0.66638223569E+03  0.46999998093E+01 0.  1.
</event>
<event>
 5   0  0.9086985E-05  0.2134337E+04  0.7818609E-02  0.8546267E-01
       -2   -1    0    0    0  501  0.00000000000E+00  0.00000000000E+00  0.64651482015E+03  0.64651482015E+03  0.25500000920E-02 0. -1.
        2   -1    0    0  501    0  0.00000000000E+00  0.00000000000E+00 -0.17615189389E+04  0.17615189389E+04  0.25500000920E-02 0.  1.
    10030    2    1    2    0    0  0.00000000000E+00  0.00000000000E+00 -0.11150041188E+04  0.24080337591E+04  0.21343365245E+04 0.  0.
        5    1    3    3  502    0 -0.20589539236E+03 -0.44755058567E+03  0.51053313399E+03  0.70947911190E+03  0.46999998093E+01 0. -1.
       -5    1    3    3    0  502  0.20589539236E+03  0.44755058567E+03 -0.16255372528E+04  0.16985546472E+04  0.46999998093E+01 0.  1.
</event>
<event>
 5   0  0.4200061E-05  0.1990557E+04  0.7818609E-02  0.8611048E-01
       -1   -1    0    0    0  501  0.00000000000E+00  0.00000000000E+00  0.99922101629E+03  0.99922101630E+03  0.50400001928E-02 0.  1.
        1   -1    0    0  501    0  0.00000000000E+00  0.00000000000E+00 -0.99135170448E+03  0.99135170449E+03  0.50400001928E-02 0. -1.
    10030    2    1    2    0    0  0.00000000000E+00  0.00000000000E+00  0.78693118147E+01  0.19905727208E+04  0.19905571659E+04 0.  0.
        4    1    3    3  502    0  0.17124434328E+03  0.11204578868E+03  0.97795405401E+03  0.99913694183E+03  0.12699999809E+01 0.  1.
       -4    1    3    3    0  502 -0.17124434328E+03 -0.11204578868E+03 -0.97008474220E+03  0.99143577897E+03  0.12699999809E+01 0. -1.
</event>
<event>
 5   0  0.4128678E-05  0.2104658E+04  0.7818609E-02  0.8559194E-01
        1   -1    0    0  501    0  0.00000000000E+00  0.00000000000E+00  0.18677553804E+04  0.18677553804E+04  0.50400001928E-02 0. -1.
       -1   -1    0    0    0  501  0.00000000000E+00  0.00000000000E+00 -0.59290243207E+03  0.59290243209E+03  0.50400001928E-02 0.  1.
    10030    2    1    2    0    0  0.00000000000E+00  0.00000000000E+00  0.12748529483E+04  0.24606578125E+04  0.21046583643E+04 0.  0.
        5    1    3    3  502    0 -0.24428567505E+03  0.47447565374E+03  0.16977943685E+04  0.17796995378E+04  0.46999998093E+01 0. -1.
       -5    1    3    3    0  502  0.24428567505E+03 -0.47447565374E+03 -0.42294142017E+03  0.68095827473E+03  0.46999998093E+01 0.  1.
</event>
<event>
 5   0  0.8858590E-05  0.2126943E+04  0.7818609E-02  0.8549467E-01
       -2   -1    0    0    0  501  0.00000000000E+00  0.00000000000E+00  0.61909426192E+03  0.61909426193E+03  0.25500000920E-02 0. -1.
        2   -1    0    0  501    0  0.00000000000E+00  0.00000000000E+00 -0.18268171830E+04  0.18268171830E+04  0.25500000920E-02 0.  1.
    10030    2    1    2    0    0  0.00000000000E+00  0.00000000000E+00 -0.12077229211E+04  0.24459114450E+04  0.21269433802E+04 0.  0.
        1    1    3    3  502    0  0.61918050662E+03 -0.57780378028E+03 -0.13435407835E+04  0.15881887625E+04  0.50400001928E-02 0.  1.
       -1    1    3    3    0  502 -0.61918050662E+03  0.57780378028E+03  0.13581786239E+03  0.85772268249E+03  0.50400001928E-02 0. -1.
</event>
<event>
 5   0  0.8547605E-05  0.2131234E+04  0.7818609E-02  0.8547608E-01
        2   -1    0    0  501    0  0.00000000000E+00  0.00000000000E+00  0.10031608387E+04  0.10031608388E+04  0.25500000920E-02 0. -1.
       -2   -1    0    0    0  501  0.00000000000E+00  0.00000000000E+00 -0.11319613420E+04  0.11319613420E+04  0.25500000920E-02 0.  1.
    10030    2    1    2    0    0  0.00000000000E+00  0.00000000000E+00 -0.12880050327E+03  0.21351221808E+04  0.21312337172E+04 0.  0.
        4    1    3    3  502    0 -0.20731941830E+03  0.90587243072E+03  0.45804088163E+03  0.10360450106E+04  0.12699999809E+01 0. -1.
       -4    1    3    3    0  502  0.20731941830E+03 -0.90587243072E+03 -0.58684138490E+03  0.10990771701E+04  0.12699999809E+01 0.  1.
</event>
<event>
 5   0  0.9012466E-05  0.2120256E+04  0.7818609E-02  0.8552373E-01
        2   -1    0    0  501    0  0.00000000000E+00  0.00000000000E+00  0.21312651134E+04  0.21312651134E+04  0.25500000920E-02 0. -1.
       -2   -1    0    0    0  501  0.00000000000E+00  0.00000000000E+00 -0.52732590308E+03  0.52732590308E+03  0.25500000920E-02 0.  1.
    10030    2    1    2    0    0  0.00000000000E+00  0.00000000000E+00  0.16039392104E+04  0.26585910165E+04  0.21202559286E+04 0.  0.
        2    1    3    3  502    0 -0.31344392230E+03 -0.10117421980E+04  0.85807285470E+03  0.13631428361E+04  0.25500000920E-02 0. -1.
       -2    1    3    3    0  502  0.31344392230E+03  0.10117421980E+04  0.74586635566E+03  0.12954481804E+04  0.25500000920E-02 0.  1.
</event>
<event>
 5   0  0.9012466E-05  0.2059401E+04  0.7818609E-02  0.8579341E-01
        2   -1    0    0  501    0  0.00000000000E+00  0.00000000000E+00  0.16327883257E+04  0.16327883257E+04  0.25500000920E-02 0.  1.
       -2   -1    0    0    0  501  0.00000000000E+00  0.00000000000E+00 -0.64936983386E+03  0.64936983386E+03  0.25500000920E-02 0. -1.
    10030    2    1    2    0    0  0.00000000000E+00  0.00000000000E+00  0.98341849184E+03  0.22821581596E+04  0.20594013536E+04 0.  0.
        2    1    3    3  502    0  0.71277962807E+03  0.69432068347E+03  0.19820744953E+03  0.10146044563E+04  0.25500000920E-02 0. -1.
       -2    1    3    3    0  502 -0.71277962807E+03 -0.69432068347E+03  0.78521104231E+03  0.12675537033E+04  0.25500000920E-02 0.  1.
</event>
<event>
 5   0  0.3176125E-05  0.2001441E+04  0.7818609E-02  0.8605947E-01
        4   -1    0    0  501    0  0.00000000000E+00  0.00000000000E+00  0.90842008436E+03  0.90842097211E+03  0.12699999809E+01 0. -1.
       -4   -1    0    0    0  501  0.00000000000E+00  0.00000000000E+00 -0.11023969849E+04  0.11023977164E+04  0.12699999809E+01 0.  1.
    10030    2    1    2    0    0  0.00000000000E+00  0.00000000000E+00 -0.19397690052E+03  0.20108186885E+04  0.20014406712E+04 0.  0.
        5    1    3    3  502    0 -0.29448494962E+03  0.93344173887E+03  0.11227633986E+03  0.98522227538E+03  0.46999998093E+01 0. -1.
       -5    1    3    3    0  502  0.29448494962E+03 -0.93344173887E+03 -0.30625324038E+03  0.10255964131E+04  0.46999998093E+01 0.  1.
</event>
<event>
 5   0  0.4174093E-05  0.2099102E+04  0.7818609E-02  0.8561639E-01
        1   -1    0    0  501    0  0.00000000000E+00  0.00000000000E+00  0.15830595222E+04  0.15830595222E+04  0.50400001928E-02 0. -1.
       -1   -1    0    0    0  501  0.00000000000E+00  0.00000000000E+00 -0.69584045128E+03  0.69584045130E+03  0.50400001928E-02 0.  1.
    10030    2    1    2    0    0  0.00000000000E+00  0.00000000000E+00  0.88721907087E+03  0.22788999735E+04  0.20991015719E+04 0.  0.
        3    1    3    3  502    0 -0.74290189017E+03 -0.71118771486E+03  0.21622855571E+03  0.10509262499E+04  0.10100000352E+00 0.  1.
       -3    1    3    3    0  502  0.74290189017E+03  0.71118771486E+03  0.67099051516E+03  0.12279737236E+04  0.10100000352E+00 0. -1.
</event>
<event>
 5   0  0.9086985E-05  0.2095511E+04  0.7818609E-02  0.8563224E-01
        2   -1    0    0  501    0  0.00000000000E+00  0.00000000000E+00  0.24529101741E+04  0.24529101741E+04  0.25500000920E-02 0. -1.
       -2   -1    0    0    0  501  0.00000000000E+00  0.00000000000E+00 -0.44754647602E+03  0.44754647603E+03  0.25500000920E-02 0.  1.
    10030    2    1    2    0    0  0.00000000000E+00  0.00000000000E+00  0.20053636981E+04  0.29004566502E+04  0.20955107296E+04 0.  0.
        5    1    3    3  502    0  0.26444199390E+03  0.13519111424E+03  0.23934130712E+04  0.24117741239E+04  0.46999998093E+01 0. -1.
       -5    1    3    3    0  502 -0.26444199390E+03 -0.13519111424E+03 -0.38804937308E+03  0.48868252624E+03  0.46999998093E+01 0.  1.
</event>
<event>
 5   0  0.8858590E-05  0.2078381E+04  0.7818609E-02  0.8570827E-01
       -2   -1    0    0    0  501  0.00000000000E+00  0.00000000000E+00  0.80859174508E+03  0.80859174508E+03  0.25500000920E-02 0.  1.
        2   -1    0    0  501    0  0.00000000000E+00  0.00000000000E+00 -0.13355531088E+04  0.13355531088E+04  0.25500000920E-02 0. -1.
    10030    2    1    2    0    0  0.00000000000E+00  0.00000000000E+00 -0.52696136374E+03  0.21441448539E+04  0.20783813114E+04 0.  0.
        1    1    3    3  502    0  0.10130847979E+04  0.12006458080E+03 -0.59327916419E+02  0.10218982890E+04  0.50400001928E-02 0. -1.
       -1    1    3    3    0  502 -0.10130847979E+04 -0.12006458080E+03 -0.46763344732E+03  0.11222465649E+04  0.50400001928E-02 0.  1.
</event>
<event>
 5   0  0.4200061E-05  0.2092878E+04  0.7818609E-02  0.8564387E-01
        1   -1    0    0  501    0  0.00000000000E+00  0.00000000000E+00  0.97930263413E+03  0.97930263414E+03  0.50400001928E-02 0.  1.
       -1   -1    0    0    0  501  0.00000000000E+00  0.00000000000E+00 -0.11181778791E+04  0.11181778792E+04  0.50400001928E-02 0. -1.
    10030    2    1    2    0    0  0.00000000000E+00  0.00000000000E+00 -0.13887524502E+03  0.20974805133E+04  0.20928779635E+04 0.  0.
        4    1    3    3  502    0  0.22121528080E+03  0.20060288914E+03 -0.10745665321E+04  0.11152903498E+04  0.12699999809E+01 0. -1.
       -4    1    3    3    0  502 -0.22121528080E+03 -0.20060288914E+03  0.93569128709E+03  0.98219016347E+03  0.12699999809E+01 0.  1.
</event>
<event>
 5   0  0.4174093E-05  0.2106270E+04  0.7818609E-02  0.8558486E-01
        1   -1    0    0  501    0  0.00000000000E+00  0.00000000000E+00  0.15321084800E+04  0.15321084801E+04  0.50400001928E-02 0.  1.
       -1   -1    0    0    0  501  0.00000000000E+00  0.00000000000E+00 -0.72390021566E+03  0.72390021568E+03  0.50400001928E-02 0. -1.
    10030    2    1    2    0    0  0.00000000000E+00  0.00000000000E+00  0.80820826439E+03  0.22560086957E+04  0.21062703142E+04 0.  0.
        3    1    3    3  502    0  0.87631217624E+03 -0.58075710669E+03  0.33728481752E+03  0.11040665313E+04  0.10100000352E+00 0.  1.
       -3    1    3    3    0  502 -0.87631217624E+03  0.58075710669E+03  0.47092344687E+03  0.11519421644E+04  0.10100000352E+00 0. -1.
</event>
<event>
 5   0  0.9086985E-05  0.2124924E+04  0.7818609E-02  0.8550343E-01
        2   -1    0    0  501    0  0.00000000000E+00  0.00000000000E+00  0.12201139417E+04  0.12201139417E+04  0.25500000920E-02 0. -1.
       -2   -1    0    0    0  501  0.00000000000E+00  0.00000000000E+00 -0.92518062836E+03  0.92518062836E+03  0.25500000920E-02 0.  1.
    10030    2    1    2    0    0  0.00000000000E+00  0.00000000000E+00  0.29493331330E+03  0.21452945700E+04  0.21249242652E+04 0.  0.
        5    1    3    3  502    0  0.96120572451E+03 -0.42947933851E+03  0.31461311416E+01  0.10528062192E+04  0.46999998093E+01 0.  1.
       -5    1    3    3    0  502 -0.96120572451E+03  0.42947933851E+03  0.29178718216E+03  0.10924883508E+04  0.46999998093E+01 0. -1.
</event>
<event>
 5   0  0.9086985E-05  0.2133760E+04  0.7818609E-02  0.8546516E-01
        2   -1    0    0  501    0  0.00000000000E+00  0.00000000000E+00  0.22245193752E+04  0.22245193752E+04  0.25500000920E-02 0.  1.
       -2   -1    0    0    0  501  0.00000000000E+00  0.00000000000E+00 -0.51167605573E+03  0.51167605574E+03  0.25500000920E-02 0. -1.
    10030    2    1    2    0    0  0.00000000000E+00  0.00000000000E+00  0.17128433195E+04  0.27361954309E+04  0.21337603425E+04 0.  0.
        5    1    3    3  502    0 -0.65804929604E+03 -0.68748357386E+03  0.23803743261E+03  0.98099258390E+03  0.46999998093E+01 0. -1.
       -5    1    3    3    0  502  0.65804929604E+03  0.68748357386E+03  0.14748058869E+04  0.17552028470E+04  0.46999998093E+01 0.  1.
</event>
<event>
 5   0  0.9012466E-05  0.2099224E+04  0.7818609E-02  0.8561585E-01
        2   -1    0    0  501    0  0.00000000000E+00  0.00000000000E+00  0.15682752386E+04  0.15682752386E+04  0.25500000920E-02 0. -1.
       -2   -1    0    0    0  501  0.00000000000E+00  0.00000000000E+00 -0.70248198865E+03  0.70248198866E+03  0.25500000920E-02 0.  1.
    10030    2    1    2    0    0  0.00000000000E+00  0.00000000000E+00  0.86579324990E+03  0.22707572272E+04  0.20992237692E+04 0.  0.
        2    1    3    3  502    0 -0.26376507425E+03  0.48151355722E+03 -0.53477258963E+03  0.76642614961E+03  0.25500000920E-02 0.  1.
       -2    1    3    3    0  502  0.26376507425E+03 -0.48151355722E+03  0.14005658395E+04  0.15043310776E+04  0.25500000920E-02 0. -1.
</event>
<event>
 5   0  0.8547605E-05  0.2101320E+04  0.7818609E-02  0.8560662E-01
       -2   -1    0    0    0  501  0.00000000000E+00  0.00000000000E+00  0.11005359763E+04  0.11005359763E+04  0.25500000920E-02 0. -1.
        2   -1    0    0  501    0  0.00000000000E+00  0.00000000000E+00 -0.10030445112E+04  0.10030445112E+04  0.25500000920E-02 0.  1.
    10030    2    1    2    0    0  0.00000000000E+00  0.00000000000E+00  0.97491465091E+02  0.21035804875E+04  0.21013201283E+04 0.  0.
        4    1    3    3  502    0 -0.76982058600E+03  0.77489775386E+02  0.76032435530E+03  0.10847687026E+04  0.12699999809E+01 0. -1.
       -4    1    3    3    0  502  0.76982058600E+03 -0.77489775386E+02 -0.66283289021E+03  0.10188117850E+04  0.12699999809E+01 0.  1.
</event>
<event>
 5   0  0.4182977E-05  0.2030646E+04  0.7818609E-02  0.8592425E-01
       -1   -1    0    0    0  501  0.00000000000E+00  0.00000000000E+00  0.11420124733E+04  0.11420124733E+04  0.50400001928E-02 0.  1.
        1   -1    0    0  501    0  0.00000000000E+00  0.00000000000E+00 -0.90268827060E+03  0.90268827062E+03  0.50400001928E-02 0. -1.
    10030    2    1    2    0    0  0.00000000000E+00  0.00000000000E+00  0.23932420269E+03  0.20447007439E+04  0.20306464631E+04 0.  0.
        1    1    3    3  502    0  0.36424328711E+03 -0.87620137983E+03 -0.24405702203E+03  0.97977847509E+03  0.50400001928E-02 0. -1.
       -1    1    3    3    0  502 -0.36424328711E+03  0.87620137983E+03  0.48338122472E+03  0.10649222688E+04  0.50400001928E-02 0.  1.
</event>
<event>
 5   0  0.4182977E-05  0.2107724E+04  0.7818609E-02  0.8557848E-01
       -1   -1    0    0    0  501  0.00000000000E+00  0.00000000000E+00  0.75334035090E+03  0.75334035091E+03  0.50400001928E-02 0.  1.
        1   -1    0    0  501    0  0.00000000000E+00  0.00000000000E+00 -0.14742677592E+04  0.14742677592E+04  0.50400001928E-02 0. -1.
    10030    2    1    2    0    0  0.00000000000E+00  0.00000000000E+00 -0.72092740833E+03  0.22276081101E+04  0.21077242619E+04 0.  0.
        1    1    3    3  502    0 -0.26793004423E+03  0.88843784743E+03 -0.88839223097E+03  0.12846591273E+04  0.50400001928E-02 0. -1.
       -1    1    3    3    0  502  0.26793004423E+03 -0.88843784743E+03  0.16746482264E+03  0.94294898282E+03  0.50400001928E-02 0.  1.
</event>
<event>
 5   0  0.4174093E-05  0.2105454E+04  0.7818609E-02  0.8558845E-01
        1   -1    0    0  501    0  0.00000000000E+00  0.00000000000E+00  0.43767293920E+03  0.43767293923E+03  0.50400001928E-02 0. -1.
       -1   -1    0    0    0  501  0.00000000000E+00  0.00000000000E+00 -0.25321053791E+04  0.25321053791E+04  0.50400001928E-02 0.  1.
    10030    2    1    2    0    0  0.00000000000E+00  0.00000000000E+00 -0.20944324399E+04  0.29697783184E+04  0.21054538738E+04 0.  0.
        3    1    3    3  502    0  0.45178890389E+03  0.83097216718E+03 -0.16991223464E+04  0.19446451384E+04  0.10100000352E+00 0. -1.
       -3    1    3    3    0  502 -0.45178890389E+03 -0.83097216718E+03 -0.39531009353E+03  0.10251331799E+04  0.10100000352E+00 0.  1.
</event>
<event>
 5   0  0.8858590E-05  0.2050923E+04  0.7818609E-02  0.8583176E-01
        2   -1    0    0  501    0  0.00000000000E+00  0.00000000000E+00  0.11392893329E+04  0.11392893329E+04  0.25500000920E-02 0. -1.
       -2   -1    0    0    0  501  0.00000000000E+00  0.00000000000E+00 -0.92300625558E+03  0.92300625559E+03  0.25500000920E-02 0.  1.
    10030    2    1    2    0    0  0.00000000000E+00  0.00000000000E+00  0.21628307733E+03  0.20622955885E+04  0.20509228959E+04 0.  0.
        1    1    3    3  502    0  0.86207012894E+03 -0.46207295042E+03 -0.20161674530E+03  0.99866192013E+03  0.50400001928E-02 0.  1.
       -1    1    3    3    0  502 -0.86207012894E+03  0.46207295042E+03  0.41789982263E+03  0.10636336684E+04  0.50400001928E-02 0. -1.
</event>
<event>
 5   0  0.3176125E-05  0.1837606E+04  0.7818609E-02  0.8686553E-01
       -3   -1    0    0    0  501  0.00000000000E+00  0.00000000000E+00  0.50331751656E+03  0.50331752669E+03  0.10100000352E+00 0. -1.
        3   -1    0    0  501    0  0.00000000000E+00  0.00000000000E+00 -0.16772686454E+04  0.16772686485E+04  0.10100000352E+00 0.  1.
    10030    2    1    2    0    0  0.00000000000E+00  0.00000000000E+00 -0.11739511289E+04  0.21805861752E+04  0.18376057287E+04 0.  0.
        3    1    3    3  502    0 -0.13318004802E+03  0.89552402357E+03 -0.77270921252E+03  0.11902855705E+04  0.10100000352E+00 0.  1.
       -3    1    3    3    0  502  0.13318004802E+03 -0.89552402357E+03 -0.40124191634E+03  0.99030060467E+03  0.10100000352E+00 0. -1.
</event>
<event>
 5   0  0.8547605E-05  0.1836261E+04  0.7818609E-02  0.8687250E-01
       -2   -1    0    0    0  501  0.00000000000E+00  0.00000000000E+00  0.64126746859E+03  0.64126746860E+03  0.25500000920E-02 0.  1.
        2   -1    0    0  501    0  0.00000000000E+00  0.00000000000E+00 -0.13145275637E+04  0.13145275637E+04  0.25500000920E-02 0. -1.
    10030    2    1    2    0    0  0.00000000000E+00  0.00000000000E+00 -0.67326009508E+03  0.19557950323E+04  0.18362611613E+04 0.  0.
        4    1    3    3  502    0 -0.72923298874E+03  0.48562116201E+03 -0.44254826893E+02  0.87725068679E+03  0.12699999809E+01 0.  1.
       -4    1    3    3    0  502  0.72923298874E+03 -0.48562116201E+03 -0.62900526818E+03  0.10785443455E+04  0.12699999809E+01 0. -1.
</event>
<event>
 5   0  0.4200061E-05  0.2114507E+04  0.7818609E-02  0.8554880E-01
        1   -1    0    0  501    0  0.00000000000E+00  0.00000000000E+00  0.16446356456E+04  0.16446356456E+04  0.50400001928E-02 0. -1.
       -1   -1    0    0    0  501  0.00000000000E+00  0.00000000000E+00 -0.67965513721E+03  0.67965513723E+03  0.50400001928E-02 0.  1.
    10030    2    1    2    0    0  0.00000000000E+00  0.00000000000E+00  0.96498050841E+03  0.23242907829E+04  0.21145070966E+04 0.  0.
        4    1    3    3  502    0  0.84204242050E+02  0.44289384063E+03  0.15336826847E+04  0.15985710803E+04  0.12699999809E+01 0. -1.
       -4    1    3    3    0  502 -0.84204242050E+02 -0.44289384063E+03 -0.56870217631E+03  0.72571970257E+03  0.12699999809E+01 0.  1.
</event>
<event>
 5   0  0.4128678E-05  0.2068846E+04  0.7818609E-02  0.8575093E-01
        1   -1    0    0  501    0  0.00000000000E+00  0.00000000000E+00  0.65237926040E+03  0.65237926042E+03  0.50400001928E-02 0. -1.
       -1   -1    0    0    0  501  0.00000000000E+00  0.00000000000E+00 -0.16401969449E+04  0.16401969449E+04  0.50400001928E-02 0.  1.
    10030    2    1    2    0    0  0.00000000000E+00  0.00000000000E+00 -0.98781768449E+03  0.22925762053E+04  0.20688455427E+04 0.  0.
        5    1    3    3  502    0  0.66032028586E+03 -0.46860216992E+03 -0.12072614927E+04  0.14536551432E+04  0.46999998093E+01 0.  1.
       -5    1    3    3    0  502 -0.66032028586E+03  0.46860216992E+03  0.21944380818E+03  0.83892106215E+03  0.46999998093E+01 0. -1.
</event>
<event>
 5   0  0.8858590E-05  0.2077195E+04  0.7818609E-02  0.8571356E-01
       -2   -1    0    0    0  501  0.00000000000E+00  0.00000000000E+00  0.78200946538E+03  0.78200946538E+03  0.25500000920E-02 0.  1.
        2   -1    0    0  501    0  0.00000000000E+00  0.00000000000E+00 -0.13793753523E+04  0.13793753523E+04  0.25500000920E-02 0. -1.
    10030    2    1    2    0    0  0.00000000000E+00  0.00000000000E+00 -0.59736588695E+03  0.21613848177E+04  0.20771948217E+04 0.  0.
        1    1    3    3  502    0 -0.10368465634E+04 -0.49473515458E+02 -0.26284641363E+03  0.10707878698E+04  0.50400001928E-02 0.  1.
       -1    1    3    3    0  502  0.10368465634E+04  0.49473515458E+02 -0.33451947332E+03  0.10905969480E+04  0.50400001928E-02 0. -1.
</event>
<event>
 5   0  0.4174093E-05  0.2093001E+04  0.7818609E-02  0.8564333E-01
       -1   -1    0    0    0  501  0.00000000000E+00  0.00000000000E+00  0.81243404667E+03  0.81243404668E+03  0.50400001928E-02 0. -1.
        1   -1    0    0  501    0  0.00000000000E+00  0.00000000000E+00 -0.13480033260E+04  0.13480033261E+04  0.50400001928E-02 0.  1.
    10030    2    1    2    0    0  0.00000000000E+00  0.00000000000E+00 -0.53556927938E+03  0.21604373727E+04  0.20930014784E+04 0.  0.
        3    1    3    3  502    0 -0.42387455411E+03  0.44352771223E+03  0.60733882388E+03  0.86327685382E+03  0.10100000352E+00 0. -1.
       -3    1    3    3    0  502  0.42387455411E+03 -0.44352771223E+03 -0.11429081033E+04  0.12971605189E+04  0.10100000352E+00 0.  1.
</event>
<event>
 5   0  0.9012466E-05  0.2100343E+04  0.7818609E-02  0.8561092E-01
       -2   -1    0    0    0  501  0.00000000000E+00  0.00000000000E+00  0.34076690375E+03  0.34076690376E+03  0.25500000920E-02 0.  1.
        2   -1    0    0  501    0  0.00000000000E+00  0.00000000000E+00 -0.32364052179E+04  0.32364052179E+04  0.25500000920E-02 0. -1.
    10030    2    1    2    0    0  0.00000000000E+00  0.00000000000E+00 -0.28956383142E+04  0.35771721217E+04  0.21003426248E+04 0.  0.
        2    1    3    3  502    0  0.49229069997E+03  0.35431635897E+03  0.12286792008E+02  0.60666397682E+03  0.25500000920E-02 0.  1.
       -2    1    3    3    0  502 -0.49229069997E+03 -0.35431635897E+03 -0.29079251062E+04  0.29705081449E+04  0.25500000920E-02 0. -1.
</event>
<event>
 5   0  0.9012466E-05  0.2104781E+04  0.7818609E-02  0.8559140E-01
       -2   -1    0    0    0  501  0.00000000000E+00  0.00000000000E+00  0.89415826135E+03  0.89415826136E+03  0.25500000920E-02 0. -1.
        2   -1    0    0  501    0  0.00000000000E+00  0.00000000000E+00 -0.12386237218E+04  0.12386237218E+04  0.25500000920E-02 0.  1.
    10030    2    1    2    0    0  0.00000000000E+00  0.00000000000E+00 -0.34446546045E+03  0.21327819832E+04  0.21047808756E+04 0.  0.
        2    1    3    3  502    0  0.14046768539E+03  0.63286872158E+02  0.88266896626E+03  0.89601389656E+03  0.25500000920E-02 0. -1.
       -2    1    3    3    0  502 -0.14046768539E+03 -0.63286872158E+02 -0.12271344267E+04  0.12367680866E+04  0.25500000920E-02 0.  1.
</event>
<event>
 5   0  0.8547605E-05  0.2111240E+04  0.7818609E-02  0.8556308E-01
        2   -1    0    0  501    0  0.00000000000E+00  0.00000000000E+00  0.15056686766E+04  0.15056686766E+04  0.25500000920E-02 0.  1.
       -2   -1    0    0    0  501  0.00000000000E+00  0.00000000000E+00 -0.74009188244E+03  0.74009188245E+03  0.25500000920E-02 0. -1.
    10030    2    1    2    0    0  0.00000000000E+00  0.00000000000E+00  0.76557679411E+03  0.22457605590E+04  0.21112396029E+04 0.  0.
        4    1    3    3  502    0 -0.17118821149E+03  0.30598787325E+03  0.14419198160E+04  0.14839367746E+04  0.12699999809E+01 0.  1.
       -4    1    3    3    0  502  0.17118821149E+03 -0.30598787325E+03 -0.67634302189E+03  0.76182378441E+03  0.12699999809E+01 0. -1.
</event>
<event>
 5   0  0.8872777E-05  0.2069361E+04  0.7818609E-02  0.8574861E-01
       -2   -1    0    0    0  501  0.00000000000E+00  0.00000000000E+00  0.85869282820E+03  0.85869282821E+03  0.25500000920E-02 0.  1.
        2   -1    0    0  501    0  0.00000000000E+00  0.00000000000E+00 -0.12467366003E+04  0.12467366003E+04  0.25500000920E-02 0. -1.
    10030    2    1    2    0    0  0.00000000000E+00  0.00000000000E+00 -0.38804377206E+03  0.21054294285E+04  0.20693610389E+04 0.  0.
        3    1    3    3  502    0 -0.55390306172E+03 -0.47912495338E+02  0.69380407900E+03  0.88908285285E+03  0.10100000352E+00 0. -1.
       -3    1    3    3    0  502  0.55390306172E+03  0.47912495338E+02 -0.10818478511E+04  0.12163465756E+04  0.10100000352E+00 0.  1.
</event>
<event>
 5   0  0.8858590E-05  0.2091906E+04  0.7818609E-02  0.8564817E-01
       -2   -1    0    0    0  501  0.00000000000E+00  0.00000000000E+00  0.10239455293E+04  0.10239455293E+04  0.25500000920E-02 0. -1.
        2   -1    0    0  501    0  0.00000000000E+00  0.00000000000E+00 -0.10684332434E+04  0.10684332435E+04  0.25500000920E-02 0.  1.
    10030    2    1    2    0    0  0.00000000000E+00  0.00000000000E+00 -0.44487714121E+02  0.20923787728E+04  0.20919057751E+04 0.  0.
        1    1    3    3  502    0 -0.73179044578E+03 -0.15429423808E+03  0.70914885507E+03  0.10306386695E+04  0.50400001928E-02 0. -1.
       -1    1    3    3    0  502  0.73179044578E+03  0.15429423808E+03 -0.75363656919E+03  0.10617401033E+04  0.50400001928E-02 0.  1.
</event>
<event>
 5   0  0.9086985E-05  0.2097436E+04  0.7818609E-02  0.8562374E-01
       -2   -1    0    0    0  501  0.00000000000E+00  0.00000000000E+00  0.78161778946E+03  0.78161778946E+03  0.25500000920E-02 0.  1.
        2   -1    0    0  501    0  0.00000000000E+00  0.00000000000E+00 -0.14070933526E+04  0.14070933526E+04  0.25500000920E-02 0. -1.
    10030    2    1    2    0    0  0.00000000000E+00  0.00000000000E+00 -0.62547556311E+03  0.21887111420E+04  0.20974357638E+04 0.  0.
        5    1    3    3  502    0  0.44309481238E+03 -0.41232697776E+03 -0.12064181963E+04  0.13497457182E+04  0.46999998093E+01 0. -1.
       -5    1    3    3    0  502 -0.44309481238E+03  0.41232697776E+03  0.58094263321E+03  0.83896542385E+03  0.46999998093E+01 0.  1.
</event>
<event>
 5   0  0.4200061E-05  0.2103650E+04  0.7818609E-02  0.8559637E-01
        1   -1    0    0  501    0  0.00000000000E+00  0.00000000000E+00  0.81834377652E+03  0.81834377654E+03  0.50400001928E-02 0.  1.
       -1   -1    0    0    0  501  0.00000000000E+00  0.00000000000E+00 -0.13519203385E+04  0.13519203385E+04  0.50400001928E-02 0. -1.
    10030    2    1    2    0    0  0.00000000000E+00  0.00000000000E+00 -0.53357656201E+03  0.21702641151E+04  0.21036497764E+04 0.  0.
        4    1    3    3  502    0 -0.59865071505E+03  0.28688520798E+03  0.57491985647E+03  0.87819146856E+03  0.12699999809E+01 0.  1.
       -4    1    3    3    0  502  0.59865071505E+03 -0.28688520798E+03 -0.11084964185E+04  0.12920726465E+04  0.12699999809E+01 0. -1.
</event>
<event>
 5   0  0.4128678E-05  0.2040022E+04  0.7818609E-02  0.8588134E-01
       -1   -1    0    0    0  501  0.00000000000E+00  0.00000000000E+00  0.48763585954E+03  0.48763585956E+03  0.50400001928E-02 0. -1.
        1   -1    0    0  501    0  0.00000000000E+00  0.00000000000E+00 -0.21336048747E+04  0.21336048747E+04  0.50400001928E-02 0.  1.
    10030    2    1    2    0    0  0.00000000000E+00  0.00000000000E+00 -0.16459690151E+04  0.26212407342E+04  0.20400218107E+04 0.  0.
        5    1    3    3  502    0 -0.40264607891E+03  0.64312532488E+02 -0.20243153905E+04  0.20649781735E+04  0.46999998093E+01 0.  1.
       -5    1    3    3    0  502  0.40264607891E+03 -0.64312532488E+02  0.37834637540E+03  0.55626256073E+03  0.46999998093E+01 0. -1.
</event>
<event>
 5   0  0.8547605E-05  0.2109242E+04  0.7818609E-02  0.8557183E-01
        2   -1    0    0  501    0  0.00000000000E+00  0.00000000000E+00  0.11277303156E+04  0.11277303157E+04  0.25500000920E-02 0. -1.
       -2   -1    0    0    0  501  0.00000000000E+00  0.00000000000E+00 -0.98625143322E+03  0.98625143322E+03  0.25500000920E-02 0.  1.
    10030    2    1    2    0    0  0.00000000000E+00  0.00000000000E+00  0.14147888243E+03  0.21139817489E+04  0.21092421768E+04 0.  0.
        4    1    3    3  502    0 -0.41888098562E+03  0.27348642360E+03 -0.85976904615E+03  0.99471630610E+03  0.12699999809E+01 0.  1.
       -4    1    3    3    0  502  0.41888098562E+03 -0.27348642360E+03  0.10012479286E+04  0.11192654428E+04  0.12699999809E+01 0. -1.
</event>
<event>
 5   0  0.9012466E-05  0.2106561E+04  0.7818609E-02  0.8558359E-01
        2   -1    0    0  501    0  0.00000000000E+00  0.00000000000E+00  0.21105455635E+04  0.21105455635E+04  0.25500000920E-02 0. -1.
       -2   -1    0    0    0  501  0.00000000000E+00  0.00000000000E+00 -0.52564615566E+03  0.52564615567E+03  0.25500000920E-02 0.  1.
    10030    2    1    2    0    0  0.00000000000E+00  0.00000000000E+00  0.15848994078E+04  0.26361917192E+04  0.21065613324E+04 0.  0.
        2    1    3    3  502    0 -0.90115947536E+03  0.21132514915E+03  0.14214712097E+04  0.16962685869E+04  0.25500000920E-02 0. -1.
       -2    1    3    3    0  502  0.90115947536E+03 -0.21132514915E+03  0.16342819811E+03  0.93992313231E+03  0.25500000920E-02 0.  1.
</event>
<event>
 5   0  0.4128678E-05  0.2099483E+04  0.7818609E-02  0.8561471E-01
       -1   -1    0    0    0  501  0.00000000000E+00  0.00000000000E+00  0.83648993452E+03  0.83648993453E+03  0.50400001928E-02 0. -1.
        1   -1    0    0  501    0  0.00000000000E+00  0.00000000000E+00 -0.13173586397E+04  0.13173586397E+04  0.50400001928E-02 0.  1.
    10030    2    1    2    0    0  0.00000000000E+00  0.00000000000E+00 -0.48086870522E+03  0.21538485743E+04  0.20994830243E+04 0.  0.
        5    1    3    3  502    0  0.38867974328E+03 -0.77219638292E+02  0.75679671863E+03  0.85428225939E+03  0.46999998093E+01 0. -1.
       -5    1    3    3    0  502 -0.38867974328E+03  0.77219638292E+02 -0.12376654239E+04  0.12995663149E+04  0.46999998093E+01 0.  1.
</event>
<event>
 5   0  0.4050368E-05  0.2101763E+04  0.7818609E-02  0.8560467E-01
       -1   -1    0    0    0  501  0.00000000000E+00  0.00000000000E+00  0.12081035344E+04  0.12081035344E+04  0.50400001928E-02 0.  1.
        1   -1    0    0  501    0  0.00000000000E+00  0.00000000000E+00 -0.91411984776E+03  0.91411984778E+03  0.50400001928E-02 0. -1.
    10030    2    1    2    0    0  0.00000000000E+00  0.00000000000E+00  0.29398368664E+03  0.21222233822E+04  0.21017625165E+04 0.  0.
        2    1    3    3  502    0 -0.55280609234E+03  0.87466122968E+03  0.33242214520E+03  0.10867986589E+04  0.25500000920E-02 0.  1.
       -2    1    3    3    0  502  0.55280609234E+03 -0.87466122968E+03 -0.38438458560E+02  0.10354247233E+04  0.25500000920E-02 0. -1.
</event>
<event>
 5   0  0.9086985E-05  0.2029210E+04  0.7818609E-02  0.8593085E-01
       -2   -1    0    0    0  501  0.00000000000E+00  0.00000000000E+00  0.59183380120E+03  0.59183380120E+03  0.25500000920E-02 0. -1.
        2   -1    0    0  501    0  0.00000000000E+00  0.00000000000E+00 -0.17393790419E+04  0.17393790419E+04  0.25500000920E-02 0.  1.
    10030    2    1    2    0    0  0.00000000000E+00  0.00000000000E+00 -0.11475452407E+04  0.23312128431E+04  0.20292100040E+04 0.  0.
        5    1    3    3  502    0  0.84184675521E+02  0.62880073824E+03 -0.14833974534E+04  0.16133714770E+04  0.46999998093E+01 0.  1.
       -5    1    3    3    0  502 -0.84184675521E+02 -0.62880073824E+03  0.33585221276E+03  0.71784136605E+03  0.46999998093E+01 0. -1.
</event>
<event>
 5   0  0.4050368E-05  0.2098703E+04  0.7818609E-02  0.8561815E-01
       -1   -1    0    0    0  501  0.00000000000E+00  0.00000000000E+00  0.32903076727E+03  0.32903076731E+03  0.50400001928E-02 0.  1.
        1   -1    0    0  501    0  0.00000000000E+00  0.00000000000E+00 -0.33466139990E+04  0.33466139990E+04  0.50400001928E-02 0. -1.
    10030    2    1    2    0    0  0.00000000000E+00  0.00000000000E+00 -0.30175832318E+04  0.36756447663E+04  0.20987033825E+04 0.  0.
        2    1    3    3  502    0  0.18379651749E+03  0.33546922530E+03  0.20257405711E+03  0.43284755929E+03  0.25500000920E-02 0.  1.
       -2    1    3    3    0  502 -0.18379651749E+03 -0.33546922530E+03 -0.32201572889E+04  0.32427972070E+04  0.25500000920E-02 0. -1.
</event>
<event>
 5   0  0.4174093E-05  0.2093078E+04  0.7818609E-02  0.8564299E-01
       -1   -1    0    0    0  501  0.00000000000E+00  0.00000000000E+00  0.86429391254E+03  0.86429391255E+03  0.50400001928E-02 0. -1.
        1   -1    0    0  501    0  0.00000000000E+00  0.00000000000E+00 -0.12672121474E+04  0.12672121475E+04  0.50400001928E-02 0.  1.
    10030    2    1    2    0    0  0.00000000000E+00  0.00000000000E+00 -0.40291823491E+03  0.21315060600E+04  0.20930778724E+04 0.  0.
        3    1    3    3  502    0  0.42732765840E+02  0.29792889003E+03 -0.12221867718E+04  0.12587010082E+04  0.10100000352E+00 0.  1.
       -3    1    3    3    0  502 -0.42732765840E+02 -0.29792889003E+03  0.81926853684E+03  0.87280505181E+03  0.10100000352E+00 0. -1.
</event>
<event>
 5   0  0.4182977E-05  0.2122156E+04  0.7818609E-02  0.8551546E-01
       -1   -1    0    0    0  501  0.00000000000E+00  0.00000000000E+00  0.17430322063E+04  0.17430322063E+04  0.50400001928E-02 0.  1.
        1   -1    0    0  501    0  0.00000000000E+00  0.00000000000E+00 -0.64593565395E+03  0.64593565397E+03  0.50400001928E-02 0. -1.
    10030    2    1    2    0    0  0.00000000000E+00  0.00000000000E+00  0.10970965524E+04  0.23889678603E+04  0.21221561187E+04 0.  0.
        1    1    3    3  502    0 -0.99148131024E+03 -0.10556075109E+03  0.14000347061E+03  0.10068660450E+04  0.50400001928E-02 0. -1.
       -1    1    3    3    0  502  0.99148131024E+03  0.10556075109E+03  0.95709308175E+03  0.13821018153E+04  0.50400001928E-02 0.  1.
</event>
<event>
 5   0  0.8858590E-05  0.2130325E+04  0.7818609E-02  0.8548001E-01
       -2   -1    0    0    0  501  0.00000000000E+00  0.00000000000E+00  0.56614798856E+03  0.56614798857E+03  0.25500000920E-02 0. -1.
        2   -1    0    0  501    0  0.00000000000E+00  0.00000000000E+00 -0.20040190977E+04  0.20040190977E+04  0.25500000920E-02 0.  1.
    10030    2    1    2    0    0  0.00000000000E+00  0.00000000000E+00 -0.14378711091E+04  0.25701670862E+04  0.21303252157E+04 0.  0.
        1    1    3    3  502    0  0.45385587726E+03  0.46991587088E+03 -0.17339216257E+04  0.18529139988E+04  0.50400001928E-02 0.  1.
       -1    1    3    3    0  502 -0.45385587726E+03 -0.46991587088E+03  0.29605051656E+03  0.71725308742E+03  0.50400001928E-02 0. -1.
</event>
<event>
 5   0  0.8872777E-05  0.2097918E+04  0.7818609E-02  0.8562161E-01
       -2   -1    0    0    0  501  0.00000000000E+00  0.00000000000E+00  0.72982769390E+03  0.72982769391E+03  0.25500000920E-02 0. -1.
        2   -1    0    0  501    0  0.00000000000E+00  0.00000000000E+00 -0.15076368977E+04  0.15076368977E+04  0.25500000920E-02 0.  1.
    10030    2    1    2    0    0  0.00000000000E+00  0.00000000000E+00 -0.77780920381E+03  0.22374645916E+04  0.20979181684E+04 0.  0.
        3    1    3    3  502    0 -0.56302098851E+02 -0.50200879456E+03  0.59155567145E+03  0.77789515924E+03  0.10100000352E+00 0. -1.
       -3    1    3    3    0  502  0.56302098851E+02  0.50200879456E+03 -0.13693648753E+04  0.14595694324E+04  0.10100000352E+00 0.  1.
</event>
<event>
 5   0  0.9086985E-05  0.2090425E+04  0.7818609E-02  0.8565473E-01
        2   -1    0    0  501    0  0.00000000000E+00  0.00000000000E+00  0.13200394885E+04  0.13200394885E+04  0.25500000920E-02 0. -1.
       -2   -1    0    0    0  501  0.00000000000E+00  0.00000000000E+00 -0.82760314106E+03  0.82760314106E+03  0.25500000920E-02 0.  1.
    10030    2    1    2    0    0  0.00000000000E+00  0.00000000000E+00  0.49243634740E+03  0.21476426295E+04  0.20904246717E+04 0.  0.
        5    1    3    3  502    0  0.69059499185E+03 -0.79174501605E+02 -0.55569555334E+03  0.88994925837E+03  0.46999998093E+01 0.  1.
       -5    1    3    3    0  502 -0.69059499185E+03  0.79174501605E+02  0.10481319007E+04  0.12576933711E+04  0.46999998093E+01 0. -1.
</event>
<event>
 5   0  0.8547605E-05  0.2055745E+04  0.7818609E-02  0.8580992E-01
        2   -1    0    0  501    0  0.00000000000E+00  0.00000000000E+00  0.17563984510E+04  0.17563984510E+04  0.25500000920E-02 0. -1.
       -2   -1    0    0    0  501  0.00000000000E+00  0.00000000000E+00 -0.60152766725E+03  0.60152766726E+03  0.25500000920E-02 0.  1.
    10030    2    1    2    0    0  0.00000000000E+00  0.00000000000E+00  0.11548707837E+04  0.23579261183E+04  0.20557453763E+04 0.  0.
        4    1    3    3  502    0 -0.67947568357E+03  0.77110543999E+03  0.59482458056E+03  0.11874799782E+04  0.12699999809E+01 0. -1.
       -4    1    3    3    0  502  0.67947568357E+03 -0.77110543999E+03  0.56004620318E+03  0.11704461400E+04  0.12699999809E+01 0.  1.
</event>
<event>
 5   0  0.8858590E-05  0.2107083E+04  0.7818609E-02  0.8558130E-01
       -2   -1    0    0    0  501  0.00000000000E+00  0.00000000000E+00  0.16644487739E+04  0.16644487739E+04  0.25500000920E-02 0.  1.
        2   -1    0    0  501    0  0.00000000000E+00  0.00000000000E+00 -0.66685743966E+03  0.66685743966E+03  0.25500000920E-02 0. -1.
    10030    2    1    2    0    0  0.00000000000E+00  0.00000000000E+00  0.99759133424E+03  0.23313062136E+04  0.21070833375E+04 0.  0.
        1    1    3    3  502    0 -0.90293891462E+03  0.47501957364E+03  0.20814816049E+03  0.10412818714E+04  0.50400001928E-02 0. -1.
       -1    1    3    3    0  502  0.90293891462E+03 -0.47501957364E+03  0.78944317375E+03  0.12900243422E+04  0.50400001928E-02 0.  1.
</event>
<event>
 5   0  0.4050368E-05  0.2113314E+04  0.7818609E-02  0.8555401E-01
        1   -1    0    0  501    0  0.00000000000E+00  0.00000000000E+00  0.12712234162E+04  0.12712234162E+04  0.50400001928E-02 0.  1.
       -1   -1    0    0    0  501  0.00000000000E+00  0.00000000000E+00 -0.87830638803E+03  0.87830638804E+03  0.50400001928E-02 0. -1.
    10030    2    1    2    0    0  0.00000000000E+00  0.00000000000E+00  0.39291702815E+03  0.21495298042E+04  0.21133136512E+04 0.  0.
        2    1    3    3  502    0 -0.54915609342E+03  0.58717081861E+03  0.89390735380E+03  0.12022530276E+04  0.25500000920E-02 0.  1.
       -2    1    3    3    0  502  0.54915609342E+03 -0.58717081861E+03 -0.50099032564E+03  0.94727677664E+03  0.25500000920E-02 0. -1.
</event>
<event>
 5   0  0.4174093E-05  0.2066975E+04  0.7818609E-02  0.8575932E-01
       -1   -1    0    0    0  501  0.00000000000E+00  0.00000000000E+00  0.10507007464E+04  0.10507007465E+04  0.50400001928E-02 0. -1.
        1   -1    0    0  501    0  0.00000000000E+00  0.00000000000E+00 -0.10165562728E+04  0.10165562728E+04  0.50400001928E-02 0.  1.
    10030    2    1    2    0    0  0.00000000000E+00  0.00000000000E+00  0.34144473653E+02  0.20672570192E+04  0.20669750213E+04 0.  0.
        3    1    3    3  502    0  0.76437835531E+02 -0.70939614166E+03 -0.73070001349E+03  0.10212777039E+04  0.10100000352E+00 0.  1.
       -3    1    3    3    0  502 -0.76437835531E+02  0.70939614166E+03  0.76484448714E+03  0.10459793154E+04  0.10100000352E+00 0. -1.
</event>
<event>
 5   0  0.8872777E-05  0.2112187E+04  0.7818609E-02  0.8555894E-01
       -2   -1    0    0    0  501  0.00000000000E+00  0.00000000000E+00  0.97744715047E+03  0.97744715047E+03  0.25500000920E-02 0.  1.
        2   -1    0    0  501    0  0.00000000000E+00  0.00000000000E+00 -0.11410680477E+04  0.11410680477E+04  0.25500000920E-02 0. -1.
    10030    2    1    2    0    0  0.00000000000E+00  0.00000000000E+00 -0.16362089727E+03  0.21185151982E+04  0.21121872187E+04 0.  0.
        3    1    3    3  502    0 -0.77269251704E+03 -0.54682495583E+03  0.38784709068E+03  0.10229841808E+04  0.10100000352E+00 0.  1.
       -3    1    3    3    0  502  0.77269251704E+03  0.54682495583E+03 -0.55146798795E+03  0.10955310174E+04  0.10100000352E+00 0. -1.
</event>
<event>
 5   0  0.8872777E-05  0.2090285E+04  0.7818609E-02  0.8565535E-01
       -2   -1    0    0    0  501  0.00000000000E+00  0.00000000000E+00  0.82287309909E+03  0.82287309909E+03  0.25500000920E-02 0.  1.
        2   -1    0    0  501    0  0.00000000000E+00  0.00000000000E+00 -0.13274498852E+04  0.13274498852E+04  0.25500000920E-02 0. -1.
    10030    2    1    2    0    0  0.00000000000E+00  0.00000000000E+00 -0.50457678613E+03  0.21503229843E+04  0.20902849576E+04 0.  0.
        3    1    3    3  502    0  0.79936120329E+03  0.19393408394E+03 -0.91558227063E+03  0.12308044795E+04  0.10100000352E+00 0. -1.
       -3    1    3    3    0  502 -0.79936120329E+03 -0.19393408394E+03  0.41100548449E+03  0.91951850483E+03  0.10100000352E+00 0.  1.
</event>
<event>
 5   0  0.4050368E-05  0.2095418E+04  0.7818609E-02  0.8563264E-01
        1   -1    0    0  501    0  0.00000000000E+00  0.00000000000E+00  0.80025012025E+03  0.80025012026E+03  0.50400001928E-02 0. -1.
       -1   -1    0    0    0  501  0.00000000000E+00  0.00000000000E+00 -0.13716891414E+04  0.13716891415E+04  0.50400001928E-02 0.  1.
    10030    2    1    2    0    0  0.00000000000E+00  0.00000000000E+00 -0.57143902119E+03  0.21719392617E+04  0.20954182403E+04 0.  0.
        2    1    3    3  502    0 -0.37540811740E+03 -0.77693172320E+03  0.33023772601E+03  0.92391077102E+03  0.25500000920E-02 0. -1.
       -2    1    3    3    0  502  0.37540811740E+03  0.77693172320E+03 -0.90167674720E+03  0.12480284907E+04  0.25500000920E-02 0.  1.
</event>
<event>
 5   0  0.4182977E-05  0.2105024E+04  0.7818609E-02  0.8559034E-01
       -1   -1    0    0    0  501  0.00000000000E+00  0.00000000000E+00  0.53164322359E+03  0.53164322361E+03  0.50400001928E-02 0.  1.
        1   -1    0    0  501    0  0.00000000000E+00  0.00000000000E+00 -0.20836925853E+04  0.20836925853E+04  0.50400001928E-02 0. -1.
    10030    2    1    2    0    0  0.00000000000E+00  0.00000000000E+00 -0.15520493617E+04  0.26153358089E+04  0.21050235562E+04 0.  0.
        1    1    3    3  502    0 -0.52808837248E+03  0.47149157590E+03 -0.17436817886E+04  0.18819159958E+04  0.50400001928E-02 0. -1.
       -1    1    3    3    0  502  0.52808837248E+03 -0.47149157590E+03  0.19163242685E+03  0.73341981316E+03  0.50400001928E-02 0.  1.
</event>
<event>
 5   0  0.9086985E-05  0.1851263E+04  0.7818609E-02  0.8679504E-01
        2   -1    0    0  501    0  0.00000000000E+00  0.00000000000E+00  0.17809175286E+04  0.17809175286E+04  0.25500000920E-02 0.  1.
       -2   -1    0    0    0  501  0.00000000000E+00  0.00000000000E+00 -0.48109666399E+03  0.48109666400E+03  0.25500000920E-02 0. -1.
    10030    2    1    2    0    0  0.00000000000E+00  0.00000000000E+00  0.12998208646E+04  0.22620141926E+04  0.18512627926E+04 0.  0.
        5    1    3    3  502    0  0.85198282516E+03  0.81109334720E+02  0.10807287334E+04  0.13785681498E+04  0.46999998093E+01 0.  1.
       -5    1    3    3    0  502 -0.85198282516E+03 -0.81109334720E+02  0.21909213123E+03  0.88344604278E+03  0.46999998093E+01 0. -1.
</event>
<event>
 5   0  0.4200061E-05  0.1882785E+04  0.7818609E-02  0.8663473E-01
        1   -1    0    0  501    0  0.00000000000E+00  0.00000000000E+00  0.18423997988E+04  0.18423997988E+04  0.50400001928E-02 0.  1.
       -1   -1    0    0    0  501  0.00000000000E+00  0.00000000000E+00 -0.48101379861E+03  0.48101379863E+03  0.50400001928E-02 0. -1.
    10030    2    1    2    0    0  0.00000000000E+00  0.00000000000E+00  0.13613860002E+04  0.23234135974E+04  0.18827848797E+04 0.  0.
        4    1    3    3  502    0  0.20794247229E+02 -0.81836819927E+03  0.10708894985E+03  0.82560799800E+03  0.12699999809E+01 0. -1.
       -4    1    3    3    0  502 -0.20794247229E+02  0.81836819927E+03  0.12542970503E+04  0.14978055994E+04  0.12699999809E+01 0.  1.
</event>
<event>
 5   0  0.4182977E-05  0.2106788E+04  0.7818609E-02  0.8558259E-01
       -1   -1    0    0    0  501  0.00000000000E+00  0.00000000000E+00  0.10597170020E+04  0.10597170020E+04  0.50400001928E-02 0.  1.
        1   -1    0    0  501    0  0.00000000000E+00  0.00000000000E+00 -0.10471090775E+04  0.10471090776E+04  0.50400001928E-02 0. -1.
    10030    2    1    2    0    0  0.00000000000E+00  0.00000000000E+00  0.12607924467E+02  0.21068260796E+04  0.21067883543E+04 0.  0.
        1    1    3    3  502    0 -0.22477527080E+03  0.93268848836E+03  0.44129169759E+03  0.10560161462E+04  0.50400001928E-02 0.  1.
       -1    1    3    3    0  502  0.22477527080E+03 -0.93268848836E+03 -0.42868377312E+03  0.10508099334E+04  0.50400001928E-02 0. -1.
</event>
<event>
 5   0  0.8547605E-05  0.2107702E+04  0.7818609E-02  0.8557858E-01
        2   -1    0    0  501    0  0.00000000000E+00  0.00000000000E+00  0.58986655775E+03  0.58986655775E+03  0.25500000920E-02 0.  1.
       -2   -1    0    0    0  501  0.00000000000E+00  0.00000000000E+00 -0.18828019297E+04  0.18828019297E+04  0.25500000920E-02 0. -1.
    10030    2    1    2    0    0  0.00000000000E+00  0.00000000000E+00 -0.12929353720E+04  0.24726684875E+04  0.21077019649E+04 0.  0.
        4    1    3    3  502    0 -0.79175709788E+02 -0.50922606915E+03  0.43195810141E+03  0.67243542203E+03  0.12699999809E+01 0.  1.
       -4    1    3    3    0  502  0.79175709788E+02  0.50922606915E+03 -0.17248934734E+04  0.18002330655E+04  0.12699999809E+01 0. -1.
</event>
<event>
 5   0  0.4182977E-05  0.2106260E+04  0.7818609E-02  0.8558491E-01
        1   -1    0    0  501    0  0.00000000000E+00  0.00000000000E+00  0.82470659385E+03  0.82470659387E+03  0.50400001928E-02 0.  1.
       -1   -1    0    0    0  501  0.00000000000E+00  0.00000000000E+00 -0.13448214061E+04  0.13448214061E+04  0.50400001928E-02 0. -1.
    10030    2    1    2    0    0  0.00000000000E+00  0.00000000000E+00 -0.52011481224E+03  0.21695280000E+04  0.21062602699E+04 0.  0.
        1    1    3    3  502    0 -0.33600068859E+03  0.91519582533E+03  0.15015540877E+03  0.98642106032E+03  0.50400001928E-02 0.  1.
       -1    1    3    3    0  502  0.33600068859E+03 -0.91519582533E+03 -0.67027022101E+03  0.11831069396E+04  0.50400001928E-02 0. -1.
</event>
<event>
 5   0  0.4182977E-05  0.2088134E+04  0.7818609E-02  0.8566488E-01
        1   -1    0    0  501    0  0.00000000000E+00  0.00000000000E+00  0.11932700023E+04  0.11932700023E+04  0.50400001928E-02 0. -1.
       -1   -1    0    0    0  501  0.00000000000E+00  0.00000000000E+00 -0.91352026679E+03  0.91352026680E+03  0.50400001928E-02 0.  1.
    10030    2    1    2    0    0  0.00000000000E+00  0.00000000000E+00  0.27974973549E+03  0.21067902691E+04  0.20881344122E+04 0.  0.
        1    1    3    3  502    0  0.31608535339E+03 -0.94222491868E+03 -0.18295031828E+03  0.10105288551E+04  0.50400001928E-02 0.  1.
       -1    1    3    3    0  502 -0.31608535339E+03  0.94222491868E+03  0.46270005378E+03  0.10962614140E+04  0.50400001928E-02 0. -1.
</event>
<event>
 5   0  0.4182977E-05  0.2070023E+04  0.7818609E-02  0.8574565E-01
        1   -1    0    0  501    0  0.00000000000E+00  0.00000000000E+00  0.12717120957E+04  0.12717120957E+04  0.50400001928E-02 0.  1.
       -1   -1    0    0    0  501  0.00000000000E+00  0.00000000000E+00 -0.84236758414E+03  0.84236758416E+03  0.50400001928E-02 0. -1.
    10030    2    1    2    0    0  0.00000000000E+00  0.00000000000E+00  0.42934451156E+03  0.21140796799E+04  0.20700232325E+04 0.  0.
        1    1    3    3  502    0  0.35592615059E+03 -0.85348254090E+03  0.68946803252E+03  0.11534652315E+04  0.50400001928E-02 0.  1.
       -1    1    3    3    0  502 -0.35592615059E+03  0.85348254090E+03 -0.26012352097E+03  0.96061444840E+03  0.50400001928E-02 0. -1.
</event>
<event>
 5   0  0.4128678E-05  0.2139177E+04  0.7818609E-02  0.8544179E-01
       -1   -1    0    0    0  501  0.00000000000E+00  0.00000000000E+00  0.95568597603E+03  0.95568597604E+03  0.50400001928E-02 0. -1.
        1   -1    0    0  501    0  0.00000000000E+00  0.00000000000E+00 -0.11970658312E+04  0.11970658312E+04  0.50400001928E-02 0.  1.
    10030    2    1    2    0    0  0.00000000000E+00  0.00000000000E+00 -0.24137985520E+03  0.21527518073E+04  0.21391765026E+04 0.  0.
        5    1    3    3  502    0  0.83037623848E+03 -0.52995364344E+03  0.29863331886E+03  0.10293587862E+04  0.46999998093E+01 0. -1.
       -5    1    3    3    0  502 -0.83037623848E+03  0.52995364344E+03 -0.54001317406E+03  0.11233930211E+04  0.46999998093E+01 0.  1.
</event>
<event>
 5   0  0.4128678E-05  0.2140844E+04  0.7818609E-02  0.8543462E-01
        1   -1    0    0  501    0  0.00000000000E+00  0.00000000000E+00  0.15819170495E+04  0.15819170495E+04  0.50400001928E-02 0.  1.
       -1   -1    0    0    0  501  0.00000000000E+00  0.00000000000E+00 -0.72431321428E+03  0.72431321430E+03  0.50400001928E-02 0. -1.
    10030    2    1    2    0    0  0.00000000000E+00  0.00000000000E+00  0.85760383522E+03  0.23062302638E+04  0.21408441540E+04 0.  0.
        5    1    3    3  502    0  0.53429436824E+03 -0.33271495338E+03  0.13614885855E+04  0.14999476560E+04  0.46999998093E+01 0.  1.
       -5    1    3    3    0  502 -0.53429436824E+03  0.33271495338E+03 -0.50388475030E+03  0.80628260785E+03  0.46999998093E+01 0. -1.
</event>
<event>
 5   0  0.4050368E-05  0.2096097E+04  0.7818609E-02  0.8562965E-01
       -1   -1    0    0    0  501  0.00000000000E+00  0.00000000000E+00  0.85526268626E+03  0.85526268627E+03  0.50400001928E-02 0. -1.
        1   -1    0    0  501    0  0.00000000000E+00  0.00000000000E+00 -0.12842898527E+04  0.12842898527E+04  0.50400001928E-02 0.  1.
    10030    2    1    2    0    0  0.00000000000E+00  0.00000000000E+00 -0.42902716643E+03  0.21395525390E+04  0.20960965525E+04 0.  0.
        2    1    3    3  502    0 -0.60418101956E+03  0.24794982651E+03 -0.10511970800E+04  0.12375496442E+04  0.25500000920E-02 0.  1.
       -2    1    3    3    0  502  0.60418101956E+03 -0.24794982651E+03  0.62216991355E+03  0.90200289478E+03  0.25500000920E-02 0. -1.
</event>
<event>
 5   0  0.4050368E-05  0.2106770E+04  0.7818609E-02  0.8558267E-01
        1   -1    0    0  501    0  0.00000000000E+00  0.00000000000E+00  0.16989458207E+04  0.16989458207E+04  0.50400001928E-02 0. -1.
       -1   -1    0    0    0  501  0.00000000000E+00  0.00000000000E+00 -0.65312273800E+03  0.65312273802E+03  0.50400001928E-02 0.  1.
    10030    2    1    2    0    0  0.00000000000E+00  0.00000000000E+00  0.10458230827E+04  0.23520685587E+04  0.21067701784E+04 0.  0.
        2    1    3    3  502    0  0.70470551067E+03  0.76295814171E+03  0.71917901680E+03  0.12633025928E+04  0.25500000920E-02 0. -1.
       -2    1    3    3    0  502 -0.70470551067E+03 -0.76295814171E+03  0.32664406591E+03  0.10887659659E+04  0.25500000920E-02 0.  1.
</event>
<event>
 5   0  0.4050368E-05  0.2015558E+04  0.7818609E-02  0.8599381E-01
       -1   -1    0    0    0  501  0.00000000000E+00  0.00000000000E+00  0.82491081561E+03  0.82491081563E+03  0.50400001928E-02 0. -1.
        1   -1    0    0  501    0  0.00000000000E+00  0.00000000000E+00 -0.12311862590E+04  0.12311862590E+04  0.50400001928E-02 0.  1.
    10030    2    1    2    0    0  0.00000000000E+00  0.00000000000E+00 -0.40627544336E+03  0.20560970746E+04  0.20155583456E+04 0.  0.
        2    1    3    3  502    0  0.90714303867E+03  0.43828364773E+03 -0.17778196219E+03  0.10230383544E+04  0.25500000920E-02 0. -1.
       -2    1    3    3    0  502 -0.90714303867E+03 -0.43828364773E+03 -0.22849348117E+03  0.10330587202E+04  0.25500000920E-02 0.  1.
</event>
<event>
 5   0  0.9086985E-05  0.2142869E+04  0.7818609E-02  0.8542591E-01
       -2   -1    0    0    0  501  0.00000000000E+00  0.00000000000E+00  0.13336849121E+04  0.13336849121E+04  0.25500000920E-02 0.  1.
        2   -1    0    0  501    0  0.00000000000E+00  0.00000000000E+00 -0.86075198878E+03  0.86075198879E+03  0.25500000920E-02 0. -1.
    10030    2    1    2    0    0  0.00000000000E+00  0.00000000000E+00  0.47293292330E+03  0.21944369009E+04  0.21428690492E+04 0.  0.
        5    1    3    3  502    0  0.20975601146E+03  0.42488409355E+03  0.12205420564E+04  0.13093009886E+04  0.46999998093E+01 0.  1.
       -5    1    3    3    0  502 -0.20975601146E+03 -0.42488409355E+03 -0.74760913311E+03  0.88513591227E+03  0.46999998093E+01 0. -1.
</event>
<event>
 5   0  0.4182977E-05  0.2097531E+04  0.7818609E-02  0.8562332E-01
        1   -1    0    0  501    0  0.00000000000E+00  0.00000000000E+00  0.19448113074E+04  0.19448113075E+04  0.50400001928E-02 0. -1.
       -1   -1    0    0    0  501  0.00000000000E+00  0.00000000000E+00 -0.56556068397E+03  0.56556068399E+03  0.50400001928E-02 0.  1.
    10030    2    1    2    0    0  0.00000000000E+00  0.00000000000E+00  0.13792506235E+04  0.25103719914E+04  0.20975307514E+04 0.  0.
        1    1    3    3  502    0 -0.82420745018E+03 -0.52135027120E+03  0.22797938499E+03  0.10015481148E+04  0.50400001928E-02 0.  1.
       -1    1    3    3    0  502  0.82420745018E+03  0.52135027120E+03  0.11512712385E+04  0.15088238767E+04  0.50400001928E-02 0. -1.
</event>
<event>
 5   0  0.3176125E-05  0.2100000E+04  0.7818609E-02  0.8561243E-01
       -3   -1    0    0    0  501  0.00000000000E+00  0.00000000000E+00  0.98222170570E+03  0.98222171089E+03  0.10100000352E+00 0. -1.
        3   -1    0    0  501    0  0.00000000000E+00  0.00000000000E+00 -0.11224550937E+04  0.11224550982E+04  0.10100000352E+00 0.  1.
    10030    2    1    2    0    0  0.00000000000E+00  0.00000000000E+00 -0.14023338800E+03  0.21046768091E+04  0.20999997780E+04 0.  0.
        2    1    3    3  502    0  0.82435252922E+02  0.52800458471E+03  0.83572998486E+03  0.99198236879E+03  0.25500000920E-02 0. -1.
       -2    1    3    3    0  502 -0.82435252922E+02 -0.52800458471E+03 -0.97596337285E+03  0.11126944403E+04  0.25500000920E-02 0.  1.
</event>
<event>
 5   0  0.8872777E-05  0.2122823E+04  0.7818609E-02  0.8551256E-01
       -2   -1    0    0    0  501  0.00000000000E+00  0.00000000000E+00  0.65630933027E+03  0.65630933028E+03  0.25500000920E-02 0. -1.
        2   -1    0    0  501    0  0.00000000000E+00  0.00000000000E+00 -0.17165602754E+04  0.17165602754E+04  0.25500000920E-02 0.  1.
    10030    2    1    2    0    0  0.00000000000E+00  0.00000000000E+00 -0.10602509451E+04  0.23728696057E+04  0.21228231436E+04 0.  0.
        3    1    3    3  502    0  0.17109758760E+03  0.72448659263E+03 -0.13758419328E+04  0.15643197377E+04  0.10100000352E+00 0.  1.
       -3    1    3    3    0  502 -0.17109758760E+03 -0.72448659263E+03  0.31559098767E+03  0.80854986802E+03  0.10100000352E+00 0. -1.
</event>
<event>
 5   0  0.4200061E-05  0.2080550E+04  0.7818609E-02  0.8569860E-01
       -1   -1    0    0    0  501  0.00000000000E+00  0.00000000000E+00  0.68505054448E+03  0.68505054450E+03  0.50400001928E-02 0.  1.
        1   -1    0    0  501    0  0.00000000000E+00  0.00000000000E+00 -0.15796969609E+04  0.15796969610E+04  0.50400001928E-02 0. -1.
    10030    2    1    2    0    0  0.00000000000E+00  0.00000000000E+00 -0.89464641647E+03  0.22647475055E+04  0.20805501803E+04 0.  0.
        4    1    3    3  502    0 -0.31526496189E+02  0.31765258744E+03 -0.15250662819E+04  0.15581161264E+04  0.12699999809E+01 0. -1.
       -4    1    3    3    0  502  0.31526496189E+02 -0.31765258744E+03  0.63041986541E+03  0.70663137907E+03  0.12699999809E+01 0.  1.
</event>
<event>
 5   0  0.8547605E-05  0.2122882E+04  0.7818609E-02  0.8551230E-01
        2   -1    0    0  501    0  0.00000000000E+00  0.00000000000E+00  0.78595417254E+03  0.78595417255E+03  0.25500000920E-02 0. -1.
       -2   -1    0    0    0  501  0.00000000000E+00  0.00000000000E+00 -0.14334891362E+04  0.14334891362E+04  0.25500000920E-02 0.  1.
    10030    2    1    2    0    0  0.00000000000E+00  0.00000000000E+00 -0.64753496366E+03  0.22194433088E+04  0.21228817847E+04 0.  0.
        4    1    3    3  502    0  0.17336313207E+03  0.10471690886E+04 -0.31738407108E+03  0.11078592587E+04  0.12699999809E+01 0. -1.
       -4    1    3    3    0  502 -0.17336313207E+03 -0.10471690886E+04 -0.33015089258E+03  0.11115840501E+04  0.12699999809E+01 0.  1.
</event>
<event>
 5   0  0.8858590E-05  0.2124394E+04  0.7818609E-02  0.8550573E-01
        2   -1    0    0  501    0  0.00000000000E+00  0.00000000000E+00  0.58688492649E+03  0.58688492650E+03  0.25500000920E-02 0. -1.
       -2   -1    0    0    0  501  0.00000000000E+00  0.00000000000E+00 -0.19224591023E+04  0.19224591023E+04  0.25500000920E-02 0.  1.
    10030    2    1    2    0    0  0.00000000000E+00  0.00000000000E+00 -0.13355741758E+04  0.25093440288E+04  0.21243938137E+04 0.  0.
        1    1    3    3  502    0 -0.87045871407E+03 -0.31321542772E+03 -0.51225380908E+02  0.92651298790E+03  0.50400001928E-02 0. -1.
       -1    1    3    3    0  502  0.87045871407E+03  0.31321542772E+03 -0.12843487949E+04  0.15828310409E+04  0.50400001928E-02 0.  1.
</event>
<event>
 5   0  0.4174093E-05  0.2104093E+04  0.7818609E-02  0.8559442E-01
       -1   -1    0    0    0  501  0.00000000000E+00  0.00000000000E+00  0.85926067584E+03  0.85926067586E+03  0.50400001928E-02 0. -1.
        1   -1    0    0  501    0  0.00000000000E+00  0.00000000000E+00 -0.12880866096E+04  0.12880866096E+04  0.50400001928E-02 0.  1.
    10030    2    1    2    0    0  0.00000000000E+00  0.00000000000E+00 -0.42882593378E+03  0.21473472855E+04  0.21040933161E+04 0.  0.
        3    1    3    3  502    0  0.21105661729E+03  0.10303219868E+04 -0.24129584908E+03  0.10790421628E+04  0.10100000352E+00 0.  1.
       -3    1    3    3    0  502 -0.21105661729E+03 -0.10303219868E+04 -0.18753008469E+03  0.10683051226E+04  0.10100000352E+00 0. -1.
</event>
<event>
 5   0  0.8872777E-05  0.2060436E+04  0.7818609E-02  0.8578875E-01
        2   -1    0    0  501    0  0.00000000000E+00  0.00000000000E+00  0.17714054395E+04  0.17714054395E+04  0.25500000920E-02 0. -1.
       -2   -1    0    0    0  501  0.00000000000E+00  0.00000000000E+00 -0.59915653382E+03  0.59915653382E+03  0.25500000920E-02 0.  1.
    10030    2    1    2    0    0  0.00000000000E+00  0.00000000000E+00  0.11722489057E+04  0.23705619733E+04  0.20604360151E+04 0.  0.
        3    1    3    3  502    0 -0.20943327609E+03  0.99692879419E+03  0.40930484306E+03  0.10978432413E+04  0.10100000352E+00 0.  1.
       -3    1    3    3    0  502  0.20943327609E+03 -0.99692879419E+03  0.76294406260E+03  0.12727187320E+04  0.10100000352E+00 0. -1.
</event>
<event>
 5   0  0.4200061E-05  0.2096407E+04  0.7818609E-02  0.8562828E-01
       -1   -1    0    0    0  501  0.00000000000E+00  0.00000000000E+00  0.11347886158E+04  0.11347886158E+04  0.50400001928E-02 0.  1.
        1   -1    0    0  501    0  0.00000000000E+00  0.00000000000E+00 -0.96822444237E+03  0.96822444238E+03  0.50400001928E-02 0. -1.
    10030    2    1    2    0    0  0.00000000000E+00  0.00000000000E+00  0.16656417342E+03  0.21030130582E+04  0.20964065205E+04 0.  0.
        4    1    3    3  502    0 -0.29901142223E+03 -0.42136179539E+03 -0.83160893301E+03  0.97904475056E+03  0.12699999809E+01 0. -1.
       -4    1    3    3    0  502  0.29901142223E+03  0.42136179539E+03  0.99817310643E+03  0.11239683076E+04  0.12699999809E+01 0.  1.
</event>
<event>
 5   0  0.9012466E-05  0.2101305E+04  0.7818609E-02  0.8560669E-01
       -2   -1    0    0    0  501  0.00000000000E+00  0.00000000000E+00  0.50911408208E+03  0.50911408209E+03  0.25500000920E-02 0. -1.
        2   -1    0    0  501    0  0.00000000000E+00  0.00000000000E+00 -0.21682193817E+04  0.21682193817E+04  0.25500000920E-02 0.  1.
    10030    2    1    2    0    0  0.00000000000E+00  0.00000000000E+00 -0.16591052996E+04  0.26773334638E+04  0.21013053279E+04 0.  0.
        2    1    3    3  502    0  0.86115329470E+03  0.52283274474E+03 -0.12095164287E+04  0.15741248576E+04  0.25500000920E-02 0.  1.
       -2    1    3    3    0  502 -0.86115329470E+03 -0.52283274474E+03 -0.44958887091E+03  0.11032086062E+04  0.25500000920E-02 0. -1.
</event>
<event>
 5   0  0.4200061E-05  0.2102065E+04  0.7818609E-02  0.8560334E-01
        1   -1    0    0  501    0  0.00000000000E+00  0.00000000000E+00  0.18421246480E+04  0.18421246480E+04  0.50400001928E-02 0. -1.
       -1   -1    0    0    0  501  0.00000000000E+00  0.00000000000E+00 -0.59967148860E+03  0.59967148862E+03  0.50400001928E-02 0.  1.
    10030    2    1    2    0    0  0.00000000000E+00  0.00000000000E+00  0.12424531594E+04  0.24417961366E+04  0.21020652986E+04 0.  0.
        4    1    3    3  502    0 -0.41482826251E+02 -0.63202319495E+03  0.15955280528E+04  0.17166495052E+04  0.12699999809E+01 0. -1.
       -4    1    3    3    0  502  0.41482826251E+02  0.63202319495E+03 -0.35307489333E+03  0.72514663140E+03  0.12699999809E+01 0.  1.
</event>
<event>
 5   0  0.4200061E-05  0.2139642E+04  0.7818609E-02  0.8543979E-01
        1   -1    0    0  501    0  0.00000000000E+00  0.00000000000E+00  0.13797210188E+04  0.13797210188E+04  0.50400001928E-02 0.  1.
       -1   -1    0    0    0  501  0.00000000000E+00  0.00000000000E+00 -0.82952801261E+03  0.82952801263E+03  0.50400001928E-02 0. -1.
    10030    2    1    2    0    0  0.00000000000E+00  0.00000000000E+00  0.55019300622E+03  0.22092490315E+04  0.21396422456E+04 0.  0.
        4    1    3    3  502    0  0.17850519569E+03  0.97549852570E+03  0.68946760495E+03  0.12078198002E+04  0.12699999809E+01 0.  1.
       -4    1    3    3    0  502 -0.17850519569E+03 -0.97549852570E+03 -0.13927459873E+03  0.10014292313E+04  0.12699999809E+01 0. -1.
</event>
<event>
 5   0  0.4050368E-05  0.2087007E+04  0.7818609E-02  0.8566988E-01
       -1   -1    0    0    0  501  0.00000000000E+00  0.00000000000E+00  0.86084789740E+03  0.86084789741E+03  0.50400001928E-02 0. -1.
        1   -1    0    0  501    0  0.00000000000E+00  0.00000000000E+00 -0.12649153924E+04  0.12649153924E+04  0.50400001928E-02 0.  1.
    10030    2    1    2    0    0  0.00000000000E+00  0.00000000000E+00 -0.40406749499E+03  0.21257632898E+04  0.20870071930E+04 0.  0.
        2    1    3    3  502    0 -0.10717514521E+03 -0.57630033190E+03 -0.10813679087E+04  0.12300264787E+04  0.25500000920E-02 0.  1.
       -2    1    3    3    0  502  0.10717514521E+03  0.57630033190E+03  0.67730041374E+03  0.89573681110E+03  0.25500000920E-02 0. -1.
</event>
<event>
 5   0  0.9012466E-05  0.2074900E+04  0.7818609E-02  0.8572381E-01
       -2   -1    0    0    0  501  0.00000000000E+00  0.00000000000E+00  0.14586738691E+04  0.14586738691E+04  0.25500000920E-02 0. -1.
        2   -1    0    0  501    0  0.00000000000E+00  0.00000000000E+00 -0.73786395059E+03  0.73786395059E+03  0.25500000920E-02 0.  1.
    10030    2    1    2    0    0  0.00000000000E+00  0.00000000000E+00  0.72080991851E+03  0.21965378197E+04  0.20749003481E+04 0.  0.
        2    1    3    3  502    0  0.34887535585E+02  0.26656105179E+03  0.14211597148E+04  0.14463633255E+04  0.25500000920E-02 0. -1.
       -2    1    3    3    0  502 -0.34887535585E+02 -0.26656105179E+03 -0.70034979631E+03  0.75017449414E+03  0.25500000920E-02 0.  1.
</event>
<event>
 5   0  0.8858590E-05  0.2100564E+04  0.7818609E-02  0.8560995E-01
       -2   -1    0    0    0  501  0.00000000000E+00  0.00000000000E+00  0.85293077563E+03  0.85293077563E+03  0.25500000920E-02 0.  1.
        2   -1    0    0  501    0  0.00000000000E+00  0.00000000000E+00 -0.12932967523E+04  0.12932967523E+04  0.25500000920E-02 0. -1.
    10030    2    1    2    0    0  0.00000000000E+00  0.00000000000E+00 -0.44036597664E+03  0.21462275279E+04  0.21005643071E+04 0.  0.
        1    1    3    3  502    0 -0.43046567780E+03 -0.52693250913E+03 -0.10376594150E+04  0.12408447246E+04  0.50400001928E-02 0. -1.
       -1    1    3    3    0  502  0.43046567780E+03  0.52693250913E+03  0.59729343839E+03  0.90538280330E+03  0.50400001928E-02 0.  1.
</event>
<event>
 5   0  0.9086985E-05  0.2155540E+04  0.7818609E-02  0.8537165E-01
        2   -1    0    0  501    0  0.00000000000E+00  0.00000000000E+00  0.88585529541E+03  0.88585529541E+03  0.25500000920E-02 0. -1.
       -2   -1    0    0    0  501  0.00000000000E+00  0.00000000000E+00 -0.13112613093E+04  0.13112613093E+04  0.25500000920E-02 0.  1.
    10030    2    1    2    0    0  0.00000000000E+00  0.00000000000E+00 -0.42540601393E+03  0.21971166047E+04  0.21555396304E+04 0.  0.
        5    1    3    3  502    0 -0.97849922972E+03 -0.68463062400E+02 -0.66787863642E+03  0.11866894693E+04  0.46999998093E+01 0.  1.
       -5    1    3    3    0  502  0.97849922972E+03  0.68463062400E+02  0.24247262249E+03  0.10104271355E+04  0.46999998093E+01 0. -1.
</event>
<event>
 5   0  0.8858590E-05  0.2110137E+04  0.7818609E-02  0.8556791E-01
       -2   -1    0    0    0  501  0.00000000000E+00  0.00000000000E+00  0.14857383800E+04  0.14857383800E+04  0.25500000920E-02 0. -1.
        2   -1    0    0  501    0  0.00000000000E+00  0.00000000000E+00 -0.74923641018E+03  0.74923641018E+03  0.25500000920E-02 0.  1.
    10030    2    1    2    0    0  0.00000000000E+00  0.00000000000E+00  0.73650196985E+03  0.22349747902E+04  0.21101367636E+04 0.  0.
        1    1    3    3  502    0 -0.14331591412E+03 -0.10078243933E+04  0.74498745211E+02  0.10206858096E+04  0.50400001928E-02 0.  1.
       -1    1    3    3    0  502  0.14331591412E+03  0.10078243933E+04  0.66200322464E+03  0.12142889806E+04  0.50400001928E-02 0. -1.
</event>
<event>
 5   0  0.4182977E-05  0.2103892E+04  0.7818609E-02  0.8559531E-01
       -1   -1    0    0    0  501  0.00000000000E+00  0.00000000000E+00  0.91527733200E+03  0.91527733202E+03  0.50400001928E-02 0. -1.
        1   -1    0    0  501    0  0.00000000000E+00  0.00000000000E+00 -0.12090219119E+04  0.12090219119E+04  0.50400001928E-02 0.  1.
    10030    2    1    2    0    0  0.00000000000E+00  0.00000000000E+00 -0.29374457987E+03  0.21242992439E+04  0.21038919648E+04 0.  0.
        1    1    3    3  502    0 -0.23004189471E+03 -0.99975955408E+03 -0.38183511289E+03  0.10946398918E+04  0.50400001928E-02 0.  1.
       -1    1    3    3    0  502  0.23004189471E+03  0.99975955408E+03  0.88090533013E+02  0.10296593521E+04  0.50400001928E-02 0. -1.
</event>
<event>
 5   0  0.9086985E-05  0.2014173E+04  0.7818609E-02  0.8600023E-01
        2   -1    0    0  501    0  0.00000000000E+00  0.00000000000E+00  0.94168934280E+03  0.94168934281E+03  0.25500000920E-02 0. -1.
       -2   -1    0    0    0  501  0.00000000000E+00  0.00000000000E+00 -0.10770252613E+04  0.10770252613E+04  0.25500000920E-02 0.  1.
    10030    2    1    2    0    0  0.00000000000E+00  0.00000000000E+00 -0.13533591849E+03  0.20187146041E+04  0.20141729921E+04 0.  0.
        5    1    3    3  502    0  0.32410851512E+03  0.92379181625E+03 -0.30434332477E+03  0.10252241700E+04  0.46999998093E+01 0.  1.
       -5    1    3    3    0  502 -0.32410851512E+03 -0.92379181625E+03  0.16900740628E+03  0.99349043414E+03  0.46999998093E+01 0. -1.
</event>
<event>
 5   0  0.3176125E-05  0.2110465E+04  0.7818609E-02  0.8556647E-01
        3   -1    0    0  501    0  0.00000000000E+00  0.00000000000E+00  0.64619223453E+03  0.64619224243E+03  0.10100000352E+00 0. -1.
       -3   -1    0    0    0  501  0.00000000000E+00  0.00000000000E+00 -0.17231956971E+04  0.17231957001E+04  0.10100000352E+00 0.  1.
    10030    2    1    2    0    0  0.00000000000E+00  0.00000000000E+00 -0.10770034626E+04  0.23693879425E+04  0.21104650586E+04 0.  0.
        3    1    3    3  502    0 -0.50417259797E+03 -0.92592764579E+03 -0.48849915476E+03  0.11619653386E+04  0.10100000352E+00 0.  1.
       -3    1    3    3    0  502  0.50417259797E+03  0.92592764579E+03 -0.58850430781E+03  0.12074226039E+04  0.10100000352E+00 0. -1.
</event>
<event>
 5   0  0.8547605E-05  0.2098981E+04  0.7818609E-02  0.8561692E-01
       -2   -1    0    0    0  501  0.00000000000E+00  0.00000000000E+00  0.44591981211E+03  0.44591981212E+03  0.25500000920E-02 0. -1.
        2   -1    0    0  501    0  0.00000000000E+00  0.00000000000E+00 -0.24700190834E+04  0.24700190834E+04  0.25500000920E-02 0.  1.
    10030    2    1    2    0    0  0.00000000000E+00  0.00000000000E+00 -0.20240992713E+04  0.29159388956E+04  0.20989811296E+04 0.  0.
        4    1    3    3  502    0  0.46030647227E+03 -0.82177263555E+03 -0.36904124941E+03  0.10116251132E+04  0.12699999809E+01 0. -1.
       -4    1    3    3    0  502 -0.46030647227E+03  0.82177263555E+03 -0.16550580219E+04  0.19043137824E+04  0.12699999809E+01 0.  1.
</event>
<event>
 5   0  0.8547605E-05  0.2073772E+04  0.7818609E-02  0.8572886E-01
       -2   -1    0    0    0  501  0.00000000000E+00  0.00000000000E+00  0.97993092885E+03  0.97993092886E+03  0.25500000920E-02 0.  1.
        2   -1    0    0  501    0  0.00000000000E+00  0.00000000000E+00 -0.10971518414E+04  0.10971518414E+04  0.25500000920E-02 0. -1.
    10030    2    1    2    0    0  0.00000000000E+00  0.00000000000E+00 -0.11722091251E+03  0.20770827702E+04  0.20737724301E+04 0.  0.
        4    1    3    3  502    0  0.69231048477E+02 -0.21262588367E+03  0.95549216237E+03  0.98131013942E+03  0.12699999809E+01 0.  1.
       -4    1    3    3    0  502 -0.69231048477E+02  0.21262588367E+03 -0.10727130749E+04  0.10957726308E+04  0.12699999809E+01 0. -1.
</event>
<event>
 5   0  0.4050368E-05  0.1947460E+04  0.7818609E-02  0.8631586E-01
        1   -1    0    0  501    0  0.00000000000E+00  0.00000000000E+00  0.14908412888E+04  0.14908412888E+04  0.50400001928E-02 0.  1.
       -1   -1    0    0    0  501  0.00000000000E+00  0.00000000000E+00 -0.63598351267E+03  0.63598351269E+03  0.50400001928E-02 0. -1.
    10030    2    1    2    0    0  0.00000000000E+00  0.00000000000E+00  0.85485777617E+03  0.21268248015E+04  0.19474603767E+04 0.  0.
        2    1    3    3  502    0 -0.46113387357E+03  0.65554141168E+03  0.10313240902E+04  0.13061425538E+04  0.25500000920E-02 0.  1.
       -2    1    3    3    0  502  0.46113387357E+03 -0.65554141168E+03 -0.17646631404E+03  0.82068224775E+03  0.25500000920E-02 0. -1.
</event>
<event>
 5   0  0.4182977E-05  0.2065579E+04  0.7818609E-02  0.8576560E-01
       -1   -1    0    0    0  501  0.00000000000E+00  0.00000000000E+00  0.10812972278E+04  0.10812972278E+04  0.50400001928E-02 0.  1.
        1   -1    0    0  501    0  0.00000000000E+00  0.00000000000E+00 -0.98645751526E+03  0.98645751527E+03  0.50400001928E-02 0. -1.
    10030    2    1    2    0    0  0.00000000000E+00  0.00000000000E+00  0.94839712549E+02  0.20677547431E+04  0.20655786372E+04 0.  0.
        1    1    3    3  502    0 -0.79877962924E+03  0.15034552596E+03  0.68527329214E+03  0.10631331799E+04  0.50400001928E-02 0.  1.
       -1    1    3    3    0  502  0.79877962924E+03 -0.15034552596E+03 -0.59043357959E+03  0.10046215632E+04  0.50400001928E-02 0. -1.
</event>
<event>
 5   0  0.4128678E-05  0.2149699E+04  0.7818609E-02  0.8539661E-01
       -1   -1    0    0    0  501  0.00000000000E+00  0.00000000000E+00  0.12342153039E+04  0.12342153039E+04  0.50400001928E-02 0. -1.
        1   -1    0    0  501    0  0.00000000000E+00  0.00000000000E+00 -0.93606115062E+03  0.93606115063E+03  0.50400001928E-02 0.  1.
    10030    2    1    2    0    0  0.00000000000E+00  0.00000000000E+00  0.29815415332E+03  0.21702764546E+04  0.21496985812E+04 0.  0.
        5    1    3    3  502    0 -0.78270864825E+03 -0.55171302022E+03  0.64186718841E+03  0.11528380902E+04  0.46999998093E+01 0.  1.
       -5    1    3    3    0  502  0.78270864825E+03  0.55171302022E+03 -0.34371303509E+03  0.10174383643E+04  0.46999998093E+01 0. -1.
</event>
<event>
 5   0  0.8547605E-05  0.2118819E+04  0.7818609E-02  0.8552999E-01
        2   -1    0    0  501    0  0.00000000000E+00  0.00000000000E+00  0.11792760148E+04  0.11792760148E+04  0.25500000920E-02 0. -1.
       -2   -1    0    0    0  501  0.00000000000E+00  0.00000000000E+00 -0.95172648917E+03  0.95172648917E+03  0.25500000920E-02 0.  1.
    10030    2    1    2    0    0  0.00000000000E+00  0.00000000000E+00  0.22754952558E+03  0.21310025039E+04  0.21188187476E+04 0.  0.
        4    1    3    3  502    0 -0.89678765860E+03 -0.23618742934E+03  0.62890547731E+03  0.11205071703E+04  0.12699999809E+01 0. -1.
       -4    1    3    3    0  502  0.89678765860E+03  0.23618742934E+03 -0.40135595173E+03  0.10104953336E+04  0.12699999809E+01 0.  1.
</event>
<event>
 5   0  0.9086985E-05  0.2096975E+04  0.7818609E-02  0.8562577E-01
        2   -1    0    0  501    0  0.00000000000E+00  0.00000000000E+00  0.14751319461E+04  0.14751319461E+04  0.25500000920E-02 0.  1.
       -2   -1    0    0    0  501  0.00000000000E+00  0.00000000000E+00 -0.74523900580E+03  0.74523900580E+03  0.25500000920E-02 0. -1.
    10030    2    1    2    0    0  0.00000000000E+00  0.00000000000E+00  0.72989294029E+03  0.22203709519E+04  0.20969748353E+04 0.  0.
        5    1    3    3  502    0 -0.14927129305E+03 -0.20827490275E+02  0.14635907530E+04  0.14713380596E+04  0.46999998093E+01 0.  1.
       -5    1    3    3    0  502  0.14927129305E+03  0.20827490275E+02 -0.73369781275E+03  0.74903289228E+03  0.46999998093E+01 0. -1.
</event>
<event>
 5   0  0.8858590E-05  0.2131949E+04  0.7818609E-02  0.8547299E-01
       -2   -1    0    0    0  501  0.00000000000E+00  0.00000000000E+00  0.12594184262E+04  0.12594184262E+04  0.25500000920E-02 0.  1.
        2   -1    0    0  501    0  0.00000000000E+00  0.00000000000E+00 -0.90224304821E+03  0.90224304822E+03  0.25500000920E-02 0. -1.
    10030    2    1    2    0    0  0.00000000000E+00  0.00000000000E+00  0.35717537798E+03  0.21616614744E+04  0.21319488923E+04 0.  0.
        1    1    3    3  502    0  0.97534714909E+03 -0.24630198312E+03 -0.17893798054E+03  0.10217561006E+04  0.50400001928E-02 0.  1.
       -1    1    3    3    0  502 -0.97534714909E+03  0.24630198312E+03  0.53611335851E+03  0.11399053738E+04  0.50400001928E-02 0. -1.
</event>
<event>
 5   0  0.8858590E-05  0.2060086E+04  0.7818609E-02  0.8579032E-01
        2   -1    0    0  501    0  0.00000000000E+00  0.00000000000E+00  0.92824418441E+03  0.92824418442E+03  0.25500000920E-02 0. -1.
       -2   -1    0    0    0  501  0.00000000000E+00  0.00000000000E+00 -0.11430062931E+04  0.11430062931E+04  0.25500000920E-02 0.  1.
    10030    2    1    2    0    0  0.00000000000E+00  0.00000000000E+00 -0.21476210871E+03  0.20712504775E+04  0.20600863519E+04 0.  0.
        1    1    3    3  502    0 -0.24351578558E+03  0.76487176857E+03  0.54160923310E+03  0.96833326990E+03  0.50400001928E-02 0. -1.
       -1    1    3    3    0  502  0.24351578558E+03 -0.76487176857E+03 -0.75637134181E+03  0.11029172076E+04  0.50400001928E-02 0.  1.
</event>
<event>
 5   0  0.4128678E-05  0.1919582E+04  0.7818609E-02  0.8645170E-01
        1   -1    0    0  501    0  0.00000000000E+00  0.00000000000E+00  0.11078961489E+04  0.11078961489E+04  0.50400001928E-02 0. -1.
       -1   -1    0    0    0  501  0.00000000000E+00  0.00000000000E+00 -0.83148455927E+03  0.83148455928E+03  0.50400001928E-02 0.  1.
    10030    2    1    2    0    0  0.00000000000E+00  0.00000000000E+00  0.27641158961E+03  0.19393807082E+04  0.19195817681E+04 0.  0.
        5    1    3    3  502    0 -0.18834800770E+02 -0.25080522866E+02  0.11073665936E+04  0.11078206737E+04  0.46999998093E+01 0. -1.
       -5    1    3    3    0  502  0.18834800770E+02  0.25080522866E+02 -0.83095500399E+03  0.83156003452E+03  0.46999998093E+01 0.  1.
</event>
<event>
 5   0  0.4128678E-05  0.2103817E+04  0.7818609E-02  0.8559564E-01
       -1   -1    0    0    0  501  0.00000000000E+00  0.00000000000E+00  0.13936230132E+04  0.13936230132E+04  0.50400001928E-02 0.  1.
        1   -1    0    0  501    0  0.00000000000E+00  0.00000000000E+00 -0.79398230221E+03  0.79398230223E+03  0.50400001928E-02 0. -1.
    10030    2    1    2    0    0  0.00000000000E+00  0.00000000000E+00  0.59964071097E+03  0.21876053154E+04  0.21038174906E+04 0.  0.
        5    1    3    3  502    0 -0.30988899733E+03  0.78302485297E+03 -0.35562581205E+03  0.91413944189E+03  0.46999998093E+01 0. -1.
       -5    1    3    3    0  502  0.30988899733E+03 -0.78302485297E+03  0.95526652302E+03  0.12734658735E+04  0.46999998093E+01 0.  1.
</event>
<event>
 5   0  0.8547605E-05  0.2025926E+04  0.7818609E-02  0.8594595E-01
       -2   -1    0    0    0  501  0.00000000000E+00  0.00000000000E+00  0.12150379730E+04  0.12150379730E+04  0.25500000920E-02 0.  1.
        2   -1    0    0  501    0  0.00000000000E+00  0.00000000000E+00 -0.84449525399E+03  0.84449525399E+03  0.25500000920E-02 0. -1.
    10030    2    1    2    0    0  0.00000000000E+00  0.00000000000E+00  0.37054271902E+03  0.20595332270E+04  0.20259257653E+04 0.  0.
        4    1    3    3  502    0 -0.25970620458E+01  0.28981409782E+03 -0.80144474672E+03  0.85224072360E+03  0.12699999809E+01 0. -1.
       -4    1    3    3    0  502  0.25970620458E+01 -0.28981409782E+03  0.11719874657E+04  0.12072925034E+04  0.12699999809E+01 0.  1.
</event>
<event>
 5   0  0.4200061E-05  0.2108262E+04  0.7818609E-02  0.8557612E-01
        1   -1    0    0  501    0  0.00000000000E+00  0.00000000000E+00  0.13434956290E+04  0.13434956290E+04  0.50400001928E-02 0.  1.
       -1   -1    0    0    0  501  0.00000000000E+00  0.00000000000E+00 -0.82709055462E+03  0.82709055464E+03  0.50400001928E-02 0. -1.
    10030    2    1    2    0    0  0.00000000000E+00  0.00000000000E+00  0.51640507434E+03  0.21705861836E+04  0.21082623603E+04 0.  0.
        4    1    3    3  502    0 -0.40956352409E+03  0.92488430536E+03  0.56368526329E+03  0.11579706160E+04  0.12699999809E+01 0.  1.
       -4    1    3    3    0  502  0.40956352409E+03 -0.92488430536E+03 -0.47280188955E+02  0.10126155676E+04  0.12699999809E+01 0. -1.
</event>
<event>
 5   0  0.8547605E-05  0.2144385E+04  0.7818609E-02  0.8541939E-01
        2   -1    0    0  501    0  0.00000000000E+00  0.00000000000E+00  0.18829116185E+04  0.18829116185E+04  0.25500000920E-02 0. -1.
       -2   -1    0    0    0  501  0.00000000000E+00  0.00000000000E+00 -0.61054221103E+03  0.61054221103E+03  0.25500000920E-02 0.  1.
    10030    2    1    2    0    0  0.00000000000E+00  0.00000000000E+00  0.12723694075E+04  0.24934538296E+04  0.21443852478E+04 0.  0.
        4    1    3    3  502    0 -0.84471615407E+03 -0.99329260021E+02  0.13952811384E+04  0.16340816231E+04  0.12699999809E+01 0. -1.
       -4    1    3    3    0  502  0.84471615407E+03  0.99329260021E+02 -0.12291173086E+03  0.85937220651E+03  0.12699999809E+01 0.  1.
</event>
<event>
 5   0  0.4174093E-05  0.2100980E+04  0.7818609E-02  0.8560812E-01
       -1   -1    0    0    0  501  0.00000000000E+00  0.00000000000E+00  0.66767911987E+03  0.66767911989E+03  0.50400001928E-02 0.  1.
        1   -1    0    0  501    0  0.00000000000E+00  0.00000000000E+00 -0.16527832806E+04  0.16527832806E+04  0.50400001928E-02 0. -1.
    10030    2    1    2    0    0  0.00000000000E+00  0.00000000000E+00 -0.98510416077E+03  0.23204624005E+04  0.21009796631E+04 0.  0.
        3    1    3    3  502    0 -0.18273536415E+03 -0.60813482777E+03 -0.14168190779E+04  0.15526095748E+04  0.10100000352E+00 0. -1.
       -3    1    3    3    0  502  0.18273536415E+03  0.60813482777E+03  0.43171491715E+03  0.76785282571E+03  0.10100000352E+00 0.  1.
</event>
<event>
 5   0  0.4200061E-05  0.2103948E+04  0.7818609E-02  0.8559506E-01
        1   -1    0    0  501    0  0.00000000000E+00  0.00000000000E+00  0.12998928630E+04  0.12998928631E+04  0.50400001928E-02 0.  1.
       -1   -1    0    0    0  501  0.00000000000E+00  0.00000000000E+00 -0.85133894598E+03  0.85133894600E+03  0.50400001928E-02 0. -1.
    10030    2    1    2    0    0  0.00000000000E+00  0.00000000000E+00  0.44855391707E+03  0.21512318091E+04  0.21039481172E+04 0.  0.
        4    1    3    3  502    0  0.83148556356E+03  0.45017385639E+03  0.69575054886E+03  0.11739229883E+04  0.12699999809E+01 0.  1.
       -4    1    3    3    0  502 -0.83148556356E+03 -0.45017385639E+03 -0.24719663179E+03  0.97730882072E+03  0.12699999809E+01 0. -1.
</event>
<event>
 5   0  0.4050368E-05  0.2091525E+04  0.7818609E-02  0.8564986E-01
       -1   -1    0    0    0  501  0.00000000000E+00  0.00000000000E+00  0.11752736132E+04  0.11752736132E+04  0.50400001928E-02 0. -1.
        1   -1    0    0  501    0  0.00000000000E+00  0.00000000000E+00 -0.93052325344E+03  0.93052325346E+03  0.50400001928E-02 0.  1.
    10030    2    1    2    0    0  0.00000000000E+00  0.00000000000E+00  0.24475035973E+03  0.21057968666E+04  0.20915252102E+04 0.  0.
        2    1    3    3  502    0 -0.50934644974E+03  0.63643249302E+03  0.78193245749E+03  0.11295567680E+04  0.25500000920E-02 0. -1.
       -2    1    3    3    0  502  0.50934644974E+03 -0.63643249302E+03 -0.53718209777E+03  0.97624009864E+03  0.25500000920E-02 0.  1.
</event>
<event>
 5   0  0.8858590E-05  0.2127294E+04  0.7818609E-02  0.8549314E-01
        2   -1    0    0  501    0  0.00000000000E+00  0.00000000000E+00  0.98144863509E+03  0.98144863509E+03  0.25500000920E-02 0. -1.
       -2   -1    0    0    0  501  0.00000000000E+00  0.00000000000E+00 -0.11527298934E+04  0.11527298934E+04  0.25500000920E-02 0.  1.
    10030    2    1    2    0    0  0.00000000000E+00  0.00000000000E+00 -0.17128125827E+03  0.21341785285E+04  0.21272942255E+04 0.  0.
        1    1    3    3  502    0  0.19776198351E+03 -0.93426382608E+03 -0.55554351979E+03  0.11048019285E+04  0.50400001928E-02 0.  1.
       -1    1    3    3    0  502 -0.19776198351E+03  0.93426382608E+03  0.38426226152E+03  0.10293765999E+04  0.50400001928E-02 0. -1.
</event>
<event>
 5   0  0.4182977E-05  0.1950587E+04  0.7818609E-02  0.8630078E-01
       -1   -1    0    0    0  501  0.00000000000E+00  0.00000000000E+00  0.56524420645E+03  0.56524420648E+03  0.50400001928E-02 0.  1.
        1   -1    0    0  501    0  0.00000000000E+00  0.00000000000E+00 -0.16828079686E+04  0.16828079686E+04  0.50400001928E-02 0. -1.
    10030    2    1    2    0    0  0.00000000000E+00  0.00000000000E+00 -0.11175637621E+04  0.22480521751E+04  0.19505870448E+04 0.  0.
        1    1    3    3  502    0  0.80629350715E+03 -0.54195821560E+03 -0.45984439320E+03  0.10748417526E+04  0.50400001928E-02 0.  1.
       -1    1    3    3    0  502 -0.80629350715E+03  0.54195821560E+03 -0.65771936895E+03  0.11732104225E+04  0.50400001928E-02 0. -1.
</event>
<event>
 5   0  0.8858590E-05  0.2101231E+04  0.7818609E-02  0.8560701E-01
        2   -1    0    0  501    0  0.00000000000E+00  0.00000000000E+00  0.10978143389E+04  0.10978143389E+04  0.25500000920E-02 0.  1.
       -2   -1    0    0    0  501  0.00000000000E+00  0.00000000000E+00 -0.10054456273E+04  0.10054456273E+04  0.25500000920E-02 0. -1.
    10030    2    1    2    0    0  0.00000000000E+00  0.00000000000E+00  0.92368711624E+02  0.21032599663E+04  0.21012307124E+04 0.  0.
        1    1    3    3  502    0  0.25781554672E+03  0.46079158259E+03  0.95535382703E+03  0.10915579112E+04  0.50400001928E-02 0.  1.
       -1    1    3    3    0  502 -0.25781554672E+03 -0.46079158259E+03 -0.86298511541E+03  0.10117020550E+04  0.50400001928E-02 0. -1.
</event>
<event>
 5   0  0.9012466E-05  0.2059771E+04  0.7818609E-02  0.8579174E-01
        2   -1    0    0  501    0  0.00000000000E+00  0.00000000000E+00  0.26980582535E+04  0.26980582535E+04  0.25500000920E-02 0.  1.
       -2   -1    0    0    0  501  0.00000000000E+00  0.00000000000E+00 -0.39312144389E+03  0.39312144390E+03  0.25500000920E-02 0. -1.
    10030    2    1    2    0    0  0.00000000000E+00  0.00000000000E+00  0.23049368096E+04  0.30911796974E+04  0.20597714012E+04 0.  0.
        2    1    3    3  502    0  0.74765468294E+03  0.70735437507E+03  0.10978031791E+04  0.15048287467E+04  0.25500000920E-02 0.  1.
       -2    1    3    3    0  502 -0.74765468294E+03 -0.70735437507E+03  0.12071336305E+04  0.15863509507E+04  0.25500000920E-02 0. -1.
</event>
<event>
 5   0  0.8547605E-05  0.2112765E+04  0.7818609E-02  0.8555641E-01
       -2   -1    0    0    0  501  0.00000000000E+00  0.00000000000E+00  0.64962154716E+03  0.64962154717E+03  0.25500000920E-02 0. -1.
        2   -1    0    0  501    0  0.00000000000E+00  0.00000000000E+00 -0.17178367613E+04  0.17178367614E+04  0.25500000920E-02 0.  1.
    10030    2    1    2    0    0  0.00000000000E+00  0.00000000000E+00 -0.10682152142E+04  0.23674583085E+04  0.21127647997E+04 0.  0.
        4    1    3    3  502    0  0.97070809903E+03 -0.39777694491E+03 -0.39486401064E+03  0.11209013834E+04  0.12699999809E+01 0. -1.
       -4    1    3    3    0  502 -0.97070809903E+03  0.39777694491E+03 -0.67335120354E+03  0.12465569252E+04  0.12699999809E+01 0.  1.
</event>
<event>
 5   0  0.4050368E-05  0.2144881E+04  0.7818609E-02  0.8541726E-01
       -1   -1    0    0    0  501  0.00000000000E+00  0.00000000000E+00  0.90473545772E+03  0.90473545774E+03  0.50400001928E-02 0. -1.
        1   -1    0    0  501    0  0.00000000000E+00  0.00000000000E+00 -0.12712323432E+04  0.12712323432E+04  0.50400001928E-02 0.  1.
    10030    2    1    2    0    0  0.00000000000E+00  0.00000000000E+00 -0.36649688547E+03  0.21759678009E+04  0.21448813262E+04 0.  0.
        2    1    3    3  502    0 -0.93560179925E+03 -0.24214698640E+03 -0.65489847713E+03  0.11674236185E+04  0.25500000920E-02 0.  1.
       -2    1    3    3    0  502  0.93560179925E+03  0.24214698640E+03  0.28840159166E+03  0.10085441824E+04  0.25500000920E-02 0. -1.
</event>
<event>
 5   0  0.4182977E-05  0.2094925E+04  0.7818609E-02  0.8563482E-01
        1   -1    0    0  501    0  0.00000000000E+00  0.00000000000E+00  0.12018972278E+04  0.12018972278E+04  0.50400001928E-02 0.  1.
       -1   -1    0    0    0  501  0.00000000000E+00  0.00000000000E+00 -0.91287188737E+03  0.91287188738E+03  0.50400001928E-02 0. -1.
    10030    2    1    2    0    0  0.00000000000E+00  0.00000000000E+00  0.28902534042E+03  0.21147691152E+04  0.20949254791E+04 0.  0.
        1    1    3    3  502    0  0.74405446557E+03 -0.38132636623E+03 -0.49245659025E+03  0.97033001532E+03  0.50400001928E-02 0. -1.
       -1    1    3    3    0  502 -0.74405446557E+03  0.38132636623E+03  0.78148193067E+03  0.11444390999E+04  0.50400001928E-02 0.  1.
</event>
<event>
 5   0  0.8547605E-05  0.1865204E+04  0.7818609E-02  0.8672373E-01
        2   -1    0    0  501    0  0.00000000000E+00  0.00000000000E+00  0.20674316376E+04  0.20674316376E+04  0.25500000920E-02 0.  1.
       -2   -1    0    0    0  501  0.00000000000E+00  0.00000000000E+00 -0.42068934510E+03  0.42068934511E+03  0.25500000920E-02 0. -1.
    10030    2    1    2    0    0  0.00000000000E+00  0.00000000000E+00  0.16467422925E+04  0.24881209827E+04  0.18652039692E+04 0.  0.
        4    1    3    3  502    0 -0.71325915051E+03 -0.49038447463E+03  0.36025333938E+03  0.93754980144E+03  0.12699999809E+01 0. -1.
       -4    1    3    3    0  502  0.71325915051E+03  0.49038447463E+03  0.12864889531E+04  0.15505711812E+04  0.12699999809E+01 0.  1.
</event>
<event>
 5   0  0.8872777E-05  0.2073466E+04  0.7818609E-02  0.8573023E-01
       -2   -1    0    0    0  501  0.00000000000E+00  0.00000000000E+00  0.10701845886E+04  0.10701845886E+04  0.25500000920E-02 0. -1.
        2   -1    0    0  501    0  0.00000000000E+00  0.00000000000E+00 -0.10043273224E+04  0.10043273224E+04  0.25500000920E-02 0.  1.
    10030    2    1    2    0    0  0.00000000000E+00  0.00000000000E+00  0.65857266138E+02  0.20745119110E+04  0.20734662981E+04 0.  0.
        3    1    3    3  502    0  0.35386738780E+03 -0.84485988814E+03  0.51877134253E+03  0.10526794739E+04  0.10100000352E+00 0. -1.
       -3    1    3    3    0  502 -0.35386738780E+03  0.84485988814E+03 -0.45291407640E+03  0.10218324371E+04  0.10100000352E+00 0.  1.
</event>
<event>
 5   0  0.4050368E-05  0.2099029E+04  0.7818609E-02  0.8561671E-01
       -1   -1    0    0    0  501  0.00000000000E+00  0.00000000000E+00  0.12749952331E+04  0.12749952331E+04  0.50400001928E-02 0.  1.
        1   -1    0    0  501    0  0.00000000000E+00  0.00000000000E+00 -0.86390969506E+03  0.86390969507E+03  0.50400001928E-02 0. -1.
    10030    2    1    2    0    0  0.00000000000E+00  0.00000000000E+00  0.41108553806E+03  0.21389049282E+04  0.20990290547E+04 0.  0.
        2    1    3    3  502    0 -0.32521572265E+02 -0.25446039349E+03 -0.83147060619E+03  0.87014430613E+03  0.25500000920E-02 0. -1.
       -2    1    3    3    0  502  0.32521572265E+02  0.25446039349E+03  0.12425561443E+04  0.12687606221E+04  0.25500000920E-02 0.  1.
</event>
<event>
 5   0  0.4174093E-05  0.2115360E+04  0.7818609E-02  0.8554507E-01
       -1   -1    0    0    0  501  0.00000000000E+00  0.00000000000E+00  0.83763778366E+03  0.83763778367E+03  0.50400001928E-02 0.  1.
        1   -1    0    0  501    0  0.00000000000E+00  0.00000000000E+00 -0.13355253775E+04  0.13355253775E+04  0.50400001928E-02 0. -1.
    10030    2    1    2    0    0  0.00000000000E+00  0.00000000000E+00 -0.49788759385E+03  0.21731631612E+04  0.21153595602E+04 0.  0.
        3    1    3    3  502    0 -0.10146125279E+04  0.21572669357E+03 -0.36632789735E+02  0.10379395741E+04  0.10100000352E+00 0.  1.
       -3    1    3    3    0  502  0.10146125279E+04 -0.21572669357E+03 -0.46125480412E+03  0.11352235871E+04  0.10100000352E+00 0. -1.
</event>
<event>
 5   0  0.9012466E-05  0.2197281E+04  0.7818609E-02  0.8519561E-01
       -2   -1    0    0    0  501  0.00000000000E+00  0.00000000000E+00  0.48462613370E+03  0.48462613371E+03  0.25500000920E-02 0. -1.
        2   -1    0    0  501    0  0.00000000000E+00  0.00000000000E+00 -0.24906026161E+04  0.24906026161E+04  0.25500000920E-02 0.  1.
    10030    2    1    2    0    0  0.00000000000E+00  0.00000000000E+00 -0.20059764824E+04  0.29752287498E+04  0.21972811531E+04 0.  0.
        2    1    3    3  502    0  0.69832730335E+03 -0.14195380230E+03  0.12924316260E+03  0.72423456123E+03  0.25500000920E-02 0. -1.
       -2    1    3    3    0  502 -0.69832730335E+03  0.14195380230E+03 -0.21352196450E+04  0.22509941886E+04  0.25500000920E-02 0.  1.
</event>
<event>
 5   0  0.8547605E-05  0.2049492E+04  0.7818609E-02  0.8583825E-01
       -2   -1    0    0    0  501  0.00000000000E+00  0.00000000000E+00  0.90421601033E+03  0.90421601034E+03  0.25500000920E-02 0.  1.
        2   -1    0    0  501    0  0.00000000000E+00  0.00000000000E+00 -0.11613421202E+04  0.11613421202E+04  0.25500000920E-02 0. -1.
    10030    2    1    2    0    0  0.00000000000E+00  0.00000000000E+00 -0.25712610983E+03  0.20655581305E+04  0.20494917795E+04 0.  0.
        4    1    3    3  502    0 -0.58594776116E+03 -0.22248592172E+03 -0.94563896531E+03  0.11344908240E+04  0.12699999809E+01 0. -1.
       -4    1    3    3    0  502  0.58594776116E+03  0.22248592172E+03  0.68851285547E+03  0.93106730649E+03  0.12699999809E+01 0.  1.
</event>
<event>
 5   0  0.4182977E-05  0.2076432E+04  0.7818609E-02  0.8571697E-01
       -1   -1    0    0    0  501  0.00000000000E+00  0.00000000000E+00  0.96162646243E+03  0.96162646245E+03  0.50400001928E-02 0.  1.
        1   -1    0    0  501    0  0.00000000000E+00  0.00000000000E+00 -0.11209052019E+04  0.11209052019E+04  0.50400001928E-02 0. -1.
    10030    2    1    2    0    0  0.00000000000E+00  0.00000000000E+00 -0.15927873943E+03  0.20825316643E+04  0.20764316546E+04 0.  0.
        1    1    3    3  502    0 -0.24094194646E+03 -0.64439141587E+02  0.93113413878E+03  0.96395861372E+03  0.50400001928E-02 0.  1.
       -1    1    3    3    0  502  0.24094194646E+03  0.64439141587E+02 -0.10904128782E+04  0.11185730506E+04  0.50400001928E-02 0. -1.
</event>
<event>
 5   0  0.4182977E-05  0.2120178E+04  0.7818609E-02  0.8552407E-01
        1   -1    0    0  501    0  0.00000000000E+00  0.00000000000E+00  0.10133499337E+04  0.10133499337E+04  0.50400001928E-02 0.  1.
       -1   -1    0    0    0  501  0.00000000000E+00  0.00000000000E+00 -0.11089834933E+04  0.11089834933E+04  0.50400001928E-02 0. -1.
    10030    2    1    2    0    0  0.00000000000E+00  0.00000000000E+00 -0.95633559628E+02  0.21223334270E+04  0.21201776806E+04 0.  0.
        1    1    3    3  502    0  0.52840709806E+03  0.73126481849E+03 -0.60500294364E+03  0.10862738411E+04  0.50400001928E-02 0. -1.
       -1    1    3    3    0  502 -0.52840709806E+03 -0.73126481849E+03  0.50936938401E+03  0.10360595859E+04  0.50400001928E-02 0.  1.
</event>
<event>
 5   0  0.8872777E-05  0.2091535E+04  0.7818609E-02  0.8564981E-01
        2   -1    0    0  501    0  0.00000000000E+00  0.00000000000E+00  0.13004422101E+04  0.13004422101E+04  0.25500000920E-02 0.  1.
       -2   -1    0    0    0  501  0.00000000000E+00  0.00000000000E+00 -0.84096773768E+03  0.84096773769E+03  0.25500000920E-02 0. -1.
    10030    2    1    2    0    0  0.00000000000E+00  0.00000000000E+00  0.45947447246E+03  0.21414099478E+04  0.20915352672E+04 0.  0.
        3    1    3    3  502    0  0.68117491634E+03 -0.71295401562E+03 -0.12688940206E+03  0.99418490514E+03  0.10100000352E+00 0. -1.
       -3    1    3    3    0  502 -0.68117491634E+03  0.71295401562E+03  0.58636387452E+03  0.11472250427E+04  0.10100000352E+00 0.  1.
</event>
<event>
 5   0  0.4200061E-05  0.2105799E+04  0.7818609E-02  0.8558693E-01
        1   -1    0    0  501    0  0.00000000000E+00  0.00000000000E+00  0.12288912257E+04  0.12288912258E+04  0.50400001928E-02 0. -1.
       -1   -1    0    0    0  501  0.00000000000E+00  0.00000000000E+00 -0.90211194442E+03  0.90211194443E+03  0.50400001928E-02 0.  1.
    10030    2    1    2    0    0  0.00000000000E+00  0.00000000000E+00  0.32677928133E+03  0.21310031702E+04  0.21057990912E+04 0.  0.
        4    1    3    3  502    0 -0.42461547214E+03  0.25108475301E+03 -0.77793400184E+03  0.92115404601E+03  0.12699999809E+01 0.  1.
       -4    1    3    3    0  502  0.42461547214E+03 -0.25108475301E+03  0.11047132832E+04  0.12098491242E+04  0.12699999809E+01 0. -1.
</event>
<event>
 5   0  0.4182977E-05  0.2142565E+04  0.7818609E-02  0.8542722E-01
        1   -1    0    0  501    0  0.00000000000E+00  0.00000000000E+00  0.24613214310E+04  0.24613214310E+04  0.50400001928E-02 0.  1.
       -1   -1    0    0    0  501  0.00000000000E+00  0.00000000000E+00 -0.46627225540E+03  0.46627225543E+03  0.50400001928E-02 0. -1.
    10030    2    1    2    0    0  0.00000000000E+00  0.00000000000E+00  0.19950491756E+04  0.29275936864E+04  0.21425647201E+04 0.  0.
        1    1    3    3  502    0 -0.22555214690E+03 -0.10379967705E+04  0.11875217060E+04  0.15932730051E+04  0.50400001928E-02 0.  1.
       -1    1    3    3    0  502  0.22555214690E+03  0.10379967705E+04  0.80752746961E+03  0.13343206814E+04  0.50400001928E-02 0. -1.
</event>
<event>
 5   0  0.4182977E-05  0.2056363E+04  0.7818609E-02  0.8580713E-01
        1   -1    0    0  501    0  0.00000000000E+00  0.00000000000E+00  0.20725091194E+04  0.20725091194E+04  0.50400001928E-02 0. -1.
       -1   -1    0    0    0  501  0.00000000000E+00  0.00000000000E+00 -0.51008551376E+03  0.51008551379E+03  0.50400001928E-02 0.  1.
    10030    2    1    2    0    0  0.00000000000E+00  0.00000000000E+00  0.15624236056E+04  0.25825946332E+04  0.20563626908E+04 0.  0.
        1    1    3    3  502    0 -0.54073163619E+03  0.41054803266E+02  0.18783005421E+04  0.19550164004E+04  0.50400001928E-02 0. -1.
       -1    1    3    3    0  502  0.54073163619E+03 -0.41054803266E+02 -0.31587693649E+03  0.62757823279E+03  0.50400001928E-02 0.  1.
</event>
<event>
 5   0  0.4174093E-05  0.1795320E+04  0.7818609E-02  0.8708792E-01
        1   -1    0    0  501    0  0.00000000000E+00  0.00000000000E+00  0.84958040576E+03  0.84958040577E+03  0.50400001928E-02 0.  1.
       -1   -1    0    0    0  501  0.00000000000E+00  0.00000000000E+00 -0.94846009526E+03  0.94846009527E+03  0.50400001928E-02 0. -1.
    10030    2    1    2    0    0  0.00000000000E+00  0.00000000000E+00 -0.98879689499E+02  0.17980405010E+04  0.17953195956E+04 0.  0.
        3    1    3    3  502    0  0.20410542500E+03  0.19441841324E+02  0.82581604672E+03  0.85088727981E+03  0.10100000352E+00 0.  1.
       -3    1    3    3    0  502 -0.20410542500E+03 -0.19441841324E+02 -0.92469573622E+03  0.94715322124E+03  0.10100000352E+00 0. -1.
</event>
<event>
 5   0  0.9086985E-05  0.2145655E+04  0.7818609E-02  0.8541394E-01
        2   -1    0    0  501    0  0.00000000000E+00  0.00000000000E+00  0.11150059076E+04  0.11150059076E+04  0.25500000920E-02 0.  1.
       -2   -1    0    0    0  501  0.00000000000E+00  0.00000000000E+00 -0.10322448041E+04  0.10322448041E+04  0.25500000920E-02 0. -1.
    10030    2    1    2    0    0  0.00000000000E+00  0.00000000000E+00  0.82761103464E+02  0.21472507118E+04  0.21456551957E+04 0.  0.
        5    1    3    3  502    0 -0.36030133134E+03 -0.22125078050E+03  0.10280995388E+04  0.11116562908E+04  0.46999998093E+01 0.  1.
       -5    1    3    3    0  502  0.36030133134E+03  0.22125078050E+03 -0.94533843536E+03  0.10355944209E+04  0.46999998093E+01 0. -1.
</event>
<event>
 5   0  0.4200061E-05  0.2058007E+04  0.7818609E-02  0.8579970E-01
        1   -1    0    0  501    0  0.00000000000E+00  0.00000000000E+00  0.13310698875E+04  0.13310698875E+04  0.50400001928E-02 0. -1.
       -1   -1    0    0    0  501  0.00000000000E+00  0.00000000000E+00 -0.79548675845E+03  0.79548675847E+03  0.50400001928E-02 0.  1.
    10030    2    1    2    0    0  0.00000000000E+00  0.00000000000E+00  0.53558312905E+03  0.21265566460E+04  0.20580072596E+04 0.  0.
        4    1    3    3  502    0 -0.52790686286E+03 -0.84761682018E+03  0.52447451023E+03  0.11279251103E+04  0.12699999809E+01 0. -1.
       -4    1    3    3    0  502  0.52790686286E+03  0.84761682018E+03  0.11108618824E+02  0.99863153566E+03  0.12699999809E+01 0.  1.
</event>
<event>
 5   0  0.4182977E-05  0.2055660E+04  0.7818609E-02  0.8581031E-01
       -1   -1    0    0    0  501  0.00000000000E+00  0.00000000000E+00  0.11202210394E+04  0.11202210394E+04  0.50400001928E-02 0.  1.
        1   -1    0    0  501    0  0.00000000000E+00  0.00000000000E+00 -0.94305934025E+03  0.94305934026E+03  0.50400001928E-02 0. -1.
    10030    2    1    2    0    0  0.00000000000E+00  0.00000000000E+00  0.17716169912E+03  0.20632803796E+04  0.20556603945E+04 0.  0.
        1    1    3    3  502    0 -0.45860397478E+03 -0.91065389021E+03  0.21877985222E+03  0.10428196091E+04  0.50400001928E-02 0.  1.
       -1    1    3    3    0  502  0.45860397478E+03  0.91065389021E+03 -0.41618153107E+02  0.10204607705E+04  0.50400001928E-02 0. -1.
</event>
<event>
 5   0  0.4182977E-05  0.2116352E+04  0.7818609E-02  0.8554074E-01
       -1   -1    0    0    0  501  0.00000000000E+00  0.00000000000E+00  0.13184381166E+04  0.13184381166E+04  0.50400001928E-02 0. -1.
        1   -1    0    0  501    0  0.00000000000E+00  0.00000000000E+00 -0.84928990521E+03  0.84928990523E+03  0.50400001928E-02 0.  1.
    10030    2    1    2    0    0  0.00000000000E+00  0.00000000000E+00  0.46914821138E+03  0.21677280218E+04  0.21163517506E+04 0.  0.
        1    1    3    3  502    0 -0.57658083871E+03 -0.71907753220E+03 -0.29787028501E+03  0.96863030491E+03  0.50400001928E-02 0.  1.
       -1    1    3    3    0  502  0.57658083871E+03  0.71907753220E+03  0.76701849639E+03  0.11990977169E+04  0.50400001928E-02 0. -1.
</event>
<event>
 5   0  0.9086985E-05  0.2081539E+04  0.7818609E-02  0.8569419E-01
        2   -1    0    0  501    0  0.00000000000E+00  0.00000000000E+00  0.14030647908E+04  0.14030647908E+04  0.25500000920E-02 0. -1.
       -2   -1    0    0    0  501  0.00000000000E+00  0.00000000000E+00 -0.77202530425E+03  0.77202530426E+03  0.25500000920E-02 0.  1.
    10030    2    1    2    0    0  0.00000000000E+00  0.00000000000E+00  0.63103948651E+03  0.21750900950E+04  0.20815393554E+04 0.  0.
        5    1    3    3  502    0  0.89157183143E+03 -0.49845917487E+03  0.10700829523E+03  0.10270514811E+04  0.46999998093E+01 0. -1.
       -5    1    3    3    0  502 -0.89157183143E+03  0.49845917487E+03  0.52403119128E+03  0.11480386139E+04  0.46999998093E+01 0.  1.
</event>
<event>
 5   0  0.8547605E-05  0.2095340E+04  0.7818609E-02  0.8563299E-01
        2   -1    0    0  501    0  0.00000000000E+00  0.00000000000E+00  0.14750635320E+04  0.14750635320E+04  0.25500000920E-02 0. -1.
       -2   -1    0    0    0  501  0.00000000000E+00  0.00000000000E+00 -0.74411174647E+03  0.74411174648E+03  0.25500000920E-02 0.  1.
    10030    2    1    2    0    0  0.00000000000E+00  0.00000000000E+00  0.73095178549E+03  0.22191752784E+04  0.20953396870E+04 0.  0.
        4    1    3    3  502    0 -0.18436824003E+03  0.59763988424E+03 -0.52470131509E+03  0.81638113778E+03  0.12699999809E+01 0.  1.
       -4    1    3    3    0  502  0.18436824003E+03 -0.59763988424E+03  0.12556531006E+04  0.14027941407E+04  0.12699999809E+01 0. -1.
</event>
<event>
 5   0  0.4128678E-05  0.2163946E+04  0.7818609E-02  0.8533586E-01
       -1   -1    0    0    0  501  0.00000000000E+00  0.00000000000E+00  0.10760816309E+04  0.10760816309E+04  0.50400001928E-02 0.  1.
        1   -1    0    0  501    0  0.00000000000E+00  0.00000000000E+00 -0.10878963022E+04  0.10878963022E+04  0.50400001928E-02 0. -1.
    10030    2    1    2    0    0  0.00000000000E+00  0.00000000000E+00 -0.11814671320E+02  0.21639779331E+04  0.21639456805E+04 0.  0.
        5    1    3    3  502    0  0.12846963118E+02  0.62202925592E+03  0.87929380229E+03  0.10771560335E+04  0.46999998093E+01 0.  1.
       -5    1    3    3    0  502 -0.12846963118E+02 -0.62202925592E+03 -0.89110847361E+03  0.10868218996E+04  0.46999998093E+01 0. -1.
</event>
<event>
 5   0  0.8547605E-05  0.2169594E+04  0.7818609E-02  0.8531192E-01
       -2   -1    0    0    0  501  0.00000000000E+00  0.00000000000E+00  0.98119057981E+03  0.98119057981E+03  0.25500000920E-02 0.  1.
        2   -1    0    0  501    0  0.00000000000E+00  0.00000000000E+00 -0.11993430902E+04  0.11993430902E+04  0.25500000920E-02 0. -1.
    10030    2    1    2    0    0  0.00000000000E+00  0.00000000000E+00 -0.21815251036E+03  0.21805336700E+04  0.21695936412E+04 0.  0.
        4    1    3    3  502    0  0.94592815676E+02  0.81255594465E+03 -0.82512054352E+03  0.11619038205E+04  0.12699999809E+01 0. -1.
       -4    1    3    3    0  502 -0.94592815676E+02 -0.81255594465E+03  0.60696803316E+03  0.10186298494E+04  0.12699999809E+01 0.  1.
</event>
<event>
 5   0  0.4174093E-05  0.2054712E+04  0.7818609E-02  0.8581460E-01
        1   -1    0    0  501    0  0.00000000000E+00  0.00000000000E+00  0.16593333916E+04  0.16593333916E+04  0.50400001928E-02 0.  1.
       -1   -1    0    0    0  501  0.00000000000E+00  0.00000000000E+00 -0.63607506361E+03  0.63607506363E+03  0.50400001928E-02 0. -1.
    10030    2    1    2    0    0  0.00000000000E+00  0.00000000000E+00  0.10232583280E+04  0.22954084553E+04  0.20547122355E+04 0.  0.
        3    1    3    3  502    0  0.36174848642E+03 -0.44204576148E+03 -0.44233170560E+03  0.72244291861E+03  0.10100000352E+00 0. -1.
       -3    1    3    3    0  502 -0.36174848642E+03  0.44204576148E+03  0.14655900336E+04  0.15729655366E+04  0.10100000352E+00 0.  1.
</event>
<event>
 5   0  0.9012466E-05  0.1978987E+04  0.7818609E-02  0.8616508E-01
       -2   -1    0    0    0  501  0.00000000000E+00  0.00000000000E+00  0.79797408903E+03  0.79797408903E+03  0.25500000920E-02 0.  1.
        2   -1    0    0  501    0  0.00000000000E+00  0.00000000000E+00 -0.12269791809E+04  0.12269791809E+04  0.25500000920E-02 0. -1.
    10030    2    1    2    0    0  0.00000000000E+00  0.00000000000E+00 -0.42900509189E+03  0.20249532700E+04  0.19789872098E+04 0.  0.
        2    1    3    3  502    0 -0.11023025770E+03  0.24453712676E+03 -0.11890684343E+04  0.12189474384E+04  0.25500000920E-02 0. -1.
       -2    1    3    3    0  502  0.11023025770E+03 -0.24453712676E+03  0.76006334240E+03  0.80600583158E+03  0.25500000920E-02 0.  1.
</event>
<event>
 5   0  0.8858590E-05  0.2092029E+04  0.7818609E-02  0.8564763E-01
        2   -1    0    0  501    0  0.00000000000E+00  0.00000000000E+00  0.14465616173E+04  0.14465616173E+04  0.25500000920E-02 0. -1.
       -2   -1    0    0    0  501  0.00000000000E+00  0.00000000000E+00 -0.75637757854E+03  0.75637757855E+03  0.25500000920E-02 0.  1.
    10030    2    1    2    0    0  0.00000000000E+00  0.00000000000E+00  0.69018403875E+03  0.22029391958E+04  0.20920294198E+04 0.  0.
        1    1    3    3  502    0  0.75783057496E+02 -0.91707944244E+03 -0.17863786685E+03  0.93738426648E+03  0.50400001928E-02 0.  1.
       -1    1    3    3    0  502 -0.75783057496E+02  0.91707944244E+03  0.86882190560E+03  0.12655549294E+04  0.50400001928E-02 0. -1.
</event>
<event>
 5   0  0.4200061E-05  0.2098512E+04  0.7818609E-02  0.8561899E-01
        1   -1    0    0  501    0  0.00000000000E+00  0.00000000000E+00  0.24413255872E+04  0.24413255872E+04  0.50400001928E-02 0. -1.
       -1   -1    0    0    0  501  0.00000000000E+00  0.00000000000E+00 -0.45095917947E+03  0.45095917950E+03  0.50400001928E-02 0.  1.
    10030    2    1    2    0    0  0.00000000000E+00  0.00000000000E+00  0.19903664077E+04  0.28922847667E+04  0.20985120287E+04 0.  0.
        4    1    3    3  502    0 -0.71299290809E+03 -0.39227903450E+03  0.82309174679E+02  0.81793529147E+03  0.12699999809E+01 0.  1.
       -4    1    3    3    0  502  0.71299290809E+03  0.39227903450E+03  0.19080572330E+04  0.20743494752E+04  0.12699999809E+01 0. -1.
</event>
<event>
 5   0  0.8858590E-05  0.2138470E+04  0.7818609E-02  0.8544484E-01
       -2   -1    0    0    0  501  0.00000000000E+00  0.00000000000E+00  0.68084321337E+03  0.68084321337E+03  0.25500000920E-02 0. -1.
        2   -1    0    0  501    0  0.00000000000E+00  0.00000000000E+00 -0.16791881988E+04  0.16791881988E+04  0.25500000920E-02 0.  1.
    10030    2    1    2    0    0  0.00000000000E+00  0.00000000000E+00 -0.99834498546E+03  0.23600314122E+04  0.21384703778E+04 0.  0.
        1    1    3    3  502    0  0.87648585481E+03  0.57725416167E+03 -0.27350149096E+03  0.10845519289E+04  0.50400001928E-02 0.  1.
       -1    1    3    3    0  502 -0.87648585481E+03 -0.57725416167E+03 -0.72484349450E+03  0.12754794833E+04  0.50400001928E-02 0. -1.
</event>
<event>
 5   0  0.4050368E-05  0.2061936E+04  0.7818609E-02  0.8578199E-01
       -1   -1    0    0    0  501  0.00000000000E+00  0.00000000000E+00  0.42751040690E+03  0.42751040693E+03  0.50400001928E-02 0.  1.
        1   -1    0    0  501    0  0.00000000000E+00  0.00000000000E+00 -0.24862431004E+04  0.24862431004E+04  0.50400001928E-02 0. -1.
    10030    2    1    2    0    0  0.00000000000E+00  0.00000000000E+00 -0.20587326935E+04  0.29137535073E+04  0.20619357891E+04 0.  0.
        2    1    3    3  502    0  0.97466531708E+02  0.65895133269E+03 -0.21413169807E+04  0.22425331649E+04  0.25500000920E-02 0. -1.
       -2    1    3    3    0  502 -0.97466531708E+02 -0.65895133269E+03  0.82584287210E+02  0.67122034247E+03  0.25500000920E-02 0.  1.
</event>
<event>
 5   0  0.8547605E-05  0.2081435E+04  0.7818609E-02  0.8569466E-01
        2   -1    0    0  501    0  0.00000000000E+00  0.00000000000E+00  0.12029684471E+04  0.12029684471E+04  0.25500000920E-02 0. -1.
       -2   -1    0    0    0  501  0.00000000000E+00  0.00000000000E+00 -0.90034983288E+03  0.90034983288E+03  0.25500000920E-02 0.  1.
    10030    2    1    2    0    0  0.00000000000E+00  0.00000000000E+00  0.30261861419E+03  0.21033182799E+04  0.20814345440E+04 0.  0.
        4    1    3    3  502    0 -0.59686368743E+03  0.68510887529E+03 -0.36144095143E+03  0.97788629535E+03  0.12699999809E+01 0.  1.
       -4    1    3    3    0  502  0.59686368743E+03 -0.68510887529E+03  0.66405956562E+03  0.11254319846E+04  0.12699999809E+01 0. -1.
</event>
<event>
 5   0  0.8872777E-05  0.2186548E+04  0.7818609E-02  0.8524048E-01
       -2   -1    0    0    0  501  0.00000000000E+00  0.00000000000E+00  0.34919563094E+03  0.34919563095E+03  0.25500000920E-02 0. -1.
        2   -1    0    0  501    0  0.00000000000E+00  0.00000000000E+00 -0.34228621658E+04  0.34228621658E+04  0.25500000920E-02 0.  1.
    10030    2    1    2    0    0  0.00000000000E+00  0.00000000000E+00 -0.30736665349E+04  0.37720577968E+04  0.21865484341E+04 0.  0.
        3    1    3    3  502    0 -0.27552106576E+01 -0.10228964590E+04 -0.22025679964E+04  0.24285037670E+04  0.10100000352E+00 0. -1.
       -3    1    3    3    0  502  0.27552106576E+01  0.10228964590E+04 -0.87109853846E+03  0.13435540298E+04  0.10100000352E+00 0.  1.
</event>
<event>
 5   0  0.4050368E-05  0.2108618E+04  0.7818609E-02  0.8557457E-01
       -1   -1    0    0    0  501  0.00000000000E+00  0.00000000000E+00  0.84923405087E+03  0.84923405088E+03  0.50400001928E-02 0.  1.
        1   -1    0    0  501    0  0.00000000000E+00  0.00000000000E+00 -0.13089058318E+04  0.13089058318E+04  0.50400001928E-02 0. -1.
    10030    2    1    2    0    0  0.00000000000E+00  0.00000000000E+00 -0.45967178096E+03  0.21581398827E+04  0.21086179377E+04 0.  0.
        2    1    3    3  502    0 -0.36880012552E+03 -0.40856156468E+03 -0.11501942735E+04  0.12751011534E+04  0.25500000920E-02 0. -1.
       -2    1    3    3    0  502  0.36880012552E+03  0.40856156468E+03  0.69052249253E+03  0.88303872928E+03  0.25500000920E-02 0.  1.
</event>
<event>
 5   0  0.4200061E-05  0.2091411E+04  0.7818609E-02  0.8565036E-01
        1   -1    0    0  501    0  0.00000000000E+00  0.00000000000E+00  0.16301194313E+04  0.16301194313E+04  0.50400001928E-02 0.  1.
       -1   -1    0    0    0  501  0.00000000000E+00  0.00000000000E+00 -0.67080990157E+03  0.67080990159E+03  0.50400001928E-02 0. -1.
    10030    2    1    2    0    0  0.00000000000E+00  0.00000000000E+00  0.95930952971E+03  0.23009293329E+04  0.20914112511E+04 0.  0.
        4    1    3    3  502    0 -0.86581636806E+03  0.29724422697E+03 -0.76460532297E+02  0.91860760914E+03  0.12699999809E+01 0.  1.
       -4    1    3    3    0  502  0.86581636806E+03 -0.29724422697E+03  0.10357700620E+04  0.13823217237E+04  0.12699999809E+01 0. -1.
</event>
<event>
 5   0  0.4174093E-05  0.2087634E+04  0.7818609E-02  0.8566710E-01
        1   -1    0    0  501    0  0.00000000000E+00  0.00000000000E+00  0.18678946067E+04  0.18678946068E+04  0.50400001928E-02 0. -1.
       -1   -1    0    0    0  501  0.00000000000E+00  0.00000000000E+00 -0.58330572305E+03  0.58330572307E+03  0.50400001928E-02 0.  1.
    10030    2    1    2    0    0  0.00000000000E+00  0.00000000000E+00  0.12845888837E+04  0.24512003298E+04  0.20876336980E+04 0.  0.
        3    1    3    3  502    0  0.52142200082E+03 -0.86505130090E+03  0.33306861730E+03  0.10635456596E+04  0.10100000352E+00 0. -1.
       -3    1    3    3    0  502 -0.52142200082E+03  0.86505130090E+03  0.95152026640E+03  0.13876546702E+04  0.10100000352E+00 0.  1.
</event>
<event>
 5   0  0.4174093E-05  0.2101312E+04  0.7818609E-02  0.8560666E-01
       -1   -1    0    0    0  501  0.00000000000E+00  0.00000000000E+00  0.16110992387E+04  0.16110992387E+04  0.50400001928E-02 0.  1.
        1   -1    0    0  501    0  0.00000000000E+00  0.00000000000E+00 -0.68517043694E+03  0.68517043695E+03  0.50400001928E-02 0. -1.
    10030    2    1    2    0    0  0.00000000000E+00  0.00000000000E+00  0.92592880179E+03  0.22962696757E+04  0.21013115613E+04 0.  0.
        3    1    3    3  502    0  0.19045464073E+02  0.33411863933E+03  0.15512976867E+04  0.15869853552E+04  0.10100000352E+00 0.  1.
       -3    1    3    3    0  502 -0.19045464073E+02 -0.33411863933E+03 -0.62536888489E+03  0.70928432045E+03  0.10100000352E+00 0. -1.
</event>
<event>
 5   0  0.8858590E-05  0.2124707E+04  0.7818609E-02  0.8550437E-01
       -2   -1    0    0    0  501  0.00000000000E+00  0.00000000000E+00  0.95538335054E+03  0.95538335054E+03  0.25500000920E-02 0. -1.
        2   -1    0    0  501    0  0.00000000000E+00  0.00000000000E+00 -0.11813011573E+04  0.11813011573E+04  0.25500000920E-02 0.  1.
    10030    2    1    2    0    0  0.00000000000E+00  0.00000000000E+00 -0.22591780674E+03  0.21366845078E+04  0.21247074694E+04 0.  0.
        1    1    3    3  502    0 -0.50824990401E+03 -0.93269767954E+03 -0.13184055930E+03  0.10703386658E+04  0.50400001928E-02 0. -1.
       -1    1    3    3    0  502  0.50824990401E+03  0.93269767954E+03 -0.94077247439E+02  0.10663458421E+04  0.50400001928E-02 0.  1.
</event>
<event>
 5   0  0.9086985E-05  0.2100895E+04  0.7818609E-02  0.8560849E-01
       -2   -1    0    0    0  501  0.00000000000E+00  0.00000000000E+00  0.93847345515E+03  0.93847345515E+03  0.25500000920E-02 0.  1.
        2   -1    0    0  501    0  0.00000000000E+00  0.00000000000E+00 -0.11757821726E+04  0.11757821726E+04  0.25500000920E-02 0. -1.
    10030    2    1    2    0    0  0.00000000000E+00  0.00000000000E+00 -0.23730871740E+03  0.21142556277E+04  0.21008953881E+04 0.  0.
        5    1    3    3  502    0 -0.23551230876E+03 -0.20357542039E+02 -0.11486560013E+04  0.11727374712E+04  0.46999998093E+01 0. -1.
       -5    1    3    3    0  502  0.23551230876E+03  0.20357542039E+02  0.91134728391E+03  0.94151815648E+03  0.46999998093E+01 0.  1.
</event>
<event>
 5   0  0.9012466E-05  0.2081581E+04  0.7818609E-02  0.8569401E-01
       -2   -1    0    0    0  501  0.00000000000E+00  0.00000000000E+00  0.10210692299E+04  0.10210692299E+04  0.25500000920E-02 0. -1.
        2   -1    0    0  501    0  0.00000000000E+00  0.00000000000E+00 -0.10608930968E+04  0.10608930968E+04  0.25500000920E-02 0.  1.
    10030    2    1    2    0    0  0.00000000000E+00  0.00000000000E+00 -0.39823866844E+02  0.20819623267E+04  0.20815814155E+04 0.  0.
        2    1    3    3  502    0 -0.42148368995E+03 -0.22073614830E+03 -0.94575532097E+03  0.10586907363E+04  0.25500000920E-02 0.  1.
       -2    1    3    3    0  502  0.42148368995E+03  0.22073614830E+03  0.90593145413E+03  0.10232715904E+04  0.25500000920E-02 0. -1.
</event>
<event>
 5   0  0.4182977E-05  0.1761653E+04  0.7818609E-02  0.8726962E-01
       -1   -1    0    0    0  501  0.00000000000E+00  0.00000000000E+00  0.58354546150E+03  0.58354546152E+03  0.50400001928E-02 0.  1.
        1   -1    0    0  501    0  0.00000000000E+00  0.00000000000E+00 -0.13295543423E+04  0.13295543424E+04  0.50400001928E-02 0. -1.
    10030    2    1    2    0    0  0.00000000000E+00  0.00000000000E+00 -0.74600888085E+03  0.19130998039E+04  0.17616530899E+04 0.  0.
        1    1    3    3  502    0 -0.35680854253E+03 -0.73651407570E+02 -0.12438933318E+04  0.12961510277E+04  0.50400001928E-02 0. -1.
       -1    1    3    3    0  502  0.35680854253E+03  0.73651407570E+02  0.49788445093E+03  0.61694877613E+03  0.50400001928E-02 0.  1.
</event>
<event>
 5   0  0.9012466E-05  0.2086603E+04  0.7818609E-02  0.8567168E-01
        2   -1    0    0  501    0  0.00000000000E+00  0.00000000000E+00  0.17178197499E+04  0.17178197499E+04  0.25500000920E-02 0.  1.
       -2   -1    0    0    0  501  0.00000000000E+00  0.00000000000E+00 -0.63363926645E+03  0.63363926646E+03  0.25500000920E-02 0. -1.
    10030    2    1    2    0    0  0.00000000000E+00  0.00000000000E+00  0.10841804835E+04  0.23514590164E+04  0.20866030252E+04 0.  0.
        2    1    3    3  502    0 -0.59029914185E+03 -0.72466377708E+02 -0.42390358530E+03  0.73034149711E+03  0.25500000920E-02 0. -1.
       -2    1    3    3    0  502  0.59029914185E+03  0.72466377708E+02  0.15080840688E+04  0.16211175193E+04  0.25500000920E-02 0.  1.
</event>
<event>
 5   0  0.4182977E-05  0.2145245E+04  0.7818609E-02  0.8541570E-01
       -1   -1    0    0    0  501  0.00000000000E+00  0.00000000000E+00  0.68226023480E+03  0.68226023482E+03  0.50400001928E-02 0. -1.
        1   -1    0    0  501    0  0.00000000000E+00  0.00000000000E+00 -0.16863349842E+04  0.16863349843E+04  0.50400001928E-02 0.  1.
    10030    2    1    2    0    0  0.00000000000E+00  0.00000000000E+00 -0.10040747494E+04  0.23685952191E+04  0.21452452562E+04 0.  0.
        1    1    3    3  502    0 -0.98567166039E+03  0.41907052818E+03 -0.56594805133E+03  0.12113900802E+04  0.50400001928E-02 0.  1.
       -1    1    3    3    0  502  0.98567166039E+03 -0.41907052818E+03 -0.43812669812E+03  0.11572051388E+04  0.50400001928E-02 0. -1.
</event>
<event>
 5   0  0.4128678E-05  0.2094583E+04  0.7818609E-02  0.8563633E-01
        1   -1    0    0  501    0  0.00000000000E+00  0.00000000000E+00  0.88637079792E+03  0.88637079793E+03  0.50400001928E-02 0.  1.
       -1   -1    0    0    0  501  0.00000000000E+00  0.00000000000E+00 -0.12374274061E+04  0.12374274061E+04  0.50400001928E-02 0. -1.
    10030    2    1    2    0    0  0.00000000000E+00  0.00000000000E+00 -0.35105660817E+03  0.21237982040E+04  0.20945830299E+04 0.  0.
        5    1    3    3  502    0 -0.22138536597E+02  0.94996185525E+03 -0.62198766634E+03  0.11356973137E+04  0.46999998093E+01 0. -1.
       -5    1    3    3    0  502  0.22138536597E+02 -0.94996185525E+03  0.27093105817E+03  0.98810089035E+03  0.46999998093E+01 0.  1.
</event>
<event>
 5   0  0.8547605E-05  0.1713505E+04  0.7818609E-02  0.8753699E-01
        2   -1    0    0  501    0  0.00000000000E+00  0.00000000000E+00  0.76895413282E+03  0.76895413283E+03  0.25500000920E-02 0.  1.
       -2   -1    0    0    0  501  0.00000000000E+00  0.00000000000E+00 -0.95457547879E+03  0.95457547880E+03  0.25500000920E-02 0. -1.
    10030    2    1    2    0    0  0.00000000000E+00  0.00000000000E+00 -0.18562134597E+03  0.17235296116E+04  0.17135048988E+04 0.  0.
        4    1    3    3  502    0 -0.42246403457E+03  0.67759849623E+03 -0.40512287592E+03  0.89540032393E+03  0.12699999809E+01 0. -1.
       -4    1    3    3    0  502  0.42246403457E+03 -0.67759849623E+03  0.21950152995E+03  0.82812928770E+03  0.12699999809E+01 0.  1.
</event>
<event>
 5   0  0.4174093E-05  0.2099901E+04  0.7818609E-02  0.8561287E-01
       -1   -1    0    0    0  501  0.00000000000E+00  0.00000000000E+00  0.87419079670E+03  0.87419079671E+03  0.50400001928E-02 0.  1.
        1   -1    0    0  501    0  0.00000000000E+00  0.00000000000E+00 -0.12610480229E+04  0.12610480229E+04  0.50400001928E-02 0. -1.
    10030    2    1    2    0    0  0.00000000000E+00  0.00000000000E+00 -0.38685722618E+03  0.21352388196E+04  0.20999014985E+04 0.  0.
        3    1    3    3  502    0 -0.91388310551E+03  0.33349647975E+03  0.20817900646E+03  0.99485714626E+03  0.10100000352E+00 0.  1.
       -3    1    3    3    0  502  0.91388310551E+03 -0.33349647975E+03 -0.59503623264E+03  0.11403816733E+04  0.10100000352E+00 0. -1.
</event>
<event>
 5   0  0.3176125E-05  0.2110133E+04  0.7818609E-02  0.8556793E-01
       -3   -1    0    0    0  501  0.00000000000E+00  0.00000000000E+00  0.10606213235E+04  0.10606213283E+04  0.10100000352E+00 0.  1.
        3   -1    0    0  501    0  0.00000000000E+00  0.00000000000E+00 -0.10495402920E+04  0.10495402969E+04  0.10100000352E+00 0. -1.
    10030    2    1    2    0    0  0.00000000000E+00  0.00000000000E+00  0.11081031534E+02  0.21101616252E+04  0.21101325303E+04 0.  0.
        4    1    3    3  502    0  0.63889925707E+02 -0.46561307654E+03 -0.93908129082E+03  0.10501203471E+04  0.12699999809E+01 0. -1.
       -4    1    3    3    0  502 -0.63889925707E+02  0.46561307654E+03  0.95016232235E+03  0.10600412781E+04  0.12699999809E+01 0.  1.
</event>
<event>
 5   0  0.4182977E-05  0.2074560E+04  0.7818609E-02  0.8572533E-01
       -1   -1    0    0    0  501  0.00000000000E+00  0.00000000000E+00  0.82614891296E+03  0.82614891298E+03  0.50400001928E-02 0.  1.
        1   -1    0    0  501    0  0.00000000000E+00  0.00000000000E+00 -0.13023681295E+04  0.13023681295E+04  0.50400001928E-02 0. -1.
    10030    2    1    2    0    0  0.00000000000E+00  0.00000000000E+00 -0.47621921649E+03  0.21285170424E+04  0.20745602083E+04 0.  0.
        1    1    3    3  502    0 -0.81777461780E+03 -0.61312990125E+03 -0.41953167875E+03  0.11048486009E+04  0.50400001928E-02 0.  1.
       -1    1    3    3    0  502  0.81777461780E+03  0.61312990125E+03 -0.56687537744E+02  0.10236684416E+04  0.50400001928E-02 0. -1.
</event>
<event>
 5   0  0.4050368E-05  0.2059046E+04  0.7818609E-02  0.8579502E-01
       -1   -1    0    0    0  501  0.00000000000E+00  0.00000000000E+00  0.96071256379E+03  0.96071256380E+03  0.50400001928E-02 0. -1.
        1   -1    0    0  501    0  0.00000000000E+00  0.00000000000E+00 -0.11032616192E+04  0.11032616192E+04  0.50400001928E-02 0.  1.
    10030    2    1    2    0    0  0.00000000000E+00  0.00000000000E+00 -0.14254905537E+03  0.20639741830E+04  0.20590457000E+04 0.  0.
        2    1    3    3  502    0  0.48498697083E+03 -0.17258721269E+03  0.82244161386E+03  0.97026229241E+03  0.25500000920E-02 0. -1.
       -2    1    3    3    0  502 -0.48498697083E+03  0.17258721269E+03 -0.96499066923E+03  0.10937118906E+04  0.25500000920E-02 0.  1.
</event>
<event>
 5   0  0.4200061E-05  0.2141831E+04  0.7818609E-02  0.8543037E-01
       -1   -1    0    0    0  501  0.00000000000E+00  0.00000000000E+00  0.79511541260E+03  0.79511541261E+03  0.50400001928E-02 0.  1.
        1   -1    0    0  501    0  0.00000000000E+00  0.00000000000E+00 -0.14423813709E+04  0.14423813709E+04  0.50400001928E-02 0. -1.
    10030    2    1    2    0    0  0.00000000000E+00  0.00000000000E+00 -0.64726595828E+03  0.22374967835E+04  0.21418306738E+04 0.  0.
        4    1    3    3  502    0  0.10271310803E+04 -0.24512117503E+03 -0.13741449158E+03  0.10648788673E+04  0.12699999809E+01 0.  1.
       -4    1    3    3    0  502 -0.10271310803E+04  0.24512117503E+03 -0.50985146670E+03  0.11726179163E+04  0.12699999809E+01 0. -1.
</event>
<event>
 5   0  0.4128678E-05  0.2069810E+04  0.7818609E-02  0.8574660E-01
       -1   -1    0    0    0  501  0.00000000000E+00  0.00000000000E+00  0.69320896313E+03  0.69320896315E+03  0.50400001928E-02 0. -1.
        1   -1    0    0  501    0  0.00000000000E+00  0.00000000000E+00 -0.15450301077E+04  0.15450301077E+04  0.50400001928E-02 0.  1.
    10030    2    1    2    0    0  0.00000000000E+00  0.00000000000E+00 -0.85182114460E+03  0.22382390709E+04  0.20698103478E+04 0.  0.
        5    1    3    3  502    0 -0.21347176808E+03  0.70924055622E+03 -0.12075085608E+04  0.14165773458E+04  0.46999998093E+01 0.  1.
       -5    1    3    3    0  502  0.21347176808E+03 -0.70924055622E+03  0.35568741620E+03  0.82166172504E+03  0.46999998093E+01 0. -1.
</event>
<event>
 5   0  0.8858590E-05  0.2067408E+04  0.7818609E-02  0.8575738E-01
       -2   -1    0    0    0  501  0.00000000000E+00  0.00000000000E+00  0.76666497849E+03  0.76666497849E+03  0.25500000920E-02 0. -1.
        2   -1    0    0  501    0  0.00000000000E+00  0.00000000000E+00 -0.13937560594E+04  0.13937560594E+04  0.25500000920E-02 0.  1.
    10030    2    1    2    0    0  0.00000000000E+00  0.00000000000E+00 -0.62709108088E+03  0.21604210379E+04  0.20674079997E+04 0.  0.
        1    1    3    3  502    0  0.43374442194E+03  0.16733009148E+03 -0.12783439284E+04  0.13602561458E+04  0.50400001928E-02 0.  1.
       -1    1    3    3    0  502 -0.43374442194E+03 -0.16733009148E+03  0.65125284747E+03  0.80016489204E+03  0.50400001928E-02 0. -1.
</event>
<event>
 5   0  0.4050368E-05  0.2111423E+04  0.7818609E-02  0.8556228E-01
       -1   -1    0    0    0  501  0.00000000000E+00  0.00000000000E+00  0.50848553735E+03  0.50848553737E+03  0.50400001928E-02 0.  1.
        1   -1    0    0  501    0  0.00000000000E+00  0.00000000000E+00 -0.21918563452E+04  0.21918563452E+04  0.50400001928E-02 0. -1.
    10030    2    1    2    0    0  0.00000000000E+00  0.00000000000E+00 -0.16833708078E+04  0.27003418825E+04  0.21114234549E+04 0.  0.
        2    1    3    3  502    0  0.37867984142E+03  0.93153312495E+03 -0.12528833070E+04  0.16065083150E+04  0.25500000920E-02 0. -1.
       -2    1    3    3    0  502 -0.37867984142E+03 -0.93153312495E+03 -0.43048750087E+03  0.10938335676E+04  0.25500000920E-02 0.  1.
</event>
<event>
 5   0  0.8872777E-05  0.2060526E+04  0.7818609E-02  0.8578834E-01
       -2   -1    0    0    0  501  0.00000000000E+00  0.00000000000E+00  0.57218062718E+03  0.57218062719E+03  0.25500000920E-02 0.  1.
        2   -1    0    0  501    0  0.00000000000E+00  0.00000000000E+00 -0.18550812228E+04  0.18550812228E+04  0.25500000920E-02 0. -1.
    10030    2    1    2    0    0  0.00000000000E+00  0.00000000000E+00 -0.12829005957E+04  0.24272618500E+04  0.20605256976E+04 0.  0.
        3    1    3    3  502    0  0.40607344807E+03 -0.33090875654E+03 -0.16865036278E+04  0.17659815251E+04  0.10100000352E+00 0. -1.
       -3    1    3    3    0  502 -0.40607344807E+03  0.33090875654E+03  0.40360303211E+03  0.66128032491E+03  0.10100000352E+00 0.  1.
</event>
<event>
 5   0  0.4200061E-05  0.2127810E+04  0.7818609E-02  0.8549091E-01
       -1   -1    0    0    0  501  0.00000000000E+00  0.00000000000E+00  0.11427752630E+04  0.11427752630E+04  0.50400001928E-02 0.  1.
        1   -1    0    0  501    0  0.00000000000E+00  0.00000000000E+00 -0.99047812578E+03  0.99047812580E+03  0.50400001928E-02 0. -1.
    10030    2    1    2    0    0  0.00000000000E+00  0.00000000000E+00  0.15229713723E+03  0.21332533888E+04  0.21278100486E+04 0.  0.
        4    1    3    3  502    0  0.17600422232E+03  0.46336888495E+03  0.10199409360E+04  0.11340058799E+04  0.12699999809E+01 0.  1.
       -4    1    3    3    0  502 -0.17600422232E+03 -0.46336888495E+03 -0.86764379872E+03  0.99924750897E+03  0.12699999809E+01 0. -1.
</event>
<event>
 5   0  0.8858590E-05  0.2086567E+04  0.7818609E-02  0.8567184E-01
       -2   -1    0    0    0  501  0.00000000000E+00  0.00000000000E+00  0.75019971305E+03  0.75019971306E+03  0.25500000920E-02 0. -1.
        2   -1    0    0  501    0  0.00000000000E+00  0.00000000000E+00 -0.14508681765E+04  0.14508681766E+04  0.25500000920E-02 0.  1.
    10030    2    1    2    0    0  0.00000000000E+00  0.00000000000E+00 -0.70066846349E+03  0.22010678896E+04  0.20865674106E+04 0.  0.
        1    1    3    3  502    0 -0.24048681063E+02  0.65136196744E+03  0.50897797217E+03  0.82698810625E+03  0.50400001928E-02 0. -1.
       -1    1    3    3    0  502  0.24048681063E+02 -0.65136196744E+03 -0.12096464357E+04  0.13740797834E+04  0.50400001928E-02 0.  1.
</event>
<event>
 5   0  0.4174093E-05  0.2171057E+04  0.7818609E-02  0.8530572E-01
       -1   -1    0    0    0  501  0.00000000000E+00  0.00000000000E+00  0.84607052372E+03  0.84607052374E+03  0.50400001928E-02 0.  1.
        1   -1    0    0  501    0  0.00000000000E+00  0.00000000000E+00 -0.13927585160E+04  0.13927585161E+04  0.50400001928E-02 0. -1.
    10030    2    1    2    0    0  0.00000000000E+00  0.00000000000E+00 -0.54668799233E+03  0.22388290398E+04  0.21710568183E+04 0.  0.
        3    1    3    3  502    0 -0.76861245975E+03  0.22394513965E+03  0.48265452952E+03  0.93481118089E+03  0.10100000352E+00 0.  1.
       -3    1    3    3    0  502  0.76861245975E+03 -0.22394513965E+03 -0.10293425218E+04  0.13040178589E+04  0.10100000352E+00 0. -1.
</event>
<event>
 5   0  0.8547605E-05  0.2112201E+04  0.7818609E-02  0.8555888E-01
       -2   -1    0    0    0  501  0.00000000000E+00  0.00000000000E+00  0.93267515076E+03  0.93267515076E+03  0.25500000920E-02 0. -1.
        2   -1    0    0  501    0  0.00000000000E+00  0.00000000000E+00 -0.11958590111E+04  0.11958590111E+04  0.25500000920E-02 0.  1.
    10030    2    1    2    0    0  0.00000000000E+00  0.00000000000E+00 -0.26318386035E+03  0.21285341619E+04  0.21122007324E+04 0.  0.
        4    1    3    3  502    0  0.27759191196E+03  0.63011151970E+03 -0.93856425716E+03  0.11640456497E+04  0.12699999809E+01 0.  1.
       -4    1    3    3    0  502 -0.27759191196E+03 -0.63011151970E+03  0.67538039681E+03  0.96448851219E+03  0.12699999809E+01 0. -1.
</event>
<event>
 5   0  0.8547605E-05  0.2089897E+04  0.7818609E-02  0.8565707E-01
       -2   -1    0    0    0  501  0.00000000000E+00  0.00000000000E+00  0.79217707444E+03  0.79217707444E+03  0.25500000920E-02 0. -1.
        2   -1    0    0  501    0  0.00000000000E+00  0.00000000000E+00 -0.13783748982E+04  0.13783748982E+04  0.25500000920E-02 0.  1.
    10030    2    1    2    0    0  0.00000000000E+00  0.00000000000E+00 -0.58619782380E+03  0.21705519727E+04  0.20898966428E+04 0.  0.
        4    1    3    3  502    0  0.79727632531E+03  0.44919368457E+03  0.23084100817E+03  0.94377629188E+03  0.12699999809E+01 0.  1.
       -4    1    3    3    0  502 -0.79727632531E+03 -0.44919368457E+03 -0.81703883197E+03  0.12267756808E+04  0.12699999809E+01 0. -1.
</event>
<event>
 5   0  0.9086985E-05  0.2020450E+04  0.7818609E-02  0.8597119E-01
        2   -1    0    0  501    0  0.00000000000E+00  0.00000000000E+00  0.19782312649E+04  0.19782312649E+04  0.25500000920E-02 0.  1.
       -2   -1    0    0    0  501  0.00000000000E+00  0.00000000000E+00 -0.51589220811E+03  0.51589220811E+03  0.25500000920E-02 0. -1.
    10030    2    1    2    0    0  0.00000000000E+00  0.00000000000E+00  0.14623390568E+04  0.24941234730E+04  0.20204495494E+04 0.  0.
        5    1    3    3  502    0  0.17933569358E+03  0.26192927522E+03 -0.45271157376E+03  0.55293588708E+03  0.46999998093E+01 0. -1.
       -5    1    3    3    0  502 -0.17933569358E+03 -0.26192927522E+03  0.19150506306E+04  0.19411875859E+04  0.46999998093E+01 0.  1.
</event>
<event>
 5   0  0.9012466E-05  0.2054875E+04  0.7818609E-02  0.8581386E-01
        2   -1    0    0  501    0  0.00000000000E+00  0.00000000000E+00  0.13521467046E+04  0.13521467046E+04  0.25500000920E-02 0.  1.
       -2   -1    0    0    0  501  0.00000000000E+00  0.00000000000E+00 -0.78070507035E+03  0.78070507036E+03  0.25500000920E-02 0. -1.
    10030    2    1    2    0    0  0.00000000000E+00  0.00000000000E+00  0.57144163427E+03  0.21328517750E+04  0.20548749725E+04 0.  0.
        2    1    3    3  502    0 -0.91810382268E+03 -0.15161406609E+03 -0.16638394279E+03  0.94529628725E+03  0.25500000920E-02 0. -1.
       -2    1    3    3    0  502  0.91810382268E+03  0.15161406609E+03  0.73782557706E+03  0.11875554877E+04  0.25500000920E-02 0.  1.
</event>
<event>
 5   0  0.8872777E-05  0.2100740E+04  0.7818609E-02  0.8560918E-01
       -2   -1    0    0    0  501  0.00000000000E+00  0.00000000000E+00  0.43686063593E+03  0.43686063594E+03  0.25500000920E-02 0.  1.
        2   -1    0    0  501    0  0.00000000000E+00  0.00000000000E+00 -0.25254666916E+04  0.25254666916E+04  0.25500000920E-02 0. -1.
    10030    2    1    2    0    0  0.00000000000E+00  0.00000000000E+00 -0.20886060557E+04  0.29623273275E+04  0.21007398553E+04 0.  0.
        3    1    3    3  502    0 -0.14574780041E+03  0.12987960295E+03  0.41105345739E+03  0.45505613678E+03  0.10100000352E+00 0.  1.
       -3    1    3    3    0  502  0.14574780041E+03 -0.12987960295E+03 -0.24996595131E+04  0.25072711908E+04  0.10100000352E+00 0. -1.
</event>
<event>
 5   0  0.8872777E-05  0.2080188E+04  0.7818609E-02  0.8570021E-01
       -2   -1    0    0    0  501  0.00000000000E+00  0.00000000000E+00  0.66088718065E+03  0.66088718065E+03  0.25500000920E-02 0.  1.
        2   -1    0    0  501    0  0.00000000000E+00  0.00000000000E+00 -0.16368836924E+04  0.16368836924E+04  0.25500000920E-02 0. -1.
    10030    2    1    2    0    0  0.00000000000E+00  0.00000000000E+00 -0.97599651171E+03  0.22977708730E+04  0.20801879228E+04 0.  0.
        3    1    3    3  502    0 -0.61913498573E+03  0.25271723915E+03  0.39194492423E+03  0.77512254990E+03  0.10100000352E+00 0.  1.
       -3    1    3    3    0  502  0.61913498573E+03 -0.25271723915E+03 -0.13679414359E+04  0.15226483231E+04  0.10100000352E+00 0. -1.
</event>
<event>
 5   0  0.9012466E-05  0.2093427E+04  0.7818609E-02  0.8564144E-01
        2   -1    0    0  501    0  0.00000000000E+00  0.00000000000E+00  0.14484525262E+04  0.14484525262E+04  0.25500000920E-02 0. -1.
       -2   -1    0    0    0  501  0.00000000000E+00  0.00000000000E+00 -0.75639974838E+03  0.75639974838E+03  0.25500000920E-02 0.  1.
    10030    2    1    2    0    0  0.00000000000E+00  0.00000000000E+00  0.69205277783E+03  0.22048522746E+04  0.20934269764E+04 0.  0.
        2    1    3    3  502    0  0.24865964771E+03  0.99984351000E+03  0.15156287873E+03  0.10413884823E+04  0.25500000920E-02 0.  1.
       -2    1    3    3    0  502 -0.24865964771E+03 -0.99984351000E+03  0.54048989909E+03  0.11634637923E+04  0.25500000920E-02 0. -1.
</event>
<event>
 5   0  0.3176125E-05  0.2089042E+04  0.7818609E-02  0.8566086E-01
        3   -1    0    0  501    0  0.00000000000E+00  0.00000000000E+00  0.72327238022E+03  0.72327238727E+03  0.10100000352E+00 0.  1.
       -3   -1    0    0    0  501  0.00000000000E+00  0.00000000000E+00 -0.15084547153E+04  0.15084547187E+04  0.10100000352E+00 0. -1.
    10030    2    1    2    0    0  0.00000000000E+00  0.00000000000E+00 -0.78518233506E+03  0.22317271059E+04  0.20890415448E+04 0.  0.
        1    1    3    3  502    0  0.38353463849E+03 -0.96715116905E+03 -0.49133510259E+03  0.11506043568E+04  0.50400001928E-02 0. -1.
       -1    1    3    3    0  502 -0.38353463849E+03  0.96715116905E+03 -0.29384723247E+03  0.10811227492E+04  0.50400001928E-02 0.  1.
</event>
<event>
 5   0  0.9086985E-05  0.2108740E+04  0.7818609E-02  0.8557403E-01
       -2   -1    0    0    0  501  0.00000000000E+00  0.00000000000E+00  0.91870956745E+03  0.91870956745E+03  0.25500000920E-02 0.  1.
        2   -1    0    0  501    0  0.00000000000E+00  0.00000000000E+00 -0.12100621616E+04  0.12100621616E+04  0.25500000920E-02 0. -1.
    10030    2    1    2    0    0  0.00000000000E+00  0.00000000000E+00 -0.29135259415E+03  0.21287717291E+04  0.21087396094E+04 0.  0.
        5    1    3    3  502    0  0.52002827315E+03 -0.79639788995E+03  0.31361227223E+03  0.10015257117E+04  0.46999998093E+01 0. -1.
       -5    1    3    3    0  502 -0.52002827315E+03  0.79639788995E+03 -0.60496486637E+03  0.11272460173E+04  0.46999998093E+01 0.  1.
</event>
<event>
 5   0  0.8872777E-05  0.2088485E+04  0.7818609E-02  0.8566333E-01
        2   -1    0    0  501    0  0.00000000000E+00  0.00000000000E+00  0.14810048434E+04  0.14810048434E+04  0.25500000920E-02 0.  1.
       -2   -1    0    0    0  501  0.00000000000E+00  0.00000000000E+00 -0.73628554840E+03  0.73628554840E+03  0.25500000920E-02 0. -1.
    10030    2    1    2    0    0  0.00000000000E+00  0.00000000000E+00  0.74471929497E+03  0.22172903918E+04  0.20884850617E+04 0.  0.
        3    1    3    3  502    0  0.68940777809E+03  0.35458158448E+03  0.11151000655E+04  0.13581087405E+04  0.10100000352E+00 0.  1.
       -3    1    3    3    0  502 -0.68940777809E+03 -0.35458158448E+03 -0.37038077057E+03  0.85918165131E+03  0.10100000352E+00 0. -1.
</event>
<event>
 5   0  0.4200061E-05  0.2138475E+04  0.7818609E-02  0.8544482E-01
       -1   -1    0    0    0  501  0.00000000000E+00  0.00000000000E+00  0.18258533332E+04  0.18258533332E+04  0.50400001928E-02 0. -1.
        1   -1    0    0  501    0  0.00000000000E+00  0.00000000000E+00 -0.62615583629E+03  0.62615583631E+03  0.50400001928E-02 0.  1.
    10030    2    1    2    0    0  0.00000000000E+00  0.00000000000E+00  0.11996974969E+04  0.24520091695E+04  0.21384748966E+04 0.  0.
        4    1    3    3  502    0 -0.92853467205E+03  0.51465406282E+03  0.45381081942E+03  0.11545524303E+04  0.12699999809E+01 0.  1.
       -4    1    3    3    0  502  0.92853467205E+03 -0.51465406282E+03  0.74588667746E+03  0.12974567392E+04  0.12699999809E+01 0. -1.
</event>
<event>
 5   0  0.8858590E-05  0.1995512E+04  0.7818609E-02  0.8608722E-01
        2   -1    0    0  501    0  0.00000000000E+00  0.00000000000E+00  0.11343096828E+04  0.11343096828E+04  0.25500000920E-02 0.  1.
       -2   -1    0    0    0  501  0.00000000000E+00  0.00000000000E+00 -0.87764140837E+03  0.87764140837E+03  0.25500000920E-02 0. -1.
    10030    2    1    2    0    0  0.00000000000E+00  0.00000000000E+00  0.25666827440E+03  0.20119510911E+04  0.19955121122E+04 0.  0.
        1    1    3    3  502    0  0.94643985414E+03 -0.25013429496E+03  0.32280017684E+03  0.10307839333E+04  0.50400001928E-02 0.  1.
       -1    1    3    3    0  502 -0.94643985414E+03  0.25013429496E+03 -0.66131902447E+02  0.98116715781E+03  0.50400001928E-02 0. -1.
</event>
<event>
 5   0  0.9012466E-05  0.2179025E+04  0.7818609E-02  0.8527209E-01
        2   -1    0    0  501    0  0.00000000000E+00  0.00000000000E+00  0.12453633525E+04  0.12453633525E+04  0.25500000920E-02 0.  1.
       -2   -1    0    0    0  501  0.00000000000E+00  0.00000000000E+00 -0.95316592500E+03  0.95316592500E+03  0.25500000920E-02 0. -1.
    10030    2    1    2    0    0  0.00000000000E+00  0.00000000000E+00  0.29219742753E+03  0.21985292775E+04  0.21790253894E+04 0.  0.
        2    1    3    3  502    0  0.10615834316E+04 -0.17989041588E+03 -0.21878609811E+02  0.10769394679E+04  0.25500000920E-02 0.  1.
       -2    1    3    3    0  502 -0.10615834316E+04  0.17989041588E+03  0.31407603734E+03  0.11215898097E+04  0.25500000920E-02 0. -1.
</event>
<event>
 5   0  0.4050368E-05  0.2106203E+04  0.7818609E-02  0.8558516E-01
        1   -1    0    0  501    0  0.00000000000E+00  0.00000000000E+00  0.11296096787E+04  0.11296096787E+04  0.50400001928E-02 0. -1.
       -1   -1    0    0    0  501  0.00000000000E+00  0.00000000000E+00 -0.98177557805E+03  0.98177557806E+03  0.50400001928E-02 0.  1.
    10030    2    1    2    0    0  0.00000000000E+00  0.00000000000E+00  0.14783410069E+03  0.21113852568E+04  0.21062034045E+04 0.  0.
        2    1    3    3  502    0 -0.14078626157E+03  0.47389618055E+03 -0.85822269649E+03  0.99042645268E+03  0.25500000920E-02 0.  1.
       -2    1    3    3    0  502  0.14078626157E+03 -0.47389618055E+03  0.10060567972E+04  0.11209588041E+04  0.25500000920E-02 0. -1.
</event>
<event>
 5   0  0.9086985E-05  0.2007934E+04  0.7818609E-02  0.8602920E-01
       -2   -1    0    0    0  501  0.00000000000E+00  0.00000000000E+00  0.10863567317E+04  0.10863567317E+04  0.25500000920E-02 0.  1.
        2   -1    0    0  501    0  0.00000000000E+00  0.00000000000E+00 -0.92782537145E+03  0.92782537145E+03  0.25500000920E-02 0. -1.
    10030    2    1    2    0    0  0.00000000000E+00  0.00000000000E+00  0.15853136029E+03  0.20141821032E+04  0.20079336026E+04 0.  0.
        5    1    3    3  502    0  0.59518106821E+03  0.12255886501E+03 -0.72238710699E+03  0.94399491613E+03  0.46999998093E+01 0. -1.
       -5    1    3    3    0  502 -0.59518106821E+03 -0.12255886501E+03  0.88091846728E+03  0.10701871871E+04  0.46999998093E+01 0.  1.
</event>
<event>
 5   0  0.4174093E-05  0.2095610E+04  0.7818609E-02  0.8563180E-01
        1   -1    0    0  501    0  0.00000000000E+00  0.00000000000E+00  0.51130833178E+03  0.51130833180E+03  0.50400001928E-02 0. -1.
       -1   -1    0    0    0  501  0.00000000000E+00  0.00000000000E+00 -0.21472278745E+04  0.21472278745E+04  0.50400001928E-02 0.  1.
    10030    2    1    2    0    0  0.00000000000E+00  0.00000000000E+00 -0.16359195427E+04  0.26585362063E+04  0.20956101760E+04 0.  0.
        3    1    3    3  502    0 -0.68372901861E+03  0.15606142975E+03 -0.18055756926E+04  0.19369935810E+04  0.10100000352E+00 0.  1.
       -3    1    3    3    0  502  0.68372901861E+03 -0.15606142975E+03  0.16965614992E+03  0.72154262532E+03  0.10100000352E+00 0. -1.
</event>
<event>
 5   0  0.4174093E-05  0.2058202E+04  0.7818609E-02  0.8579882E-01
       -1   -1    0    0    0  501  0.00000000000E+00  0.00000000000E+00  0.13862782692E+04  0.13862782692E+04  0.50400001928E-02 0.  1.
        1   -1    0    0  501    0  0.00000000000E+00  0.00000000000E+00 -0.76395148357E+03  0.76395148359E+03  0.50400001928E-02 0. -1.
    10030    2    1    2    0    0  0.00000000000E+00  0.00000000000E+00  0.62232678563E+03  0.21502297528E+04  0.20582024589E+04 0.  0.
        3    1    3    3  502    0  0.93880321715E+03 -0.36920965904E+03  0.52368491523E+03  0.11366235760E+04  0.10100000352E+00 0. -1.
       -3    1    3    3    0  502 -0.93880321715E+03  0.36920965904E+03  0.98641870395E+02  0.10136061768E+04  0.10100000352E+00 0.  1.
</event>
<event>
 5   0  0.4200061E-05  0.2098159E+04  0.7818609E-02  0.8562055E-01
        1   -1    0    0  501    0  0.00000000000E+00  0.00000000000E+00  0.10908728469E+04  0.10908728469E+04  0.50400001928E-02 0. -1.
       -1   -1    0    0    0  501  0.00000000000E+00  0.00000000000E+00 -0.10088876613E+04  0.10088876613E+04  0.50400001928E-02 0.  1.
    10030    2    1    2    0    0  0.00000000000E+00  0.00000000000E+00  0.81985185596E+02  0.20997605082E+04  0.20981593412E+04 0.  0.
        4    1    3    3  502    0 -0.35202917515E+03 -0.35461118124E+03 -0.88214991547E+03  0.10138361388E+04  0.12699999809E+01 0.  1.
       -4    1    3    3    0  502  0.35202917515E+03  0.35461118124E+03  0.96413510106E+03  0.10859243694E+04  0.12699999809E+01 0. -1.
</event>
<event>
 5   0  0.8547605E-05  0.1992655E+04  0.7818609E-02  0.8610062E-01
        2   -1    0    0  501    0  0.00000000000E+00  0.00000000000E+00  0.18883855471E+04  0.18883855471E+04  0.25500000920E-02 0.  1.
       -2   -1    0    0    0  501  0.00000000000E+00  0.00000000000E+00 -0.52567066503E+03  0.52567066504E+03  0.25500000920E-02 0. -1.
    10030    2    1    2    0    0  0.00000000000E+00  0.00000000000E+00  0.13627148820E+04  0.24140562121E+04  0.19926554006E+04 0.  0.
        4    1    3    3  502    0 -0.34832449332E+03  0.93132525829E+03  0.75769572211E+03  0.12501204380E+04  0.12699999809E+01 0.  1.
       -4    1    3    3    0  502  0.34832449332E+03 -0.93132525829E+03  0.60501915991E+03  0.11639357741E+04  0.12699999809E+01 0. -1.
</event>
<event>
 5   0  0.9012466E-05  0.2118056E+04  0.7818609E-02  0.8553331E-01
       -2   -1    0    0    0  501  0.00000000000E+00  0.00000000000E+00  0.68130672512E+03  0.68130672513E+03  0.25500000920E-02 0. -1.
        2   -1    0    0  501    0  0.00000000000E+00  0.00000000000E+00 -0.16461608747E+04  0.16461608747E+04  0.25500000920E-02 0.  1.
    10030    2    1    2    0    0  0.00000000000E+00  0.00000000000E+00 -0.96485414959E+03  0.23274675998E+04  0.21180561603E+04 0.  0.
        2    1    3    3  502    0 -0.36343791784E+03  0.32270377745E+03 -0.15163668379E+04  0.15923546198E+04  0.25500000920E-02 0.  1.
       -2    1    3    3    0  502  0.36343791784E+03 -0.32270377745E+03  0.55151268829E+03  0.73511298006E+03  0.25500000920E-02 0. -1.
</event>
<event>
 5   0  0.8547605E-05  0.2104212E+04  0.7818609E-02  0.8559390E-01
       -2   -1    0    0    0  501  0.00000000000E+00  0.00000000000E+00  0.39691813794E+03  0.39691813795E+03  0.25500000920E-02 0.  1.
        2   -1    0    0  501    0  0.00000000000E+00  0.00000000000E+00 -0.27888049325E+04  0.27888049325E+04  0.25500000920E-02 0. -1.
    10030    2    1    2    0    0  0.00000000000E+00  0.00000000000E+00 -0.23918867945E+04  0.31857230704E+04  0.21042122145E+04 0.  0.
        4    1    3    3  502    0 -0.58137486441E+03  0.18638437885E+03  0.10130352877E+03  0.61886984697E+03  0.12699999809E+01 0.  1.
       -4    1    3    3    0  502  0.58137486441E+03 -0.18638437885E+03 -0.24931903233E+04  0.25668532235E+04  0.12699999809E+01 0. -1.
</event>
<event>
 5   0  0.8858590E-05  0.2107147E+04  0.7818609E-02  0.8558102E-01
       -2   -1    0    0    0  501  0.00000000000E+00  0.00000000000E+00  0.50270427226E+03  0.50270427227E+03  0.25500000920E-02 0.  1.
        2   -1    0    0  501    0  0.00000000000E+00  0.00000000000E+00 -0.22080912420E+04  0.22080912420E+04  0.25500000920E-02 0. -1.
    10030    2    1    2    0    0  0.00000000000E+00  0.00000000000E+00 -0.17053869697E+04  0.27107955142E+04  0.21071467921E+04 0.  0.
        1    1    3    3  502    0 -0.62889960618E+03 -0.69165299999E+03 -0.14778183927E+04  0.17486697198E+04  0.50400001928E-02 0. -1.
       -1    1    3    3    0  502  0.62889960618E+03  0.69165299999E+03 -0.22756857698E+03  0.96212579443E+03  0.50400001928E-02 0.  1.
</event>
<event>
 5   0  0.8872777E-05  0.2111495E+04  0.7818609E-02  0.8556197E-01
       -2   -1    0    0    0  501  0.00000000000E+00  0.00000000000E+00  0.94309059271E+03  0.94309059271E+03  0.25500000920E-02 0. -1.
        2   -1    0    0  501    0  0.00000000000E+00  0.00000000000E+00 -0.11818619929E+04  0.11818619929E+04  0.25500000920E-02 0.  1.
    10030    2    1    2    0    0  0.00000000000E+00  0.00000000000E+00 -0.23877140017E+03  0.21249525856E+04  0.21114951360E+04 0.  0.
        3    1    3    3  502    0  0.10374096004E+04  0.49153089769E+02 -0.31024730999E+03  0.10839225567E+04  0.10100000352E+00 0.  1.
       -3    1    3    3    0  502 -0.10374096004E+04 -0.49153089769E+02  0.71475909815E+02  0.10410300289E+04  0.10100000352E+00 0. -1.
</event>
<event>
 5   0  0.4182977E-05  0.2115898E+04  0.7818609E-02  0.8554272E-01
       -1   -1    0    0    0  501  0.00000000000E+00  0.00000000000E+00  0.66454561301E+03  0.66454561302E+03  0.50400001928E-02 0.  1.
        1   -1    0    0  501    0  0.00000000000E+00  0.00000000000E+00 -0.16842433924E+04  0.16842433924E+04  0.50400001928E-02 0. -1.
    10030    2    1    2    0    0  0.00000000000E+00  0.00000000000E+00 -0.10196977794E+04  0.23487890054E+04  0.21158984453E+04 0.  0.
        1    1    3    3  502    0 -0.54379800155E+03  0.80181120969E+03 -0.38052040264E+02  0.96956971914E+03  0.50400001928E-02 0.  1.
       -1    1    3    3    0  502  0.54379800155E+03 -0.80181120969E+03 -0.98164573911E+03  0.13792192863E+04  0.50400001928E-02 0. -1.
</event>
<event>
 5   0  0.9012466E-05  0.2099250E+04  0.7818609E-02  0.8561574E-01
        2   -1    0    0  501    0  0.00000000000E+00  0.00000000000E+00  0.19840372214E+04  0.19840372214E+04  0.25500000920E-02 0. -1.
       -2   -1    0    0    0  501  0.00000000000E+00  0.00000000000E+00 -0.55528844083E+03  0.55528844084E+03  0.25500000920E-02 0.  1.
    10030    2    1    2    0    0  0.00000000000E+00  0.00000000000E+00  0.14287487806E+04  0.25393256623E+04  0.20992502807E+04 0.  0.
        2    1    3    3  502    0 -0.23894490647E+03 -0.72290551860E+03 -0.15960300075E+03  0.77792041689E+03  0.25500000920E-02 0.  1.
       -2    1    3    3    0  502  0.23894490647E+03  0.72290551860E+03  0.15883517813E+04  0.17614052454E+04  0.25500000920E-02 0. -1.
</event>
<event>
 5   0  0.4050368E-05  0.2084943E+04  0.7818609E-02  0.8567905E-01
       -1   -1    0    0    0  501  0.00000000000E+00  0.00000000000E+00  0.13115480891E+04  0.13115480891E+04  0.50400001928E-02 0.  1.
        1   -1    0    0  501    0  0.00000000000E+00  0.00000000000E+00 -0.82859884534E+03  0.82859884536E+03  0.50400001928E-02 0. -1.
    10030    2    1    2    0    0  0.00000000000E+00  0.00000000000E+00  0.48294924373E+03  0.21401469344E+04  0.20849433875E+04 0.  0.
        2    1    3    3  502    0 -0.36700676339E+03  0.11475116556E+03  0.12360910448E+04  0.12945203225E+04  0.25500000920E-02 0.  1.
       -2    1    3    3    0  502  0.36700676339E+03 -0.11475116556E+03 -0.75314180104E+03  0.84562661196E+03  0.25500000920E-02 0. -1.
</event>
<event>
 5   0  0.8547605E-05  0.2108625E+04  0.7818609E-02  0.8557454E-01
       -2   -1    0    0    0  501  0.00000000000E+00  0.00000000000E+00  0.51278627933E+03  0.51278627934E+03  0.25500000920E-02 0.  1.
        2   -1    0    0  501    0  0.00000000000E+00  0.00000000000E+00 -0.21677148120E+04  0.21677148120E+04  0.25500000920E-02 0. -1.
    10030    2    1    2    0    0  0.00000000000E+00  0.00000000000E+00 -0.16549285327E+04  0.26805010914E+04  0.21086245879E+04 0.  0.
        4    1    3    3  502    0 -0.50764639870E+03 -0.88048122952E+03 -0.11839033198E+04  0.15603143098E+04  0.12699999809E+01 0.  1.
       -4    1    3    3    0  502  0.50764639870E+03  0.88048122952E+03 -0.47102521289E+03  0.11201867816E+04  0.12699999809E+01 0. -1.
</event>
<event>
 5   0  0.8547605E-05  0.2091696E+04  0.7818609E-02  0.8564910E-01
        2   -1    0    0  501    0  0.00000000000E+00  0.00000000000E+00  0.14360517340E+04  0.14360517340E+04  0.25500000920E-02 0.  1.
       -2   -1    0    0    0  501  0.00000000000E+00  0.00000000000E+00 -0.76167001961E+03  0.76167001962E+03  0.25500000920E-02 0. -1.
    10030    2    1    2    0    0  0.00000000000E+00  0.00000000000E+00  0.67438171435E+03  0.21977217536E+04  0.20916955346E+04 0.  0.
        4    1    3    3  502    0 -0.58786381767E+03  0.27691684098E+03  0.11981978277E+04  0.13630650946E+04  0.12699999809E+01 0.  1.
       -4    1    3    3    0  502  0.58786381767E+03 -0.27691684098E+03 -0.52381611332E+03  0.83465665900E+03  0.12699999809E+01 0. -1.
</event>
<event>
 5   0  0.4182977E-05  0.2086805E+04  0.7818609E-02  0.8567078E-01
        1   -1    0    0  501    0  0.00000000000E+00  0.00000000000E+00  0.17923838464E+04  0.17923838464E+04  0.50400001928E-02 0. -1.
       -1   -1    0    0    0  501  0.00000000000E+00  0.00000000000E+00 -0.60739709685E+03  0.60739709687E+03  0.50400001928E-02 0.  1.
    10030    2    1    2    0    0  0.00000000000E+00  0.00000000000E+00  0.11849867495E+04  0.23997809433E+04  0.20868049691E+04 0.  0.
        1    1    3    3  502    0 -0.29511463401E+03  0.84845164859E+03 -0.17890600948E+02  0.89848924358E+03  0.50400001928E-02 0.  1.
       -1    1    3    3    0  502  0.29511463401E+03 -0.84845164859E+03  0.12028773505E+04  0.15012916997E+04  0.50400001928E-02 0. -1.
</event>
<event>
 5   0  0.4174093E-05  0.2112717E+04  0.7818609E-02  0.8555662E-01
       -1   -1    0    0    0  501  0.00000000000E+00  0.00000000000E+00  0.71465816188E+03  0.71465816190E+03  0.50400001928E-02 0.  1.
        1   -1    0    0  501    0  0.00000000000E+00  0.00000000000E+00 -0.15614365139E+04  0.15614365139E+04  0.50400001928E-02 0. -1.
    10030    2    1    2    0    0  0.00000000000E+00  0.00000000000E+00 -0.84677835200E+03  0.22760946758E+04  0.21127170648E+04 0.  0.
        3    1    3    3  502    0  0.63160600797E+03  0.42239535303E+03  0.36721979474E+03  0.84391609264E+03  0.10100000352E+00 0.  1.
       -3    1    3    3    0  502 -0.63160600797E+03 -0.42239535303E+03 -0.12139981467E+04  0.14321785832E+04  0.10100000352E+00 0. -1.
</event>
<event>
 5   0  0.8872777E-05  0.2081988E+04  0.7818609E-02  0.8569219E-01
        2   -1    0    0  501    0  0.00000000000E+00  0.00000000000E+00  0.64287256029E+03  0.64287256029E+03  0.25500000920E-02 0. -1.
       -2   -1    0    0    0  501  0.00000000000E+00  0.00000000000E+00 -0.16856666056E+04  0.16856666056E+04  0.25500000920E-02 0.  1.
    10030    2    1    2    0    0  0.00000000000E+00  0.00000000000E+00 -0.10427940453E+04  0.23285391659E+04  0.20819882867E+04 0.  0.
        3    1    3    3  502    0 -0.91596282785E+03  0.10343670178E+03  0.19601714396E+02  0.92199310772E+03  0.10100000352E+00 0. -1.
       -3    1    3    3    0  502  0.91596282785E+03 -0.10343670178E+03 -0.10623957597E+04  0.14065460581E+04  0.10100000352E+00 0.  1.
</event>
<event>
 5   0  0.4128678E-05  0.2080629E+04  0.7818609E-02  0.8569825E-01
        1   -1    0    0  501    0  0.00000000000E+00  0.00000000000E+00  0.17925849899E+04  0.17925849899E+04  0.50400001928E-02 0.  1.
       -1   -1    0    0    0  501  0.00000000000E+00  0.00000000000E+00 -0.60373945005E+03  0.60373945007E+03  0.50400001928E-02 0. -1.
    10030    2    1    2    0    0  0.00000000000E+00  0.00000000000E+00  0.11888455398E+04  0.23963244399E+04  0.20806290164E+04 0.  0.
        5    1    3    3  502    0  0.89217430654E+02  0.59507125915E+03 -0.38296355397E+03  0.71326904255E+03  0.46999998093E+01 0. -1.
       -5    1    3    3    0  502 -0.89217430654E+02 -0.59507125915E+03  0.15718090938E+04  0.16830553974E+04  0.46999998093E+01 0.  1.
</event>
<event>
 5   0  0.4200061E-05  0.2027853E+04  0.7818609E-02  0.8593708E-01
       -1   -1    0    0    0  501  0.00000000000E+00  0.00000000000E+00  0.94885670718E+03  0.94885670720E+03  0.50400001928E-02 0. -1.
        1   -1    0    0  501    0  0.00000000000E+00  0.00000000000E+00 -0.10834591047E+04  0.10834591047E+04  0.50400001928E-02 0.  1.
    10030    2    1    2    0    0  0.00000000000E+00  0.00000000000E+00 -0.13460239749E+03  0.20323158119E+04  0.20278534843E+04 0.  0.
        4    1    3    3  502    0  0.91694789152E+03 -0.42567030186E+03  0.10697975105E+02  0.10109919392E+04  0.12699999809E+01 0. -1.
       -4    1    3    3    0  502 -0.91694789152E+03  0.42567030186E+03 -0.14530037260E+03  0.10213238726E+04  0.12699999809E+01 0.  1.
</event>
<event>
 5   0  0.8547605E-05  0.2102374E+04  0.7818609E-02  0.8560198E-01
       -2   -1    0    0    0  501  0.00000000000E+00  0.00000000000E+00  0.93920170849E+03  0.93920170850E+03  0.25500000920E-02 0.  1.
        2   -1    0    0  501    0  0.00000000000E+00  0.00000000000E+00 -0.11765244026E+04  0.11765244026E+04  0.25500000920E-02 0. -1.
    10030    2    1    2    0    0  0.00000000000E+00  0.00000000000E+00 -0.23732269409E+03  0.21157261111E+04  0.21023736385E+04 0.  0.
        4    1    3    3  502    0  0.87525980523E+02 -0.10409245399E+04 -0.41007294789E+00  0.10445987153E+04  0.12699999809E+01 0.  1.
       -4    1    3    3    0  502 -0.87525980523E+02  0.10409245399E+04 -0.23691262114E+03  0.10711273958E+04  0.12699999809E+01 0. -1.
</event>
<event>
 5   0  0.8858590E-05  0.2115534E+04  0.7818609E-02  0.8554431E-01
       -2   -1    0    0    0  501  0.00000000000E+00  0.00000000000E+00  0.12736659008E+04  0.12736659008E+04  0.25500000920E-02 0. -1.
        2   -1    0    0  501    0  0.00000000000E+00  0.00000000000E+00 -0.87846541944E+03  0.87846541944E+03  0.25500000920E-02 0.  1.
    10030    2    1    2    0    0  0.00000000000E+00  0.00000000000E+00  0.39520048134E+03  0.21521313202E+04  0.21155344003E+04 0.  0.
        1    1    3    3  502    0 -0.58430880501E+03  0.57581366870E+03  0.87690419734E+03  0.12008076998E+04  0.50400001928E-02 0. -1.
       -1    1    3    3    0  502  0.58430880501E+03 -0.57581366870E+03 -0.48170371600E+03  0.95132362038E+03  0.50400001928E-02 0.  1.
</event>
<event>
 5   0  0.4050368E-05  0.2081851E+04  0.7818609E-02  0.8569280E-01
       -1   -1    0    0    0  501  0.00000000000E+00  0.00000000000E+00  0.11784633053E+04  0.11784633053E+04  0.50400001928E-02 0.  1.
        1   -1    0    0  501    0  0.00000000000E+00  0.00000000000E+00 -0.91943993655E+03  0.91943993657E+03  0.50400001928E-02 0. -1.
    10030    2    1    2    0    0  0.00000000000E+00  0.00000000000E+00  0.25902336876E+03  0.20979032419E+04  0.20818513172E+04 0.  0.
        2    1    3    3  502    0 -0.87837594085E+03 -0.53406381905E+03  0.29435096323E+03  0.10693039539E+04  0.25500000920E-02 0. -1.
       -2    1    3    3    0  502  0.87837594085E+03  0.53406381905E+03 -0.35327594469E+02  0.10285992880E+04  0.25500000920E-02 0.  1.
</event>
<event>
 5   0  0.9012466E-05  0.2094755E+04  0.7818609E-02  0.8563557E-01
        2   -1    0    0  501    0  0.00000000000E+00  0.00000000000E+00  0.10592269777E+04  0.10592269777E+04  0.25500000920E-02 0. -1.
       -2   -1    0    0    0  501  0.00000000000E+00  0.00000000000E+00 -0.10356602788E+04  0.10356602788E+04  0.25500000920E-02 0.  1.
    10030    2    1    2    0    0  0.00000000000E+00  0.00000000000E+00  0.23566698897E+02  0.20948872565E+04  0.20947546941E+04 0.  0.
        2    1    3    3  502    0 -0.21947295910E+03  0.48197411081E+03 -0.89189537241E+03  0.10372775803E+04  0.25500000920E-02 0.  1.
       -2    1    3    3    0  502  0.21947295910E+03 -0.48197411081E+03  0.91546207130E+03  0.10576096762E+04  0.25500000920E-02 0. -1.
</event>
<event>
 5   0  0.8858590E-05  0.2097901E+04  0.7818609E-02  0.8562168E-01
        2   -1    0    0  501    0  0.00000000000E+00  0.00000000000E+00  0.13967553411E+04  0.13967553411E+04  0.25500000920E-02 0.  1.
       -2   -1    0    0    0  501  0.00000000000E+00  0.00000000000E+00 -0.78775248756E+03  0.78775248756E+03  0.25500000920E-02 0. -1.
    10030    2    1    2    0    0  0.00000000000E+00  0.00000000000E+00  0.60900285356E+03  0.21845078287E+04  0.20979013270E+04 0.  0.
        1    1    3    3  502    0 -0.18338767919E+03 -0.51035711354E+02  0.13786193806E+04  0.13916993502E+04  0.50400001928E-02 0.  1.
       -1    1    3    3    0  502  0.18338767919E+03  0.51035711354E+02 -0.76961652709E+03  0.79280847845E+03  0.50400001928E-02 0. -1.
</event>
<event>
 5   0  0.8872777E-05  0.2092766E+04  0.7818609E-02  0.8564437E-01
        2   -1    0    0  501    0  0.00000000000E+00  0.00000000000E+00  0.79716700865E+03  0.79716700865E+03  0.25500000920E-02 0. -1.
       -2   -1    0    0    0  501  0.00000000000E+00  0.00000000000E+00 -0.13735108334E+04  0.13735108334E+04  0.25500000920E-02 0.  1.
    10030    2    1    2    0    0  0.00000000000E+00  0.00000000000E+00 -0.57634382479E+03  0.21706778421E+04  0.20927661336E+04 0.  0.
        3    1    3    3  502    0  0.77323282056E+03  0.67890798350E+03 -0.48527946060E+03  0.11376735955E+04  0.10100000352E+00 0.  1.
       -3    1    3    3    0  502 -0.77323282056E+03 -0.67890798350E+03 -0.91064364190E+02  0.10330042466E+04  0.10100000352E+00 0. -1.
</event>
<event>
 5   0  0.9012466E-05  0.2079639E+04  0.7818609E-02  0.8570266E-01
        2   -1    0    0  501    0  0.00000000000E+00  0.00000000000E+00  0.18415491213E+04  0.18415491213E+04  0.25500000920E-02 0. -1.
       -2   -1    0    0    0  501  0.00000000000E+00  0.00000000000E+00 -0.58712760958E+03  0.58712760959E+03  0.25500000920E-02 0.  1.
    10030    2    1    2    0    0  0.00000000000E+00  0.00000000000E+00  0.12544215118E+04  0.24286767309E+04  0.20796387509E+04 0.  0.
        2    1    3    3  502    0 -0.57652000335E+03  0.57251712847E+03 -0.13059969239E+03  0.82292615484E+03  0.25500000920E-02 0.  1.
       -2    1    3    3    0  502  0.57652000335E+03 -0.57251712847E+03  0.13850212042E+04  0.16057505761E+04  0.25500000920E-02 0. -1.
</event>
<event>
 5   0  0.4128678E-05  0.2115189E+04  0.7818609E-02  0.8554582E-01
        1   -1    0    0  501    0  0.00000000000E+00  0.00000000000E+00  0.11933458764E+04  0.11933458764E+04  0.50400001928E-02 0. -1.
       -1   -1    0    0    0  501  0.00000000000E+00  0.00000000000E+00 -0.93728563105E+03  0.93728563106E+03  0.50400001928E-02 0.  1.
    10030    2    1    2    0    0  0.00000000000E+00  0.00000000000E+00  0.25606024531E+03  0.21306315074E+04  0.21151888264E+04 0.  0.
        5    1    3    3  502    0  0.67342055575E+03  0.64441616160E+03  0.63139481591E+03  0.11258103472E+04  0.46999998093E+01 0. -1.
       -5    1    3    3    0  502 -0.67342055575E+03 -0.64441616160E+03 -0.37533457060E+03  0.10048211603E+04  0.46999998093E+01 0.  1.
</event>
<event>
 5   0  0.8547605E-05  0.2029144E+04  0.7818609E-02  0.8593115E-01
       -2   -1    0    0    0  501  0.00000000000E+00  0.00000000000E+00  0.55952256817E+03  0.55952256817E+03  0.25500000920E-02 0. -1.
        2   -1    0    0  501    0  0.00000000000E+00  0.00000000000E+00 -0.18397055759E+04  0.18397055759E+04  0.25500000920E-02 0.  1.
    10030    2    1    2    0    0  0.00000000000E+00  0.00000000000E+00 -0.12801830077E+04  0.23992281440E+04  0.20291444389E+04 0.  0.
        4    1    3    3  502    0 -0.87450465626E+03 -0.33136781800E+03 -0.11052843770E+04  0.14478322388E+04  0.12699999809E+01 0.  1.
       -4    1    3    3    0  502  0.87450465626E+03  0.33136781800E+03 -0.17489863065E+03  0.95139590525E+03  0.12699999809E+01 0. -1.
</event>
<event>
 5   0  0.4174093E-05  0.1927800E+04  0.7818609E-02  0.8641141E-01
        1   -1    0    0  501    0  0.00000000000E+00  0.00000000000E+00  0.17413118595E+04  0.17413118595E+04  0.50400001928E-02 0.  1.
       -1   -1    0    0    0  501  0.00000000000E+00  0.00000000000E+00 -0.53356517249E+03  0.53356517251E+03  0.50400001928E-02 0. -1.
    10030    2    1    2    0    0  0.00000000000E+00  0.00000000000E+00  0.12077466870E+04  0.22748770320E+04  0.19278001584E+04 0.  0.
        3    1    3    3  502    0 -0.56340022920E+03 -0.13169185121E+03 -0.30585910004E+03  0.65445577484E+03  0.10100000352E+00 0. -1.
       -3    1    3    3    0  502  0.56340022920E+03  0.13169185121E+03  0.15136057871E+04  0.16204212572E+04  0.10100000352E+00 0.  1.
</event>
<event>
 5   0  0.4182977E-05  0.1840793E+04  0.7818609E-02  0.8684902E-01
        1   -1    0    0  501    0  0.00000000000E+00  0.00000000000E+00  0.81404634342E+03  0.81404634343E+03  0.50400001928E-02 0.  1.
       -1   -1    0    0    0  501  0.00000000000E+00  0.00000000000E+00 -0.10406405230E+04  0.10406405230E+04  0.50400001928E-02 0. -1.
    10030    2    1    2    0    0  0.00000000000E+00  0.00000000000E+00 -0.22659417958E+03  0.18546868664E+04  0.18407928863E+04 0.  0.
        1    1    3    3  502    0 -0.23608878535E+03  0.52073155606E+03 -0.84001106081E+03  0.10161288552E+04  0.50400001928E-02 0. -1.
       -1    1    3    3    0  502  0.23608878535E+03 -0.52073155606E+03  0.61341688123E+03  0.83855801126E+03  0.50400001928E-02 0.  1.
</event>
<event>
 5   0  0.8872777E-05  0.2071270E+04  0.7818609E-02  0.8574006E-01
       -2   -1    0    0    0  501  0.00000000000E+00  0.00000000000E+00  0.17515463651E+04  0.17515463651E+04  0.25500000920E-02 0. -1.
        2   -1    0    0  501    0  0.00000000000E+00  0.00000000000E+00 -0.61233870681E+03  0.61233870682E+03  0.25500000920E-02 0.  1.
    10030    2    1    2    0    0  0.00000000000E+00  0.00000000000E+00  0.11392076583E+04  0.23638850719E+04  0.20712697904E+04 0.  0.
        3    1    3    3  502    0  0.94562653673E+03  0.28258302850E+03  0.21146047582E+03  0.10093454602E+04  0.10100000352E+00 0. -1.
       -3    1    3    3    0  502 -0.94562653673E+03 -0.28258302850E+03  0.92774718245E+03  0.13545396117E+04  0.10100000352E+00 0.  1.
</event>
<event>
 5   0  0.3176125E-05  0.2132454E+04  0.7818609E-02  0.8547080E-01
       -3   -1    0    0    0  501  0.00000000000E+00  0.00000000000E+00  0.88653935872E+03  0.88653936448E+03  0.10100000352E+00 0. -1.
        3   -1    0    0  501    0  0.00000000000E+00  0.00000000000E+00 -0.12823344883E+04  0.12823344923E+04  0.10100000352E+00 0.  1.
    10030    2    1    2    0    0  0.00000000000E+00  0.00000000000E+00 -0.39579512959E+03  0.21688738568E+04  0.21324539906E+04 0.  0.
        4    1    3    3  502    0 -0.31945342015E+03 -0.99853697284E+03 -0.38562081323E+00  0.10483932160E+04  0.12699999809E+01 0.  1.
       -4    1    3    3    0  502  0.31945342015E+03  0.99853697284E+03 -0.39540950878E+03  0.11204806408E+04  0.12699999809E+01 0. -1.
</event>
<event>
 5   0  0.4174093E-05  0.2153688E+04  0.7818609E-02  0.8537955E-01
        1   -1    0    0  501    0  0.00000000000E+00  0.00000000000E+00  0.79662386409E+03  0.79662386411E+03  0.50400001928E-02 0.  1.
       -1   -1    0    0    0  501  0.00000000000E+00  0.00000000000E+00 -0.14556337589E+04  0.14556337589E+04  0.50400001928E-02 0. -1.
    10030    2    1    2    0    0  0.00000000000E+00  0.00000000000E+00 -0.65900989479E+03  0.22522576230E+04  0.21536876187E+04 0.  0.
        3    1    3    3  502    0 -0.15966393384E+02 -0.56926552004E+03  0.62625746153E+03  0.84647302163E+03  0.10100000352E+00 0.  1.
       -3    1    3    3    0  502  0.15966393384E+02  0.56926552004E+03 -0.12852673563E+04  0.14057846014E+04  0.10100000352E+00 0. -1.
</event>
<event>
 5   0  0.4200061E-05  0.2105127E+04  0.7818609E-02  0.8558988E-01
        1   -1    0    0  501    0  0.00000000000E+00  0.00000000000E+00  0.15354467644E+04  0.15354467644E+04  0.50400001928E-02 0.  1.
       -1   -1    0    0    0  501  0.00000000000E+00  0.00000000000E+00 -0.72154230688E+03  0.72154230690E+03  0.50400001928E-02 0. -1.
    10030    2    1    2    0    0  0.00000000000E+00  0.00000000000E+00  0.81390445747E+03  0.22569890713E+04  0.21051268850E+04 0.  0.
        4    1    3    3  502    0 -0.48055256162E+03  0.32001766089E+03  0.13505237394E+04  0.14687607196E+04  0.12699999809E+01 0.  1.
       -4    1    3    3    0  502  0.48055256162E+03 -0.32001766089E+03 -0.53661928193E+03  0.78822835169E+03  0.12699999809E+01 0. -1.
</event>
<event>
 5   0  0.4128678E-05  0.2086727E+04  0.7818609E-02  0.8567113E-01
        1   -1    0    0  501    0  0.00000000000E+00  0.00000000000E+00  0.63442035875E+03  0.63442035877E+03  0.50400001928E-02 0.  1.
       -1   -1    0    0    0  501  0.00000000000E+00  0.00000000000E+00 -0.17159085999E+04  0.17159085999E+04  0.50400001928E-02 0. -1.
    10030    2    1    2    0    0  0.00000000000E+00  0.00000000000E+00 -0.10814882411E+04  0.23503289587E+04  0.20867269582E+04 0.  0.
        5    1    3    3  502    0  0.58908519438E+03  0.17749704976E+03 -0.14898401326E+04  0.16118846980E+04  0.46999998093E+01 0. -1.
       -5    1    3    3    0  502 -0.58908519438E+03 -0.17749704976E+03  0.40835189144E+03  0.73844426070E+03  0.46999998093E+01 0.  1.
</event>
<event>
 5   0  0.4200061E-05  0.2070311E+04  0.7818609E-02  0.8574436E-01
       -1   -1    0    0    0  501  0.00000000000E+00  0.00000000000E+00  0.92707987044E+03  0.92707987045E+03  0.50400001928E-02 0.  1.
        1   -1    0    0  501    0  0.00000000000E+00  0.00000000000E+00 -0.11558300150E+04  0.11558300151E+04  0.50400001928E-02 0. -1.
    10030    2    1    2    0    0  0.00000000000E+00  0.00000000000E+00 -0.22875014461E+03  0.20829098855E+04  0.20703108372E+04 0.  0.
        4    1    3    3  502    0  0.12942434687E+03  0.15743658741E+03 -0.11354444790E+04  0.11535912267E+04  0.12699999809E+01 0. -1.
       -4    1    3    3    0  502 -0.12942434687E+03 -0.15743658741E+03  0.90669433439E+03  0.92931865877E+03  0.12699999809E+01 0.  1.
</event>
<event>
 5   0  0.8858590E-05  0.2110328E+04  0.7818609E-02  0.8556707E-01
       -2   -1    0    0    0  501  0.00000000000E+00  0.00000000000E+00  0.20419920139E+04  0.20419920139E+04  0.25500000920E-02 0.  1.
        2   -1    0    0  501    0  0.00000000000E+00  0.00000000000E+00 -0.54523791735E+03  0.54523791735E+03  0.25500000920E-02 0. -1.
    10030    2    1    2    0    0  0.00000000000E+00  0.00000000000E+00  0.14967540965E+04  0.25872299312E+04  0.21103283848E+04 0.  0.
        1    1    3    3  502    0 -0.50159264954E+03 -0.41310689030E+03  0.17675817014E+04  0.18832412378E+04  0.50400001928E-02 0.  1.
       -1    1    3    3    0  502  0.50159264954E+03  0.41310689030E+03 -0.27082760482E+03  0.70398869341E+03  0.50400001928E-02 0. -1.
</event>
<event>
 5   0  0.4200061E-05  0.2119055E+04  0.7818609E-02  0.8552896E-01
        1   -1    0    0  501    0  0.00000000000E+00  0.00000000000E+00  0.16536377341E+04  0.16536377341E+04  0.50400001928E-02 0.  1.
       -1   -1    0    0    0  501  0.00000000000E+00  0.00000000000E+00 -0.67886606213E+03  0.67886606215E+03  0.50400001928E-02 0. -1.
    10030    2    1    2    0    0  0.00000000000E+00  0.00000000000E+00  0.97477167199E+03  0.23325037963E+04  0.21190550128E+04 0.  0.
        4    1    3    3  502    0  0.99032624615E+03  0.33832436806E+03  0.30522454255E+03  0.10901252617E+04  0.12699999809E+01 0.  1.
       -4    1    3    3    0  502 -0.99032624615E+03 -0.33832436806E+03  0.66954712944E+03  0.12423785346E+04  0.12699999809E+01 0. -1.
</event>
<event>
 5   0  0.8872777E-05  0.2061713E+04  0.7818609E-02  0.8578299E-01
       -2   -1    0    0    0  501  0.00000000000E+00  0.00000000000E+00  0.17859802162E+04  0.17859802162E+04  0.25500000920E-02 0. -1.
        2   -1    0    0  501    0  0.00000000000E+00  0.00000000000E+00 -0.59500372933E+03  0.59500372934E+03  0.25500000920E-02 0.  1.
    10030    2    1    2    0    0  0.00000000000E+00  0.00000000000E+00  0.11909764869E+04  0.23809839456E+04  0.20617127726E+04 0.  0.
        3    1    3    3  502    0  0.96715093995E+03 -0.34561188821E+03  0.49325655722E+03  0.11393553262E+04  0.10100000352E+00 0.  1.
       -3    1    3    3    0  502 -0.96715093995E+03  0.34561188821E+03  0.69771992966E+03  0.12416286193E+04  0.10100000352E+00 0. -1.
</event>
<event>
 5   0  0.8547605E-05  0.2138835E+04  0.7818609E-02  0.8544327E-01
       -2   -1    0    0    0  501  0.00000000000E+00  0.00000000000E+00  0.69637027414E+03  0.69637027414E+03  0.25500000920E-02 0.  1.
        2   -1    0    0  501    0  0.00000000000E+00  0.00000000000E+00 -0.16423070085E+04  0.16423070085E+04  0.25500000920E-02 0. -1.
    10030    2    1    2    0    0  0.00000000000E+00  0.00000000000E+00 -0.94593673439E+03  0.23386772827E+04  0.21388349929E+04 0.  0.
        4    1    3    3  502    0 -0.87117561166E+03  0.41821676581E+03 -0.97380457205E+03  0.13719144168E+04  0.12699999809E+01 0. -1.
       -4    1    3    3    0  502  0.87117561166E+03 -0.41821676581E+03  0.27867837661E+02  0.96676286588E+03  0.12699999809E+01 0.  1.
</event>
<event>
 5   0  0.4200061E-05  0.2086086E+04  0.7818609E-02  0.8567398E-01
        1   -1    0    0  501    0  0.00000000000E+00  0.00000000000E+00  0.92591652484E+03  0.92591652485E+03  0.50400001928E-02 0.  1.
       -1   -1    0    0    0  501  0.00000000000E+00  0.00000000000E+00 -0.11749853136E+04  0.11749853137E+04  0.50400001928E-02 0. -1.
    10030    2    1    2    0    0  0.00000000000E+00  0.00000000000E+00 -0.24906878880E+03  0.21009018385E+04  0.20860856343E+04 0.  0.
        4    1    3    3  502    0 -0.15948806853E+03  0.79965184206E+03 -0.77958246307E+03  0.11281090116E+04  0.12699999809E+01 0. -1.
       -4    1    3    3    0  502  0.15948806853E+03 -0.79965184206E+03  0.53051367427E+03  0.97279282686E+03  0.12699999809E+01 0.  1.
</event>
<event>
 5   0  0.4182977E-05  0.2106004E+04  0.7818609E-02  0.8558603E-01
        1   -1    0    0  501    0  0.00000000000E+00  0.00000000000E+00  0.66457252255E+03  0.66457252257E+03  0.50400001928E-02 0. -1.
       -1   -1    0    0    0  501  0.00000000000E+00  0.00000000000E+00 -0.16684613459E+04  0.16684613459E+04  0.50400001928E-02 0.  1.
    10030    2    1    2    0    0  0.00000000000E+00  0.00000000000E+00 -0.10038888233E+04  0.23330338685E+04  0.21060043357E+04 0.  0.
        1    1    3    3  502    0  0.66848951139E+03  0.53298632484E+03  0.17902525834E+03  0.87350025326E+03  0.50400001928E-02 0.  1.
       -1    1    3    3    0  502 -0.66848951139E+03 -0.53298632484E+03 -0.11829140817E+04  0.14595336152E+04  0.50400001928E-02 0. -1.
</event>
<event>
 5   0  0.9012466E-05  0.2119296E+04  0.7818609E-02  0.8552791E-01
       -2   -1    0    0    0  501  0.00000000000E+00  0.00000000000E+00  0.11331838602E+04  0.11331838602E+04  0.25500000920E-02 0. -1.
        2   -1    0    0  501    0  0.00000000000E+00  0.00000000000E+00 -0.99088410269E+03  0.99088410269E+03  0.25500000920E-02 0.  1.
    10030    2    1    2    0    0  0.00000000000E+00  0.00000000000E+00  0.14229975747E+03  0.21240679629E+04  0.21192959892E+04 0.  0.
        2    1    3    3  502    0  0.10190234959E+04 -0.26605328567E+03  0.18829177727E+03  0.10698817829E+04  0.25500000920E-02 0.  1.
       -2    1    3    3    0  502 -0.10190234959E+04  0.26605328567E+03 -0.45992019798E+02  0.10541861799E+04  0.25500000920E-02 0. -1.
</event>
<event>
 5   0  0.8872777E-05  0.2055246E+04  0.7818609E-02  0.8581218E-01
       -2   -1    0    0    0  501  0.00000000000E+00  0.00000000000E+00  0.11892911700E+04  0.11892911700E+04  0.25500000920E-02 0. -1.
        2   -1    0    0  501    0  0.00000000000E+00  0.00000000000E+00 -0.88793179089E+03  0.88793179090E+03  0.25500000920E-02 0.  1.
    10030    2    1    2    0    0  0.00000000000E+00  0.00000000000E+00  0.30135937914E+03  0.20772229609E+04  0.20552463974E+04 0.  0.
        3    1    3    3  502    0  0.94652687422E+03 -0.11404978673E+03  0.53830242677E+03  0.10948470169E+04  0.10100000352E+00 0. -1.
       -3    1    3    3    0  502 -0.94652687422E+03  0.11404978673E+03 -0.23694304762E+03  0.98237594407E+03  0.10100000352E+00 0.  1.
</event>
<event>
 5   0  0.4200061E-05  0.2055699E+04  0.7818609E-02  0.8581014E-01
       -1   -1    0    0    0  501  0.00000000000E+00  0.00000000000E+00  0.10582910340E+04  0.10582910340E+04  0.50400001928E-02 0.  1.
        1   -1    0    0  501    0  0.00000000000E+00  0.00000000000E+00 -0.99828322806E+03  0.99828322807E+03  0.50400001928E-02 0. -1.
    10030    2    1    2    0    0  0.00000000000E+00  0.00000000000E+00  0.60007805965E+02  0.20565742621E+04  0.20556986060E+04 0.  0.
        4    1    3    3  502    0  0.38941098371E+03  0.86396894884E+03  0.42815498412E+03  0.10399045928E+04  0.12699999809E+01 0.  1.
       -4    1    3    3    0  502 -0.38941098371E+03 -0.86396894884E+03 -0.36814717816E+03  0.10166696693E+04  0.12699999809E+01 0. -1.
</event>
<event>
 5   0  0.4050368E-05  0.2087260E+04  0.7818609E-02  0.8566876E-01
        1   -1    0    0  501    0  0.00000000000E+00  0.00000000000E+00  0.15182709478E+04  0.15182709478E+04  0.50400001928E-02 0.  1.
       -1   -1    0    0    0  501  0.00000000000E+00  0.00000000000E+00 -0.71737122925E+03  0.71737122927E+03  0.50400001928E-02 0. -1.
    10030    2    1    2    0    0  0.00000000000E+00  0.00000000000E+00  0.80089971851E+03  0.22356421770E+04  0.20872603059E+04 0.  0.
        2    1    3    3  502    0 -0.23865955948E+03  0.10013360822E+04  0.58451387149E+03  0.11837604491E+04  0.25500000920E-02 0. -1.
       -2    1    3    3    0  502  0.23865955948E+03 -0.10013360822E+04  0.21638584702E+03  0.10518817280E+04  0.25500000920E-02 0.  1.
</event>
<event>
 5   0  0.4182977E-05  0.2118764E+04  0.7818609E-02  0.8553023E-01
        1   -1    0    0  501    0  0.00000000000E+00  0.00000000000E+00  0.18669987601E+04  0.18669987601E+04  0.50400001928E-02 0. -1.
       -1   -1    0    0    0  501  0.00000000000E+00  0.00000000000E+00 -0.60111968213E+03  0.60111968215E+03  0.50400001928E-02 0.  1.
    10030    2    1    2    0    0  0.00000000000E+00  0.00000000000E+00  0.12658790780E+04  0.24681184423E+04  0.21187635085E+04 0.  0.
        1    1    3    3  502    0 -0.92386213242E+03  0.36961749007E+03  0.20947275395E+03  0.10168663449E+04  0.50400001928E-02 0. -1.
       -1    1    3    3    0  502  0.92386213242E+03 -0.36961749007E+03  0.10564063240E+04  0.14512520974E+04  0.50400001928E-02 0.  1.
</event>
<event>
 5   0  0.9012466E-05  0.2090642E+04  0.7818609E-02  0.8565377E-01
        2   -1    0    0  501    0  0.00000000000E+00  0.00000000000E+00  0.14307284456E+04  0.14307284456E+04  0.25500000920E-02 0.  1.
       -2   -1    0    0    0  501  0.00000000000E+00  0.00000000000E+00 -0.76373370049E+03  0.76373370049E+03  0.25500000920E-02 0. -1.
    10030    2    1    2    0    0  0.00000000000E+00  0.00000000000E+00  0.66699474507E+03  0.21944621460E+04  0.20906415572E+04 0.  0.
        2    1    3    3  502    0  0.66624452067E+03  0.36548824423E+03  0.10869396333E+04  0.13262357198E+04  0.25500000920E-02 0.  1.
       -2    1    3    3    0  502 -0.66624452067E+03 -0.36548824423E+03 -0.41994488828E+03  0.86822642622E+03  0.25500000920E-02 0. -1.
</event>
<event>
 5   0  0.4128678E-05  0.2073776E+04  0.7818609E-02  0.8572884E-01
        1   -1    0    0  501    0  0.00000000000E+00  0.00000000000E+00  0.11637738206E+04  0.11637738206E+04  0.50400001928E-02 0. -1.
       -1   -1    0    0    0  501  0.00000000000E+00  0.00000000000E+00 -0.92383620855E+03  0.92383620857E+03  0.50400001928E-02 0.  1.
    10030    2    1    2    0    0  0.00000000000E+00  0.00000000000E+00  0.23993761201E+03  0.20876100291E+04  0.20737756812E+04 0.  0.
        5    1    3    3  502    0  0.75122389280E+03 -0.54554915314E+03 -0.34479619063E+03  0.99038766081E+03  0.46999998093E+01 0.  1.
       -5    1    3    3    0  502 -0.75122389280E+03  0.54554915314E+03  0.58473380264E+03  0.10972223683E+04  0.46999998093E+01 0. -1.
</event>
<event>
 5   0  0.4174093E-05  0.2123567E+04  0.7818609E-02  0.8550932E-01
        1   -1    0    0  501    0  0.00000000000E+00  0.00000000000E+00  0.15283222479E+04  0.15283222479E+04  0.50400001928E-02 0.  1.
       -1   -1    0    0    0  501  0.00000000000E+00  0.00000000000E+00 -0.73766134602E+03  0.73766134604E+03  0.50400001928E-02 0. -1.
    10030    2    1    2    0    0  0.00000000000E+00  0.00000000000E+00  0.79066090185E+03  0.22659835939E+04  0.21235670430E+04 0.  0.
        3    1    3    3  502    0  0.43853183957E+03  0.85731090998E+03 -0.81985247837E+02  0.96644387408E+03  0.10100000352E+00 0. -1.
       -3    1    3    3    0  502 -0.43853183957E+03 -0.85731090998E+03  0.87264614968E+03  0.12995397198E+04  0.10100000352E+00 0.  1.
</event>
<event>
 5   0  0.8872777E-05  0.2095304E+04  0.7818609E-02  0.8563315E-01
       -2   -1    0    0    0  501  0.00000000000E+00  0.00000000000E+00  0.99824709001E+03  0.99824709001E+03  0.25500000920E-02 0. -1.
        2   -1    0    0  501    0  0.00000000000E+00  0.00000000000E+00 -0.10995020467E+04  0.10995020467E+04  0.25500000920E-02 0.  1.
    10030    2    1    2    0    0  0.00000000000E+00  0.00000000000E+00 -0.10125495668E+03  0.20977491367E+04  0.20953040052E+04 0.  0.
        3    1    3    3  502    0  0.88628470100E+03 -0.46503334763E+03 -0.36053372971E+03  0.10638332417E+04  0.10100000352E+00 0. -1.
       -3    1    3    3    0  502 -0.88628470100E+03  0.46503334763E+03  0.25927877303E+03  0.10339158950E+04  0.10100000352E+00 0.  1.
</event>
<event>
 5   0  0.8872777E-05  0.2095948E+04  0.7818609E-02  0.8563030E-01
       -2   -1    0    0    0  501  0.00000000000E+00  0.00000000000E+00  0.74831197257E+03  0.74831197258E+03  0.25500000920E-02 0.  1.
        2   -1    0    0  501    0  0.00000000000E+00  0.00000000000E+00 -0.14676359732E+04  0.14676359732E+04  0.25500000920E-02 0. -1.
    10030    2    1    2    0    0  0.00000000000E+00  0.00000000000E+00 -0.71932400061E+03  0.22159479458E+04  0.20959480625E+04 0.  0.
        3    1    3    3  502    0  0.68371022407E+01 -0.13321156767E+03  0.73930051771E+03  0.75123720184E+03  0.10100000352E+00 0.  1.
       -3    1    3    3    0  502 -0.68371022407E+01  0.13321156767E+03 -0.14586245183E+04  0.14647107439E+04  0.10100000352E+00 0. -1.
</event>
<event>
 5   0  0.4182977E-05  0.2112508E+04  0.7818609E-02  0.8555753E-01
       -1   -1    0    0    0  501  0.00000000000E+00  0.00000000000E+00  0.10254675071E+04  0.10254675071E+04  0.50400001928E-02 0. -1.
        1   -1    0    0  501    0  0.00000000000E+00  0.00000000000E+00 -0.10879646999E+04  0.10879646999E+04  0.50400001928E-02 0.  1.
    10030    2    1    2    0    0  0.00000000000E+00  0.00000000000E+00 -0.62497192862E+02  0.21134322070E+04  0.21125079395E+04 0.  0.
        1    1    3    3  502    0  0.22605725667E+03 -0.78698437769E+03 -0.69879322547E+03  0.10764563465E+04  0.50400001928E-02 0.  1.
       -1    1    3    3    0  502 -0.22605725667E+03  0.78698437769E+03  0.63629603261E+03  0.10369758605E+04  0.50400001928E-02 0. -1.
</event>
<event>
 5   0  0.8858590E-05  0.2095863E+04  0.7818609E-02  0.8563068E-01
       -2   -1    0    0    0  501  0.00000000000E+00  0.00000000000E+00  0.53845176578E+03  0.53845176578E+03  0.25500000920E-02 0. -1.
        2   -1    0    0  501    0  0.00000000000E+00  0.00000000000E+00 -0.20394772033E+04  0.20394772033E+04  0.25500000920E-02 0.  1.
    10030    2    1    2    0    0  0.00000000000E+00  0.00000000000E+00 -0.15010254375E+04  0.25779289691E+04  0.20958626877E+04 0.  0.
        1    1    3    3  502    0 -0.46505995721E+03 -0.92741861298E+03 -0.56901224324E+03  0.11832839813E+04  0.50400001928E-02 0.  1.
       -1    1    3    3    0  502  0.46505995721E+03  0.92741861298E+03 -0.93201319427E+03  0.13946449877E+04  0.50400001928E-02 0. -1.
</event>
<event>
 5   0  0.4050368E-05  0.2093691E+04  0.7818609E-02  0.8564028E-01
        1   -1    0    0  501    0  0.00000000000E+00  0.00000000000E+00  0.11227152846E+04  0.11227152846E+04  0.50400001928E-02 0. -1.
       -1   -1    0    0    0  501  0.00000000000E+00  0.00000000000E+00 -0.97610243365E+03  0.97610243366E+03  0.50400001928E-02 0.  1.
    10030    2    1    2    0    0  0.00000000000E+00  0.00000000000E+00  0.14661285091E+03  0.20988177182E+04  0.20936906377E+04 0.  0.
        2    1    3    3  502    0 -0.40816951573E+03 -0.56784718369E+03  0.85420849012E+03  0.11039587502E+04  0.25500000920E-02 0. -1.
       -2    1    3    3    0  502  0.40816951573E+03  0.56784718369E+03 -0.70759563921E+03  0.99485896801E+03  0.25500000920E-02 0.  1.
</event>
<event>
 5   0  0.4182977E-05  0.2087279E+04  0.7818609E-02  0.8566868E-01
       -1   -1    0    0    0  501  0.00000000000E+00  0.00000000000E+00  0.91452803719E+03  0.91452803720E+03  0.50400001928E-02 0.  1.
        1   -1    0    0  501    0  0.00000000000E+00  0.00000000000E+00 -0.11909782212E+04  0.11909782213E+04  0.50400001928E-02 0. -1.
    10030    2    1    2    0    0  0.00000000000E+00  0.00000000000E+00 -0.27645018405E+03  0.21055062585E+04  0.20872785871E+04 0.  0.
        1    1    3    3  502    0  0.26234750412E+03 -0.10083209305E+04 -0.77318487093E+02  0.10447561726E+04  0.50400001928E-02 0.  1.
       -1    1    3    3    0  502 -0.26234750412E+03  0.10083209305E+04 -0.19913169696E+03  0.10607500858E+04  0.50400001928E-02 0. -1.
</event>
<event>
 5   0  0.9086985E-05  0.2051936E+04  0.7818609E-02  0.8582717E-01
        2   -1    0    0  501    0  0.00000000000E+00  0.00000000000E+00  0.11351302335E+04  0.11351302335E+04  0.25500000920E-02 0. -1.
       -2   -1    0    0    0  501  0.00000000000E+00  0.00000000000E+00 -0.92730370989E+03  0.92730370989E+03  0.25500000920E-02 0.  1.
    10030    2    1    2    0    0  0.00000000000E+00  0.00000000000E+00  0.20782652361E+03  0.20624339434E+04  0.20519361362E+04 0.  0.
        5    1    3    3  502    0 -0.27095027249E+03 -0.79562525767E+03  0.69527248963E+03  0.10908068232E+04  0.46999998093E+01 0. -1.
       -5    1    3    3    0  502  0.27095027249E+03  0.79562525767E+03 -0.48744596602E+03  0.97162712014E+03  0.46999998093E+01 0.  1.
</event>
<event>
 5   0  0.8858590E-05  0.2092502E+04  0.7818609E-02  0.8564554E-01
        2   -1    0    0  501    0  0.00000000000E+00  0.00000000000E+00  0.15996202825E+04  0.15996202825E+04  0.25500000920E-02 0.  1.
       -2   -1    0    0    0  501  0.00000000000E+00  0.00000000000E+00 -0.68431286920E+03  0.68431286921E+03  0.25500000920E-02 0. -1.
    10030    2    1    2    0    0  0.00000000000E+00  0.00000000000E+00  0.91530741326E+03  0.22839331517E+04  0.20925016083E+04 0.  0.
        1    1    3    3  502    0  0.88556016676E+03 -0.43828594012E+03  0.82193542505E+02  0.99149742951E+03  0.50400001928E-02 0. -1.
       -1    1    3    3    0  502 -0.88556016676E+03  0.43828594012E+03  0.83311387076E+03  0.12924357222E+04  0.50400001928E-02 0.  1.
</event>
<event>
 5   0  0.4050368E-05  0.2097042E+04  0.7818609E-02  0.8562547E-01
       -1   -1    0    0    0  501  0.00000000000E+00  0.00000000000E+00  0.65322519034E+03  0.65322519036E+03  0.50400001928E-02 0. -1.
        1   -1    0    0  501    0  0.00000000000E+00  0.00000000000E+00 -0.16830285346E+04  0.16830285346E+04  0.50400001928E-02 0.  1.
    10030    2    1    2    0    0  0.00000000000E+00  0.00000000000E+00 -0.10298033443E+04  0.23362537250E+04  0.20970423314E+04 0.  0.
        2    1    3    3  502    0 -0.76946184990E+03  0.71254170132E+02 -0.13044375892E+04  0.15161484490E+04  0.25500000920E-02 0.  1.
       -2    1    3    3    0  502  0.76946184990E+03 -0.71254170132E+02  0.27463424494E+03  0.82010527600E+03  0.25500000920E-02 0. -1.
</event>
<event>
 5   0  0.4050368E-05  0.2110601E+04  0.7818609E-02  0.8556588E-01
       -1   -1    0    0    0  501  0.00000000000E+00  0.00000000000E+00  0.16703823048E+04  0.16703823048E+04  0.50400001928E-02 0. -1.
        1   -1    0    0  501    0  0.00000000000E+00  0.00000000000E+00 -0.66670934456E+03  0.66670934458E+03  0.50400001928E-02 0.  1.
    10030    2    1    2    0    0  0.00000000000E+00  0.00000000000E+00  0.10036729602E+04  0.23370916494E+04  0.21106013282E+04 0.  0.
        2    1    3    3  502    0 -0.72113089910E+03  0.58593479979E+03  0.10558351832E+04  0.14064626896E+04  0.25500000920E-02 0. -1.
       -2    1    3    3    0  502  0.72113089910E+03 -0.58593479979E+03 -0.52162222945E+02  0.93062895977E+03  0.25500000920E-02 0.  1.
</event>
<event>
 5   0  0.9012466E-05  0.2105157E+04  0.7818609E-02  0.8558975E-01
       -2   -1    0    0    0  501  0.00000000000E+00  0.00000000000E+00  0.68503818411E+03  0.68503818412E+03  0.25500000920E-02 0. -1.
        2   -1    0    0  501    0  0.00000000000E+00  0.00000000000E+00 -0.16173140360E+04  0.16173140360E+04  0.25500000920E-02 0.  1.
    10030    2    1    2    0    0  0.00000000000E+00  0.00000000000E+00 -0.93227585190E+03  0.23023522201E+04  0.21051573531E+04 0.  0.
        2    1    3    3  502    0 -0.77094246682E+03  0.52788532906E+03 -0.99620993062E+03  0.13658145678E+04  0.25500000920E-02 0.  1.
       -2    1    3    3    0  502  0.77094246682E+03 -0.52788532906E+03  0.63934078718E+02  0.93653765232E+03  0.25500000920E-02 0. -1.
</event>
<event>
 5   0  0.4174093E-05  0.1895331E+04  0.7818609E-02  0.8657184E-01
        1   -1    0    0  501    0  0.00000000000E+00  0.00000000000E+00  0.50544374456E+03  0.50544374458E+03  0.50400001928E-02 0. -1.
       -1   -1    0    0    0  501  0.00000000000E+00  0.00000000000E+00 -0.17767958638E+04  0.17767958638E+04  0.50400001928E-02 0.  1.
    10030    2    1    2    0    0  0.00000000000E+00  0.00000000000E+00 -0.12713521192E+04  0.22822396083E+04  0.18953314800E+04 0.  0.
        3    1    3    3  502    0  0.31296619259E+03  0.36384495713E+03  0.34828870923E+03  0.59298906036E+03  0.10100000352E+00 0. -1.
       -3    1    3    3    0  502 -0.31296619259E+03 -0.36384495713E+03 -0.16196408284E+04  0.16892505480E+04  0.10100000352E+00 0.  1.
</event>
<event>
 5   0  0.9086985E-05  0.1978893E+04  0.7818609E-02  0.8616553E-01
       -2   -1    0    0    0  501  0.00000000000E+00  0.00000000000E+00  0.15758520808E+04  0.15758520808E+04  0.25500000920E-02 0.  1.
        2   -1    0    0  501    0  0.00000000000E+00  0.00000000000E+00 -0.62125408817E+03  0.62125408817E+03  0.25500000920E-02 0. -1.
    10030    2    1    2    0    0  0.00000000000E+00  0.00000000000E+00  0.95459799267E+03  0.21971061690E+04  0.19788931730E+04 0.  0.
        5    1    3    3  502    0 -0.36003618548E+03 -0.35071031254E+03  0.14235454360E+04  0.15096779380E+04  0.46999998093E+01 0.  1.
       -5    1    3    3    0  502  0.36003618548E+03  0.35071031254E+03 -0.46894744333E+03  0.68742823100E+03  0.46999998093E+01 0. -1.
</event>
<event>
 5   0  0.4174093E-05  0.2107691E+04  0.7818609E-02  0.8557863E-01
        1   -1    0    0  501    0  0.00000000000E+00  0.00000000000E+00  0.18073735015E+04  0.18073735015E+04  0.50400001928E-02 0.  1.
       -1   -1    0    0    0  501  0.00000000000E+00  0.00000000000E+00 -0.61447773894E+03  0.61447773896E+03  0.50400001928E-02 0. -1.
    10030    2    1    2    0    0  0.00000000000E+00  0.00000000000E+00  0.11928957625E+04  0.24218512404E+04  0.21076914220E+04 0.  0.
        3    1    3    3  502    0 -0.18141888297E+03  0.73278712459E+03 -0.24847878813E+03  0.79475247682E+03  0.10100000352E+00 0. -1.
       -3    1    3    3    0  502  0.18141888297E+03 -0.73278712459E+03  0.14413745506E+04  0.16270987636E+04  0.10100000352E+00 0.  1.
</event>
<event>
 5   0  0.9012466E-05  0.2080036E+04  0.7818609E-02  0.8570089E-01
        2   -1    0    0  501    0  0.00000000000E+00  0.00000000000E+00  0.12502823380E+04  0.12502823380E+04  0.25500000920E-02 0. -1.
       -2   -1    0    0    0  501  0.00000000000E+00  0.00000000000E+00 -0.86511434685E+03  0.86511434685E+03  0.25500000920E-02 0.  1.
    10030    2    1    2    0    0  0.00000000000E+00  0.00000000000E+00  0.38516799117E+03  0.21153966849E+04  0.20800357576E+04 0.  0.
        2    1    3    3  502    0  0.30270455444E+03 -0.19622474093E+03  0.11846169463E+04  0.12383260902E+04  0.25500000920E-02 0. -1.
       -2    1    3    3    0  502 -0.30270455444E+03  0.19622474093E+03 -0.79944895511E+03  0.87707059469E+03  0.25500000920E-02 0.  1.
</event>
<event>
 5   0  0.9012466E-05  0.2039009E+04  0.7818609E-02  0.8588597E-01
        2   -1    0    0  501    0  0.00000000000E+00  0.00000000000E+00  0.33052624224E+03  0.33052624225E+03  0.25500000920E-02 0.  1.
       -2   -1    0    0    0  501  0.00000000000E+00  0.00000000000E+00 -0.31446515586E+04  0.31446515586E+04  0.25500000920E-02 0. -1.
    10030    2    1    2    0    0  0.00000000000E+00  0.00000000000E+00 -0.28141253163E+04  0.34751778008E+04  0.20390094290E+04 0.  0.
        2    1    3    3  502    0  0.40238423389E+03 -0.32582645530E+03  0.89770439602E+02  0.52548518769E+03  0.25500000920E-02 0.  1.
       -2    1    3    3    0  502 -0.40238423389E+03  0.32582645530E+03 -0.29038957559E+04  0.29496926131E+04  0.25500000920E-02 0. -1.
</event>
<event>
 5   0  0.4182977E-05  0.2130201E+04  0.7818609E-02  0.8548055E-01
        1   -1    0    0  501    0  0.00000000000E+00  0.00000000000E+00  0.14255052512E+04  0.14255052512E+04  0.50400001928E-02 0.  1.
       -1   -1    0    0    0  501  0.00000000000E+00  0.00000000000E+00 -0.79581518784E+03  0.79581518786E+03  0.50400001928E-02 0. -1.
    10030    2    1    2    0    0  0.00000000000E+00  0.00000000000E+00  0.62969006334E+03  0.22213204390E+04  0.21302006753E+04 0.  0.
        1    1    3    3  502    0 -0.64830079227E+03 -0.84395529237E+03  0.26957998158E+03  0.10978286839E+04  0.50400001928E-02 0. -1.
       -1    1    3    3    0  502  0.64830079227E+03  0.84395529237E+03  0.36011008176E+03  0.11234917551E+04  0.50400001928E-02 0.  1.
</event>
<event>
 5   0  0.8872777E-05  0.2086482E+04  0.7818609E-02  0.8567222E-01
       -2   -1    0    0    0  501  0.00000000000E+00  0.00000000000E+00  0.75521508030E+03  0.75521508030E+03  0.25500000920E-02 0. -1.
        2   -1    0    0  501    0  0.00000000000E+00  0.00000000000E+00 -0.14411151705E+04  0.14411151705E+04  0.25500000920E-02 0.  1.
    10030    2    1    2    0    0  0.00000000000E+00  0.00000000000E+00 -0.68590009024E+03  0.21963302508E+04  0.20864821200E+04 0.  0.
        3    1    3    3  502    0 -0.10472116604E+03 -0.90526581485E+03  0.19160338042E+03  0.93122746080E+03  0.10100000352E+00 0. -1.
       -3    1    3    3    0  502  0.10472116604E+03  0.90526581485E+03 -0.87750347065E+03  0.12651027900E+04  0.10100000352E+00 0.  1.
</event>
<event>
 5   0  0.9012466E-05  0.2104992E+04  0.7818609E-02  0.8559048E-01
       -2   -1    0    0    0  501  0.00000000000E+00  0.00000000000E+00  0.14109613779E+04  0.14109613779E+04  0.25500000920E-02 0. -1.
        2   -1    0    0  501    0  0.00000000000E+00  0.00000000000E+00 -0.78510110041E+03  0.78510110042E+03  0.25500000920E-02 0.  1.
    10030    2    1    2    0    0  0.00000000000E+00  0.00000000000E+00  0.62586027752E+03  0.21960624784E+04  0.21049915254E+04 0.  0.
        2    1    3    3  502    0 -0.51103725750E+03  0.51732184411E+03  0.11067482546E+04  0.13242630660E+04  0.25500000920E-02 0. -1.
       -2    1    3    3    0  502  0.51103725750E+03 -0.51732184411E+03 -0.48088797704E+03  0.87179941237E+03  0.25500000920E-02 0.  1.
</event>
<event>
 5   0  0.4174093E-05  0.2094357E+04  0.7818609E-02  0.8563733E-01
       -1   -1    0    0    0  501  0.00000000000E+00  0.00000000000E+00  0.14577401023E+04  0.14577401023E+04  0.50400001928E-02 0. -1.
        1   -1    0    0  501    0  0.00000000000E+00  0.00000000000E+00 -0.75224818033E+03  0.75224818035E+03  0.50400001928E-02 0.  1.
    10030    2    1    2    0    0  0.00000000000E+00  0.00000000000E+00  0.70549192200E+03  0.22099882827E+04  0.20943565498E+04 0.  0.
        3    1    3    3  502    0 -0.90575561756E+03  0.40619521962E+03  0.70461501335E+03  0.12173208790E+04  0.10100000352E+00 0.  1.
       -3    1    3    3    0  502  0.90575561756E+03 -0.40619521962E+03  0.87690865770E+00  0.99266740370E+03  0.10100000352E+00 0. -1.
</event>
<event>
 5   0  0.4174093E-05  0.2096074E+04  0.7818609E-02  0.8562975E-01
        1   -1    0    0  501    0  0.00000000000E+00  0.00000000000E+00  0.12511812811E+04  0.12511812811E+04  0.50400001928E-02 0. -1.
       -1   -1    0    0    0  501  0.00000000000E+00  0.00000000000E+00 -0.87787551367E+03  0.87787551369E+03  0.50400001928E-02 0.  1.
    10030    2    1    2    0    0  0.00000000000E+00  0.00000000000E+00  0.37330576746E+03  0.21290567948E+04  0.20960738631E+04 0.  0.
        3    1    3    3  502    0 -0.98895309656E+03  0.31684663372E+03  0.43144927283E+02  0.10393659180E+04  0.10100000352E+00 0.  1.
       -3    1    3    3    0  502  0.98895309656E+03 -0.31684663372E+03  0.33016084018E+03  0.10896908768E+04  0.10100000352E+00 0. -1.
</event>
<event>
 5   0  0.4200061E-05  0.2093757E+04  0.7818609E-02  0.8563999E-01
        1   -1    0    0  501    0  0.00000000000E+00  0.00000000000E+00  0.14670733393E+04  0.14670733393E+04  0.50400001928E-02 0.  1.
       -1   -1    0    0    0  501  0.00000000000E+00  0.00000000000E+00 -0.74703432587E+03  0.74703432588E+03  0.50400001928E-02 0. -1.
    10030    2    1    2    0    0  0.00000000000E+00  0.00000000000E+00  0.72003901343E+03  0.22141076652E+04  0.20937565695E+04 0.  0.
        4    1    3    3  502    0 -0.82516269171E+03 -0.21450110344E+03  0.10024322923E+04  0.13159697203E+04  0.12699999809E+01 0.  1.
       -4    1    3    3    0  502  0.82516269171E+03  0.21450110344E+03 -0.28239327890E+03  0.89813794488E+03  0.12699999809E+01 0. -1.
</event>
<event>
 5   0  0.8872777E-05  0.1878880E+04  0.7818609E-02  0.8665441E-01
       -2   -1    0    0    0  501  0.00000000000E+00  0.00000000000E+00  0.55448261953E+03  0.55448261954E+03  0.25500000920E-02 0. -1.
        2   -1    0    0  501    0  0.00000000000E+00  0.00000000000E+00 -0.15916591441E+04  0.15916591441E+04  0.25500000920E-02 0.  1.
    10030    2    1    2    0    0  0.00000000000E+00  0.00000000000E+00 -0.10371765246E+04  0.21461417637E+04  0.18788798063E+04 0.  0.
        3    1    3    3  502    0  0.36013727392E+02 -0.41904576461E+03 -0.14781090360E+04  0.15367832228E+04  0.10100000352E+00 0.  1.
       -3    1    3    3    0  502 -0.36013727392E+02  0.41904576461E+03  0.44093251146E+03  0.60935854081E+03  0.10100000352E+00 0. -1.
</event>
<event>
 5   0  0.9012466E-05  0.2106920E+04  0.7818609E-02  0.8558201E-01
        2   -1    0    0  501    0  0.00000000000E+00  0.00000000000E+00  0.13128973906E+04  0.13128973906E+04  0.25500000920E-02 0.  1.
       -2   -1    0    0    0  501  0.00000000000E+00  0.00000000000E+00 -0.84528885335E+03  0.84528885335E+03  0.25500000920E-02 0. -1.
    10030    2    1    2    0    0  0.00000000000E+00  0.00000000000E+00  0.46760853721E+03  0.21581862439E+04  0.21069195807E+04 0.  0.
        2    1    3    3  502    0 -0.65674775278E+03  0.47990271748E+03  0.91953602237E+03  0.12276688175E+04  0.25500000920E-02 0.  1.
       -2    1    3    3    0  502  0.65674775278E+03 -0.47990271748E+03 -0.45192748516E+03  0.93051742642E+03  0.25500000920E-02 0. -1.
</event>
<event>
 5   0  0.8547605E-05  0.1944490E+04  0.7818609E-02  0.8633022E-01
       -2   -1    0    0    0  501  0.00000000000E+00  0.00000000000E+00  0.78957301016E+03  0.78957301016E+03  0.25500000920E-02 0. -1.
        2   -1    0    0  501    0  0.00000000000E+00  0.00000000000E+00 -0.11971796018E+04  0.11971796018E+04  0.25500000920E-02 0.  1.
    10030    2    1    2    0    0  0.00000000000E+00  0.00000000000E+00 -0.40760659162E+03  0.19867526119E+04  0.19444903722E+04 0.  0.
        4    1    3    3  502    0 -0.26291083798E+03 -0.22740906483E+03  0.72390792066E+03  0.80304500620E+03  0.12699999809E+01 0. -1.
       -4    1    3    3    0  502  0.26291083798E+03  0.22740906483E+03 -0.11315145123E+04  0.11837076057E+04  0.12699999809E+01 0.  1.
</event>
<event>
 5   0  0.4050368E-05  0.2249841E+04  0.7818609E-02  0.8497965E-01
        1   -1    0    0  501    0  0.00000000000E+00  0.00000000000E+00  0.11033448617E+04  0.11033448617E+04  0.50400001928E-02 0. -1.
       -1   -1    0    0    0  501  0.00000000000E+00  0.00000000000E+00 -0.11469175496E+04  0.11469175496E+04  0.50400001928E-02 0.  1.
    10030    2    1    2    0    0  0.00000000000E+00  0.00000000000E+00 -0.43572687892E+02  0.22502624114E+04  0.22498405146E+04 0.  0.
        2    1    3    3  502    0 -0.12808378391E+03 -0.11020053610E+04  0.16432464664E+03  0.11215274677E+04  0.25500000920E-02 0. -1.
       -2    1    3    3    0  502  0.12808378391E+03  0.11020053610E+04 -0.20789733453E+03  0.11287349437E+04  0.25500000920E-02 0.  1.
</event>
<event>
 5   0  0.3176125E-05  0.2109198E+04  0.7818609E-02  0.8557202E-01
        3   -1    0    0  501    0  0.00000000000E+00  0.00000000000E+00  0.29753304596E+04  0.29753304613E+04  0.10100000352E+00 0.  1.
       -3   -1    0    0    0  501  0.00000000000E+00  0.00000000000E+00 -0.37380014065E+03  0.37380015429E+03  0.10100000352E+00 0. -1.
    10030    2    1    2    0    0  0.00000000000E+00  0.00000000000E+00  0.26015303190E+04  0.33491306156E+04  0.21091979234E+04 0.  0.
        1    1    3    3  502    0 -0.76101355975E+03 -0.55300739133E+03  0.20576645892E+04  0.22625079833E+04  0.50400001928E-02 0.  1.
       -1    1    3    3    0  502  0.76101355975E+03  0.55300739133E+03  0.54386572980E+03  0.10866226323E+04  0.50400001928E-02 0. -1.
</event>
<event>
 5   0  0.8858590E-05  0.2204636E+04  0.7818609E-02  0.8516501E-01
       -2   -1    0    0    0  501  0.00000000000E+00  0.00000000000E+00  0.10499772014E+04  0.10499772014E+04  0.25500000920E-02 0. -1.
        2   -1    0    0  501    0  0.00000000000E+00  0.00000000000E+00 -0.11572679884E+04  0.11572679884E+04  0.25500000920E-02 0.  1.
    10030    2    1    2    0    0  0.00000000000E+00  0.00000000000E+00 -0.10729078707E+03  0.22072451898E+04  0.22046360278E+04 0.  0.
        1    1    3    3  502    0 -0.61746958858E+03  0.88847976114E+03  0.15741212407E+03  0.10933634142E+04  0.50400001928E-02 0.  1.
       -1    1    3    3    0  502  0.61746958858E+03 -0.88847976114E+03 -0.26470291114E+03  0.11138817756E+04  0.50400001928E-02 0. -1.
</event>
<event>
 5   0  0.9012466E-05  0.2087292E+04  0.7818609E-02  0.8566862E-01
        2   -1    0    0  501    0  0.00000000000E+00  0.00000000000E+00  0.19730228834E+04  0.19730228834E+04  0.25500000920E-02 0.  1.
       -2   -1    0    0    0  501  0.00000000000E+00  0.00000000000E+00 -0.55204457798E+03  0.55204457798E+03  0.25500000920E-02 0. -1.
    10030    2    1    2    0    0  0.00000000000E+00  0.00000000000E+00  0.14209783054E+04  0.25250674614E+04  0.20872916279E+04 0.  0.
        2    1    3    3  502    0  0.38572628345E+03  0.80009052929E+02  0.18796269565E+04  0.19204644516E+04  0.25500000920E-02 0.  1.
       -2    1    3    3    0  502 -0.38572628345E+03 -0.80009052929E+02 -0.45864865107E+03  0.60460300978E+03  0.25500000920E-02 0. -1.
</event>
<event>
 5   0  0.4182977E-05  0.2106765E+04  0.7818609E-02  0.8558269E-01
       -1   -1    0    0    0  501  0.00000000000E+00  0.00000000000E+00  0.10399942100E+04  0.10399942101E+04  0.50400001928E-02 0. -1.
        1   -1    0    0  501    0  0.00000000000E+00  0.00000000000E+00 -0.10669434291E+04  0.10669434291E+04  0.50400001928E-02 0.  1.
    10030    2    1    2    0    0  0.00000000000E+00  0.00000000000E+00 -0.26949219008E+02  0.21069376391E+04  0.21067652823E+04 0.  0.
        1    1    3    3  502    0 -0.22606423285E+03 -0.98715788342E+02  0.10107015241E+04  0.10403688842E+04  0.50400001928E-02 0. -1.
       -1    1    3    3    0  502  0.22606423285E+03  0.98715788342E+02 -0.10376507431E+04  0.10665687549E+04  0.50400001928E-02 0.  1.
</event>
<event>
 5   0  0.4174093E-05  0.2099012E+04  0.7818609E-02  0.8561679E-01
        1   -1    0    0  501    0  0.00000000000E+00  0.00000000000E+00  0.17339885163E+04  0.17339885163E+04  0.50400001928E-02 0.  1.
       -1   -1    0    0    0  501  0.00000000000E+00  0.00000000000E+00 -0.63521905736E+03  0.63521905738E+03  0.50400001928E-02 0. -1.
    10030    2    1    2    0    0  0.00000000000E+00  0.00000000000E+00  0.10987694589E+04  0.23692075737E+04  0.20990117206E+04 0.  0.
        3    1    3    3  502    0  0.57027050329E+03  0.21477574528E+03  0.15138508999E+04  0.16318951023E+04  0.10100000352E+00 0.  1.
       -3    1    3    3    0  502 -0.57027050329E+03 -0.21477574528E+03 -0.41508144093E+03  0.73731247140E+03  0.10100000352E+00 0. -1.
</event>
<event>
 5   0  0.4200061E-05  0.2110302E+04  0.7818609E-02  0.8556719E-01
       -1   -1    0    0    0  501  0.00000000000E+00  0.00000000000E+00  0.42239485134E+03  0.42239485137E+03  0.50400001928E-02 0.  1.
        1   -1    0    0  501    0  0.00000000000E+00  0.00000000000E+00 -0.26357896230E+04  0.26357896230E+04  0.50400001928E-02 0. -1.
    10030    2    1    2    0    0  0.00000000000E+00  0.00000000000E+00 -0.22133947717E+04  0.30581844744E+04  0.21103023158E+04 0.  0.
        4    1    3    3  502    0  0.75797507001E+03 -0.22788897130E+03 -0.95511024061E+02  0.79723494568E+03  0.12699999809E+01 0.  1.
       -4    1    3    3    0  502 -0.75797507001E+03  0.22788897130E+03 -0.21178837476E+04  0.22609495287E+04  0.12699999809E+01 0. -1.
</event>
<event>
 5   0  0.4182977E-05  0.2082333E+04  0.7818609E-02  0.8569066E-01
       -1   -1    0    0    0  501  0.00000000000E+00  0.00000000000E+00  0.59937477989E+03  0.59937477991E+03  0.50400001928E-02 0.  1.
        1   -1    0    0  501    0  0.00000000000E+00  0.00000000000E+00 -0.18085981982E+04  0.18085981982E+04  0.50400001928E-02 0. -1.
    10030    2    1    2    0    0  0.00000000000E+00  0.00000000000E+00 -0.12092234183E+04  0.24079729781E+04  0.20823334478E+04 0.  0.
        1    1    3    3  502    0  0.35929713694E+03  0.29832251132E+02 -0.17341097438E+04  0.17711919714E+04  0.50400001928E-02 0. -1.
       -1    1    3    3    0  502 -0.35929713694E+03 -0.29832251132E+02  0.52488632551E+03  0.63678100675E+03  0.50400001928E-02 0.  1.
</event>
<event>
 5   0  0.8872777E-05  0.2103251E+04  0.7818609E-02  0.8559813E-01
       -2   -1    0    0    0  501  0.00000000000E+00  0.00000000000E+00  0.36757592601E+03  0.36757592602E+03  0.25500000920E-02 0.  1.
        2   -1    0    0  501    0  0.00000000000E+00  0.00000000000E+00 -0.30086736323E+04  0.30086736323E+04  0.25500000920E-02 0. -1.
    10030    2    1    2    0    0  0.00000000000E+00  0.00000000000E+00 -0.26410977063E+04  0.33762495584E+04  0.21032508138E+04 0.  0.
        3    1    3    3  502    0 -0.10042657377E+04  0.26014729717E+03 -0.10439525533E+04  0.14717551535E+04  0.10100000352E+00 0. -1.
       -3    1    3    3    0  502  0.10042657377E+04 -0.26014729717E+03 -0.15971451531E+04  0.19044944049E+04  0.10100000352E+00 0.  1.
</event>
<event>
 5   0  0.4050368E-05  0.2082273E+04  0.7818609E-02  0.8569093E-01
        1   -1    0    0  501    0  0.00000000000E+00  0.00000000000E+00  0.90584029256E+03  0.90584029258E+03  0.50400001928E-02 0.  1.
       -1   -1    0    0    0  501  0.00000000000E+00  0.00000000000E+00 -0.11966408949E+04  0.11966408949E+04  0.50400001928E-02 0. -1.
    10030    2    1    2    0    0  0.00000000000E+00  0.00000000000E+00 -0.29080060236E+03  0.21024811875E+04  0.20822733138E+04 0.  0.
        2    1    3    3  502    0  0.10348561559E+04  0.10300301890E+03 -0.19515992820E+03  0.10581229999E+04  0.25500000920E-02 0. -1.
       -2    1    3    3    0  502 -0.10348561559E+04 -0.10300301890E+03 -0.95640674158E+02  0.10443581876E+04  0.25500000920E-02 0.  1.
</event>
<event>
 5   0  0.8858590E-05  0.2101109E+04  0.7818609E-02  0.8560755E-01
       -2   -1    0    0    0  501  0.00000000000E+00  0.00000000000E+00  0.54803457210E+03  0.54803457211E+03  0.25500000920E-02 0.  1.
        2   -1    0    0  501    0  0.00000000000E+00  0.00000000000E+00 -0.20138594200E+04  0.20138594200E+04  0.25500000920E-02 0. -1.
    10030    2    1    2    0    0  0.00000000000E+00  0.00000000000E+00 -0.14658248479E+04  0.25618939921E+04  0.21011088363E+04 0.  0.
        1    1    3    3  502    0  0.28826891833E+03  0.41197322460E+03 -0.18576144935E+04  0.19244616165E+04  0.50400001928E-02 0. -1.
       -1    1    3    3    0  502 -0.28826891833E+03 -0.41197322460E+03  0.39178964557E+03  0.63743237560E+03  0.50400001928E-02 0.  1.
</event>
<event>
 5   0  0.4050368E-05  0.2084577E+04  0.7818609E-02  0.8568068E-01
        1   -1    0    0  501    0  0.00000000000E+00  0.00000000000E+00  0.12484391313E+04  0.12484391313E+04  0.50400001928E-02 0.  1.
       -1   -1    0    0    0  501  0.00000000000E+00  0.00000000000E+00 -0.87017868592E+03  0.87017868593E+03  0.50400001928E-02 0. -1.
    10030    2    1    2    0    0  0.00000000000E+00  0.00000000000E+00  0.37826044537E+03  0.21186178172E+04  0.20845768134E+04 0.  0.
        2    1    3    3  502    0  0.46468756361E+03 -0.16801491044E+03  0.11218318696E+04  0.12258345262E+04  0.25500000920E-02 0.  1.
       -2    1    3    3    0  502 -0.46468756361E+03  0.16801491044E+03 -0.74357142422E+03  0.89278329107E+03  0.25500000920E-02 0. -1.
</event>
<event>
 5   0  0.4174093E-05  0.2169008E+04  0.7818609E-02  0.8531440E-01
       -1   -1    0    0    0  501  0.00000000000E+00  0.00000000000E+00  0.87403614554E+03  0.87403614555E+03  0.50400001928E-02 0.  1.
        1   -1    0    0  501    0  0.00000000000E+00  0.00000000000E+00 -0.13456522684E+04  0.13456522684E+04  0.50400001928E-02 0. -1.
    10030    2    1    2    0    0  0.00000000000E+00  0.00000000000E+00 -0.47161612282E+03  0.22196884139E+04  0.21690078118E+04 0.  0.
        3    1    3    3  502    0  0.49978485914E+03  0.93454269446E+03 -0.47139068832E+03  0.11598983337E+04  0.10100000352E+00 0.  1.
       -3    1    3    3    0  502 -0.49978485914E+03 -0.93454269446E+03 -0.22543450020E+00  0.10597900803E+04  0.10100000352E+00 0. -1.
</event>
<event>
 5   0  0.8547605E-05  0.2096991E+04  0.7818609E-02  0.8562570E-01
        2   -1    0    0  501    0  0.00000000000E+00  0.00000000000E+00  0.91565418720E+03  0.91565418720E+03  0.25500000920E-02 0.  1.
       -2   -1    0    0    0  501  0.00000000000E+00  0.00000000000E+00 -0.12006096622E+04  0.12006096622E+04  0.25500000920E-02 0. -1.
    10030    2    1    2    0    0  0.00000000000E+00  0.00000000000E+00 -0.28495547502E+03  0.21162638494E+04  0.20969914300E+04 0.  0.
        4    1    3    3  502    0  0.10201297433E+04 -0.62850174280E+02 -0.37856537173E+03  0.10899211858E+04  0.12699999809E+01 0. -1.
       -4    1    3    3    0  502 -0.10201297433E+04  0.62850174280E+02  0.93609896707E+02  0.10263426637E+04  0.12699999809E+01 0.  1.
</event>
<event>
 5   0  0.4200061E-05  0.2121345E+04  0.7818609E-02  0.8551899E-01
        1   -1    0    0  501    0  0.00000000000E+00  0.00000000000E+00  0.60230396117E+03  0.60230396119E+03  0.50400001928E-02 0.  1.
       -1   -1    0    0    0  501  0.00000000000E+00  0.00000000000E+00 -0.18678709207E+04  0.18678709207E+04  0.50400001928E-02 0. -1.
    10030    2    1    2    0    0  0.00000000000E+00  0.00000000000E+00 -0.12655669596E+04  0.24701748819E+04  0.21213449079E+04 0.  0.
        4    1    3    3  502    0  0.27681967975E+03  0.37646055410E+03 -0.17415540725E+04  0.18031538714E+04  0.12699999809E+01 0. -1.
       -4    1    3    3    0  502 -0.27681967975E+03 -0.37646055410E+03  0.47598711290E+03  0.66702101049E+03  0.12699999809E+01 0.  1.
</event>
<event>
 5   0  0.9012466E-05  0.2125998E+04  0.7818609E-02  0.8549877E-01
       -2   -1    0    0    0  501  0.00000000000E+00  0.00000000000E+00  0.38196524499E+03  0.38196524500E+03  0.25500000920E-02 0.  1.
        2   -1    0    0  501    0  0.00000000000E+00  0.00000000000E+00 -0.29582977684E+04  0.29582977684E+04  0.25500000920E-02 0. -1.
    10030    2    1    2    0    0  0.00000000000E+00  0.00000000000E+00 -0.25763325234E+04  0.33402630134E+04  0.21259980544E+04 0.  0.
        2    1    3    3  502    0 -0.54059029447E+03  0.74284113043E+03 -0.21282781357E+04  0.23181066917E+04  0.25500000920E-02 0. -1.
       -2    1    3    3    0  502  0.54059029447E+03 -0.74284113043E+03 -0.44805438774E+03  0.10221563217E+04  0.25500000920E-02 0.  1.
</event>
<event>
 5   0  0.4128678E-05  0.2117965E+04  0.7818609E-02  0.8553371E-01
       -1   -1    0    0    0  501  0.00000000000E+00  0.00000000000E+00  0.80694307416E+03  0.80694307418E+03  0.50400001928E-02 0. -1.
        1   -1    0    0  501    0  0.00000000000E+00  0.00000000000E+00 -0.13897439600E+04  0.13897439600E+04  0.50400001928E-02 0.  1.
    10030    2    1    2    0    0  0.00000000000E+00  0.00000000000E+00 -0.58280088581E+03  0.21966870342E+04  0.21179653098E+04 0.  0.
        5    1    3    3  502    0  0.64489970575E+03  0.49356784181E+03  0.41350598607E+03  0.91132548272E+03  0.46999998093E+01 0. -1.
       -5    1    3    3    0  502 -0.64489970575E+03 -0.49356784181E+03 -0.99630687189E+03  0.12853615514E+04  0.46999998093E+01 0.  1.
</event>
<event>
 5   0  0.8872777E-05  0.2087205E+04  0.7818609E-02  0.8566901E-01
       -2   -1    0    0    0  501  0.00000000000E+00  0.00000000000E+00  0.90414132047E+03  0.90414132047E+03  0.25500000920E-02 0.  1.
        2   -1    0    0  501    0  0.00000000000E+00  0.00000000000E+00 -0.12045751858E+04  0.12045751858E+04  0.25500000920E-02 0. -1.
    10030    2    1    2    0    0  0.00000000000E+00  0.00000000000E+00 -0.30043386530E+03  0.21087165062E+04  0.20872050202E+04 0.  0.
        3    1    3    3  502    0  0.44748409551E+03 -0.73113366840E+03 -0.75158920752E+03  0.11400371941E+04  0.10100000352E+00 0.  1.
       -3    1    3    3    0  502 -0.44748409551E+03  0.73113366840E+03  0.45115534222E+03  0.96867931217E+03  0.10100000352E+00 0. -1.
</event>
<event>
 5   0  0.4050368E-05  0.2095834E+04  0.7818609E-02  0.8563081E-01
        1   -1    0    0  501    0  0.00000000000E+00  0.00000000000E+00  0.15147499705E+04  0.15147499705E+04  0.50400001928E-02 0.  1.
       -1   -1    0    0    0  501  0.00000000000E+00  0.00000000000E+00 -0.72495775097E+03  0.72495775099E+03  0.50400001928E-02 0. -1.
    10030    2    1    2    0    0  0.00000000000E+00  0.00000000000E+00  0.78979221950E+03  0.22397077215E+04  0.20958337070E+04 0.  0.
        2    1    3    3  502    0 -0.30209478635E+03 -0.87795987145E+03 -0.12431152455E+03  0.93676472551E+03  0.25500000920E-02 0. -1.
       -2    1    3    3    0  502  0.30209478635E+03  0.87795987145E+03  0.91410374405E+03  0.13029429960E+04  0.25500000920E-02 0.  1.
</event>
<event>
 5   0  0.9012466E-05  0.2380720E+04  0.7818609E-02  0.8446757E-01
        2   -1    0    0  501    0  0.00000000000E+00  0.00000000000E+00  0.17432950122E+04  0.17432950122E+04  0.25500000920E-02 0. -1.
       -2   -1    0    0    0  501  0.00000000000E+00  0.00000000000E+00 -0.81280356976E+03  0.81280356976E+03  0.25500000920E-02 0.  1.
    10030    2    1    2    0    0  0.00000000000E+00  0.00000000000E+00  0.93049144246E+03  0.25560985820E+04  0.23807195627E+04 0.  0.
        2    1    3    3  502    0  0.55853734689E+02 -0.31037836549E+03  0.16976267577E+04  0.17266704891E+04  0.25500000920E-02 0. -1.
       -2    1    3    3    0  502 -0.55853734689E+02  0.31037836549E+03 -0.76713531522E+03  0.82942809291E+03  0.25500000920E-02 0.  1.
</event>
<event>
 5   0  0.8858590E-05  0.2116992E+04  0.7818609E-02  0.8553795E-01
       -2   -1    0    0    0  501  0.00000000000E+00  0.00000000000E+00  0.51113054481E+03  0.51113054481E+03  0.25500000920E-02 0. -1.
        2   -1    0    0  501    0  0.00000000000E+00  0.00000000000E+00 -0.21920297466E+04  0.21920297466E+04  0.25500000920E-02 0.  1.
    10030    2    1    2    0    0  0.00000000000E+00  0.00000000000E+00 -0.16808992018E+04  0.27031602914E+04  0.21169916000E+04 0.  0.
        1    1    3    3  502    0 -0.27703844895E+03 -0.92236584790E+03 -0.27962944015E+03  0.10028467896E+04  0.50400001928E-02 0. -1.
       -1    1    3    3    0  502  0.27703844895E+03  0.92236584790E+03 -0.14012697616E+04  0.17003135018E+04  0.50400001928E-02 0.  1.
</event>
<event>
 5   0  0.4174093E-05  0.2077538E+04  0.7818609E-02  0.8571203E-01
       -1   -1    0    0    0  501  0.00000000000E+00  0.00000000000E+00  0.45656174973E+03  0.45656174975E+03  0.50400001928E-02 0.  1.
        1   -1    0    0  501    0  0.00000000000E+00  0.00000000000E+00 -0.23634063068E+04  0.23634063068E+04  0.50400001928E-02 0. -1.
    10030    2    1    2    0    0  0.00000000000E+00  0.00000000000E+00 -0.19068445571E+04  0.28199680566E+04  0.20775378878E+04 0.  0.
        3    1    3    3  502    0 -0.43385024750E+03  0.94205873403E+03 -0.10318703579E+04  0.14630301232E+04  0.10100000352E+00 0. -1.
       -3    1    3    3    0  502  0.43385024750E+03 -0.94205873403E+03 -0.87497419916E+03  0.13569379334E+04  0.10100000352E+00 0.  1.
</event>
<event>
 5   0  0.4050368E-05  0.2104378E+04  0.7818609E-02  0.8559317E-01
        1   -1    0    0  501    0  0.00000000000E+00  0.00000000000E+00  0.13171957265E+04  0.13171957265E+04  0.50400001928E-02 0. -1.
       -1   -1    0    0    0  501  0.00000000000E+00  0.00000000000E+00 -0.84049935254E+03  0.84049935256E+03  0.50400001928E-02 0.  1.
    10030    2    1    2    0    0  0.00000000000E+00  0.00000000000E+00  0.47669637399E+03  0.21576950791E+04  0.21043784406E+04 0.  0.
        2    1    3    3  502    0 -0.58758483087E+02  0.92737964067E+03  0.74442875785E+03  0.11906551696E+04  0.25500000920E-02 0.  1.
       -2    1    3    3    0  502  0.58758483087E+02 -0.92737964067E+03 -0.26773238387E+03  0.96703990954E+03  0.25500000920E-02 0. -1.
</event>
<event>
 5   0  0.9012466E-05  0.2116537E+04  0.7818609E-02  0.8553993E-01
        2   -1    0    0  501    0  0.00000000000E+00  0.00000000000E+00  0.18472281468E+04  0.18472281469E+04  0.25500000920E-02 0.  1.
       -2   -1    0    0    0  501  0.00000000000E+00  0.00000000000E+00 -0.60627713283E+03  0.60627713284E+03  0.25500000920E-02 0. -1.
    10030    2    1    2    0    0  0.00000000000E+00  0.00000000000E+00  0.12409510140E+04  0.24535052797E+04  0.21165369683E+04 0.  0.
        2    1    3    3  502    0 -0.59806150198E+03  0.58608400283E+02 -0.38931301825E+03  0.71601475607E+03  0.25500000920E-02 0. -1.
       -2    1    3    3    0  502  0.59806150198E+03 -0.58608400283E+02  0.16302640323E+04  0.17374905236E+04  0.25500000920E-02 0.  1.
</event>
<event>
 5   0  0.8547605E-05  0.1854316E+04  0.7818609E-02  0.8677936E-01
        2   -1    0    0  501    0  0.00000000000E+00  0.00000000000E+00  0.15465311736E+04  0.15465311736E+04  0.25500000920E-02 0.  1.
       -2   -1    0    0    0  501  0.00000000000E+00  0.00000000000E+00 -0.55583892157E+03  0.55583892157E+03  0.25500000920E-02 0. -1.
    10030    2    1    2    0    0  0.00000000000E+00  0.00000000000E+00  0.99069225200E+03  0.21023700951E+04  0.18543162834E+04 0.  0.
        4    1    3    3  502    0 -0.16178245750E+03  0.61745123345E+03  0.12577605885E+04  0.14104548557E+04  0.12699999809E+01 0.  1.
       -4    1    3    3    0  502  0.16178245750E+03 -0.61745123345E+03 -0.26706833649E+03  0.69191523939E+03  0.12699999809E+01 0. -1.
</event>
<event>
 5   0  0.8872777E-05  0.2094402E+04  0.7818609E-02  0.8563713E-01
        2   -1    0    0  501    0  0.00000000000E+00  0.00000000000E+00  0.11280430408E+04  0.11280430408E+04  0.25500000920E-02 0. -1.
       -2   -1    0    0    0  501  0.00000000000E+00  0.00000000000E+00 -0.97215227442E+03  0.97215227443E+03  0.25500000920E-02 0.  1.
    10030    2    1    2    0    0  0.00000000000E+00  0.00000000000E+00  0.15589076635E+03  0.21001953152E+04  0.20944016881E+04 0.  0.
        3    1    3    3  502    0  0.47447466332E+03  0.39355752957E+03  0.92681876321E+03  0.11131068076E+04  0.10100000352E+00 0. -1.
       -3    1    3    3    0  502 -0.47447466332E+03 -0.39355752957E+03 -0.77092799685E+03  0.98708850755E+03  0.10100000352E+00 0.  1.
</event>
<event>
 5   0  0.9086985E-05  0.2109055E+04  0.7818609E-02  0.8557265E-01
       -2   -1    0    0    0  501  0.00000000000E+00  0.00000000000E+00  0.10662624332E+04  0.10662624332E+04  0.25500000920E-02 0.  1.
        2   -1    0    0  501    0  0.00000000000E+00  0.00000000000E+00 -0.10429214883E+04  0.10429214883E+04  0.25500000920E-02 0. -1.
    10030    2    1    2    0    0  0.00000000000E+00  0.00000000000E+00  0.23340944911E+02  0.21091839215E+04  0.21090547681E+04 0.  0.
        5    1    3    3  502    0 -0.36373589035E+03  0.77870696713E+03 -0.59936414085E+03  0.10478300444E+04  0.46999998093E+01 0. -1.
       -5    1    3    3    0  502  0.36373589035E+03 -0.77870696713E+03  0.62270508576E+03  0.10613538771E+04  0.46999998093E+01 0.  1.
</event>
<event>
 5   0  0.4200061E-05  0.2005631E+04  0.7818609E-02  0.8603993E-01
       -1   -1    0    0    0  501  0.00000000000E+00  0.00000000000E+00  0.10267144983E+04  0.10267144983E+04  0.50400001928E-02 0.  1.
        1   -1    0    0  501    0  0.00000000000E+00  0.00000000000E+00 -0.97947272662E+03  0.97947272663E+03  0.50400001928E-02 0. -1.
    10030    2    1    2    0    0  0.00000000000E+00  0.00000000000E+00  0.47241771701E+02  0.20061872250E+04  0.20056309223E+04 0.  0.
        4    1    3    3  502    0  0.13890874054E+03 -0.16034584882E+03  0.10040104930E+04  0.10261798636E+04  0.12699999809E+01 0.  1.
       -4    1    3    3    0  502 -0.13890874054E+03  0.16034584882E+03 -0.95676872130E+03  0.98000736139E+03  0.12699999809E+01 0. -1.
</event>
<event>
 5   0  0.4128678E-05  0.2121957E+04  0.7818609E-02  0.8551632E-01
       -1   -1    0    0    0  501  0.00000000000E+00  0.00000000000E+00  0.72688575893E+03  0.72688575895E+03  0.50400001928E-02 0.  1.
        1   -1    0    0  501    0  0.00000000000E+00  0.00000000000E+00 -0.15486277668E+04  0.15486277668E+04  0.50400001928E-02 0. -1.
    10030    2    1    2    0    0  0.00000000000E+00  0.00000000000E+00 -0.82174200787E+03  0.22755135258E+04  0.21219570869E+04 0.  0.
        5    1    3    3  502    0  0.13960458127E+03  0.23382960666E+03  0.68875477796E+03  0.74065576230E+03  0.46999998093E+01 0.  1.
       -5    1    3    3    0  502 -0.13960458127E+03 -0.23382960666E+03 -0.15104967858E+04  0.15348577635E+04  0.46999998093E+01 0. -1.
</event>
<event>
 5   0  0.4182977E-05  0.1958848E+04  0.7818609E-02  0.8626106E-01
        1   -1    0    0  501    0  0.00000000000E+00  0.00000000000E+00  0.10900705624E+04  0.10900705624E+04  0.50400001928E-02 0.  1.
       -1   -1    0    0    0  501  0.00000000000E+00  0.00000000000E+00 -0.88000852595E+03  0.88000852596E+03  0.50400001928E-02 0. -1.
    10030    2    1    2    0    0  0.00000000000E+00  0.00000000000E+00  0.21006203643E+03  0.19700790884E+04  0.19588480174E+04 0.  0.
        1    1    3    3  502    0  0.46204809980E+03 -0.51675690123E+03  0.80091230452E+03  0.10592387177E+04  0.50400001928E-02 0.  1.
       -1    1    3    3    0  502 -0.46204809980E+03  0.51675690123E+03 -0.59085026809E+03  0.91084037066E+03  0.50400001928E-02 0. -1.
</event>
<event>
 5   0  0.8547605E-05  0.2115194E+04  0.7818609E-02  0.8554580E-01
       -2   -1    0    0    0  501  0.00000000000E+00  0.00000000000E+00  0.15638184503E+04  0.15638184503E+04  0.25500000920E-02 0. -1.
        2   -1    0    0  501    0  0.00000000000E+00  0.00000000000E+00 -0.71524356652E+03  0.71524356652E+03  0.25500000920E-02 0.  1.
    10030    2    1    2    0    0  0.00000000000E+00  0.00000000000E+00  0.84857488376E+03  0.22790620168E+04  0.21151936893E+04 0.  0.
        4    1    3    3  502    0  0.84786316539E+03  0.46797626567E+03 -0.33651781086E+02  0.96902414197E+03  0.12699999809E+01 0.  1.
       -4    1    3    3    0  502 -0.84786316539E+03 -0.46797626567E+03  0.88222666484E+03  0.13100378748E+04  0.12699999809E+01 0. -1.
</event>
<event>
 5   0  0.8547605E-05  0.2038528E+04  0.7818609E-02  0.8588816E-01
       -2   -1    0    0    0  501  0.00000000000E+00  0.00000000000E+00  0.69243111327E+03  0.69243111327E+03  0.25500000920E-02 0. -1.
        2   -1    0    0  501    0  0.00000000000E+00  0.00000000000E+00 -0.15003650708E+04  0.15003650708E+04  0.25500000920E-02 0.  1.
    10030    2    1    2    0    0  0.00000000000E+00  0.00000000000E+00 -0.80793395755E+03  0.21927961841E+04  0.20385283479E+04 0.  0.
        4    1    3    3  502    0 -0.17461026808E+03  0.92535806166E+03  0.15576418158E+02  0.94181767116E+03  0.12699999809E+01 0.  1.
       -4    1    3    3    0  502  0.17461026808E+03 -0.92535806166E+03 -0.82351037570E+03  0.12509785129E+04  0.12699999809E+01 0. -1.
</event>
<event>
 5   0  0.4128678E-05  0.2101635E+04  0.7818609E-02  0.8560524E-01
        1   -1    0    0  501    0  0.00000000000E+00  0.00000000000E+00  0.50800968930E+03  0.50800968932E+03  0.50400001928E-02 0.  1.
       -1   -1    0    0    0  501  0.00000000000E+00  0.00000000000E+00 -0.21736143562E+04  0.21736143562E+04  0.50400001928E-02 0. -1.
    10030    2    1    2    0    0  0.00000000000E+00  0.00000000000E+00 -0.16656046669E+04  0.26816240455E+04  0.21016347483E+04 0.  0.
        5    1    3    3  502    0  0.17372130519E+03  0.71034343355E+03  0.13005097725E+03  0.74276660677E+03  0.46999998093E+01 0.  1.
       -5    1    3    3    0  502 -0.17372130519E+03 -0.71034343355E+03 -0.17956556441E+04  0.19388574387E+04  0.46999998093E+01 0. -1.
</event>
<event>
 5   0  0.9012466E-05  0.2038233E+04  0.7818609E-02  0.8588951E-01
        2   -1    0    0  501    0  0.00000000000E+00  0.00000000000E+00  0.12174747259E+04  0.12174747259E+04  0.25500000920E-02 0. -1.
       -2   -1    0    0    0  501  0.00000000000E+00  0.00000000000E+00 -0.85307586892E+03  0.85307586893E+03  0.25500000920E-02 0.  1.
    10030    2    1    2    0    0  0.00000000000E+00  0.00000000000E+00  0.36439885693E+03  0.20705505948E+04  0.20382328715E+04 0.  0.
        2    1    3    3  502    0  0.19507216883E+03 -0.22686225057E+03  0.11718529037E+04  0.12094456828E+04  0.25500000920E-02 0. -1.
       -2    1    3    3    0  502 -0.19507216883E+03  0.22686225057E+03 -0.80745404676E+03  0.86110491197E+03  0.25500000920E-02 0.  1.
</event>
<event>
 5   0  0.4050368E-05  0.2097841E+04  0.7818609E-02  0.8562195E-01
       -1   -1    0    0    0  501  0.00000000000E+00  0.00000000000E+00  0.36485239460E+03  0.36485239464E+03  0.50400001928E-02 0. -1.
        1   -1    0    0  501    0  0.00000000000E+00  0.00000000000E+00 -0.30155606493E+04  0.30155606493E+04  0.50400001928E-02 0.  1.
    10030    2    1    2    0    0  0.00000000000E+00  0.00000000000E+00 -0.26507082547E+04  0.33804130439E+04  0.20978412943E+04 0.  0.
        2    1    3    3  502    0 -0.81076736083E+03 -0.66368812120E+03 -0.14044411966E+04  0.17522216499E+04  0.25500000920E-02 0.  1.
       -2    1    3    3    0  502  0.81076736083E+03  0.66368812120E+03 -0.12462670581E+04  0.16281913941E+04  0.25500000920E-02 0. -1.
</event>
<event>
 5   0  0.4174093E-05  0.2094408E+04  0.7818609E-02  0.8563711E-01
        1   -1    0    0  501    0  0.00000000000E+00  0.00000000000E+00  0.13349492703E+04  0.13349492703E+04  0.50400001928E-02 0.  1.
       -1   -1    0    0    0  501  0.00000000000E+00  0.00000000000E+00 -0.82148167735E+03  0.82148167736E+03  0.50400001928E-02 0. -1.
    10030    2    1    2    0    0  0.00000000000E+00  0.00000000000E+00  0.51346759296E+03  0.21564309477E+04  0.20944081415E+04 0.  0.
        3    1    3    3  502    0  0.49396960080E+03  0.90062647860E+03  0.46648791883E+03  0.11281600104E+04  0.10100000352E+00 0. -1.
       -3    1    3    3    0  502 -0.49396960080E+03 -0.90062647860E+03  0.46979674126E+02  0.10282709373E+04  0.10100000352E+00 0.  1.
</event>
<event>
 5   0  0.9086985E-05  0.1946075E+04  0.7818609E-02  0.8632256E-01
        2   -1    0    0  501    0  0.00000000000E+00  0.00000000000E+00  0.13791212690E+04  0.13791212690E+04  0.25500000920E-02 0.  1.
       -2   -1    0    0    0  501  0.00000000000E+00  0.00000000000E+00 -0.68652580341E+03  0.68652580341E+03  0.25500000920E-02 0. -1.
    10030    2    1    2    0    0  0.00000000000E+00  0.00000000000E+00  0.69259546559E+03  0.20656470724E+04  0.19460753708E+04 0.  0.
        5    1    3    3  502    0  0.88900958040E+03 -0.16204082153E+03  0.72927845583E+03  0.11612340066E+04  0.46999998093E+01 0.  1.
       -5    1    3    3    0  502 -0.88900958040E+03  0.16204082153E+03 -0.36682990238E+02  0.90441306584E+03  0.46999998093E+01 0. -1.
</event>
<event>
 5   0  0.8858590E-05  0.2106530E+04  0.7818609E-02  0.8558372E-01
        2   -1    0    0  501    0  0.00000000000E+00  0.00000000000E+00  0.15662277512E+04  0.15662277512E+04  0.25500000920E-02 0.  1.
       -2   -1    0    0    0  501  0.00000000000E+00  0.00000000000E+00 -0.70830492662E+03  0.70830492662E+03  0.25500000920E-02 0. -1.
    10030    2    1    2    0    0  0.00000000000E+00  0.00000000000E+00  0.85792282454E+03  0.22745326778E+04  0.21065296887E+04 0.  0.
        1    1    3    3  502    0 -0.46492790778E+03 -0.73954686399E+03  0.10643477428E+04  0.13769254305E+04  0.50400001928E-02 0.  1.
       -1    1    3    3    0  502  0.46492790778E+03  0.73954686399E+03 -0.20642491828E+03  0.89760724729E+03  0.50400001928E-02 0. -1.
</event>
<event>
 5   0  0.4200061E-05  0.2095017E+04  0.7818609E-02  0.8563441E-01
       -1   -1    0    0    0  501  0.00000000000E+00  0.00000000000E+00  0.54260891791E+03  0.54260891793E+03  0.50400001928E-02 0. -1.
        1   -1    0    0  501    0  0.00000000000E+00  0.00000000000E+00 -0.20222198342E+04  0.20222198342E+04  0.50400001928E-02 0.  1.
    10030    2    1    2    0    0  0.00000000000E+00  0.00000000000E+00 -0.14796109163E+04  0.25648287522E+04  0.20950174377E+04 0.  0.
        4    1    3    3  502    0 -0.92316537043E+02  0.10403785711E+04 -0.83746199414E+03  0.13387509547E+04  0.12699999809E+01 0.  1.
       -4    1    3    3    0  502  0.92316537043E+02 -0.10403785711E+04 -0.64214892217E+03  0.12260777974E+04  0.12699999809E+01 0. -1.
</event>
<event>
 5   0  0.4200061E-05  0.2099612E+04  0.7818609E-02  0.8561414E-01
       -1   -1    0    0    0  501  0.00000000000E+00  0.00000000000E+00  0.12467773137E+04  0.12467773137E+04  0.50400001928E-02 0. -1.
        1   -1    0    0  501    0  0.00000000000E+00  0.00000000000E+00 -0.88395287626E+03  0.88395287628E+03  0.50400001928E-02 0.  1.
    10030    2    1    2    0    0  0.00000000000E+00  0.00000000000E+00  0.36282443739E+03  0.21307301899E+04  0.20996117665E+04 0.  0.
        4    1    3    3  502    0 -0.14304489617E+03  0.24659397276E+03 -0.84391885886E+03  0.89076993829E+03  0.12699999809E+01 0.  1.
       -4    1    3    3    0  502  0.14304489617E+03 -0.24659397276E+03  0.12067432962E+04  0.12399602516E+04  0.12699999809E+01 0. -1.
</event>
<event>
 5   0  0.4128678E-05  0.2053985E+04  0.7818609E-02  0.8581789E-01
       -1   -1    0    0    0  501  0.00000000000E+00  0.00000000000E+00  0.14492470386E+04  0.14492470386E+04  0.50400001928E-02 0.  1.
        1   -1    0    0  501    0  0.00000000000E+00  0.00000000000E+00 -0.72776627743E+03  0.72776627745E+03  0.50400001928E-02 0. -1.
    10030    2    1    2    0    0  0.00000000000E+00  0.00000000000E+00  0.72148076120E+03  0.21770133161E+04  0.20539845398E+04 0.  0.
        5    1    3    3  502    0 -0.15326369059E+02 -0.86151899495E+03  0.95299572488E+03  0.12847851252E+04  0.46999998093E+01 0.  1.
       -5    1    3    3    0  502  0.15326369059E+02  0.86151899495E+03 -0.23151496368E+03  0.89222819091E+03  0.46999998093E+01 0. -1.
</event>
<event>
 5   0  0.8547605E-05  0.2136869E+04  0.7818609E-02  0.8545174E-01
        2   -1    0    0  501    0  0.00000000000E+00  0.00000000000E+00  0.17088750439E+04  0.17088750439E+04  0.25500000920E-02 0.  1.
       -2   -1    0    0    0  501  0.00000000000E+00  0.00000000000E+00 -0.66801399071E+03  0.66801399072E+03  0.25500000920E-02 0. -1.
    10030    2    1    2    0    0  0.00000000000E+00  0.00000000000E+00  0.10408610532E+04  0.23768890346E+04  0.21368691469E+04 0.  0.
        4    1    3    3  502    0  0.55626083591E+03  0.60803039176E+03 -0.23596864434E+03  0.85721052775E+03  0.12699999809E+01 0. -1.
       -4    1    3    3    0  502 -0.55626083591E+03 -0.60803039176E+03  0.12768296976E+04  0.15196785069E+04  0.12699999809E+01 0.  1.
</event>
<event>
 5   0  0.4128678E-05  0.1982015E+04  0.7818609E-02  0.8615076E-01
       -1   -1    0    0    0  501  0.00000000000E+00  0.00000000000E+00  0.77027451260E+03  0.77027451262E+03  0.50400001928E-02 0. -1.
        1   -1    0    0  501    0  0.00000000000E+00  0.00000000000E+00 -0.12749946268E+04  0.12749946268E+04  0.50400001928E-02 0.  1.
    10030    2    1    2    0    0  0.00000000000E+00  0.00000000000E+00 -0.50472011423E+03  0.20452691395E+04  0.19820149997E+04 0.  0.
        5    1    3    3  502    0 -0.13975338373E+03 -0.65873503798E+03  0.49789959664E+03  0.83748967567E+03  0.46999998093E+01 0.  1.
       -5    1    3    3    0  502  0.13975338373E+03  0.65873503798E+03 -0.10026197109E+04  0.12077794638E+04  0.46999998093E+01 0. -1.
</event>
<event>
 5   0  0.8872777E-05  0.2086587E+04  0.7818609E-02  0.8567175E-01
        2   -1    0    0  501    0  0.00000000000E+00  0.00000000000E+00  0.19330529800E+04  0.19330529800E+04  0.25500000920E-02 0. -1.
       -2   -1    0    0    0  501  0.00000000000E+00  0.00000000000E+00 -0.56307905652E+03  0.56307905652E+03  0.25500000920E-02 0.  1.
    10030    2    1    2    0    0  0.00000000000E+00  0.00000000000E+00  0.13699739235E+04  0.24961320366E+04  0.20865873077E+04 0.  0.
        3    1    3    3  502    0 -0.85639843260E+03 -0.20193812660E+03  0.13556101340E+04  0.16161299849E+04  0.10100000352E+00 0. -1.
       -3    1    3    3    0  502  0.85639843260E+03  0.20193812660E+03  0.14363789503E+02  0.88000205169E+03  0.10100000352E+00 0.  1.
</event>
<event>
 5   0  0.8872777E-05  0.2094577E+04  0.7818609E-02  0.8563636E-01
        2   -1    0    0  501    0  0.00000000000E+00  0.00000000000E+00  0.14432971357E+04  0.14432971357E+04  0.25500000920E-02 0.  1.
       -2   -1    0    0    0  501  0.00000000000E+00  0.00000000000E+00 -0.75993576796E+03  0.75993576797E+03  0.25500000920E-02 0. -1.
    10030    2    1    2    0    0  0.00000000000E+00  0.00000000000E+00  0.68336136771E+03  0.22032329036E+04  0.20945769188E+04 0.  0.
        3    1    3    3  502    0 -0.54413253089E+03 -0.43084986521E+03  0.11666492750E+04  0.13574912001E+04  0.10100000352E+00 0.  1.
       -3    1    3    3    0  502  0.54413253089E+03  0.43084986521E+03 -0.48328790725E+03  0.84574170349E+03  0.10100000352E+00 0. -1.
</event>
<event>
 5   0  0.3176125E-05  0.2099627E+04  0.7818609E-02  0.8561408E-01
        3   -1    0    0  501    0  0.00000000000E+00  0.00000000000E+00  0.80025573131E+03  0.80025573769E+03  0.10100000352E+00 0.  1.
       -3   -1    0    0    0  501  0.00000000000E+00  0.00000000000E+00 -0.13771955155E+04  0.13771955192E+04  0.10100000352E+00 0. -1.
    10030    2    1    2    0    0  0.00000000000E+00  0.00000000000E+00 -0.57693978422E+03  0.21774512569E+04  0.20996272197E+04 0.  0.
        4    1    3    3  502    0 -0.23686937628E+03 -0.48060229276E+03  0.64777774999E+03  0.84065646462E+03  0.12699999809E+01 0.  1.
       -4    1    3    3    0  502  0.23686937628E+03  0.48060229276E+03 -0.12247175342E+04  0.13367947923E+04  0.12699999809E+01 0. -1.
</event>
<event>
 5   0  0.4128678E-05  0.2106434E+04  0.7818609E-02  0.8558415E-01
       -1   -1    0    0    0  501  0.00000000000E+00  0.00000000000E+00  0.70121172350E+03  0.70121172352E+03  0.50400001928E-02 0.  1.
        1   -1    0    0  501    0  0.00000000000E+00  0.00000000000E+00 -0.15819268464E+04  0.15819268464E+04  0.50400001928E-02 0. -1.
    10030    2    1    2    0    0  0.00000000000E+00  0.00000000000E+00 -0.88071512292E+03  0.22831385699E+04  0.21064336215E+04 0.  0.
        5    1    3    3  502    0  0.88545889189E+03 -0.21629894258E+03 -0.10122777044E+04  0.13621860822E+04  0.46999998093E+01 0. -1.
       -5    1    3    3    0  502 -0.88545889189E+03  0.21629894258E+03  0.13156258147E+03  0.92095248772E+03  0.46999998093E+01 0.  1.
</event>
<event>
 5   0  0.8872777E-05  0.2086212E+04  0.7818609E-02  0.8567341E-01
       -2   -1    0    0    0  501  0.00000000000E+00  0.00000000000E+00  0.54577465120E+03  0.54577465120E+03  0.25500000920E-02 0. -1.
        2   -1    0    0  501    0  0.00000000000E+00  0.00000000000E+00 -0.19936261060E+04  0.19936261060E+04  0.25500000920E-02 0.  1.
    10030    2    1    2    0    0  0.00000000000E+00  0.00000000000E+00 -0.14478514548E+04  0.25394007572E+04  0.20862124462E+04 0.  0.
        3    1    3    3  502    0  0.75094197669E+03  0.43911890958E+03 -0.23271166019E+02  0.87021883827E+03  0.10100000352E+00 0. -1.
       -3    1    3    3    0  502 -0.75094197669E+03 -0.43911890958E+03 -0.14245802888E+04  0.16691819190E+04  0.10100000352E+00 0.  1.
</event>
<event>
 5   0  0.3176125E-05  0.2072704E+04  0.7818609E-02  0.8573364E-01
       -3   -1    0    0    0  501  0.00000000000E+00  0.00000000000E+00  0.16147579663E+04  0.16147579695E+04  0.10100000352E+00 0. -1.
        3   -1    0    0  501    0  0.00000000000E+00  0.00000000000E+00 -0.66513115727E+03  0.66513116494E+03  0.10100000352E+00 0.  1.
    10030    2    1    2    0    0  0.00000000000E+00  0.00000000000E+00  0.94962680903E+03  0.22798891344E+04  0.20727043660E+04 0.  0.
        3    1    3    3  502    0 -0.42900360169E+03  0.72485026075E+03  0.11389679076E+04  0.14165803527E+04  0.10100000352E+00 0. -1.
       -3    1    3    3    0  502  0.42900360169E+03 -0.72485026075E+03 -0.18934109860E+03  0.86330878172E+03  0.10100000352E+00 0.  1.
</event>
<event>
 5   0  0.9012466E-05  0.2087892E+04  0.7818609E-02  0.8566596E-01
       -2   -1    0    0    0  501  0.00000000000E+00  0.00000000000E+00  0.64767897130E+03  0.64767897130E+03  0.25500000920E-02 0. -1.
        2   -1    0    0  501    0  0.00000000000E+00  0.00000000000E+00 -0.16826593150E+04  0.16826593150E+04  0.25500000920E-02 0.  1.
    10030    2    1    2    0    0  0.00000000000E+00  0.00000000000E+00 -0.10349803437E+04  0.23303382863E+04  0.20878918116E+04 0.  0.
        2    1    3    3  502    0  0.40503178786E+03  0.95083161987E+03 -0.68187287930E+03  0.12381769429E+04  0.25500000920E-02 0.  1.
       -2    1    3    3    0  502 -0.40503178786E+03 -0.95083161987E+03 -0.35310746442E+03  0.10921613434E+04  0.25500000920E-02 0. -1.
</event>
<event>
 5   0  0.8858590E-05  0.2094882E+04  0.7818609E-02  0.8563501E-01
       -2   -1    0    0    0  501  0.00000000000E+00  0.00000000000E+00  0.11357811052E+04  0.11357811052E+04  0.25500000920E-02 0. -1.
        2   -1    0    0  501    0  0.00000000000E+00  0.00000000000E+00 -0.96597168123E+03  0.96597168124E+03  0.25500000920E-02 0.  1.
    10030    2    1    2    0    0  0.00000000000E+00  0.00000000000E+00  0.16980942398E+03  0.21017527865E+04  0.20948817472E+04 0.  0.
        1    1    3    3  502    0  0.28439883884E+03 -0.88110724151E+03 -0.40649736008E+03  0.10111739585E+04  0.50400001928E-02 0.  1.
       -1    1    3    3    0  502 -0.28439883884E+03  0.88110724151E+03  0.57630678407E+03  0.10905788279E+04  0.50400001928E-02 0. -1.
</event>
<event>
 5   0  0.4182977E-05  0.2055546E+04  0.7818609E-02  0.8581083E-01
        1   -1    0    0  501    0  0.00000000000E+00  0.00000000000E+00  0.12222887747E+04  0.12222887747E+04  0.50400001928E-02 0.  1.
       -1   -1    0    0    0  501  0.00000000000E+00  0.00000000000E+00 -0.86421251119E+03  0.86421251121E+03  0.50400001928E-02 0. -1.
    10030    2    1    2    0    0  0.00000000000E+00  0.00000000000E+00  0.35807626349E+03  0.20865012859E+04  0.20555459143E+04 0.  0.
        1    1    3    3  502    0 -0.15117342883E+03  0.61906674405E+03 -0.63946756701E+03  0.90278225971E+03  0.50400001928E-02 0. -1.
       -1    1    3    3    0  502  0.15117342883E+03 -0.61906674405E+03  0.99754383050E+03  0.11837190262E+04  0.50400001928E-02 0.  1.
</event>
<event>
 5   0  0.8547605E-05  0.2078920E+04  0.7818609E-02  0.8570587E-01
       -2   -1    0    0    0  501  0.00000000000E+00  0.00000000000E+00  0.10559595454E+04  0.10559595454E+04  0.25500000920E-02 0. -1.
        2   -1    0    0  501    0  0.00000000000E+00  0.00000000000E+00 -0.10232178211E+04  0.10232178211E+04  0.25500000920E-02 0.  1.
    10030    2    1    2    0    0  0.00000000000E+00  0.00000000000E+00  0.32741724305E+02  0.20791773664E+04  0.20789195513E+04 0.  0.
        4    1    3    3  502    0  0.45626834192E+03 -0.78742617923E+03  0.51868231402E+03  0.10474988035E+04  0.12699999809E+01 0. -1.
       -4    1    3    3    0  502 -0.45626834192E+03  0.78742617923E+03 -0.48594058971E+03  0.10316785629E+04  0.12699999809E+01 0.  1.
</event>
<event>
 5   0  0.8547605E-05  0.2093392E+04  0.7818609E-02  0.8564160E-01
       -2   -1    0    0    0  501  0.00000000000E+00  0.00000000000E+00  0.55974628722E+03  0.55974628723E+03  0.25500000920E-02 0. -1.
        2   -1    0    0  501    0  0.00000000000E+00  0.00000000000E+00 -0.19572658116E+04  0.19572658116E+04  0.25500000920E-02 0.  1.
    10030    2    1    2    0    0  0.00000000000E+00  0.00000000000E+00 -0.13975195243E+04  0.25170120988E+04  0.20933917657E+04 0.  0.
        4    1    3    3  502    0 -0.41952402170E+03 -0.86622266274E+03 -0.11933796912E+04  0.15331336558E+04  0.12699999809E+01 0.  1.
       -4    1    3    3    0  502  0.41952402170E+03  0.86622266274E+03 -0.20413983313E+03  0.98387844300E+03  0.12699999809E+01 0. -1.
</event>
<event>
 5   0  0.8872777E-05  0.2100321E+04  0.7818609E-02  0.8561102E-01
        2   -1    0    0  501    0  0.00000000000E+00  0.00000000000E+00  0.59952805656E+03  0.59952805657E+03  0.25500000920E-02 0. -1.
       -2   -1    0    0    0  501  0.00000000000E+00  0.00000000000E+00 -0.18395091678E+04  0.18395091678E+04  0.25500000920E-02 0.  1.
    10030    2    1    2    0    0  0.00000000000E+00  0.00000000000E+00 -0.12399811113E+04  0.24390372244E+04  0.21003212672E+04 0.  0.
        3    1    3    3  502    0 -0.33297949199E+03 -0.59212286558E+03  0.31000548600E+03  0.74671831475E+03  0.10100000352E+00 0. -1.
       -3    1    3    3    0  502  0.33297949199E+03  0.59212286558E+03 -0.15499865973E+04  0.16923189096E+04  0.10100000352E+00 0.  1.
</event>
<event>
 5   0  0.4200061E-05  0.2031468E+04  0.7818609E-02  0.8592048E-01
       -1   -1    0    0    0  501  0.00000000000E+00  0.00000000000E+00  0.10702568257E+04  0.10702568257E+04  0.50400001928E-02 0. -1.
        1   -1    0    0  501    0  0.00000000000E+00  0.00000000000E+00 -0.96398899568E+03  0.96398899569E+03  0.50400001928E-02 0.  1.
    10030    2    1    2    0    0  0.00000000000E+00  0.00000000000E+00  0.10626783003E+03  0.20342458214E+04  0.20314682400E+04 0.  0.
        4    1    3    3  502    0 -0.46725897717E+03 -0.38417819273E+03  0.87020933352E+03  0.10598064599E+04  0.12699999809E+01 0. -1.
       -4    1    3    3    0  502  0.46725897717E+03  0.38417819273E+03 -0.76394150349E+03  0.97443936146E+03  0.12699999809E+01 0.  1.
</event>
<event>
 5   0  0.4050368E-05  0.2010584E+04  0.7818609E-02  0.8601688E-01
       -1   -1    0    0    0  501  0.00000000000E+00  0.00000000000E+00  0.65420616250E+03  0.65420616252E+03  0.50400001928E-02 0. -1.
        1   -1    0    0  501    0  0.00000000000E+00  0.00000000000E+00 -0.15447916215E+04  0.15447916215E+04  0.50400001928E-02 0.  1.
    10030    2    1    2    0    0  0.00000000000E+00  0.00000000000E+00 -0.89058545902E+03  0.21989977840E+04  0.20105841923E+04 0.  0.
        2    1    3    3  502    0  0.62159267808E+03 -0.29992169350E+03  0.35415060392E+03  0.77572748432E+03  0.25500000920E-02 0. -1.
       -2    1    3    3    0  502 -0.62159267808E+03  0.29992169350E+03 -0.12447360629E+04  0.14232702997E+04  0.25500000920E-02 0.  1.
</event>
<event>
 5   0  0.8872777E-05  0.2094303E+04  0.7818609E-02  0.8563757E-01
        2   -1    0    0  501    0  0.00000000000E+00  0.00000000000E+00  0.10684519765E+04  0.10684519765E+04  0.25500000920E-02 0.  1.
       -2   -1    0    0    0  501  0.00000000000E+00  0.00000000000E+00 -0.10262756456E+04  0.10262756456E+04  0.25500000920E-02 0. -1.
    10030    2    1    2    0    0  0.00000000000E+00  0.00000000000E+00  0.42176330920E+02  0.20947276221E+04  0.20943029790E+04 0.  0.
        3    1    3    3  502    0  0.88615684794E+03  0.42641943216E+03 -0.33873294010E+03  0.10401189866E+04  0.10100000352E+00 0.  1.
       -3    1    3    3    0  502 -0.88615684794E+03 -0.42641943216E+03  0.38090927102E+03  0.10546086356E+04  0.10100000352E+00 0. -1.
</event>
<event>
 5   0  0.8547605E-05  0.2124323E+04  0.7818609E-02  0.8550604E-01
       -2   -1    0    0    0  501  0.00000000000E+00  0.00000000000E+00  0.68935465664E+03  0.68935465665E+03  0.25500000920E-02 0. -1.
        2   -1    0    0  501    0  0.00000000000E+00  0.00000000000E+00 -0.16365849817E+04  0.16365849817E+04  0.25500000920E-02 0.  1.
    10030    2    1    2    0    0  0.00000000000E+00  0.00000000000E+00 -0.94723032503E+03  0.23259396383E+04  0.21243234011E+04 0.  0.
        4    1    3    3  502    0  0.31866593170E+03 -0.10366648387E+03 -0.15771889974E+04  0.16123961865E+04  0.12699999809E+01 0.  1.
       -4    1    3    3    0  502 -0.31866593170E+03  0.10366648387E+03  0.62995867233E+03  0.71354345183E+03  0.12699999809E+01 0. -1.
</event>
<event>
 5   0  0.8547605E-05  0.2099663E+04  0.7818609E-02  0.8561392E-01
        2   -1    0    0  501    0  0.00000000000E+00  0.00000000000E+00  0.14541096428E+04  0.14541096428E+04  0.25500000920E-02 0.  1.
       -2   -1    0    0    0  501  0.00000000000E+00  0.00000000000E+00 -0.75795288270E+03  0.75795288271E+03  0.25500000920E-02 0. -1.
    10030    2    1    2    0    0  0.00000000000E+00  0.00000000000E+00  0.69615676010E+03  0.22120625255E+04  0.20996633973E+04 0.  0.
        4    1    3    3  502    0 -0.27978209049E+03  0.90412961763E+03  0.82673054782E+03  0.12566675755E+04  0.12699999809E+01 0.  1.
       -4    1    3    3    0  502  0.27978209049E+03 -0.90412961763E+03 -0.13057378772E+03  0.95539495004E+03  0.12699999809E+01 0. -1.
</event>
<event>
 5   0  0.4174093E-05  0.1875866E+04  0.7818609E-02  0.8666964E-01
        1   -1    0    0  501    0  0.00000000000E+00  0.00000000000E+00  0.11120826304E+04  0.11120826304E+04  0.50400001928E-02 0.  1.
       -1   -1    0    0    0  501  0.00000000000E+00  0.00000000000E+00 -0.79105477338E+03  0.79105477340E+03  0.50400001928E-02 0. -1.
    10030    2    1    2    0    0  0.00000000000E+00  0.00000000000E+00  0.32102785699E+03  0.19031374038E+04  0.18758659581E+04 0.  0.
        3    1    3    3  502    0 -0.81565664725E+02 -0.37151260093E+03 -0.70929712092E+03  0.80484593945E+03  0.10100000352E+00 0. -1.
       -3    1    3    3    0  502  0.81565664725E+02  0.37151260093E+03  0.10303249779E+04  0.10982914643E+04  0.10100000352E+00 0.  1.
</event>
<event>
 5   0  0.4182977E-05  0.2343557E+04  0.7818609E-02  0.8460942E-01
        1   -1    0    0  501    0  0.00000000000E+00  0.00000000000E+00  0.13536543374E+04  0.13536543374E+04  0.50400001928E-02 0.  1.
       -1   -1    0    0    0  501  0.00000000000E+00  0.00000000000E+00 -0.10143397494E+04  0.10143397494E+04  0.50400001928E-02 0. -1.
    10030    2    1    2    0    0  0.00000000000E+00  0.00000000000E+00  0.33931458798E+03  0.23679940868E+04  0.23435574680E+04 0.  0.
        1    1    3    3  502    0  0.10641313815E+04  0.31219242744E+03  0.55205517006E+03  0.12387915965E+04  0.50400001928E-02 0. -1.
       -1    1    3    3    0  502 -0.10641313815E+04 -0.31219242744E+03 -0.21274058208E+03  0.11292024903E+04  0.50400001928E-02 0.  1.
</event>
<event>
 5   0  0.4050368E-05  0.2099449E+04  0.7818609E-02  0.8561486E-01
       -1   -1    0    0    0  501  0.00000000000E+00  0.00000000000E+00  0.91131260362E+03  0.91131260363E+03  0.50400001928E-02 0. -1.
        1   -1    0    0  501    0  0.00000000000E+00  0.00000000000E+00 -0.12091590456E+04  0.12091590456E+04  0.50400001928E-02 0.  1.
    10030    2    1    2    0    0  0.00000000000E+00  0.00000000000E+00 -0.29784644197E+03  0.21204716492E+04  0.20994493355E+04 0.  0.
        2    1    3    3  502    0  0.13487413097E+03  0.10005322139E+04  0.14147295314E+03  0.10194460941E+04  0.25500000920E-02 0. -1.
       -2    1    3    3    0  502 -0.13487413097E+03 -0.10005322139E+04 -0.43931939511E+03  0.11010255552E+04  0.25500000920E-02 0.  1.
</event>
<event>
 5   0  0.8858590E-05  0.2260812E+04  0.7818609E-02  0.8493535E-01
       -2   -1    0    0    0  501  0.00000000000E+00  0.00000000000E+00  0.17098035429E+04  0.17098035429E+04  0.25500000920E-02 0. -1.
        2   -1    0    0  501    0  0.00000000000E+00  0.00000000000E+00 -0.74734750384E+03  0.74734750384E+03  0.25500000920E-02 0.  1.
    10030    2    1    2    0    0  0.00000000000E+00  0.00000000000E+00  0.96245603908E+03  0.24571510468E+04  0.22608117214E+04 0.  0.
        1    1    3    3  502    0 -0.72773580931E+03 -0.39543320957E+03  0.13173574235E+04  0.15560839993E+04  0.50400001928E-02 0. -1.
       -1    1    3    3    0  502  0.72773580931E+03  0.39543320957E+03 -0.35490138446E+03  0.90106704750E+03  0.50400001928E-02 0.  1.
</event>
<event>
 5   0  0.8547605E-05  0.2102637E+04  0.7818609E-02  0.8560083E-01
       -2   -1    0    0    0  501  0.00000000000E+00  0.00000000000E+00  0.43751325628E+03  0.43751325629E+03  0.25500000920E-02 0.  1.
        2   -1    0    0  501    0  0.00000000000E+00  0.00000000000E+00 -0.25262554272E+04  0.25262554272E+04  0.25500000920E-02 0. -1.
    10030    2    1    2    0    0  0.00000000000E+00  0.00000000000E+00 -0.20887421709E+04  0.29637686835E+04  0.21026366668E+04 0.  0.
        4    1    3    3  502    0 -0.53087822995E+03 -0.94572374428E+02 -0.23164783956E+04  0.23784132104E+04  0.12699999809E+01 0. -1.
       -4    1    3    3    0  502  0.53087822995E+03  0.94572374428E+02  0.22773622465E+03  0.58535547316E+03  0.12699999809E+01 0.  1.
</event>
<event>
 5   0  0.4128678E-05  0.2107195E+04  0.7818609E-02  0.8558081E-01
       -1   -1    0    0    0  501  0.00000000000E+00  0.00000000000E+00  0.12889250096E+04  0.12889250096E+04  0.50400001928E-02 0.  1.
        1   -1    0    0  501    0  0.00000000000E+00  0.00000000000E+00 -0.86123493342E+03  0.86123493343E+03  0.50400001928E-02 0. -1.
    10030    2    1    2    0    0  0.00000000000E+00  0.00000000000E+00  0.42769007621E+03  0.21501599431E+04  0.21071945756E+04 0.  0.
        5    1    3    3  502    0  0.21887811591E+03  0.82048323150E+02 -0.83443139874E+03  0.86656644648E+03  0.46999998093E+01 0. -1.
       -5    1    3    3    0  502 -0.21887811591E+03 -0.82048323150E+02  0.12621214750E+04  0.12835934966E+04  0.46999998093E+01 0.  1.
</event>
<event>
 5   0  0.8858590E-05  0.2103987E+04  0.7818609E-02  0.8559489E-01
        2   -1    0    0  501    0  0.00000000000E+00  0.00000000000E+00  0.10279206312E+04  0.10279206312E+04  0.25500000920E-02 0.  1.
       -2   -1    0    0    0  501  0.00000000000E+00  0.00000000000E+00 -0.10766302739E+04  0.10766302739E+04  0.25500000920E-02 0. -1.
    10030    2    1    2    0    0  0.00000000000E+00  0.00000000000E+00 -0.48709642629E+02  0.21045509051E+04  0.21039871395E+04 0.  0.
        1    1    3    3  502    0 -0.44090493858E+03  0.62060991680E+03 -0.75059112484E+03  0.10690841269E+04  0.50400001928E-02 0. -1.
       -1    1    3    3    0  502  0.44090493858E+03 -0.62060991680E+03  0.70188148221E+03  0.10354667782E+04  0.50400001928E-02 0.  1.
</event>
<event>
 5   0  0.4174093E-05  0.2121875E+04  0.7818609E-02  0.8551668E-01
       -1   -1    0    0    0  501  0.00000000000E+00  0.00000000000E+00  0.63213239445E+03  0.63213239447E+03  0.50400001928E-02 0. -1.
        1   -1    0    0  501    0  0.00000000000E+00  0.00000000000E+00 -0.17806214799E+04  0.17806214799E+04  0.50400001928E-02 0.  1.
    10030    2    1    2    0    0  0.00000000000E+00  0.00000000000E+00 -0.11484890855E+04  0.24127538744E+04  0.21218751328E+04 0.  0.
        3    1    3    3  502    0 -0.63977444412E+03 -0.84623560115E+03 -0.58873859750E+03  0.12132762169E+04  0.10100000352E+00 0. -1.
       -3    1    3    3    0  502  0.63977444412E+03  0.84623560115E+03 -0.55975048798E+03  0.11994776576E+04  0.10100000352E+00 0.  1.
</event>
<event>
 5   0  0.4128678E-05  0.2056087E+04  0.7818609E-02  0.8580838E-01
        1   -1    0    0  501    0  0.00000000000E+00  0.00000000000E+00  0.18512487191E+04  0.18512487191E+04  0.50400001928E-02 0.  1.
       -1   -1    0    0    0  501  0.00000000000E+00  0.00000000000E+00 -0.57089765850E+03  0.57089765852E+03  0.50400001928E-02 0. -1.
    10030    2    1    2    0    0  0.00000000000E+00  0.00000000000E+00  0.12803510606E+04  0.24221463776E+04  0.20560871179E+04 0.  0.
        5    1    3    3  502    0  0.50081211802E+03  0.88888306950E+03  0.78883976722E+03  0.12896573798E+04  0.46999998093E+01 0.  1.
       -5    1    3    3    0  502 -0.50081211802E+03 -0.88888306950E+03  0.49151129340E+03  0.11324889979E+04  0.46999998093E+01 0. -1.
</event>
<event>
 5   0  0.4128678E-05  0.2120883E+04  0.7818609E-02  0.8552100E-01
        1   -1    0    0  501    0  0.00000000000E+00  0.00000000000E+00  0.23919588790E+04  0.23919588790E+04  0.50400001928E-02 0. -1.
       -1   -1    0    0    0  501  0.00000000000E+00  0.00000000000E+00 -0.47013184820E+03  0.47013184823E+03  0.50400001928E-02 0.  1.
    10030    2    1    2    0    0  0.00000000000E+00  0.00000000000E+00  0.19218270308E+04  0.28620907272E+04  0.21208828809E+04 0.  0.
        5    1    3    3  502    0 -0.24843574395E+03  0.77074708553E+03  0.36994493941E+02  0.81065533447E+03  0.46999998093E+01 0.  1.
       -5    1    3    3    0  502  0.24843574395E+03 -0.77074708553E+03  0.18848325369E+04  0.20514353928E+04  0.46999998093E+01 0. -1.
</event>
<event>
 5   0  0.9086985E-05  0.2095467E+04  0.7818609E-02  0.8563243E-01
        2   -1    0    0  501    0  0.00000000000E+00  0.00000000000E+00  0.11053512452E+04  0.11053512452E+04  0.25500000920E-02 0.  1.
       -2   -1    0    0    0  501  0.00000000000E+00  0.00000000000E+00 -0.99311959194E+03  0.99311959194E+03  0.25500000920E-02 0. -1.
    10030    2    1    2    0    0  0.00000000000E+00  0.00000000000E+00  0.11223165323E+03  0.20984708371E+04  0.20954674682E+04 0.  0.
        5    1    3    3  502    0 -0.80048629271E+03  0.21970670556E+03  0.69630866245E+03  0.10834745889E+04  0.46999998093E+01 0. -1.
       -5    1    3    3    0  502  0.80048629271E+03 -0.21970670556E+03 -0.58407700922E+03  0.10149962483E+04  0.46999998093E+01 0.  1.
</event>
<event>
 5   0  0.9086985E-05  0.2119408E+04  0.7818609E-02  0.8552742E-01
        2   -1    0    0  501    0  0.00000000000E+00  0.00000000000E+00  0.18924265309E+04  0.18924265309E+04  0.25500000920E-02 0.  1.
       -2   -1    0    0    0  501  0.00000000000E+00  0.00000000000E+00 -0.59340360889E+03  0.59340360889E+03  0.25500000920E-02 0. -1.
    10030    2    1    2    0    0  0.00000000000E+00  0.00000000000E+00  0.12990229220E+04  0.24858301398E+04  0.21194081561E+04 0.  0.
        5    1    3    3  502    0 -0.21130472836E+03  0.38385228296E+03  0.17811871356E+04  0.18342960408E+04  0.46999998093E+01 0.  1.
       -5    1    3    3    0  502  0.21130472836E+03 -0.38385228296E+03 -0.48216421354E+03  0.65153409902E+03  0.46999998093E+01 0. -1.
</event>
<event>
 5   0  0.8547605E-05  0.2112635E+04  0.7818609E-02  0.8555698E-01
        2   -1    0    0  501    0  0.00000000000E+00  0.00000000000E+00  0.13444075326E+04  0.13444075326E+04  0.25500000920E-02 0.  1.
       -2   -1    0    0    0  501  0.00000000000E+00  0.00000000000E+00 -0.82996157238E+03  0.82996157239E+03  0.25500000920E-02 0. -1.
    10030    2    1    2    0    0  0.00000000000E+00  0.00000000000E+00  0.51444596019E+03  0.21743691050E+04  0.21126349327E+04 0.  0.
        4    1    3    3  502    0 -0.20878686123E+03  0.49540089937E+03  0.11930739073E+04  0.13086026768E+04  0.12699999809E+01 0.  1.
       -4    1    3    3    0  502  0.20878686123E+03 -0.49540089937E+03 -0.67862794716E+03  0.86576642813E+03  0.12699999809E+01 0. -1.
</event>
<event>
 5   0  0.4182977E-05  0.2100604E+04  0.7818609E-02  0.8560977E-01
       -1   -1    0    0    0  501  0.00000000000E+00  0.00000000000E+00  0.75009431713E+03  0.75009431715E+03  0.50400001928E-02 0.  1.
        1   -1    0    0  501    0  0.00000000000E+00  0.00000000000E+00 -0.14706603166E+04  0.14706603166E+04  0.50400001928E-02 0. -1.
    10030    2    1    2    0    0  0.00000000000E+00  0.00000000000E+00 -0.72056599948E+03  0.22207546338E+04  0.21006036713E+04 0.  0.
        1    1    3    3  502    0  0.75382895432E+03 -0.24627093292E+03  0.36774713758E+03  0.87415411799E+03  0.50400001928E-02 0.  1.
       -1    1    3    3    0  502 -0.75382895432E+03  0.24627093292E+03 -0.10883131371E+04  0.13466005158E+04  0.50400001928E-02 0. -1.
</event>
<event>
 5   0  0.9086985E-05  0.2362238E+04  0.7818609E-02  0.8453778E-01
       -2   -1    0    0    0  501  0.00000000000E+00  0.00000000000E+00  0.64459536464E+03  0.64459536465E+03  0.25500000920E-02 0. -1.
        2   -1    0    0  501    0  0.00000000000E+00  0.00000000000E+00 -0.21642133710E+04  0.21642133710E+04  0.25500000920E-02 0.  1.
    10030    2    1    2    0    0  0.00000000000E+00  0.00000000000E+00 -0.15196180064E+04  0.28088087357E+04  0.23622378433E+04 0.  0.
        5    1    3    3  502    0  0.82352177818E+03 -0.15600637748E+02 -0.17663544913E+04  0.19489642834E+04  0.46999998093E+01 0.  1.
       -5    1    3    3    0  502 -0.82352177818E+03  0.15600637748E+02  0.24673648496E+03  0.85984445224E+03  0.46999998093E+01 0. -1.
</event>
<event>
 5   0  0.4128678E-05  0.2149695E+04  0.7818609E-02  0.8539663E-01
       -1   -1    0    0    0  501  0.00000000000E+00  0.00000000000E+00  0.84436983256E+03  0.84436983258E+03  0.50400001928E-02 0.  1.
        1   -1    0    0  501    0  0.00000000000E+00  0.00000000000E+00 -0.13682353992E+04  0.13682353992E+04  0.50400001928E-02 0. -1.
    10030    2    1    2    0    0  0.00000000000E+00  0.00000000000E+00 -0.52386556666E+03  0.22126052318E+04  0.21496945783E+04 0.  0.
        5    1    3    3  502    0  0.20451342541E+03  0.24715180816E+03 -0.13178025149E+04  0.13562947009E+04  0.46999998093E+01 0. -1.
       -5    1    3    3    0  502 -0.20451342541E+03 -0.24715180816E+03  0.79393694827E+03  0.85631053087E+03  0.46999998093E+01 0.  1.
</event>
<event>
 5   0  0.8872777E-05  0.2224052E+04  0.7818609E-02  0.8508483E-01
       -2   -1    0    0    0  501  0.00000000000E+00  0.00000000000E+00  0.94998761473E+03  0.94998761473E+03  0.25500000920E-02 0. -1.
        2   -1    0    0  501    0  0.00000000000E+00  0.00000000000E+00 -0.13017028879E+04  0.13017028879E+04  0.25500000920E-02 0.  1.
    10030    2    1    2    0    0  0.00000000000E+00  0.00000000000E+00 -0.35171527315E+03  0.22516905026E+04  0.22240518173E+04 0.  0.
        3    1    3    3  502    0  0.53832399357E+03  0.59616077163E+03 -0.95444061336E+03  0.12474603330E+04  0.10100000352E+00 0.  1.
       -3    1    3    3    0  502 -0.53832399357E+03 -0.59616077163E+03  0.60272534021E+03  0.10042301696E+04  0.10100000352E+00 0. -1.
</event>
<event>
 5   0  0.9086985E-05  0.2098234E+04  0.7818609E-02  0.8562022E-01
        2   -1    0    0  501    0  0.00000000000E+00  0.00000000000E+00  0.16487674883E+04  0.16487674883E+04  0.25500000920E-02 0.  1.
       -2   -1    0    0    0  501  0.00000000000E+00  0.00000000000E+00 -0.66755695830E+03  0.66755695830E+03  0.25500000920E-02 0. -1.
    10030    2    1    2    0    0  0.00000000000E+00  0.00000000000E+00  0.98121052998E+03  0.23163244466E+04  0.20982337424E+04 0.  0.
        5    1    3    3  502    0  0.70961254970E+02 -0.53926833693E+03 -0.49973320005E+03  0.73864822491E+03  0.46999998093E+01 0. -1.
       -5    1    3    3    0  502 -0.70961254970E+02  0.53926833693E+03  0.14809437300E+04  0.15776762217E+04  0.46999998093E+01 0.  1.
</event>
<event>
 5   0  0.4200061E-05  0.2104263E+04  0.7818609E-02  0.8559368E-01
       -1   -1    0    0    0  501  0.00000000000E+00  0.00000000000E+00  0.84443657851E+03  0.84443657852E+03  0.50400001928E-02 0.  1.
        1   -1    0    0  501    0  0.00000000000E+00  0.00000000000E+00 -0.13109100108E+04  0.13109100108E+04  0.50400001928E-02 0. -1.
    10030    2    1    2    0    0  0.00000000000E+00  0.00000000000E+00 -0.46647343230E+03  0.21553465893E+04  0.21042626873E+04 0.  0.
        4    1    3    3  502    0 -0.26298780387E+03  0.79539104930E+02  0.80704175198E+03  0.85252979804E+03  0.12699999809E+01 0.  1.
       -4    1    3    3    0  502  0.26298780387E+03 -0.79539104930E+02 -0.12735151843E+04  0.13028167913E+04  0.12699999809E+01 0. -1.
</event>
<event>
 5   0  0.8872777E-05  0.2106623E+04  0.7818609E-02  0.8558332E-01
        2   -1    0    0  501    0  0.00000000000E+00  0.00000000000E+00  0.17670968941E+04  0.17670968941E+04  0.25500000920E-02 0.  1.
       -2   -1    0    0    0  501  0.00000000000E+00  0.00000000000E+00 -0.62784615162E+03  0.62784615163E+03  0.25500000920E-02 0. -1.
    10030    2    1    2    0    0  0.00000000000E+00  0.00000000000E+00  0.11392507425E+04  0.23949430457E+04  0.21066228751E+04 0.  0.
        3    1    3    3  502    0 -0.81112268864E+03  0.83005470934E+02 -0.18846330356E+03  0.83685623092E+03  0.10100000352E+00 0. -1.
       -3    1    3    3    0  502  0.81112268864E+03 -0.83005470934E+02  0.13277140460E+04  0.15580868148E+04  0.10100000352E+00 0.  1.
</event>
<event>
 5   0  0.9012466E-05  0.2108064E+04  0.7818609E-02  0.8557699E-01
        2   -1    0    0  501    0  0.00000000000E+00  0.00000000000E+00  0.10461173043E+04  0.10461173043E+04  0.25500000920E-02 0.  1.
       -2   -1    0    0    0  501  0.00000000000E+00  0.00000000000E+00 -0.10620067249E+04  0.10620067249E+04  0.25500000920E-02 0. -1.
    10030    2    1    2    0    0  0.00000000000E+00  0.00000000000E+00 -0.15889420597E+02  0.21081240292E+04  0.21080641472E+04 0.  0.
        2    1    3    3  502    0 -0.65701778781E+03 -0.45989426385E+03 -0.69192941952E+03  0.10592173663E+04  0.25500000920E-02 0. -1.
       -2    1    3    3    0  502  0.65701778781E+03  0.45989426385E+03  0.67603999893E+03  0.10489066629E+04  0.25500000920E-02 0.  1.
</event>
<event>
 5   0  0.8547605E-05  0.2110092E+04  0.7818609E-02  0.8556811E-01
       -2   -1    0    0    0  501  0.00000000000E+00  0.00000000000E+00  0.62117508173E+03  0.62117508174E+03  0.25500000920E-02 0.  1.
        2   -1    0    0  501    0  0.00000000000E+00  0.00000000000E+00 -0.17919626149E+04  0.17919626149E+04  0.25500000920E-02 0. -1.
    10030    2    1    2    0    0  0.00000000000E+00  0.00000000000E+00 -0.11707875332E+04  0.24131376967E+04  0.21100924376E+04 0.  0.
        4    1    3    3  502    0  0.26614999719E+03 -0.87559985714E+03  0.14988827322E+02  0.91527985265E+03  0.12699999809E+01 0.  1.
       -4    1    3    3    0  502 -0.26614999719E+03  0.87559985714E+03 -0.11857763605E+04  0.14978578440E+04  0.12699999809E+01 0. -1.
</event>
<event>
 5   0  0.8872777E-05  0.2104192E+04  0.7818609E-02  0.8559399E-01
       -2   -1    0    0    0  501  0.00000000000E+00  0.00000000000E+00  0.71077696758E+03  0.71077696759E+03  0.25500000920E-02 0.  1.
        2   -1    0    0  501    0  0.00000000000E+00  0.00000000000E+00 -0.15573179904E+04  0.15573179904E+04  0.25500000920E-02 0. -1.
    10030    2    1    2    0    0  0.00000000000E+00  0.00000000000E+00 -0.84654102279E+03  0.22680949580E+04  0.21041917772E+04 0.  0.
        3    1    3    3  502    0 -0.78778074161E+03  0.64889518785E+03 -0.69859224903E+03  0.12368082318E+04  0.10100000352E+00 0.  1.
       -3    1    3    3    0  502  0.78778074161E+03 -0.64889518785E+03 -0.14794877376E+03  0.10312867261E+04  0.10100000352E+00 0. -1.
</event>
<event>
 5   0  0.8858590E-05  0.2098850E+04  0.7818609E-02  0.8561750E-01
        2   -1    0    0  501    0  0.00000000000E+00  0.00000000000E+00  0.13627819304E+04  0.13627819304E+04  0.25500000920E-02 0.  1.
       -2   -1    0    0    0  501  0.00000000000E+00  0.00000000000E+00 -0.80812129721E+03  0.80812129721E+03  0.25500000920E-02 0. -1.
    10030    2    1    2    0    0  0.00000000000E+00  0.00000000000E+00  0.55466063315E+03  0.21709032276E+04  0.20988502580E+04 0.  0.
        1    1    3    3  502    0 -0.51589196592E+02 -0.98927235177E+03 -0.80930015187E+02  0.99391694751E+03  0.50400001928E-02 0. -1.
       -1    1    3    3    0  502  0.51589196592E+02  0.98927235177E+03  0.63559064834E+03  0.11769862801E+04  0.50400001928E-02 0.  1.
</event>
<event>
 5   0  0.8858590E-05  0.2219829E+04  0.7818609E-02  0.8510220E-01
       -2   -1    0    0    0  501  0.00000000000E+00  0.00000000000E+00  0.12812388077E+04  0.12812388077E+04  0.25500000920E-02 0. -1.
        2   -1    0    0  501    0  0.00000000000E+00  0.00000000000E+00 -0.96149888496E+03  0.96149888496E+03  0.25500000920E-02 0.  1.
    10030    2    1    2    0    0  0.00000000000E+00  0.00000000000E+00  0.31973992275E+03  0.22427376927E+04  0.22198285384E+04 0.  0.
        1    1    3    3  502    0 -0.35002384994E+03  0.10527911334E+04  0.12754257383E+03  0.11167600343E+04  0.50400001928E-02 0. -1.
       -1    1    3    3    0  502  0.35002384994E+03 -0.10527911334E+04  0.19219734892E+03  0.11259776583E+04  0.50400001928E-02 0.  1.
</event>
<event>
 5   0  0.4182977E-05  0.2066939E+04  0.7818609E-02  0.8575949E-01
       -1   -1    0    0    0  501  0.00000000000E+00  0.00000000000E+00  0.12765641627E+04  0.12765641627E+04  0.50400001928E-02 0. -1.
        1   -1    0    0  501    0  0.00000000000E+00  0.00000000000E+00 -0.83666686648E+03  0.83666686650E+03  0.50400001928E-02 0.  1.
    10030    2    1    2    0    0  0.00000000000E+00  0.00000000000E+00  0.43989729623E+03  0.21132310292E+04  0.20669387392E+04 0.  0.
        1    1    3    3  502    0 -0.67939334742E+03 -0.54029856128E+03  0.79336737077E+03  0.11759802893E+04  0.50400001928E-02 0. -1.
       -1    1    3    3    0  502  0.67939334742E+03  0.54029856128E+03 -0.35347007453E+03  0.93725073991E+03  0.50400001928E-02 0.  1.
</event>
<event>
 5   0  0.4050368E-05  0.2092255E+04  0.7818609E-02  0.8564663E-01
       -1   -1    0    0    0  501  0.00000000000E+00  0.00000000000E+00  0.12031140569E+04  0.12031140569E+04  0.50400001928E-02 0. -1.
        1   -1    0    0  501    0  0.00000000000E+00  0.00000000000E+00 -0.90962495291E+03  0.90962495292E+03  0.50400001928E-02 0.  1.
    10030    2    1    2    0    0  0.00000000000E+00  0.00000000000E+00  0.29348910395E+03  0.21127390098E+04  0.20922548290E+04 0.  0.
        2    1    3    3  502    0 -0.30875281405E+03 -0.99549517274E+03  0.23730890028E+03  0.10689501641E+04  0.25500000920E-02 0.  1.
       -2    1    3    3    0  502  0.30875281405E+03  0.99549517274E+03  0.56180203662E+02  0.10437888457E+04  0.25500000920E-02 0. -1.
</event>
<event>
 5   0  0.8858590E-05  0.2051686E+04  0.7818609E-02  0.8582830E-01
       -2   -1    0    0    0  501  0.00000000000E+00  0.00000000000E+00  0.58492736382E+03  0.58492736383E+03  0.25500000920E-02 0. -1.
        2   -1    0    0  501    0  0.00000000000E+00  0.00000000000E+00 -0.17991189861E+04  0.17991189861E+04  0.25500000920E-02 0.  1.
    10030    2    1    2    0    0  0.00000000000E+00  0.00000000000E+00 -0.12141916223E+04  0.23840463500E+04  0.20516860635E+04 0.  0.
        1    1    3    3  502    0  0.56803548560E+03  0.30200631787E+02 -0.15990720614E+04  0.16972353545E+04  0.50400001928E-02 0.  1.
       -1    1    3    3    0  502 -0.56803548560E+03 -0.30200631787E+02  0.38488043908E+03  0.68681099545E+03  0.50400001928E-02 0. -1.
</event>
<event>
 5   0  0.4174093E-05  0.2087521E+04  0.7818609E-02  0.8566760E-01
       -1   -1    0    0    0  501  0.00000000000E+00  0.00000000000E+00  0.92958216812E+03  0.92958216813E+03  0.50400001928E-02 0.  1.
        1   -1    0    0  501    0  0.00000000000E+00  0.00000000000E+00 -0.11719635503E+04  0.11719635504E+04  0.50400001928E-02 0. -1.
    10030    2    1    2    0    0  0.00000000000E+00  0.00000000000E+00 -0.24238138222E+03  0.21015457185E+04  0.20875214184E+04 0.  0.
        3    1    3    3  502    0 -0.21999018869E+03 -0.97213587223E+03  0.19071745218E+03  0.10147989919E+04  0.10100000352E+00 0.  1.
       -3    1    3    3    0  502  0.21999018869E+03  0.97213587223E+03 -0.43309883440E+03  0.10867467266E+04  0.10100000352E+00 0. -1.
</event>
<event>
 5   0  0.9086985E-05  0.2062871E+04  0.7818609E-02  0.8577778E-01
       -2   -1    0    0    0  501  0.00000000000E+00  0.00000000000E+00  0.58478673618E+03  0.58478673619E+03  0.25500000920E-02 0.  1.
        2   -1    0    0  501    0  0.00000000000E+00  0.00000000000E+00 -0.18192256142E+04  0.18192256142E+04  0.25500000920E-02 0. -1.
    10030    2    1    2    0    0  0.00000000000E+00  0.00000000000E+00 -0.12344388780E+04  0.24040123504E+04  0.20628708242E+04 0.  0.
        5    1    3    3  502    0 -0.42617135172E+03 -0.79503412369E+03 -0.34375279194E+02  0.90272090298E+03  0.46999998093E+01 0.  1.
       -5    1    3    3    0  502  0.42617135172E+03  0.79503412369E+03 -0.12000635988E+04  0.15012914474E+04  0.46999998093E+01 0. -1.
</event>
<event>
 5   0  0.4174093E-05  0.2097745E+04  0.7818609E-02  0.8562237E-01
       -1   -1    0    0    0  501  0.00000000000E+00  0.00000000000E+00  0.75940546149E+03  0.75940546151E+03  0.50400001928E-02 0. -1.
        1   -1    0    0  501    0  0.00000000000E+00  0.00000000000E+00 -0.14486773506E+04  0.14486773506E+04  0.50400001928E-02 0.  1.
    10030    2    1    2    0    0  0.00000000000E+00  0.00000000000E+00 -0.68927188910E+03  0.22080828121E+04  0.20977449721E+04 0.  0.
        3    1    3    3  502    0 -0.71324456167E+03  0.22847927566E+03  0.42829875422E+03  0.86276324518E+03  0.10100000352E+00 0. -1.
       -3    1    3    3    0  502  0.71324456167E+03 -0.22847927566E+03 -0.11175706433E+04  0.13453195669E+04  0.10100000352E+00 0.  1.
</event>
<event>
 5   0  0.9012466E-05  0.2037920E+04  0.7818609E-02  0.8589094E-01
       -2   -1    0    0    0  501  0.00000000000E+00  0.00000000000E+00  0.61218003509E+03  0.61218003509E+03  0.25500000920E-02 0. -1.
        2   -1    0    0  501    0  0.00000000000E+00  0.00000000000E+00 -0.16960361161E+04  0.16960361161E+04  0.25500000920E-02 0.  1.
    10030    2    1    2    0    0  0.00000000000E+00  0.00000000000E+00 -0.10838560810E+04  0.23082161512E+04  0.20379199681E+04 0.  0.
        2    1    3    3  502    0 -0.37308283540E+03 -0.68508841613E+03  0.20056691684E+03  0.80545889288E+03  0.25500000920E-02 0. -1.
       -2    1    3    3    0  502  0.37308283540E+03  0.68508841613E+03 -0.12844229979E+04  0.15027572583E+04  0.25500000920E-02 0.  1.
</event>
<event>
 5   0  0.4200061E-05  0.2086987E+04  0.7818609E-02  0.8566998E-01
       -1   -1    0    0    0  501  0.00000000000E+00  0.00000000000E+00  0.68283072995E+03  0.68283072997E+03  0.50400001928E-02 0.  1.
        1   -1    0    0  501    0  0.00000000000E+00  0.00000000000E+00 -0.15946532626E+04  0.15946532626E+04  0.50400001928E-02 0. -1.
    10030    2    1    2    0    0  0.00000000000E+00  0.00000000000E+00 -0.91182253268E+03  0.22774839926E+04  0.20869865849E+04 0.  0.
        4    1    3    3  502    0 -0.10077067177E+04  0.26119625919E+03 -0.37736706454E+03  0.11072957279E+04  0.12699999809E+01 0. -1.
       -4    1    3    3    0  502  0.10077067177E+04 -0.26119625919E+03 -0.53445546814E+03  0.11701882648E+04  0.12699999809E+01 0.  1.
</event>
<event>
 5   0  0.4128678E-05  0.2183339E+04  0.7818609E-02  0.8525395E-01
       -1   -1    0    0    0  501  0.00000000000E+00  0.00000000000E+00  0.77305637308E+03  0.77305637310E+03  0.50400001928E-02 0.  1.
        1   -1    0    0  501    0  0.00000000000E+00  0.00000000000E+00 -0.15415983774E+04  0.15415983774E+04  0.50400001928E-02 0. -1.
    10030    2    1    2    0    0  0.00000000000E+00  0.00000000000E+00 -0.76854200427E+03  0.23146547505E+04  0.21833391403E+04 0.  0.
        5    1    3    3  502    0  0.29805416737E+03 -0.70505367140E+03 -0.12094035213E+04  0.14312986878E+04  0.46999998093E+01 0. -1.
       -5    1    3    3    0  502 -0.29805416737E+03  0.70505367140E+03  0.44086151706E+03  0.88335606267E+03  0.46999998093E+01 0.  1.
</event>
<event>
 5   0  0.4182977E-05  0.2099944E+04  0.7818609E-02  0.8561268E-01
       -1   -1    0    0    0  501  0.00000000000E+00  0.00000000000E+00  0.14673866692E+04  0.14673866692E+04  0.50400001928E-02 0. -1.
        1   -1    0    0  501    0  0.00000000000E+00  0.00000000000E+00 -0.75129541516E+03  0.75129541518E+03  0.50400001928E-02 0.  1.
    10030    2    1    2    0    0  0.00000000000E+00  0.00000000000E+00  0.71609125404E+03  0.22186820844E+04  0.20999436915E+04 0.  0.
        1    1    3    3  502    0  0.49404079092E+03  0.23715089070E+03  0.13043006332E+04  0.14147497976E+04  0.50400001928E-02 0. -1.
       -1    1    3    3    0  502 -0.49404079092E+03 -0.23715089070E+03 -0.58820937912E+03  0.80393228680E+03  0.50400001928E-02 0.  1.
</event>
<event>
 5   0  0.4050368E-05  0.2093309E+04  0.7818609E-02  0.8564196E-01
        1   -1    0    0  501    0  0.00000000000E+00  0.00000000000E+00  0.13367027387E+04  0.13367027387E+04  0.50400001928E-02 0.  1.
       -1   -1    0    0    0  501  0.00000000000E+00  0.00000000000E+00 -0.81954340204E+03  0.81954340205E+03  0.50400001928E-02 0. -1.
    10030    2    1    2    0    0  0.00000000000E+00  0.00000000000E+00  0.51715933664E+03  0.21562461407E+04  0.20933092557E+04 0.  0.
        2    1    3    3  502    0 -0.67829139371E+03 -0.54089953214E+03  0.86170439267E+03  0.12227779762E+04  0.25500000920E-02 0.  1.
       -2    1    3    3    0  502  0.67829139371E+03  0.54089953214E+03 -0.34454505603E+03  0.93346816458E+03  0.25500000920E-02 0. -1.
</event>
<event>
 5   0  0.8872777E-05  0.2070173E+04  0.7818609E-02  0.8574498E-01
       -2   -1    0    0    0  501  0.00000000000E+00  0.00000000000E+00  0.61937987244E+03  0.61937987245E+03  0.25500000920E-02 0. -1.
        2   -1    0    0  501    0  0.00000000000E+00  0.00000000000E+00 -0.17298003906E+04  0.17298003906E+04  0.25500000920E-02 0.  1.
    10030    2    1    2    0    0  0.00000000000E+00  0.00000000000E+00 -0.11104205182E+04  0.23491802631E+04  0.20701725003E+04 0.  0.
        3    1    3    3  502    0 -0.95007906732E+03 -0.21453066087E+03 -0.95275406589E+03  0.13625028289E+04  0.10100000352E+00 0.  1.
       -3    1    3    3    0  502  0.95007906732E+03  0.21453066087E+03 -0.15766645228E+03  0.98667743411E+03  0.10100000352E+00 0. -1.
</event>
<event>
 5   0  0.8858590E-05  0.2108986E+04  0.7818609E-02  0.8557295E-01
       -2   -1    0    0    0  501  0.00000000000E+00  0.00000000000E+00  0.64162243895E+03  0.64162243896E+03  0.25500000920E-02 0.  1.
        2   -1    0    0  501    0  0.00000000000E+00  0.00000000000E+00 -0.17330370930E+04  0.17330370930E+04  0.25500000920E-02 0. -1.
    10030    2    1    2    0    0  0.00000000000E+00  0.00000000000E+00 -0.10914146541E+04  0.23746595320E+04  0.21089859994E+04 0.  0.
        1    1    3    3  502    0  0.16101654701E+03 -0.32471930740E+01  0.62769322717E+03  0.64802442865E+03  0.50400001928E-02 0.  1.
       -1    1    3    3    0  502 -0.16101654701E+03  0.32471930740E+01 -0.17191078812E+04  0.17266351033E+04  0.50400001928E-02 0. -1.
</event>
<event>
 5   0  0.4050368E-05  0.2082700E+04  0.7818609E-02  0.8568903E-01
       -1   -1    0    0    0  501  0.00000000000E+00  0.00000000000E+00  0.11526092114E+04  0.11526092114E+04  0.50400001928E-02 0. -1.
        1   -1    0    0  501    0  0.00000000000E+00  0.00000000000E+00 -0.94083010038E+03  0.94083010040E+03  0.50400001928E-02 0.  1.
    10030    2    1    2    0    0  0.00000000000E+00  0.00000000000E+00  0.21177911102E+03  0.20934393118E+04  0.20826996328E+04 0.  0.
        2    1    3    3  502    0 -0.10638516298E+02 -0.55096698804E+03 -0.78225697770E+03  0.95687187183E+03  0.25500000920E-02 0.  1.
       -2    1    3    3    0  502  0.10638516298E+02  0.55096698804E+03  0.99403608872E+03  0.11365674400E+04  0.25500000920E-02 0. -1.
</event>
<event>
 5   0  0.4200061E-05  0.2206309E+04  0.7818609E-02  0.8515807E-01
       -1   -1    0    0    0  501  0.00000000000E+00  0.00000000000E+00  0.10327808736E+04  0.10327808736E+04  0.50400001928E-02 0.  1.
        1   -1    0    0  501    0  0.00000000000E+00  0.00000000000E+00 -0.11783230649E+04  0.11783230649E+04  0.50400001928E-02 0. -1.
    10030    2    1    2    0    0  0.00000000000E+00  0.00000000000E+00 -0.14554219128E+03  0.22111039385E+04  0.22063087040E+04 0.  0.
        4    1    3    3  502    0 -0.57685171833E+03 -0.40565925781E+02  0.86870904735E+03  0.10435806251E+04  0.12699999809E+01 0.  1.
       -4    1    3    3    0  502  0.57685171833E+03  0.40565925781E+02 -0.10142512386E+04  0.11675233134E+04  0.12699999809E+01 0. -1.
</event>
<event>
 5   0  0.4174093E-05  0.2110196E+04  0.7818609E-02  0.8556765E-01
       -1   -1    0    0    0  501  0.00000000000E+00  0.00000000000E+00  0.17341555527E+04  0.17341555527E+04  0.50400001928E-02 0. -1.
        1   -1    0    0  501    0  0.00000000000E+00  0.00000000000E+00 -0.64194470725E+03  0.64194470727E+03  0.50400001928E-02 0.  1.
    10030    2    1    2    0    0  0.00000000000E+00  0.00000000000E+00  0.10922108455E+04  0.23761002600E+04  0.21101961792E+04 0.  0.
        3    1    3    3  502    0 -0.42966261592E+03 -0.41471546581E+03 -0.43334981714E+03  0.73782854059E+03  0.10100000352E+00 0.  1.
       -3    1    3    3    0  502  0.42966261592E+03  0.41471546581E+03  0.15255606626E+04  0.16382717194E+04  0.10100000352E+00 0. -1.
</event>
<event>
 5   0  0.4200061E-05  0.2095142E+04  0.7818609E-02  0.8563387E-01
        1   -1    0    0  501    0  0.00000000000E+00  0.00000000000E+00  0.14799849333E+04  0.14799849333E+04  0.50400001928E-02 0. -1.
       -1   -1    0    0    0  501  0.00000000000E+00  0.00000000000E+00 -0.74149713300E+03  0.74149713302E+03  0.50400001928E-02 0.  1.
    10030    2    1    2    0    0  0.00000000000E+00  0.00000000000E+00  0.73848780033E+03  0.22214820664E+04  0.20951416038E+04 0.  0.
        4    1    3    3  502    0  0.50428169273E+03  0.84684586983E+03 -0.70586573705E+01  0.98564668640E+03  0.12699999809E+01 0.  1.
       -4    1    3    3    0  502 -0.50428169273E+03 -0.84684586983E+03  0.74554645770E+03  0.12358353800E+04  0.12699999809E+01 0. -1.
</event>
<event>
 5   0  0.9012466E-05  0.2121587E+04  0.7818609E-02  0.8551793E-01
       -2   -1    0    0    0  501  0.00000000000E+00  0.00000000000E+00  0.10210617596E+04  0.10210617596E+04  0.25500000920E-02 0. -1.
        2   -1    0    0  501    0  0.00000000000E+00  0.00000000000E+00 -0.11020716500E+04  0.11020716500E+04  0.25500000920E-02 0.  1.
    10030    2    1    2    0    0  0.00000000000E+00  0.00000000000E+00 -0.81009890460E+02  0.21231334096E+04  0.21215873474E+04 0.  0.
        2    1    3    3  502    0  0.32079810508E+03 -0.80432439507E+03 -0.65367819984E+03  0.10849628315E+04  0.25500000920E-02 0.  1.
       -2    1    3    3    0  502 -0.32079810508E+03  0.80432439507E+03  0.57266830938E+03  0.10381705781E+04  0.25500000920E-02 0. -1.
</event>
<event>
 5   0  0.8858590E-05  0.2111354E+04  0.7818609E-02  0.8556258E-01
        2   -1    0    0  501    0  0.00000000000E+00  0.00000000000E+00  0.17303176033E+04  0.17303176033E+04  0.25500000920E-02 0.  1.
       -2   -1    0    0    0  501  0.00000000000E+00  0.00000000000E+00 -0.64407463965E+03  0.64407463965E+03  0.25500000920E-02 0. -1.
    10030    2    1    2    0    0  0.00000000000E+00  0.00000000000E+00  0.10862429637E+04  0.23743922430E+04  0.21113537712E+04 0.  0.
        1    1    3    3  502    0  0.69718829903E+03  0.41145539262E+03  0.13050930654E+04  0.15357848071E+04  0.50400001928E-02 0.  1.
       -1    1    3    3    0  502 -0.69718829903E+03 -0.41145539262E+03 -0.21885010172E+03  0.83860743586E+03  0.50400001928E-02 0. -1.
</event>
<event>
 5   0  0.4182977E-05  0.2146817E+04  0.7818609E-02  0.8540896E-01
       -1   -1    0    0    0  501  0.00000000000E+00  0.00000000000E+00  0.18194771182E+04  0.18194771182E+04  0.50400001928E-02 0. -1.
        1   -1    0    0  501    0  0.00000000000E+00  0.00000000000E+00 -0.63326182052E+03  0.63326182054E+03  0.50400001928E-02 0.  1.
    10030    2    1    2    0    0  0.00000000000E+00  0.00000000000E+00  0.11862152977E+04  0.24527389388E+04  0.21468166129E+04 0.  0.
        1    1    3    3  502    0 -0.98473962844E+03 -0.40624720337E+03  0.74405814487E+03  0.12993734833E+04  0.50400001928E-02 0. -1.
       -1    1    3    3    0  502  0.98473962844E+03  0.40624720337E+03  0.44215715283E+03  0.11533654555E+04  0.50400001928E-02 0.  1.
</event>
<event>
 5   0  0.9012466E-05  0.2257395E+04  0.7818609E-02  0.8494912E-01
       -2   -1    0    0    0  501  0.00000000000E+00  0.00000000000E+00  0.82573231150E+03  0.82573231150E+03  0.25500000920E-02 0.  1.
        2   -1    0    0  501    0  0.00000000000E+00  0.00000000000E+00 -0.15428220374E+04  0.15428220374E+04  0.25500000920E-02 0. -1.
    10030    2    1    2    0    0  0.00000000000E+00  0.00000000000E+00 -0.71708972589E+03  0.23685543489E+04  0.22573949651E+04 0.  0.
        2    1    3    3  502    0 -0.65000281795E+03 -0.91879965684E+03 -0.44795566734E+03  0.12113466691E+04  0.25500000920E-02 0.  1.
       -2    1    3    3    0  502  0.65000281795E+03  0.91879965684E+03 -0.26913405855E+03  0.11572076798E+04  0.25500000920E-02 0. -1.
</event>
<event>
 5   0  0.4174093E-05  0.2023096E+04  0.7818609E-02  0.8595898E-01
       -1   -1    0    0    0  501  0.00000000000E+00  0.00000000000E+00  0.11525406520E+04  0.11525406520E+04  0.50400001928E-02 0. -1.
        1   -1    0    0  501    0  0.00000000000E+00  0.00000000000E+00 -0.88780287148E+03  0.88780287150E+03  0.50400001928E-02 0.  1.
    10030    2    1    2    0    0  0.00000000000E+00  0.00000000000E+00  0.26473778047E+03  0.20403435235E+04  0.20230955492E+04 0.  0.
        3    1    3    3  502    0 -0.11209401477E+03 -0.88171093324E+03  0.61944564248E+03  0.10833707362E+04  0.10100000352E+00 0. -1.
       -3    1    3    3    0  502  0.11209401477E+03  0.88171093324E+03 -0.35470786200E+03  0.95697278723E+03  0.10100000352E+00 0.  1.
</event>
<event>
 5   0  0.8858590E-05  0.2107451E+04  0.7818609E-02  0.8557968E-01
        2   -1    0    0  501    0  0.00000000000E+00  0.00000000000E+00  0.10471727740E+04  0.10471727740E+04  0.25500000920E-02 0.  1.
       -2   -1    0    0    0  501  0.00000000000E+00  0.00000000000E+00 -0.10603195119E+04  0.10603195119E+04  0.25500000920E-02 0. -1.
    10030    2    1    2    0    0  0.00000000000E+00  0.00000000000E+00 -0.13146737904E+02  0.21074922858E+04  0.21074512801E+04 0.  0.
        1    1    3    3  502    0 -0.44601298549E+03 -0.54687365321E+03 -0.78910974390E+03  0.10586276795E+04  0.50400001928E-02 0. -1.
       -1    1    3    3    0  502  0.44601298549E+03  0.54687365321E+03  0.77596300600E+03  0.10488646064E+04  0.50400001928E-02 0.  1.
</event>
<event>
 5   0  0.4174093E-05  0.2124096E+04  0.7818609E-02  0.8550703E-01
        1   -1    0    0  501    0  0.00000000000E+00  0.00000000000E+00  0.16822748208E+04  0.16822748208E+04  0.50400001928E-02 0. -1.
       -1   -1    0    0    0  501  0.00000000000E+00  0.00000000000E+00 -0.67048822141E+03  0.67048822142E+03  0.50400001928E-02 0.  1.
    10030    2    1    2    0    0  0.00000000000E+00  0.00000000000E+00  0.10117865994E+04  0.23527630423E+04  0.21240955276E+04 0.  0.
        3    1    3    3  502    0  0.46270190919E+03 -0.92757690195E+03  0.76198300678E+03  0.12865108156E+04  0.10100000352E+00 0.  1.
       -3    1    3    3    0  502 -0.46270190919E+03  0.92757690195E+03  0.24980359265E+03  0.10662522267E+04  0.10100000352E+00 0. -1.
</event>
<event>
 5   0  0.9086985E-05  0.2077025E+04  0.7818609E-02  0.8571432E-01
        2   -1    0    0  501    0  0.00000000000E+00  0.00000000000E+00  0.59428332196E+03  0.59428332196E+03  0.25500000920E-02 0.  1.
       -2   -1    0    0    0  501  0.00000000000E+00  0.00000000000E+00 -0.18148042613E+04  0.18148042613E+04  0.25500000920E-02 0. -1.
    10030    2    1    2    0    0  0.00000000000E+00  0.00000000000E+00 -0.12205209393E+04  0.24090875833E+04  0.20770247039E+04 0.  0.
        5    1    3    3  502    0  0.81718065326E+02 -0.54928309963E+03  0.40758857870E+03  0.68886885924E+03  0.46999998093E+01 0.  1.
       -5    1    3    3    0  502 -0.81718065326E+02  0.54928309963E+03 -0.16281095180E+04  0.17202187240E+04  0.46999998093E+01 0. -1.
</event>
<event>
 5   0  0.8858590E-05  0.2121113E+04  0.7818609E-02  0.8552000E-01
       -2   -1    0    0    0  501  0.00000000000E+00  0.00000000000E+00  0.97241515425E+03  0.97241515426E+03  0.25500000920E-02 0.  1.
        2   -1    0    0  501    0  0.00000000000E+00  0.00000000000E+00 -0.11566871218E+04  0.11566871218E+04  0.25500000920E-02 0. -1.
    10030    2    1    2    0    0  0.00000000000E+00  0.00000000000E+00 -0.18427196758E+03  0.21291022761E+04  0.21211129965E+04 0.  0.
        1    1    3    3  502    0  0.89490486011E+03  0.53944044346E+02  0.47658030162E+03  0.10153292335E+04  0.50400001928E-02 0. -1.
       -1    1    3    3    0  502 -0.89490486011E+03 -0.53944044346E+02 -0.66085226920E+03  0.11137730425E+04  0.50400001928E-02 0.  1.
</event>
<event>
 5   0  0.4050368E-05  0.2101679E+04  0.7818609E-02  0.8560504E-01
       -1   -1    0    0    0  501  0.00000000000E+00  0.00000000000E+00  0.48227578212E+03  0.48227578214E+03  0.50400001928E-02 0. -1.
        1   -1    0    0  501    0  0.00000000000E+00  0.00000000000E+00 -0.22896939955E+04  0.22896939955E+04  0.50400001928E-02 0.  1.
    10030    2    1    2    0    0  0.00000000000E+00  0.00000000000E+00 -0.18074182134E+04  0.27719697776E+04  0.21016792929E+04 0.  0.
        2    1    3    3  502    0 -0.48254271323E+03  0.91615731320E+03 -0.11399129145E+04  0.15399977745E+04  0.25500000920E-02 0.  1.
       -2    1    3    3    0  502  0.48254271323E+03 -0.91615731320E+03 -0.66750529881E+03  0.12319720032E+04  0.25500000920E-02 0. -1.
</event>
<event>
 5   0  0.9012466E-05  0.2100485E+04  0.7818609E-02  0.8561030E-01
       -2   -1    0    0    0  501  0.00000000000E+00  0.00000000000E+00  0.74055797787E+03  0.74055797787E+03  0.25500000920E-02 0. -1.
        2   -1    0    0  501    0  0.00000000000E+00  0.00000000000E+00 -0.14894302079E+04  0.14894302079E+04  0.25500000920E-02 0.  1.
    10030    2    1    2    0    0  0.00000000000E+00  0.00000000000E+00 -0.74887223003E+03  0.22299881858E+04  0.21004851087E+04 0.  0.
        2    1    3    3  502    0  0.37040419931E+03 -0.94487880967E+03 -0.66130707218E+03  0.12113307887E+04  0.25500000920E-02 0.  1.
       -2    1    3    3    0  502 -0.37040419931E+03  0.94487880967E+03 -0.87565157853E+02  0.10186573971E+04  0.25500000920E-02 0. -1.
</event>
<event>
 5   0  0.8858590E-05  0.2111509E+04  0.7818609E-02  0.8556190E-01
        2   -1    0    0  501    0  0.00000000000E+00  0.00000000000E+00  0.77024909434E+03  0.77024909435E+03  0.25500000920E-02 0.  1.
       -2   -1    0    0    0  501  0.00000000000E+00  0.00000000000E+00 -0.14470876550E+04  0.14470876550E+04  0.25500000920E-02 0. -1.
    10030    2    1    2    0    0  0.00000000000E+00  0.00000000000E+00 -0.67683856066E+03  0.22173367494E+04  0.21115093708E+04 0.  0.
        1    1    3    3  502    0  0.19599642061E+03 -0.74953190822E+03  0.41474783467E+03  0.87876529559E+03  0.50400001928E-02 0.  1.
       -1    1    3    3    0  502 -0.19599642061E+03  0.74953190822E+03 -0.10915863953E+04  0.13385714538E+04  0.50400001928E-02 0. -1.
</event>
<event>
 5   0  0.4050368E-05  0.2111139E+04  0.7818609E-02  0.8556353E-01
       -1   -1    0    0    0  501  0.00000000000E+00  0.00000000000E+00  0.11270646596E+04  0.11270646597E+04  0.50400001928E-02 0.  1.
        1   -1    0    0  501    0  0.00000000000E+00  0.00000000000E+00 -0.98860920370E+03  0.98860920371E+03  0.50400001928E-02 0. -1.
    10030    2    1    2    0    0  0.00000000000E+00  0.00000000000E+00  0.13845545595E+03  0.21156738634E+04  0.21111385513E+04 0.  0.
        2    1    3    3  502    0  0.24297406835E+02  0.38378707747E+03  0.10543673220E+04  0.11223071480E+04  0.25500000920E-02 0.  1.
       -2    1    3    3    0  502 -0.24297406835E+02 -0.38378707747E+03 -0.91591186603E+03  0.99336671535E+03  0.25500000920E-02 0. -1.
</event>
<event>
 5   0  0.4200061E-05  0.2097836E+04  0.7818609E-02  0.8562197E-01
       -1   -1    0    0    0  501  0.00000000000E+00  0.00000000000E+00  0.98881074171E+03  0.98881074172E+03  0.50400001928E-02 0. -1.
        1   -1    0    0  501    0  0.00000000000E+00  0.00000000000E+00 -0.11126787626E+04  0.11126787626E+04  0.50400001928E-02 0.  1.
    10030    2    1    2    0    0  0.00000000000E+00  0.00000000000E+00 -0.12386802087E+03  0.21014895043E+04  0.20978357539E+04 0.  0.
        4    1    3    3  502    0 -0.41946769386E+03 -0.69403920675E+03  0.60449419263E+03  0.10114634984E+04  0.12699999809E+01 0. -1.
       -4    1    3    3    0  502  0.41946769386E+03  0.69403920675E+03 -0.72836221350E+03  0.10900260059E+04  0.12699999809E+01 0.  1.
</event>
<event>
 5   0  0.9086985E-05  0.2121399E+04  0.7818609E-02  0.8551875E-01
        2   -1    0    0  501    0  0.00000000000E+00  0.00000000000E+00  0.21422748511E+04  0.21422748511E+04  0.25500000920E-02 0. -1.
       -2   -1    0    0    0  501  0.00000000000E+00  0.00000000000E+00 -0.52518172529E+03  0.52518172530E+03  0.25500000920E-02 0.  1.
    10030    2    1    2    0    0  0.00000000000E+00  0.00000000000E+00  0.16170931258E+04  0.26674565764E+04  0.21213991632E+04 0.  0.
        5    1    3    3  502    0  0.29530956280E+01  0.98539775681E+03  0.13020582395E+04  0.16329100431E+04  0.46999998093E+01 0. -1.
       -5    1    3    3    0  502 -0.29530956280E+01 -0.98539775681E+03  0.31503488630E+03  0.10345465333E+04  0.46999998093E+01 0.  1.
</event>
<event>
 5   0  0.4174093E-05  0.2102015E+04  0.7818609E-02  0.8560356E-01
       -1   -1    0    0    0  501  0.00000000000E+00  0.00000000000E+00  0.86870346296E+03  0.86870346298E+03  0.50400001928E-02 0.  1.
        1   -1    0    0  501    0  0.00000000000E+00  0.00000000000E+00 -0.12715695596E+04  0.12715695596E+04  0.50400001928E-02 0. -1.
    10030    2    1    2    0    0  0.00000000000E+00  0.00000000000E+00 -0.40286609666E+03  0.21402730226E+04  0.21020151092E+04 0.  0.
        3    1    3    3  502    0  0.38786998955E+03 -0.19101697381E+03 -0.11768278975E+04  0.12537362256E+04  0.10100000352E+00 0. -1.
       -3    1    3    3    0  502 -0.38786998955E+03  0.19101697381E+03  0.77396180079E+03  0.88653679696E+03  0.10100000352E+00 0.  1.
</event>
<event>
 5   0  0.4174093E-05  0.2116543E+04  0.7818609E-02  0.8553991E-01
        1   -1    0    0  501    0  0.00000000000E+00  0.00000000000E+00  0.87539108534E+03  0.87539108535E+03  0.50400001928E-02 0. -1.
       -1   -1    0    0    0  501  0.00000000000E+00  0.00000000000E+00 -0.12793574534E+04  0.12793574534E+04  0.50400001928E-02 0.  1.
    10030    2    1    2    0    0  0.00000000000E+00  0.00000000000E+00 -0.40396636809E+03  0.21547485388E+04  0.21165425672E+04 0.  0.
        3    1    3    3  502    0  0.86016104503E+03 -0.43389970617E+03 -0.64782928061E+03  0.11609602773E+04  0.10100000352E+00 0.  1.
       -3    1    3    3    0  502 -0.86016104503E+03  0.43389970617E+03  0.24386291252E+03  0.99378826151E+03  0.10100000352E+00 0. -1.
</event>
<event>
 5   0  0.8872777E-05  0.2105332E+04  0.7818609E-02  0.8558898E-01
       -2   -1    0    0    0  501  0.00000000000E+00  0.00000000000E+00  0.81121130432E+03  0.81121130433E+03  0.25500000920E-02 0.  1.
        2   -1    0    0  501    0  0.00000000000E+00  0.00000000000E+00 -0.13659884097E+04  0.13659884097E+04  0.25500000920E-02 0. -1.
    10030    2    1    2    0    0  0.00000000000E+00  0.00000000000E+00 -0.55477710535E+03  0.21771997140E+04  0.21053315554E+04 0.  0.
        3    1    3    3  502    0 -0.44460645861E+03  0.49804379793E+03  0.56426286604E+03  0.87413678557E+03  0.10100000352E+00 0.  1.
       -3    1    3    3    0  502  0.44460645861E+03 -0.49804379793E+03 -0.11190399714E+04  0.13030629284E+04  0.10100000352E+00 0. -1.
</event>
<event>
 5   0  0.9086985E-05  0.2089900E+04  0.7818609E-02  0.8565706E-01
        2   -1    0    0  501    0  0.00000000000E+00  0.00000000000E+00  0.16384333954E+04  0.16384333954E+04  0.25500000920E-02 0.  1.
       -2   -1    0    0    0  501  0.00000000000E+00  0.00000000000E+00 -0.66644175381E+03  0.66644175382E+03  0.25500000920E-02 0. -1.
    10030    2    1    2    0    0  0.00000000000E+00  0.00000000000E+00  0.97199164159E+03  0.23048751492E+04  0.20898999264E+04 0.  0.
        5    1    3    3  502    0  0.18034913999E+02 -0.10324228816E+04  0.66271602236E+03  0.12269624611E+04  0.46999998093E+01 0.  1.
       -5    1    3    3    0  502 -0.18034913999E+02  0.10324228816E+04  0.30927561923E+03  0.10779126881E+04  0.46999998093E+01 0. -1.
</event>
<event>
 5   0  0.4128678E-05  0.2056319E+04  0.7818609E-02  0.8580733E-01
        1   -1    0    0  501    0  0.00000000000E+00  0.00000000000E+00  0.15361766228E+04  0.15361766228E+04  0.50400001928E-02 0. -1.
       -1   -1    0    0    0  501  0.00000000000E+00  0.00000000000E+00 -0.68814465122E+03  0.68814465124E+03  0.50400001928E-02 0.  1.
    10030    2    1    2    0    0  0.00000000000E+00  0.00000000000E+00  0.84803197155E+03  0.22243212740E+04  0.20563187752E+04 0.  0.
        5    1    3    3  502    0  0.36772674776E+03  0.17545458679E+03 -0.59707865951E+03  0.72286394894E+03  0.46999998093E+01 0.  1.
       -5    1    3    3    0  502 -0.36772674776E+03 -0.17545458679E+03  0.14451106311E+04  0.15014573251E+04  0.46999998093E+01 0. -1.
</event>
<event>
 5   0  0.4050368E-05  0.2102959E+04  0.7818609E-02  0.8559941E-01
        1   -1    0    0  501    0  0.00000000000E+00  0.00000000000E+00  0.12258766914E+04  0.12258766914E+04  0.50400001928E-02 0. -1.
       -1   -1    0    0    0  501  0.00000000000E+00  0.00000000000E+00 -0.90189269569E+03  0.90189269570E+03  0.50400001928E-02 0.  1.
    10030    2    1    2    0    0  0.00000000000E+00  0.00000000000E+00  0.32398399567E+03  0.21277693871E+04  0.21029590902E+04 0.  0.
        2    1    3    3  502    0  0.10200022930E+04 -0.79792713246E+02  0.40741852263E+03  0.11012544699E+04  0.25500000920E-02 0. -1.
       -2    1    3    3    0  502 -0.10200022930E+04  0.79792713246E+02 -0.83434526962E+02  0.10265149172E+04  0.25500000920E-02 0.  1.
</event>
<event>
 5   0  0.8547605E-05  0.2081625E+04  0.7818609E-02  0.8569381E-01
       -2   -1    0    0    0  501  0.00000000000E+00  0.00000000000E+00  0.12364569147E+04  0.12364569147E+04  0.25500000920E-02 0. -1.
        2   -1    0    0  501    0  0.00000000000E+00  0.00000000000E+00 -0.87612487272E+03  0.87612487272E+03  0.25500000920E-02 0.  1.
    10030    2    1    2    0    0  0.00000000000E+00  0.00000000000E+00  0.36033204197E+03  0.21125817874E+04  0.20816249970E+04 0.  0.
        4    1    3    3  502    0 -0.78594987586E+03  0.52383145995E+03 -0.26356897007E+03  0.98060533380E+03  0.12699999809E+01 0.  1.
       -4    1    3    3    0  502  0.78594987586E+03 -0.52383145995E+03  0.62390101204E+03  0.11319764536E+04  0.12699999809E+01 0. -1.
</event>
<event>
 5   0  0.9086985E-05  0.2078521E+04  0.7818609E-02  0.8570764E-01
       -2   -1    0    0    0  501  0.00000000000E+00  0.00000000000E+00  0.45602566297E+03  0.45602566298E+03  0.25500000920E-02 0. -1.
        2   -1    0    0  501    0  0.00000000000E+00  0.00000000000E+00 -0.23684246761E+04  0.23684246761E+04  0.25500000920E-02 0.  1.
    10030    2    1    2    0    0  0.00000000000E+00  0.00000000000E+00 -0.19123990131E+04  0.28244503391E+04  0.20785210445E+04 0.  0.
        5    1    3    3  502    0 -0.25663605744E+03  0.87564667090E+03 -0.16321236484E+04  0.18698847162E+04  0.46999998093E+01 0.  1.
       -5    1    3    3    0  502  0.25663605744E+03 -0.87564667090E+03 -0.28027536469E+03  0.95456562283E+03  0.46999998093E+01 0. -1.
</event>
<event>
 5   0  0.4182977E-05  0.1813016E+04  0.7818609E-02  0.8699408E-01
        1   -1    0    0  501    0  0.00000000000E+00  0.00000000000E+00  0.85074224225E+03  0.85074224226E+03  0.50400001928E-02 0. -1.
       -1   -1    0    0    0  501  0.00000000000E+00  0.00000000000E+00 -0.96592949213E+03  0.96592949214E+03  0.50400001928E-02 0.  1.
    10030    2    1    2    0    0  0.00000000000E+00  0.00000000000E+00 -0.11518724988E+03  0.18166717344E+04  0.18130162956E+04 0.  0.
        1    1    3    3  502    0  0.69949750739E+03 -0.56425455534E+03 -0.17647961244E+03  0.91587391037E+03  0.50400001928E-02 0. -1.
       -1    1    3    3    0  502 -0.69949750739E+03  0.56425455534E+03  0.61292362560E+02  0.90079782404E+03  0.50400001928E-02 0.  1.
</event>
<event>
 5   0  0.9012466E-05  0.2087079E+04  0.7818609E-02  0.8566957E-01
        2   -1    0    0  501    0  0.00000000000E+00  0.00000000000E+00  0.11456741617E+04  0.11456741617E+04  0.25500000920E-02 0. -1.
       -2   -1    0    0    0  501  0.00000000000E+00  0.00000000000E+00 -0.95050976147E+03  0.95050976147E+03  0.25500000920E-02 0.  1.
    10030    2    1    2    0    0  0.00000000000E+00  0.00000000000E+00  0.19516440022E+03  0.20961839232E+04  0.20870787950E+04 0.  0.
        2    1    3    3  502    0 -0.81159899768E+03  0.97215480005E+02  0.74912694021E+03  0.11087537847E+04  0.25500000920E-02 0. -1.
       -2    1    3    3    0  502  0.81159899768E+03 -0.97215480005E+02 -0.55396253999E+03  0.98743013844E+03  0.25500000920E-02 0.  1.
</event>
<event>
 5   0  0.4050368E-05  0.2099900E+04  0.7818609E-02  0.8561288E-01
        1   -1    0    0  501    0  0.00000000000E+00  0.00000000000E+00  0.11194143323E+04  0.11194143323E+04  0.50400001928E-02 0.  1.
       -1   -1    0    0    0  501  0.00000000000E+00  0.00000000000E+00 -0.98479602412E+03  0.98479602413E+03  0.50400001928E-02 0. -1.
    10030    2    1    2    0    0  0.00000000000E+00  0.00000000000E+00  0.13461830814E+03  0.21042103564E+04  0.20998997917E+04 0.  0.
        2    1    3    3  502    0  0.22400653628E+03  0.65249174858E+03  0.86043271614E+03  0.11028458048E+04  0.25500000920E-02 0.  1.
       -2    1    3    3    0  502 -0.22400653628E+03 -0.65249174858E+03 -0.72581440800E+03  0.10013645516E+04  0.25500000920E-02 0. -1.
</event>
<event>
 5   0  0.8858590E-05  0.2122289E+04  0.7818609E-02  0.8551488E-01
       -2   -1    0    0    0  501  0.00000000000E+00  0.00000000000E+00  0.65982755130E+03  0.65982755131E+03  0.25500000920E-02 0. -1.
        2   -1    0    0  501    0  0.00000000000E+00  0.00000000000E+00 -0.17065488211E+04  0.17065488211E+04  0.25500000920E-02 0.  1.
    10030    2    1    2    0    0  0.00000000000E+00  0.00000000000E+00 -0.10467212698E+04  0.23663763724E+04  0.21222892638E+04 0.  0.
        1    1    3    3  502    0  0.18496490573E+03 -0.70093780099E+03 -0.13874059367E+04  0.15653820781E+04  0.50400001928E-02 0.  1.
       -1    1    3    3    0  502 -0.18496490573E+03  0.70093780099E+03  0.34068466691E+03  0.80099429430E+03  0.50400001928E-02 0. -1.
</event>
<event>
 5   0  0.4174093E-05  0.2141298E+04  0.7818609E-02  0.8543267E-01
       -1   -1    0    0    0  501  0.00000000000E+00  0.00000000000E+00  0.16484246008E+04  0.16484246008E+04  0.50400001928E-02 0.  1.
        1   -1    0    0  501    0  0.00000000000E+00  0.00000000000E+00 -0.69538441460E+03  0.69538441462E+03  0.50400001928E-02 0. -1.
    10030    2    1    2    0    0  0.00000000000E+00  0.00000000000E+00  0.95304018619E+03  0.23438090154E+04  0.21412975282E+04 0.  0.
        3    1    3    3  502    0  0.29309036264E+03 -0.36344990000E+03  0.15311188837E+04  0.16007257219E+04  0.10100000352E+00 0.  1.
       -3    1    3    3    0  502 -0.29309036264E+03  0.36344990000E+03 -0.57807869748E+03  0.74308329356E+03  0.10100000352E+00 0. -1.
</event>
<event>
 5   0  0.4174093E-05  0.2140000E+04  0.7818609E-02  0.8543825E-01
       -1   -1    0    0    0  501  0.00000000000E+00  0.00000000000E+00  0.15660332299E+04  0.15660332299E+04  0.50400001928E-02 0.  1.
        1   -1    0    0  501    0  0.00000000000E+00  0.00000000000E+00 -0.73108267014E+03  0.73108267016E+03  0.50400001928E-02 0. -1.
    10030    2    1    2    0    0  0.00000000000E+00  0.00000000000E+00  0.83495055975E+03  0.22971159000E+04  0.21399997713E+04 0.  0.
        3    1    3    3  502    0 -0.63045160819E+03  0.89361320657E+02  0.13405187187E+04  0.14840637188E+04  0.10100000352E+00 0.  1.
       -3    1    3    3    0  502  0.63045160819E+03 -0.89361320657E+02 -0.50556815898E+03  0.81305218128E+03  0.10100000352E+00 0. -1.
</event>
<event>
 5   0  0.8547605E-05  0.2108211E+04  0.7818609E-02  0.8557635E-01
       -2   -1    0    0    0  501  0.00000000000E+00  0.00000000000E+00  0.50955427990E+03  0.50955427991E+03  0.25500000920E-02 0.  1.
        2   -1    0    0  501    0  0.00000000000E+00  0.00000000000E+00 -0.21806094818E+04  0.21806094818E+04  0.25500000920E-02 0. -1.
    10030    2    1    2    0    0  0.00000000000E+00  0.00000000000E+00 -0.16710552019E+04  0.26901637617E+04  0.21082114640E+04 0.  0.
        4    1    3    3  502    0  0.82198756505E+03 -0.51672533683E+03 -0.31177752842E+03  0.10197428455E+04  0.12699999809E+01 0.  1.
       -4    1    3    3    0  502 -0.82198756505E+03  0.51672533683E+03 -0.13592776735E+04  0.16704209162E+04  0.12699999809E+01 0. -1.
</event>
<event>
 5   0  0.8858590E-05  0.2107551E+04  0.7818609E-02  0.8557924E-01
       -2   -1    0    0    0  501  0.00000000000E+00  0.00000000000E+00  0.87986054927E+03  0.87986054928E+03  0.25500000920E-02 0. -1.
        2   -1    0    0  501    0  0.00000000000E+00  0.00000000000E+00 -0.12620667218E+04  0.12620667218E+04  0.25500000920E-02 0.  1.
    10030    2    1    2    0    0  0.00000000000E+00  0.00000000000E+00 -0.38220617253E+03  0.21419272711E+04  0.21075509190E+04 0.  0.
        1    1    3    3  502    0 -0.25663633435E+03  0.97408745568E+03 -0.50555921500E+03  0.11270752856E+04  0.50400001928E-02 0.  1.
       -1    1    3    3    0  502  0.25663633435E+03 -0.97408745568E+03  0.12335304247E+03  0.10148519855E+04  0.50400001928E-02 0. -1.
</event>
<event>
 5   0  0.3176125E-05  0.2090212E+04  0.7818609E-02  0.8565567E-01
       -4   -1    0    0    0  501  0.00000000000E+00  0.00000000000E+00  0.10261225623E+04  0.10261233482E+04  0.12699999809E+01 0. -1.
        4   -1    0    0  501    0  0.00000000000E+00  0.00000000000E+00 -0.10644389990E+04  0.10644397566E+04  0.12699999809E+01 0.  1.
    10030    2    1    2    0    0  0.00000000000E+00  0.00000000000E+00 -0.38316436678E+02  0.20905631049E+04  0.20902119381E+04 0.  0.
        2    1    3    3  502    0  0.72285744728E+01 -0.16317647073E+03  0.10132785816E+04  0.10263587564E+04  0.25500000920E-02 0. -1.
       -2    1    3    3    0  502 -0.72285744728E+01  0.16317647073E+03 -0.10515950183E+04  0.10642043485E+04  0.25500000920E-02 0.  1.
</event>
<event>
 5   0  0.4200061E-05  0.2069938E+04  0.7818609E-02  0.8574603E-01
        1   -1    0    0  501    0  0.00000000000E+00  0.00000000000E+00  0.18598273708E+04  0.18598273708E+04  0.50400001928E-02 0. -1.
       -1   -1    0    0    0  501  0.00000000000E+00  0.00000000000E+00 -0.57594660210E+03  0.57594660212E+03  0.50400001928E-02 0.  1.
    10030    2    1    2    0    0  0.00000000000E+00  0.00000000000E+00  0.12838807687E+04  0.24357739729E+04  0.20699384094E+04 0.  0.
        4    1    3    3  502    0  0.68721826202E+03 -0.11091058298E+03  0.15431933799E+04  0.16929316341E+04  0.12699999809E+01 0. -1.
       -4    1    3    3    0  502 -0.68721826202E+03  0.11091058298E+03 -0.25931261122E+03  0.74284233880E+03  0.12699999809E+01 0.  1.
</event>
<event>
 5   0  0.4128678E-05  0.2100356E+04  0.7818609E-02  0.8561086E-01
       -1   -1    0    0    0  501  0.00000000000E+00  0.00000000000E+00  0.56386447607E+03  0.56386447609E+03  0.50400001928E-02 0. -1.
        1   -1    0    0  501    0  0.00000000000E+00  0.00000000000E+00 -0.19559205771E+04  0.19559205771E+04  0.50400001928E-02 0.  1.
    10030    2    1    2    0    0  0.00000000000E+00  0.00000000000E+00 -0.13920561011E+04  0.25197850532E+04  0.21003562855E+04 0.  0.
        5    1    3    3  502    0 -0.95326806369E+03 -0.23780471113E+03 -0.25103862392E+03  0.10140579681E+04  0.46999998093E+01 0. -1.
       -5    1    3    3    0  502  0.95326806369E+03  0.23780471113E+03 -0.11410174771E+04  0.15057270852E+04  0.46999998093E+01 0.  1.
</event>
<event>
 5   0  0.9012466E-05  0.2110974E+04  0.7818609E-02  0.8556425E-01
       -2   -1    0    0    0  501  0.00000000000E+00  0.00000000000E+00  0.10020867156E+04  0.10020867156E+04  0.25500000920E-02 0. -1.
        2   -1    0    0  501    0  0.00000000000E+00  0.00000000000E+00 -0.11117328369E+04  0.11117328369E+04  0.25500000920E-02 0.  1.
    10030    2    1    2    0    0  0.00000000000E+00  0.00000000000E+00 -0.10964612127E+03  0.21138195525E+04  0.21109739052E+04 0.  0.
        2    1    3    3  502    0  0.74229165271E+03 -0.13967627164E+03  0.68342673807E+03  0.10186159555E+04  0.25500000920E-02 0. -1.
       -2    1    3    3    0  502 -0.74229165271E+03  0.13967627164E+03 -0.79307285934E+03  0.10952035969E+04  0.25500000920E-02 0.  1.
</event>
<event>
 5   0  0.4200061E-05  0.1945936E+04  0.7818609E-02  0.8632323E-01
        1   -1    0    0  501    0  0.00000000000E+00  0.00000000000E+00  0.10252102517E+04  0.10252102517E+04  0.50400001928E-02 0. -1.
       -1   -1    0    0    0  501  0.00000000000E+00  0.00000000000E+00 -0.92338763756E+03  0.92338763757E+03  0.50400001928E-02 0.  1.
    10030    2    1    2    0    0  0.00000000000E+00  0.00000000000E+00  0.10182261416E+03  0.19485978893E+04  0.19459357362E+04 0.  0.
        4    1    3    3  502    0 -0.37576899882E+02 -0.19237547679E+03 -0.90341110925E+03  0.92443149703E+03  0.12699999809E+01 0.  1.
       -4    1    3    3    0  502  0.37576899882E+02  0.19237547679E+03  0.10052337234E+04  0.10241663923E+04  0.12699999809E+01 0. -1.
</event>
<event>
 5   0  0.9086985E-05  0.2126275E+04  0.7818609E-02  0.8549756E-01
       -2   -1    0    0    0  501  0.00000000000E+00  0.00000000000E+00  0.48979061104E+03  0.48979061105E+03  0.25500000920E-02 0. -1.
        2   -1    0    0  501    0  0.00000000000E+00  0.00000000000E+00 -0.23076423706E+04  0.23076423706E+04  0.25500000920E-02 0.  1.
    10030    2    1    2    0    0  0.00000000000E+00  0.00000000000E+00 -0.18178517595E+04  0.27974329816E+04  0.21262752096E+04 0.  0.
        5    1    3    3  502    0  0.26766092357E+03  0.10216658219E+04 -0.10689602210E+04  0.15027113714E+04  0.46999998093E+01 0.  1.
       -5    1    3    3    0  502 -0.26766092357E+03 -0.10216658219E+04 -0.74889153850E+03  0.12947216102E+04  0.46999998093E+01 0. -1.
</event>
<event>
 5   0  0.4128678E-05  0.2103139E+04  0.7818609E-02  0.8559862E-01
       -1   -1    0    0    0  501  0.00000000000E+00  0.00000000000E+00  0.88106707581E+03  0.88106707582E+03  0.50400001928E-02 0.  1.
        1   -1    0    0  501    0  0.00000000000E+00  0.00000000000E+00 -0.12550672811E+04  0.12550672811E+04  0.50400001928E-02 0. -1.
    10030    2    1    2    0    0  0.00000000000E+00  0.00000000000E+00 -0.37400020529E+03  0.21361343569E+04  0.21031390437E+04 0.  0.
        5    1    3    3  502    0  0.10196745259E+04 -0.12646730249E+03  0.40219794194E+02  0.10282849018E+04  0.46999998093E+01 0.  1.
       -5    1    3    3    0  502 -0.10196745259E+04  0.12646730249E+03 -0.41421999948E+03  0.11078494552E+04  0.46999998093E+01 0. -1.
</event>
<event>
 5   0  0.4182977E-05  0.2070329E+04  0.7818609E-02  0.8574427E-01
       -1   -1    0    0    0  501  0.00000000000E+00  0.00000000000E+00  0.19872441696E+04  0.19872441696E+04  0.50400001928E-02 0.  1.
        1   -1    0    0  501    0  0.00000000000E+00  0.00000000000E+00 -0.53922201993E+03  0.53922201996E+03  0.50400001928E-02 0. -1.
    10030    2    1    2    0    0  0.00000000000E+00  0.00000000000E+00  0.14480221497E+04  0.25264661896E+04  0.20703292639E+04 0.  0.
        1    1    3    3  502    0 -0.96976955444E+02 -0.87134454009E+03  0.13956533559E+04  0.16481790338E+04  0.50400001928E-02 0.  1.
       -1    1    3    3    0  502  0.96976955444E+02  0.87134454009E+03  0.52368793726E+02  0.87828715578E+03  0.50400001928E-02 0. -1.
</event>
<event>
 5   0  0.9012466E-05  0.2071137E+04  0.7818609E-02  0.8574065E-01
        2   -1    0    0  501    0  0.00000000000E+00  0.00000000000E+00  0.16852492549E+04  0.16852492549E+04  0.25500000920E-02 0. -1.
       -2   -1    0    0    0  501  0.00000000000E+00  0.00000000000E+00 -0.63634650019E+03  0.63634650020E+03  0.25500000920E-02 0.  1.
    10030    2    1    2    0    0  0.00000000000E+00  0.00000000000E+00  0.10489027547E+04  0.23215957551E+04  0.20711373352E+04 0.  0.
        2    1    3    3  502    0 -0.66572040186E+03  0.26640266693E+03  0.13619641885E+04  0.15391882553E+04  0.25500000920E-02 0.  1.
       -2    1    3    3    0  502  0.66572040186E+03 -0.26640266693E+03 -0.31306143382E+03  0.78240749980E+03  0.25500000920E-02 0. -1.
</event>
<event>
 5   0  0.4128678E-05  0.2063017E+04  0.7818609E-02  0.8577712E-01
       -1   -1    0    0    0  501  0.00000000000E+00  0.00000000000E+00  0.86756012259E+03  0.86756012260E+03  0.50400001928E-02 0.  1.
        1   -1    0    0  501    0  0.00000000000E+00  0.00000000000E+00 -0.12264392641E+04  0.12264392641E+04  0.50400001928E-02 0. -1.
    10030    2    1    2    0    0  0.00000000000E+00  0.00000000000E+00 -0.35887914150E+03  0.20939993867E+04  0.20630170124E+04 0.  0.
        5    1    3    3  502    0  0.96139544277E+03 -0.36600474474E+03 -0.25638729255E+03  0.10601873440E+04  0.46999998093E+01 0. -1.
       -5    1    3    3    0  502 -0.96139544277E+03  0.36600474474E+03 -0.10249184894E+03  0.10338120427E+04  0.46999998093E+01 0.  1.
</event>
<event>
 5   0  0.8858590E-05  0.2244271E+04  0.7818609E-02  0.8500224E-01
        2   -1    0    0  501    0  0.00000000000E+00  0.00000000000E+00  0.13874852460E+04  0.13874852460E+04  0.25500000920E-02 0.  1.
       -2   -1    0    0    0  501  0.00000000000E+00  0.00000000000E+00 -0.90753289788E+03  0.90753289789E+03  0.25500000920E-02 0. -1.
    10030    2    1    2    0    0  0.00000000000E+00  0.00000000000E+00  0.47995234812E+03  0.22950181439E+04  0.22442713794E+04 0.  0.
        1    1    3    3  502    0  0.53009885018E+03  0.92574257753E+03 -0.11601079611E+03  0.10730622608E+04  0.50400001928E-02 0. -1.
       -1    1    3    3    0  502 -0.53009885018E+03 -0.92574257753E+03  0.59596314423E+03  0.12219558830E+04  0.50400001928E-02 0.  1.
</event>
<event>
 5   0  0.4182977E-05  0.1948159E+04  0.7818609E-02  0.8631249E-01
        1   -1    0    0  501    0  0.00000000000E+00  0.00000000000E+00  0.90633374441E+03  0.90633374442E+03  0.50400001928E-02 0.  1.
       -1   -1    0    0    0  501  0.00000000000E+00  0.00000000000E+00 -0.10468886364E+04  0.10468886364E+04  0.50400001928E-02 0. -1.
    10030    2    1    2    0    0  0.00000000000E+00  0.00000000000E+00 -0.14055489197E+03  0.19532223808E+04  0.19481586155E+04 0.  0.
        1    1    3    3  502    0 -0.55214707318E+03  0.76287441288E+03  0.17934105348E+03  0.95864851418E+03  0.50400001928E-02 0.  1.
       -1    1    3    3    0  502  0.55214707318E+03 -0.76287441288E+03 -0.31989594546E+03  0.99457386663E+03  0.50400001928E-02 0. -1.
</event>
<event>
 5   0  0.4050368E-05  0.2118863E+04  0.7818609E-02  0.8552979E-01
       -1   -1    0    0    0  501  0.00000000000E+00  0.00000000000E+00  0.81327674425E+03  0.81327674427E+03  0.50400001928E-02 0.  1.
        1   -1    0    0  501    0  0.00000000000E+00  0.00000000000E+00 -0.13800901604E+04  0.13800901604E+04  0.50400001928E-02 0. -1.
    10030    2    1    2    0    0  0.00000000000E+00  0.00000000000E+00 -0.56681341614E+03  0.21933669047E+04  0.21188631220E+04 0.  0.
        2    1    3    3  502    0  0.64457894086E+03  0.13901860485E+03 -0.11417721567E+04  0.13185036372E+04  0.25500000920E-02 0. -1.
       -2    1    3    3    0  502 -0.64457894086E+03 -0.13901860485E+03  0.57495874052E+03  0.87486326749E+03  0.25500000920E-02 0.  1.
</event>
<event>
 5   0  0.8547605E-05  0.2107208E+04  0.7818609E-02  0.8558075E-01
       -2   -1    0    0    0  501  0.00000000000E+00  0.00000000000E+00  0.92230393006E+03  0.92230393006E+03  0.25500000920E-02 0. -1.
        2   -1    0    0  501    0  0.00000000000E+00  0.00000000000E+00 -0.12035959020E+04  0.12035959020E+04  0.25500000920E-02 0.  1.
    10030    2    1    2    0    0  0.00000000000E+00  0.00000000000E+00 -0.28129197197E+03  0.21258998321E+04  0.21072078499E+04 0.  0.
        4    1    3    3  502    0 -0.50534681823E+03 -0.89815391104E+02 -0.10689370045E+04  0.11857782860E+04  0.12699999809E+01 0.  1.
       -4    1    3    3    0  502  0.50534681823E+03  0.89815391104E+02  0.78764503252E+03  0.94012154605E+03  0.12699999809E+01 0. -1.
</event>
<event>
 5   0  0.9012466E-05  0.2099136E+04  0.7818609E-02  0.8561624E-01
        2   -1    0    0  501    0  0.00000000000E+00  0.00000000000E+00  0.13616760978E+04  0.13616760978E+04  0.25500000920E-02 0.  1.
       -2   -1    0    0    0  501  0.00000000000E+00  0.00000000000E+00 -0.80899806492E+03  0.80899806492E+03  0.25500000920E-02 0. -1.
    10030    2    1    2    0    0  0.00000000000E+00  0.00000000000E+00  0.55267803291E+03  0.21706741628E+04  0.20991363254E+04 0.  0.
        2    1    3    3  502    0 -0.47483324952E+03 -0.53084325192E+03  0.10735414332E+04  0.12883137745E+04  0.25500000920E-02 0.  1.
       -2    1    3    3    0  502  0.47483324952E+03  0.53084325192E+03 -0.52086340025E+03  0.88236038821E+03  0.25500000920E-02 0. -1.
</event>
<event>
 5   0  0.8547605E-05  0.2103017E+04  0.7818609E-02  0.8559916E-01
       -2   -1    0    0    0  501  0.00000000000E+00  0.00000000000E+00  0.10241303467E+04  0.10241303467E+04  0.25500000920E-02 0. -1.
        2   -1    0    0  501    0  0.00000000000E+00  0.00000000000E+00 -0.10796180906E+04  0.10796180906E+04  0.25500000920E-02 0.  1.
    10030    2    1    2    0    0  0.00000000000E+00  0.00000000000E+00 -0.55487743926E+02  0.21037484373E+04  0.21030165472E+04 0.  0.
        4    1    3    3  502    0 -0.38318680852E+01  0.45885832857E+03  0.91868389689E+03  0.10269115659E+04  0.12699999809E+01 0. -1.
       -4    1    3    3    0  502  0.38318680852E+01 -0.45885832857E+03 -0.97417164082E+03  0.10768368714E+04  0.12699999809E+01 0.  1.
</event>
<event>
 5   0  0.4050368E-05  0.2134562E+04  0.7818609E-02  0.8546170E-01
       -1   -1    0    0    0  501  0.00000000000E+00  0.00000000000E+00  0.94347382735E+03  0.94347382736E+03  0.50400001928E-02 0. -1.
        1   -1    0    0  501    0  0.00000000000E+00  0.00000000000E+00 -0.12073346060E+04  0.12073346060E+04  0.50400001928E-02 0.  1.
    10030    2    1    2    0    0  0.00000000000E+00  0.00000000000E+00 -0.26386077863E+03  0.21508084334E+04  0.21345618769E+04 0.  0.
        2    1    3    3  502    0 -0.56317219609E+03  0.84638114476E+03 -0.45931043971E+03  0.11155671404E+04  0.25500000920E-02 0.  1.
       -2    1    3    3    0  502  0.56317219609E+03 -0.84638114476E+03  0.19544966108E+03  0.10352412930E+04  0.25500000920E-02 0. -1.
</event>
<event>
 5   0  0.8858590E-05  0.2105307E+04  0.7818609E-02  0.8558909E-01
        2   -1    0    0  501    0  0.00000000000E+00  0.00000000000E+00  0.18759723360E+04  0.18759723360E+04  0.25500000920E-02 0. -1.
       -2   -1    0    0    0  501  0.00000000000E+00  0.00000000000E+00 -0.59066913486E+03  0.59066913487E+03  0.25500000920E-02 0.  1.
    10030    2    1    2    0    0  0.00000000000E+00  0.00000000000E+00  0.12853032012E+04  0.24666414709E+04  0.21053065874E+04 0.  0.
        1    1    3    3  502    0 -0.88017519839E+03  0.56977358204E+03  0.53318943846E+03  0.11762828282E+04  0.50400001928E-02 0.  1.
       -1    1    3    3    0  502  0.88017519839E+03 -0.56977358204E+03  0.75211376270E+03  0.12903586427E+04  0.50400001928E-02 0. -1.
</event>
<event>
 5   0  0.4200061E-05  0.2067609E+04  0.7818609E-02  0.8575648E-01
       -1   -1    0    0    0  501  0.00000000000E+00  0.00000000000E+00  0.49597604116E+03  0.49597604118E+03  0.50400001928E-02 0.  1.
        1   -1    0    0  501    0  0.00000000000E+00  0.00000000000E+00 -0.21548460477E+04  0.21548460477E+04  0.50400001928E-02 0. -1.
    10030    2    1    2    0    0  0.00000000000E+00  0.00000000000E+00 -0.16588700066E+04  0.26508220889E+04  0.20676092591E+04 0.  0.
        4    1    3    3  502    0 -0.13186334213E+03  0.52495671225E+03 -0.19586645059E+04  0.20320767088E+04  0.12699999809E+01 0. -1.
       -4    1    3    3    0  502  0.13186334213E+03 -0.52495671225E+03  0.29979449933E+03  0.61874538015E+03  0.12699999809E+01 0.  1.
</event>
<event>
 5   0  0.4050368E-05  0.2072234E+04  0.7818609E-02  0.8573574E-01
        1   -1    0    0  501    0  0.00000000000E+00  0.00000000000E+00  0.64306001419E+03  0.64306001421E+03  0.50400001928E-02 0. -1.
       -1   -1    0    0    0  501  0.00000000000E+00  0.00000000000E+00 -0.16694225004E+04  0.16694225004E+04  0.50400001928E-02 0.  1.
    10030    2    1    2    0    0  0.00000000000E+00  0.00000000000E+00 -0.10263624862E+04  0.23124825146E+04  0.20722344045E+04 0.  0.
        2    1    3    3  502    0  0.80721683874E+03  0.28801646419E+03  0.13654540902E+03  0.86786932030E+03  0.25500000920E-02 0. -1.
       -2    1    3    3    0  502 -0.80721683874E+03 -0.28801646419E+03 -0.11629078952E+04  0.14446131943E+04  0.25500000920E-02 0.  1.
</event>
<event>
 5   0  0.4182977E-05  0.2069534E+04  0.7818609E-02  0.8574784E-01
       -1   -1    0    0    0  501  0.00000000000E+00  0.00000000000E+00  0.67821596239E+03  0.67821596241E+03  0.50400001928E-02 0.  1.
        1   -1    0    0  501    0  0.00000000000E+00  0.00000000000E+00 -0.15787631217E+04  0.15787631217E+04  0.50400001928E-02 0. -1.
    10030    2    1    2    0    0  0.00000000000E+00  0.00000000000E+00 -0.90054715931E+03  0.22569790841E+04  0.20695336190E+04 0.  0.
        1    1    3    3  502    0 -0.58844923995E+03 -0.51946454828E+03 -0.11856037517E+04  0.14218903548E+04  0.50400001928E-02 0. -1.
       -1    1    3    3    0  502  0.58844923995E+03  0.51946454828E+03  0.28505659243E+03  0.83508872931E+03  0.50400001928E-02 0.  1.
</event>
<event>
 5   0  0.8858590E-05  0.2066813E+04  0.7818609E-02  0.8576005E-01
       -2   -1    0    0    0  501  0.00000000000E+00  0.00000000000E+00  0.84020838171E+03  0.84020838171E+03  0.25500000920E-02 0.  1.
        2   -1    0    0  501    0  0.00000000000E+00  0.00000000000E+00 -0.12710287100E+04  0.12710287100E+04  0.25500000920E-02 0. -1.
    10030    2    1    2    0    0  0.00000000000E+00  0.00000000000E+00 -0.43082032825E+03  0.21112370917E+04  0.20668129819E+04 0.  0.
        1    1    3    3  502    0  0.75101762358E+03  0.68522818619E+03 -0.26050857732E+02  0.10169777703E+04  0.50400001928E-02 0. -1.
       -1    1    3    3    0  502 -0.75101762358E+03 -0.68522818619E+03 -0.40476947052E+03  0.10942593214E+04  0.50400001928E-02 0.  1.
</event>
<event>
 5   0  0.4174093E-05  0.2090289E+04  0.7818609E-02  0.8565533E-01
        1   -1    0    0  501    0  0.00000000000E+00  0.00000000000E+00  0.13514385313E+04  0.13514385313E+04  0.50400001928E-02 0.  1.
       -1   -1    0    0    0  501  0.00000000000E+00  0.00000000000E+00 -0.80827001901E+03  0.80827001903E+03  0.50400001928E-02 0. -1.
    10030    2    1    2    0    0  0.00000000000E+00  0.00000000000E+00  0.54316851228E+03  0.21597085503E+04  0.20902892120E+04 0.  0.
        3    1    3    3  502    0  0.72775791847E+03  0.37623084921E+03 -0.39892550911E+03  0.91122050669E+03  0.10100000352E+00 0. -1.
       -3    1    3    3    0  502 -0.72775791847E+03 -0.37623084921E+03  0.94209402139E+03  0.12484880436E+04  0.10100000352E+00 0.  1.
</event>
<event>
 5   0  0.4128678E-05  0.2087649E+04  0.7818609E-02  0.8566704E-01
        1   -1    0    0  501    0  0.00000000000E+00  0.00000000000E+00  0.77579679089E+03  0.77579679091E+03  0.50400001928E-02 0.  1.
       -1   -1    0    0    0  501  0.00000000000E+00  0.00000000000E+00 -0.14044527156E+04  0.14044527157E+04  0.50400001928E-02 0. -1.
    10030    2    1    2    0    0  0.00000000000E+00  0.00000000000E+00 -0.62865592475E+03  0.21802495066E+04  0.20876493094E+04 0.  0.
        5    1    3    3  502    0  0.92350762563E+03  0.14755179131E+03 -0.79847459593E+03  0.12297242114E+04  0.46999998093E+01 0. -1.
       -5    1    3    3    0  502 -0.92350762563E+03 -0.14755179131E+03  0.16981867117E+03  0.95052529518E+03  0.46999998093E+01 0.  1.
</event>
<event>
 5   0  0.4174093E-05  0.2074839E+04  0.7818609E-02  0.8572409E-01
        1   -1    0    0  501    0  0.00000000000E+00  0.00000000000E+00  0.16604488153E+04  0.16604488153E+04  0.50400001928E-02 0.  1.
       -1   -1    0    0    0  501  0.00000000000E+00  0.00000000000E+00 -0.64816172937E+03  0.64816172939E+03  0.50400001928E-02 0. -1.
    10030    2    1    2    0    0  0.00000000000E+00  0.00000000000E+00  0.10122870860E+04  0.23086105447E+04  0.20748391511E+04 0.  0.
        3    1    3    3  502    0 -0.27170264192E+03  0.34160297329E+03 -0.54102251527E+03  0.69514048164E+03  0.10100000352E+00 0. -1.
       -3    1    3    3    0  502  0.27170264192E+03 -0.34160297329E+03  0.15533096012E+04  0.16134700631E+04  0.10100000352E+00 0.  1.
</event>
<event>
 5   0  0.9012466E-05  0.2105545E+04  0.7818609E-02  0.8558805E-01
        2   -1    0    0  501    0  0.00000000000E+00  0.00000000000E+00  0.62406596428E+03  0.62406596429E+03  0.25500000920E-02 0.  1.
       -2   -1    0    0    0  501  0.00000000000E+00  0.00000000000E+00 -0.17759813189E+04  0.17759813189E+04  0.25500000920E-02 0. -1.
    10030    2    1    2    0    0  0.00000000000E+00  0.00000000000E+00 -0.11519153547E+04  0.24000472832E+04  0.21055445798E+04 0.  0.
        2    1    3    3  502    0  0.79851273053E+03 -0.29554470707E+02 -0.13572747640E+04  0.15750208991E+04  0.25500000920E-02 0. -1.
       -2    1    3    3    0  502 -0.79851273053E+03  0.29554470707E+02  0.20535940932E+03  0.82502638416E+03  0.25500000920E-02 0.  1.
</event>
<event>
 5   0  0.9012466E-05  0.2090694E+04  0.7818609E-02  0.8565354E-01
       -2   -1    0    0    0  501  0.00000000000E+00  0.00000000000E+00  0.37539654861E+03  0.37539654862E+03  0.25500000920E-02 0. -1.
        2   -1    0    0  501    0  0.00000000000E+00  0.00000000000E+00 -0.29109229911E+04  0.29109229911E+04  0.25500000920E-02 0.  1.
    10030    2    1    2    0    0  0.00000000000E+00  0.00000000000E+00 -0.25355264425E+04  0.32863195397E+04  0.20906940897E+04 0.  0.
        2    1    3    3  502    0  0.10376932837E+04 -0.11247909836E+03 -0.13579450889E+04  0.17127386733E+04  0.25500000920E-02 0. -1.
       -2    1    3    3    0  502 -0.10376932837E+04  0.11247909836E+03 -0.11775813536E+04  0.15735808664E+04  0.25500000920E-02 0.  1.
</event>
<event>
 5   0  0.8547605E-05  0.1874642E+04  0.7818609E-02  0.8667583E-01
       -2   -1    0    0    0  501  0.00000000000E+00  0.00000000000E+00  0.50564891621E+03  0.50564891622E+03  0.25500000920E-02 0. -1.
        2   -1    0    0  501    0  0.00000000000E+00  0.00000000000E+00 -0.17375110897E+04  0.17375110897E+04  0.25500000920E-02 0.  1.
    10030    2    1    2    0    0  0.00000000000E+00  0.00000000000E+00 -0.12318621735E+04  0.22431600059E+04  0.18746419385E+04 0.  0.
        4    1    3    3  502    0  0.14212549799E+03  0.35606169887E+03  0.40754011138E+03  0.55952671595E+03  0.12699999809E+01 0. -1.
       -4    1    3    3    0  502 -0.14212549799E+03 -0.35606169887E+03 -0.16394022848E+04  0.16836332899E+04  0.12699999809E+01 0.  1.
</event>
<event>
 5   0  0.3176125E-05  0.2093062E+04  0.7818609E-02  0.8564306E-01
        3   -1    0    0  501    0  0.00000000000E+00  0.00000000000E+00  0.21193615921E+04  0.21193615946E+04  0.10100000352E+00 0. -1.
       -3   -1    0    0    0  501  0.00000000000E+00  0.00000000000E+00 -0.51677200343E+03  0.51677201330E+03  0.10100000352E+00 0.  1.
    10030    2    1    2    0    0  0.00000000000E+00  0.00000000000E+00  0.16025895887E+04  0.26361336079E+04  0.20930616352E+04 0.  0.
        2    1    3    3  502    0  0.17306079600E+03  0.36920017332E+03  0.20152027700E+04  0.20560401288E+04  0.25500000920E-02 0. -1.
       -2    1    3    3    0  502 -0.17306079600E+03 -0.36920017332E+03 -0.41261318126E+03  0.58009347906E+03  0.25500000920E-02 0.  1.
</event>
<event>
 5   0  0.4174093E-05  0.2097217E+04  0.7818609E-02  0.8562470E-01
       -1   -1    0    0    0  501  0.00000000000E+00  0.00000000000E+00  0.11257945771E+04  0.11257945771E+04  0.50400001928E-02 0.  1.
        1   -1    0    0  501    0  0.00000000000E+00  0.00000000000E+00 -0.97671437294E+03  0.97671437296E+03  0.50400001928E-02 0. -1.
    10030    2    1    2    0    0  0.00000000000E+00  0.00000000000E+00  0.14908020419E+03  0.21025089501E+04  0.20972169602E+04 0.  0.
        3    1    3    3  502    0  0.66035898189E+03 -0.78704252839E+03  0.28499792352E+03  0.10661771678E+04  0.10100000352E+00 0. -1.
       -3    1    3    3    0  502 -0.66035898189E+03  0.78704252839E+03 -0.13591771933E+03  0.10363317823E+04  0.10100000352E+00 0.  1.
</event>
<event>
 5   0  0.4200061E-05  0.2087041E+04  0.7818609E-02  0.8566974E-01
        1   -1    0    0  501    0  0.00000000000E+00  0.00000000000E+00  0.12325785659E+04  0.12325785659E+04  0.50400001928E-02 0.  1.
       -1   -1    0    0    0  501  0.00000000000E+00  0.00000000000E+00 -0.88346077625E+03  0.88346077626E+03  0.50400001928E-02 0. -1.
    10030    2    1    2    0    0  0.00000000000E+00  0.00000000000E+00  0.34911778966E+03  0.21160393422E+04  0.20870407918E+04 0.  0.
        4    1    3    3  502    0  0.39659965572E+03 -0.20833913614E+03  0.11301171357E+04  0.12156738197E+04  0.12699999809E+01 0.  1.
       -4    1    3    3    0  502 -0.39659965572E+03  0.20833913614E+03 -0.78099934608E+03  0.90036552246E+03  0.12699999809E+01 0. -1.
</event>
<event>
 5   0  0.9086985E-05  0.2102853E+04  0.7818609E-02  0.8559988E-01
       -2   -1    0    0    0  501  0.00000000000E+00  0.00000000000E+00  0.63083387248E+03  0.63083387249E+03  0.25500000920E-02 0. -1.
        2   -1    0    0  501    0  0.00000000000E+00  0.00000000000E+00 -0.17524390231E+04  0.17524390231E+04  0.25500000920E-02 0.  1.
    10030    2    1    2    0    0  0.00000000000E+00  0.00000000000E+00 -0.11216051506E+04  0.23832728956E+04  0.21028532001E+04 0.  0.
        5    1    3    3  502    0  0.21318007576E+03 -0.33140824984E+03 -0.16655729474E+04  0.17115585020E+04  0.46999998093E+01 0.  1.
       -5    1    3    3    0  502 -0.21318007576E+03  0.33140824984E+03  0.54396779671E+03  0.67171439364E+03  0.46999998093E+01 0. -1.
</event>
<event>
 5   0  0.4174093E-05  0.2093002E+04  0.7818609E-02  0.8564332E-01
        1   -1    0    0  501    0  0.00000000000E+00  0.00000000000E+00  0.66452166079E+03  0.66452166081E+03  0.50400001928E-02 0.  1.
       -1   -1    0    0    0  501  0.00000000000E+00  0.00000000000E+00 -0.16480491504E+04  0.16480491504E+04  0.50400001928E-02 0. -1.
    10030    2    1    2    0    0  0.00000000000E+00  0.00000000000E+00 -0.98352748959E+03  0.23125708112E+04  0.20930020148E+04 0.  0.
        3    1    3    3  502    0  0.38719383728E+03 -0.11735673638E+03  0.57461247928E+03  0.70275969061E+03  0.10100000352E+00 0.  1.
       -3    1    3    3    0  502 -0.38719383728E+03  0.11735673638E+03 -0.15581399689E+04  0.16098111206E+04  0.10100000352E+00 0. -1.
</event>
<event>
 5   0  0.4050368E-05  0.1841015E+04  0.7818609E-02  0.8684787E-01
        1   -1    0    0  501    0  0.00000000000E+00  0.00000000000E+00  0.11692583803E+04  0.11692583803E+04  0.50400001928E-02 0. -1.
       -1   -1    0    0    0  501  0.00000000000E+00  0.00000000000E+00 -0.72467644549E+03  0.72467644551E+03  0.50400001928E-02 0.  1.
    10030    2    1    2    0    0  0.00000000000E+00  0.00000000000E+00  0.44458193483E+03  0.18939348258E+04  0.18410149450E+04 0.  0.
        2    1    3    3  502    0 -0.60661982585E+03  0.59264453233E+03  0.59051678524E+03  0.10334046780E+04  0.25500000920E-02 0. -1.
       -2    1    3    3    0  502  0.60661982585E+03 -0.59264453233E+03 -0.14593485041E+03  0.86053014786E+03  0.25500000920E-02 0.  1.
</event>
<event>
 5   0  0.8872777E-05  0.2103825E+04  0.7818609E-02  0.8559560E-01
       -2   -1    0    0    0  501  0.00000000000E+00  0.00000000000E+00  0.42543268233E+03  0.42543268234E+03  0.25500000920E-02 0.  1.
        2   -1    0    0  501    0  0.00000000000E+00  0.00000000000E+00 -0.26009283857E+04  0.26009283857E+04  0.25500000920E-02 0. -1.
    10030    2    1    2    0    0  0.00000000000E+00  0.00000000000E+00 -0.21754957034E+04  0.30263610681E+04  0.21038250305E+04 0.  0.
        3    1    3    3  502    0 -0.87028493770E+03 -0.56876246199E+03 -0.13180582471E+04  0.16787388611E+04  0.10100000352E+00 0. -1.
       -3    1    3    3    0  502  0.87028493770E+03  0.56876246199E+03 -0.85743745636E+03  0.13476222070E+04  0.10100000352E+00 0.  1.
</event>
<event>
 5   0  0.4174093E-05  0.2092414E+04  0.7818609E-02  0.8564592E-01
       -1   -1    0    0    0  501  0.00000000000E+00  0.00000000000E+00  0.99020215674E+03  0.99020215676E+03  0.50400001928E-02 0.  1.
        1   -1    0    0  501    0  0.00000000000E+00  0.00000000000E+00 -0.11053793561E+04  0.11053793562E+04  0.50400001928E-02 0. -1.
    10030    2    1    2    0    0  0.00000000000E+00  0.00000000000E+00 -0.11517719940E+03  0.20955815129E+04  0.20924139385E+04 0.  0.
        3    1    3    3  502    0 -0.42762756168E+03  0.95256049515E+03  0.81780303803E+01  0.10441760957E+04  0.10100000352E+00 0.  1.
       -3    1    3    3    0  502  0.42762756168E+03 -0.95256049515E+03 -0.12335522978E+03  0.10514054172E+04  0.10100000352E+00 0. -1.
</event>
<event>
 5   0  0.4174093E-05  0.2106271E+04  0.7818609E-02  0.8558486E-01
       -1   -1    0    0    0  501  0.00000000000E+00  0.00000000000E+00  0.64395524496E+03  0.64395524497E+03  0.50400001928E-02 0. -1.
        1   -1    0    0  501    0  0.00000000000E+00  0.00000000000E+00 -0.17223154148E+04  0.17223154148E+04  0.50400001928E-02 0.  1.
    10030    2    1    2    0    0  0.00000000000E+00  0.00000000000E+00 -0.10783601699E+04  0.23662706598E+04  0.21062706805E+04 0.  0.
        3    1    3    3  502    0  0.17136924561E+03 -0.43626160777E+03  0.52031608545E+03  0.70030025542E+03  0.10100000352E+00 0. -1.
       -3    1    3    3    0  502 -0.17136924561E+03  0.43626160777E+03 -0.15986762553E+04  0.16659704044E+04  0.10100000352E+00 0.  1.
</event>
<event>
 5   0  0.4174093E-05  0.2109831E+04  0.7818609E-02  0.8556925E-01
        1   -1    0    0  501    0  0.00000000000E+00  0.00000000000E+00  0.20740675617E+04  0.20740675617E+04  0.50400001928E-02 0.  1.
       -1   -1    0    0    0  501  0.00000000000E+00  0.00000000000E+00 -0.53655255100E+03  0.53655255103E+03  0.50400001928E-02 0. -1.
    10030    2    1    2    0    0  0.00000000000E+00  0.00000000000E+00  0.15375150107E+04  0.26106201127E+04  0.21098305536E+04 0.  0.
        3    1    3    3  502    0  0.40386999170E+03  0.34388007753E+02  0.19738679222E+04  0.20150553565E+04  0.10100000352E+00 0.  1.
       -3    1    3    3    0  502 -0.40386999170E+03 -0.34388007753E+02 -0.43635291151E+03  0.59556475622E+03  0.10100000352E+00 0. -1.
</event>
<event>
 5   0  0.3176125E-05  0.2095456E+04  0.7818609E-02  0.8563248E-01
       -4   -1    0    0    0  501  0.00000000000E+00  0.00000000000E+00  0.91461474078E+03  0.91461562251E+03  0.12699999809E+01 0. -1.
        4   -1    0    0  501    0  0.00000000000E+00  0.00000000000E+00 -0.12002127770E+04  0.12002134489E+04  0.12699999809E+01 0.  1.
    10030    2    1    2    0    0  0.00000000000E+00  0.00000000000E+00 -0.28559803625E+03  0.21148290715E+04  0.20954559798E+04 0.  0.
        2    1    3    3  502    0  0.29728607640E+03  0.12066496927E+03  0.86381622792E+03  0.92147573036E+03  0.25500000920E-02 0. -1.
       -2    1    3    3    0  502 -0.29728607640E+03 -0.12066496927E+03 -0.11494142642E+04  0.11933533411E+04  0.25500000920E-02 0.  1.
</event>
<event>
 5   0  0.4200061E-05  0.2132351E+04  0.7818609E-02  0.8547125E-01
        1   -1    0    0  501    0  0.00000000000E+00  0.00000000000E+00  0.61163479300E+03  0.61163479303E+03  0.50400001928E-02 0.  1.
       -1   -1    0    0    0  501  0.00000000000E+00  0.00000000000E+00 -0.18585110738E+04  0.18585110738E+04  0.50400001928E-02 0. -1.
    10030    2    1    2    0    0  0.00000000000E+00  0.00000000000E+00 -0.12468762808E+04  0.24701458668E+04  0.21323508491E+04 0.  0.
        4    1    3    3  502    0 -0.29086922181E+03 -0.14052388944E+03 -0.18004558658E+04  0.18292060587E+04  0.12699999809E+01 0. -1.
       -4    1    3    3    0  502  0.29086922181E+03  0.14052388944E+03  0.55357958504E+03  0.64093980807E+03  0.12699999809E+01 0.  1.
</event>
<event>
 5   0  0.4200061E-05  0.2067405E+04  0.7818609E-02  0.8575739E-01
        1   -1    0    0  501    0  0.00000000000E+00  0.00000000000E+00  0.14831594352E+04  0.14831594352E+04  0.50400001928E-02 0. -1.
       -1   -1    0    0    0  501  0.00000000000E+00  0.00000000000E+00 -0.72044923591E+03  0.72044923593E+03  0.50400001928E-02 0.  1.
    10030    2    1    2    0    0  0.00000000000E+00  0.00000000000E+00  0.76271019926E+03  0.22036086711E+04  0.20674052161E+04 0.  0.
        4    1    3    3  502    0 -0.36809126392E+03  0.24726502644E+03 -0.61392259287E+03  0.75732010062E+03  0.12699999809E+01 0.  1.
       -4    1    3    3    0  502  0.36809126392E+03 -0.24726502644E+03  0.13766327921E+04  0.14462885705E+04  0.12699999809E+01 0. -1.
</event>
<event>
 5   0  0.8872777E-05  0.2100088E+04  0.7818609E-02  0.8561205E-01
       -2   -1    0    0    0  501  0.00000000000E+00  0.00000000000E+00  0.53779466449E+03  0.53779466449E+03  0.25500000920E-02 0.  1.
        2   -1    0    0  501    0  0.00000000000E+00  0.00000000000E+00 -0.20502110408E+04  0.20502110408E+04  0.25500000920E-02 0. -1.
    10030    2    1    2    0    0  0.00000000000E+00  0.00000000000E+00 -0.15124163763E+04  0.25880057053E+04  0.21000881494E+04 0.  0.
        3    1    3    3  502    0  0.56879993951E+03  0.86844887846E+03 -0.56192245752E+03  0.11804633345E+04  0.10100000352E+00 0.  1.
       -3    1    3    3    0  502 -0.56879993951E+03 -0.86844887846E+03 -0.95049391880E+03  0.14075423708E+04  0.10100000352E+00 0. -1.
</event>
<event>
 5   0  0.8547605E-05  0.2109063E+04  0.7818609E-02  0.8557261E-01
       -2   -1    0    0    0  501  0.00000000000E+00  0.00000000000E+00  0.12932544782E+04  0.12932544782E+04  0.25500000920E-02 0. -1.
        2   -1    0    0  501    0  0.00000000000E+00  0.00000000000E+00 -0.85987478325E+03  0.85987478326E+03  0.25500000920E-02 0.  1.
    10030    2    1    2    0    0  0.00000000000E+00  0.00000000000E+00  0.43337969493E+03  0.21531292614E+04  0.21090632178E+04 0.  0.
        4    1    3    3  502    0 -0.35304759458E+03  0.34959819138E+03  0.11662712176E+04  0.12676954151E+04  0.12699999809E+01 0. -1.
       -4    1    3    3    0  502  0.35304759458E+03 -0.34959819138E+03 -0.73289152266E+03  0.88543384639E+03  0.12699999809E+01 0.  1.
</event>
<event>
 5   0  0.8547605E-05  0.2094644E+04  0.7818609E-02  0.8563606E-01
       -2   -1    0    0    0  501  0.00000000000E+00  0.00000000000E+00  0.10101210071E+04  0.10101210071E+04  0.25500000920E-02 0.  1.
        2   -1    0    0  501    0  0.00000000000E+00  0.00000000000E+00 -0.10858932475E+04  0.10858932475E+04  0.25500000920E-02 0. -1.
    10030    2    1    2    0    0  0.00000000000E+00  0.00000000000E+00 -0.75772240325E+02  0.20960142546E+04  0.20946441996E+04 0.  0.
        4    1    3    3  502    0 -0.99522215234E+03  0.28371982005E+03 -0.19898178947E+03  0.10538308376E+04  0.12699999809E+01 0.  1.
       -4    1    3    3    0  502  0.99522215234E+03 -0.28371982005E+03  0.12320954914E+03  0.10421834170E+04  0.12699999809E+01 0. -1.
</event>
<event>
 5   0  0.4128678E-05  0.2101322E+04  0.7818609E-02  0.8560661E-01
        1   -1    0    0  501    0  0.00000000000E+00  0.00000000000E+00  0.13387100776E+04  0.13387100776E+04  0.50400001928E-02 0.  1.
       -1   -1    0    0    0  501  0.00000000000E+00  0.00000000000E+00 -0.82459153329E+03  0.82459153331E+03  0.50400001928E-02 0. -1.
    10030    2    1    2    0    0  0.00000000000E+00  0.00000000000E+00  0.51411854430E+03  0.21633016109E+04  0.21013224365E+04 0.  0.
        5    1    3    3  502    0  0.16618726371E+03 -0.10353675587E+04  0.32427449526E+03  0.10976248113E+04  0.46999998093E+01 0.  1.
       -5    1    3    3    0  502 -0.16618726371E+03  0.10353675587E+04  0.18984404904E+03  0.10656767996E+04  0.46999998093E+01 0. -1.
</event>
<event>
 5   0  0.4174093E-05  0.2103386E+04  0.7818609E-02  0.8559753E-01
        1   -1    0    0  501    0  0.00000000000E+00  0.00000000000E+00  0.11498597340E+04  0.11498597340E+04  0.50400001928E-02 0.  1.
       -1   -1    0    0    0  501  0.00000000000E+00  0.00000000000E+00 -0.96190696490E+03  0.96190696491E+03  0.50400001928E-02 0. -1.
    10030    2    1    2    0    0  0.00000000000E+00  0.00000000000E+00  0.18795276905E+03  0.21117666989E+04  0.21033859244E+04 0.  0.
        3    1    3    3  502    0 -0.98312051911E+03 -0.31096535134E+03  0.30176155845E+03  0.10743767743E+04  0.10100000352E+00 0.  1.
       -3    1    3    3    0  502  0.98312051911E+03  0.31096535134E+03 -0.11380878940E+03  0.10373899246E+04  0.10100000352E+00 0. -1.
</event>
<event>
 5   0  0.8547605E-05  0.1827823E+04  0.7818609E-02  0.8691642E-01
       -2   -1    0    0    0  501  0.00000000000E+00  0.00000000000E+00  0.12105972685E+04  0.12105972685E+04  0.25500000920E-02 0. -1.
        2   -1    0    0  501    0  0.00000000000E+00  0.00000000000E+00 -0.68993547922E+03  0.68993547923E+03  0.25500000920E-02 0.  1.
    10030    2    1    2    0    0  0.00000000000E+00  0.00000000000E+00  0.52066178924E+03  0.19005327477E+04  0.18278227557E+04 0.  0.
        4    1    3    3  502    0  0.29386328659E+03  0.51196312219E+03  0.98577409335E+03  0.11490056770E+04  0.12699999809E+01 0. -1.
       -4    1    3    3    0  502 -0.29386328659E+03 -0.51196312219E+03 -0.46511230411E+03  0.75152707072E+03  0.12699999809E+01 0.  1.
</event>
<event>
 5   0  0.9086985E-05  0.2140772E+04  0.7818609E-02  0.8543492E-01
        2   -1    0    0  501    0  0.00000000000E+00  0.00000000000E+00  0.11110513654E+04  0.11110513654E+04  0.25500000920E-02 0. -1.
       -2   -1    0    0    0  501  0.00000000000E+00  0.00000000000E+00 -0.10312093549E+04  0.10312093549E+04  0.25500000920E-02 0.  1.
    10030    2    1    2    0    0  0.00000000000E+00  0.00000000000E+00  0.79842010489E+02  0.21422607204E+04  0.21407723483E+04 0.  0.
        5    1    3    3  502    0  0.10172613601E+04  0.33104604450E+03  0.75894761518E+02  0.10724711013E+04  0.46999998093E+01 0.  1.
       -5    1    3    3    0  502 -0.10172613601E+04 -0.33104604450E+03  0.39472489711E+01  0.10697896191E+04  0.46999998093E+01 0. -1.
</event>
<event>
 5   0  0.4128678E-05  0.2081124E+04  0.7818609E-02  0.8569604E-01
       -1   -1    0    0    0  501  0.00000000000E+00  0.00000000000E+00  0.19841491987E+04  0.19841491988E+04  0.50400001928E-02 0. -1.
        1   -1    0    0  501    0  0.00000000000E+00  0.00000000000E+00 -0.54570980052E+03  0.54570980054E+03  0.50400001928E-02 0.  1.
    10030    2    1    2    0    0  0.00000000000E+00  0.00000000000E+00  0.14384393982E+04  0.25298589993E+04  0.20811243725E+04 0.  0.
        5    1    3    3  502    0 -0.55874816301E+03  0.52573161181E+03  0.15737541704E+04  0.17508048196E+04  0.46999998093E+01 0. -1.
       -5    1    3    3    0  502  0.55874816301E+03 -0.52573161181E+03 -0.13531477221E+03  0.77905417970E+03  0.46999998093E+01 0.  1.
</event>
<event>
 5   0  0.4174093E-05  0.2086186E+04  0.7818609E-02  0.8567353E-01
       -1   -1    0    0    0  501  0.00000000000E+00  0.00000000000E+00  0.48855079700E+03  0.48855079703E+03  0.50400001928E-02 0.  1.
        1   -1    0    0  501    0  0.00000000000E+00  0.00000000000E+00 -0.22270831058E+04  0.22270831058E+04  0.50400001928E-02 0. -1.
    10030    2    1    2    0    0  0.00000000000E+00  0.00000000000E+00 -0.17385323088E+04  0.27156339029E+04  0.20861862106E+04 0.  0.
        3    1    3    3  502    0  0.43322434980E+03  0.51288012888E+03  0.16992353839E+03  0.69253403018E+03  0.10100000352E+00 0.  1.
       -3    1    3    3    0  502 -0.43322434980E+03 -0.51288012888E+03 -0.19084558472E+04  0.20230998727E+04  0.10100000352E+00 0. -1.
</event>
<event>
 5   0  0.9012466E-05  0.2075491E+04  0.7818609E-02  0.8572117E-01
        2   -1    0    0  501    0  0.00000000000E+00  0.00000000000E+00  0.96900376142E+03  0.96900376142E+03  0.25500000920E-02 0.  1.
       -2   -1    0    0    0  501  0.00000000000E+00  0.00000000000E+00 -0.11113639923E+04  0.11113639923E+04  0.25500000920E-02 0. -1.
    10030    2    1    2    0    0  0.00000000000E+00  0.00000000000E+00 -0.14236023092E+03  0.20803677538E+04  0.20754911601E+04 0.  0.
        2    1    3    3  502    0  0.15387068831E+03  0.41185817555E+03 -0.10133954360E+04  0.11046599727E+04  0.25500000920E-02 0. -1.
       -2    1    3    3    0  502 -0.15387068831E+03 -0.41185817555E+03  0.87103520511E+03  0.97570778107E+03  0.25500000920E-02 0.  1.
</event>
<event>
 5   0  0.9086985E-05  0.2117275E+04  0.7818609E-02  0.8553672E-01
        2   -1    0    0  501    0  0.00000000000E+00  0.00000000000E+00  0.20254149414E+04  0.20254149414E+04  0.25500000920E-02 0. -1.
       -2   -1    0    0    0  501  0.00000000000E+00  0.00000000000E+00 -0.55332536293E+03  0.55332536294E+03  0.25500000920E-02 0.  1.
    10030    2    1    2    0    0  0.00000000000E+00  0.00000000000E+00  0.14720895785E+04  0.25787403044E+04  0.21172750956E+04 0.  0.
        5    1    3    3  502    0  0.69498895959E+03  0.77249855396E+03  0.98244380954E+03  0.14300285307E+04  0.46999998093E+01 0.  1.
       -5    1    3    3    0  502 -0.69498895959E+03 -0.77249855396E+03  0.48964576898E+03  0.11487117736E+04  0.46999998093E+01 0. -1.
</event>
<event>
 5   0  0.8858590E-05  0.2096720E+04  0.7818609E-02  0.8562690E-01
       -2   -1    0    0    0  501  0.00000000000E+00  0.00000000000E+00  0.10135266354E+04  0.10135266354E+04  0.25500000920E-02 0.  1.
        2   -1    0    0  501    0  0.00000000000E+00  0.00000000000E+00 -0.10843900709E+04  0.10843900709E+04  0.25500000920E-02 0. -1.
    10030    2    1    2    0    0  0.00000000000E+00  0.00000000000E+00 -0.70863435502E+02  0.20979167063E+04  0.20967195521E+04 0.  0.
        1    1    3    3  502    0  0.90042745637E+03  0.51858293563E+03  0.10378921874E+03  0.10442557480E+04  0.50400001928E-02 0. -1.
       -1    1    3    3    0  502 -0.90042745637E+03 -0.51858293563E+03 -0.17465265424E+03  0.10536609583E+04  0.50400001928E-02 0.  1.
</event>
<event>
 5   0  0.8547605E-05  0.2090920E+04  0.7818609E-02  0.8565254E-01
        2   -1    0    0  501    0  0.00000000000E+00  0.00000000000E+00  0.10925158730E+04  0.10925158730E+04  0.25500000920E-02 0. -1.
       -2   -1    0    0    0  501  0.00000000000E+00  0.00000000000E+00 -0.10004304181E+04  0.10004304181E+04  0.25500000920E-02 0.  1.
    10030    2    1    2    0    0  0.00000000000E+00  0.00000000000E+00  0.92085454924E+02  0.20929462911E+04  0.20909195218E+04 0.  0.
        4    1    3    3  502    0  0.56907864148E+03 -0.52614965208E+03  0.74836416233E+03  0.10773738854E+04  0.12699999809E+01 0. -1.
       -4    1    3    3    0  502 -0.56907864148E+03  0.52614965208E+03 -0.65627870740E+03  0.10155724057E+04  0.12699999809E+01 0.  1.
</event>
<event>
 5   0  0.9086985E-05  0.1921852E+04  0.7818609E-02  0.8644055E-01
        2   -1    0    0  501    0  0.00000000000E+00  0.00000000000E+00  0.96038388947E+03  0.96038388947E+03  0.25500000920E-02 0.  1.
       -2   -1    0    0    0  501  0.00000000000E+00  0.00000000000E+00 -0.96146873837E+03  0.96146873838E+03  0.25500000920E-02 0. -1.
    10030    2    1    2    0    0  0.00000000000E+00  0.00000000000E+00 -0.10848489021E+01  0.19218526279E+04  0.19218523217E+04 0.  0.
        5    1    3    3  502    0  0.39810385228E+03  0.40494063890E+03  0.77463083993E+03  0.96048874350E+03  0.46999998093E+01 0.  1.
       -5    1    3    3    0  502 -0.39810385228E+03 -0.40494063890E+03 -0.77571568883E+03  0.96136388435E+03  0.46999998093E+01 0. -1.
</event>
<event>
 5   0  0.8872777E-05  0.2089299E+04  0.7818609E-02  0.8565972E-01
        2   -1    0    0  501    0  0.00000000000E+00  0.00000000000E+00  0.15873018893E+04  0.15873018893E+04  0.25500000920E-02 0.  1.
       -2   -1    0    0    0  501  0.00000000000E+00  0.00000000000E+00 -0.68751411762E+03  0.68751411762E+03  0.25500000920E-02 0. -1.
    10030    2    1    2    0    0  0.00000000000E+00  0.00000000000E+00  0.89978777167E+03  0.22748160069E+04  0.20892988851E+04 0.  0.
        3    1    3    3  502    0  0.10359821059E+03 -0.78752664938E+03 -0.28885232255E+03  0.84520203926E+03  0.10100000352E+00 0. -1.
       -3    1    3    3    0  502 -0.10359821059E+03  0.78752664938E+03  0.11886400942E+04  0.14296139677E+04  0.10100000352E+00 0.  1.
</event>
<event>
 5   0  0.4050368E-05  0.2110146E+04  0.7818609E-02  0.8556787E-01
        1   -1    0    0  501    0  0.00000000000E+00  0.00000000000E+00  0.14278422276E+04  0.14278422276E+04  0.50400001928E-02 0.  1.
       -1   -1    0    0    0  501  0.00000000000E+00  0.00000000000E+00 -0.77962310992E+03  0.77962310994E+03  0.50400001928E-02 0. -1.
    10030    2    1    2    0    0  0.00000000000E+00  0.00000000000E+00  0.64821911764E+03  0.22074653375E+04  0.21101457750E+04 0.  0.
        2    1    3    3  502    0  0.67024928713E+02  0.39516312416E+01 -0.77738599117E+03  0.78028003674E+03  0.25500000920E-02 0. -1.
       -2    1    3    3    0  502 -0.67024928713E+02 -0.39516312416E+01  0.14256051088E+04  0.14271853008E+04  0.25500000920E-02 0.  1.
</event>
<event>
 5   0  0.9086985E-05  0.1849354E+04  0.7818609E-02  0.8680485E-01
        2   -1    0    0  501    0  0.00000000000E+00  0.00000000000E+00  0.19072497208E+04  0.19072497208E+04  0.25500000920E-02 0.  1.
       -2   -1    0    0    0  501  0.00000000000E+00  0.00000000000E+00 -0.44830403780E+03  0.44830403781E+03  0.25500000920E-02 0. -1.
    10030    2    1    2    0    0  0.00000000000E+00  0.00000000000E+00  0.14589456830E+04  0.23555537586E+04  0.18493542126E+04 0.  0.
        5    1    3    3  502    0  0.69189437350E+03  0.60637152074E+03  0.61134347144E+03  0.11046117758E+04  0.46999998093E+01 0. -1.
       -5    1    3    3    0  502 -0.69189437350E+03 -0.60637152074E+03  0.84760221155E+03  0.12509419828E+04  0.46999998093E+01 0.  1.
</event>
<event>
 5   0  0.4128678E-05  0.2090909E+04  0.7818609E-02  0.8565259E-01
        1   -1    0    0  501    0  0.00000000000E+00  0.00000000000E+00  0.12221927261E+04  0.12221927261E+04  0.50400001928E-02 0.  1.
       -1   -1    0    0    0  501  0.00000000000E+00  0.00000000000E+00 -0.89427363476E+03  0.89427363478E+03  0.50400001928E-02 0. -1.
    10030    2    1    2    0    0  0.00000000000E+00  0.00000000000E+00  0.32791909131E+03  0.21164663609E+04  0.20909086365E+04 0.  0.
        5    1    3    3  502    0 -0.31671782678E+03 -0.49242363651E+03 -0.71274584476E+03  0.92239901822E+03  0.46999998093E+01 0. -1.
       -5    1    3    3    0  502  0.31671782678E+03  0.49242363651E+03  0.10406649361E+04  0.11940673426E+04  0.46999998093E+01 0.  1.
</event>
<event>
 5   0  0.4128678E-05  0.1723746E+04  0.7818609E-02  0.8747936E-01
       -1   -1    0    0    0  501  0.00000000000E+00  0.00000000000E+00  0.64289337804E+03  0.64289337806E+03  0.50400001928E-02 0. -1.
        1   -1    0    0  501    0  0.00000000000E+00  0.00000000000E+00 -0.11554402025E+04  0.11554402025E+04  0.50400001928E-02 0.  1.
    10030    2    1    2    0    0  0.00000000000E+00  0.00000000000E+00 -0.51254682444E+03  0.17983335805E+04  0.17237457526E+04 0.  0.
        5    1    3    3  502    0 -0.45860279705E+03 -0.35813199509E+03 -0.91957354997E+03  0.10882153533E+04  0.46999998093E+01 0.  1.
       -5    1    3    3    0  502  0.45860279705E+03  0.35813199509E+03  0.40702672553E+03  0.71011822724E+03  0.46999998093E+01 0. -1.
</event>
<event>
 5   0  0.4128678E-05  0.2045358E+04  0.7818609E-02  0.8585703E-01
       -1   -1    0    0    0  501  0.00000000000E+00  0.00000000000E+00  0.72816931765E+03  0.72816931767E+03  0.50400001928E-02 0. -1.
        1   -1    0    0  501    0  0.00000000000E+00  0.00000000000E+00 -0.14363033498E+04  0.14363033498E+04  0.50400001928E-02 0.  1.
    10030    2    1    2    0    0  0.00000000000E+00  0.00000000000E+00 -0.70813403212E+03  0.21644726675E+04  0.20453576999E+04 0.  0.
        5    1    3    3  502    0 -0.92136880134E+03 -0.57273651016E+02 -0.81975034479E+03  0.12345904005E+04  0.46999998093E+01 0.  1.
       -5    1    3    3    0  502  0.92136880134E+03  0.57273651016E+02  0.11161631267E+03  0.92988226697E+03  0.46999998093E+01 0. -1.
</event>
<event>
 5   0  0.4182977E-05  0.2088804E+04  0.7818609E-02  0.8566192E-01
        1   -1    0    0  501    0  0.00000000000E+00  0.00000000000E+00  0.51616754611E+03  0.51616754613E+03  0.50400001928E-02 0. -1.
       -1   -1    0    0    0  501  0.00000000000E+00  0.00000000000E+00 -0.21132194004E+04  0.21132194004E+04  0.50400001928E-02 0.  1.
    10030    2    1    2    0    0  0.00000000000E+00  0.00000000000E+00 -0.15970518543E+04  0.26293869465E+04  0.20888037460E+04 0.  0.
        1    1    3    3  502    0 -0.89421418552E+03  0.46650564077E+03 -0.45718728545E+03  0.11073692864E+04  0.50400001928E-02 0. -1.
       -1    1    3    3    0  502  0.89421418552E+03 -0.46650564077E+03 -0.11398645688E+04  0.15220176601E+04  0.50400001928E-02 0.  1.
</event>
<event>
 5   0  0.8872777E-05  0.2089287E+04  0.7818609E-02  0.8565977E-01
        2   -1    0    0  501    0  0.00000000000E+00  0.00000000000E+00  0.82842192882E+03  0.82842192882E+03  0.25500000920E-02 0. -1.
       -2   -1    0    0    0  501  0.00000000000E+00  0.00000000000E+00 -0.13172993920E+04  0.13172993920E+04  0.25500000920E-02 0.  1.
    10030    2    1    2    0    0  0.00000000000E+00  0.00000000000E+00 -0.48887746315E+03  0.21457213208E+04  0.20892866755E+04 0.  0.
        3    1    3    3  502    0 -0.44789079649E+03  0.56687174980E+03 -0.10193594923E+04  0.12494172766E+04  0.10100000352E+00 0. -1.
       -3    1    3    3    0  502  0.44789079649E+03 -0.56687174980E+03  0.53048202911E+03  0.89630404423E+03  0.10100000352E+00 0.  1.
</event>
<event>
 5   0  0.9086985E-05  0.2099004E+04  0.7818609E-02  0.8561682E-01
       -2   -1    0    0    0  501  0.00000000000E+00  0.00000000000E+00  0.48215462019E+03  0.48215462019E+03  0.25500000920E-02 0.  1.
        2   -1    0    0  501    0  0.00000000000E+00  0.00000000000E+00 -0.22844421362E+04  0.22844421362E+04  0.25500000920E-02 0. -1.
    10030    2    1    2    0    0  0.00000000000E+00  0.00000000000E+00 -0.18022875160E+04  0.27665967564E+04  0.20990038881E+04 0.  0.
        5    1    3    3  502    0  0.34271353185E+03 -0.73836239975E+03 -0.17742483004E+04  0.19520785639E+04  0.46999998093E+01 0. -1.
       -5    1    3    3    0  502 -0.34271353185E+03  0.73836239975E+03 -0.28039215627E+02  0.81451819248E+03  0.46999998093E+01 0.  1.
</event>
<event>
 5   0  0.4200061E-05  0.2096705E+04  0.7818609E-02  0.8562696E-01
        1   -1    0    0  501    0  0.00000000000E+00  0.00000000000E+00  0.66477102378E+03  0.66477102380E+03  0.50400001928E-02 0.  1.
       -1   -1    0    0    0  501  0.00000000000E+00  0.00000000000E+00 -0.16532647512E+04  0.16532647512E+04  0.50400001928E-02 0. -1.
    10030    2    1    2    0    0  0.00000000000E+00  0.00000000000E+00 -0.98849372742E+03  0.23180357750E+04  0.20967045584E+04 0.  0.
        4    1    3    3  502    0 -0.56626924754E+02 -0.10428472710E+04 -0.59499165909E+03  0.12019790874E+04  0.12699999809E+01 0.  1.
       -4    1    3    3    0  502  0.56626924754E+02  0.10428472710E+04 -0.39350206833E+03  0.11160566876E+04  0.12699999809E+01 0. -1.
</event>
<event>
 5   0  0.9012466E-05  0.2067187E+04  0.7818609E-02  0.8575837E-01
        2   -1    0    0  501    0  0.00000000000E+00  0.00000000000E+00  0.19053850046E+04  0.19053850046E+04  0.25500000920E-02 0. -1.
       -2   -1    0    0    0  501  0.00000000000E+00  0.00000000000E+00 -0.56068242815E+03  0.56068242816E+03  0.25500000920E-02 0.  1.
    10030    2    1    2    0    0  0.00000000000E+00  0.00000000000E+00  0.13447025764E+04  0.24660674327E+04  0.20671873557E+04 0.  0.
        2    1    3    3  502    0  0.42813569214E+03 -0.94073750133E+03  0.67873930959E+03  0.12365169905E+04  0.25500000920E-02 0.  1.
       -2    1    3    3    0  502 -0.42813569214E+03  0.94073750133E+03  0.66596326681E+03  0.12295504423E+04  0.25500000920E-02 0. -1.
</event>
<event>
 5   0  0.9012466E-05  0.2086434E+04  0.7818609E-02  0.8567243E-01
        2   -1    0    0  501    0  0.00000000000E+00  0.00000000000E+00  0.20226567631E+04  0.20226567631E+04  0.25500000920E-02 0. -1.
       -2   -1    0    0    0  501  0.00000000000E+00  0.00000000000E+00 -0.53805544776E+03  0.53805544776E+03  0.25500000920E-02 0.  1.
    10030    2    1    2    0    0  0.00000000000E+00  0.00000000000E+00  0.14846013153E+04  0.25607122108E+04  0.20864337903E+04 0.  0.
        2    1    3    3  502    0 -0.29642129100E+03  0.99436251504E+03  0.60966484513E+03  0.12034590215E+04  0.25500000920E-02 0.  1.
       -2    1    3    3    0  502  0.29642129100E+03 -0.99436251504E+03  0.87493647018E+03  0.13572531893E+04  0.25500000920E-02 0. -1.
</event>
<event>
 5   0  0.4182977E-05  0.2090993E+04  0.7818609E-02  0.8565221E-01
        1   -1    0    0  501    0  0.00000000000E+00  0.00000000000E+00  0.16869215637E+04  0.16869215637E+04  0.50400001928E-02 0. -1.
       -1   -1    0    0    0  501  0.00000000000E+00  0.00000000000E+00 -0.64796318116E+03  0.64796318118E+03  0.50400001928E-02 0.  1.
    10030    2    1    2    0    0  0.00000000000E+00  0.00000000000E+00  0.10389583825E+04  0.23348847449E+04  0.20909931256E+04 0.  0.
        1    1    3    3  502    0  0.73287822822E+03 -0.72580254277E+03  0.71017040639E+03  0.12522946277E+04  0.50400001928E-02 0. -1.
       -1    1    3    3    0  502 -0.73287822822E+03  0.72580254277E+03  0.32878797616E+03  0.10825901172E+04  0.50400001928E-02 0.  1.
</event>
<event>
 5   0  0.9086985E-05  0.2033949E+04  0.7818609E-02  0.8590911E-01
       -2   -1    0    0    0  501  0.00000000000E+00  0.00000000000E+00  0.15189298336E+04  0.15189298336E+04  0.25500000920E-02 0.  1.
        2   -1    0    0  501    0  0.00000000000E+00  0.00000000000E+00 -0.68089846876E+03  0.68089846876E+03  0.25500000920E-02 0. -1.
    10030    2    1    2    0    0  0.00000000000E+00  0.00000000000E+00  0.83803136486E+03  0.21998283024E+04  0.20339488665E+04 0.  0.
        5    1    3    3  502    0  0.65339451913E+03  0.10852783743E+03 -0.41561451384E+03  0.78195920817E+03  0.46999998093E+01 0. -1.
       -5    1    3    3    0  502 -0.65339451913E+03 -0.10852783743E+03  0.12536458787E+04  0.14178690942E+04  0.46999998093E+01 0.  1.
</event>
<event>
 5   0  0.4174093E-05  0.2105751E+04  0.7818609E-02  0.8558714E-01
        1   -1    0    0  501    0  0.00000000000E+00  0.00000000000E+00  0.68964504007E+03  0.68964504009E+03  0.50400001928E-02 0. -1.
       -1   -1    0    0    0  501  0.00000000000E+00  0.00000000000E+00 -0.16074164721E+04  0.16074164721E+04  0.50400001928E-02 0.  1.
    10030    2    1    2    0    0  0.00000000000E+00  0.00000000000E+00 -0.91777143206E+03  0.22970615122E+04  0.21057509799E+04 0.  0.
        3    1    3    3  502    0 -0.33675677221E+03 -0.93301035378E+03 -0.84399388963E+03  0.13023974585E+04  0.10100000352E+00 0. -1.
       -3    1    3    3    0  502  0.33675677221E+03  0.93301035378E+03 -0.73777542430E+02  0.99466405377E+03  0.10100000352E+00 0.  1.
</event>
<event>
 5   0  0.8547605E-05  0.2138767E+04  0.7818609E-02  0.8544356E-01
        2   -1    0    0  501    0  0.00000000000E+00  0.00000000000E+00  0.10086618803E+04  0.10086618804E+04  0.25500000920E-02 0.  1.
       -2   -1    0    0    0  501  0.00000000000E+00  0.00000000000E+00 -0.11337602043E+04  0.11337602043E+04  0.25500000920E-02 0. -1.
    10030    2    1    2    0    0  0.00000000000E+00  0.00000000000E+00 -0.12509832394E+03  0.21424220846E+04  0.21387666535E+04 0.  0.
        4    1    3    3  502    0 -0.20073219259E+03 -0.15628904600E+03 -0.11030059760E+04  0.11319644319E+04  0.12699999809E+01 0. -1.
       -4    1    3    3    0  502  0.20073219259E+03  0.15628904600E+03  0.97790765209E+03  0.10104576527E+04  0.12699999809E+01 0.  1.
</event>
<event>
 5   0  0.3176125E-05  0.2105864E+04  0.7818609E-02  0.8558665E-01
       -3   -1    0    0    0  501  0.00000000000E+00  0.00000000000E+00  0.88370602978E+03  0.88370603556E+03  0.10100000352E+00 0. -1.
        3   -1    0    0  501    0  0.00000000000E+00  0.00000000000E+00 -0.12545634740E+04  0.12545634781E+04  0.10100000352E+00 0.  1.
    10030    2    1    2    0    0  0.00000000000E+00  0.00000000000E+00 -0.37085744425E+03  0.21382695137E+04  0.21058635447E+04 0.  0.
        5    1    3    3  502    0  0.66801920794E+03  0.81187655249E+03 -0.24331502466E+03  0.10791744483E+04  0.46999998093E+01 0.  1.
       -5    1    3    3    0  502 -0.66801920794E+03 -0.81187655249E+03 -0.12754241959E+03  0.10590950653E+04  0.46999998093E+01 0. -1.
</event>
<event>
 5   0  0.9086985E-05  0.1907658E+04  0.7818609E-02  0.8651054E-01
        2   -1    0    0  501    0  0.00000000000E+00  0.00000000000E+00  0.12931004630E+04  0.12931004630E+04  0.25500000920E-02 0. -1.
       -2   -1    0    0    0  501  0.00000000000E+00  0.00000000000E+00 -0.70357254535E+03  0.70357254535E+03  0.25500000920E-02 0.  1.
    10030    2    1    2    0    0  0.00000000000E+00  0.00000000000E+00  0.58952791765E+03  0.19966730084E+04  0.19076582337E+04 0.  0.
        5    1    3    3  502    0  0.73958818316E+03  0.29763577361E+02 -0.33488062622E+03  0.81243072014E+03  0.46999998093E+01 0.  1.
       -5    1    3    3    0  502 -0.73958818316E+03 -0.29763577361E+02  0.92440854387E+03  0.11842422882E+04  0.46999998093E+01 0. -1.
</event>
<event>
 5   0  0.4182977E-05  0.2107069E+04  0.7818609E-02  0.8558136E-01
       -1   -1    0    0    0  501  0.00000000000E+00  0.00000000000E+00  0.11398622551E+04  0.11398622551E+04  0.50400001928E-02 0. -1.
        1   -1    0    0  501    0  0.00000000000E+00  0.00000000000E+00 -0.97374439208E+03  0.97374439209E+03  0.50400001928E-02 0.  1.
    10030    2    1    2    0    0  0.00000000000E+00  0.00000000000E+00  0.16611786304E+03  0.21136066472E+04  0.21070685596E+04 0.  0.
        1    1    3    3  502    0 -0.22928430388E+03  0.10150222502E+04 -0.82051378885E+02  0.10438265609E+04  0.50400001928E-02 0.  1.
       -1    1    3    3    0  502  0.22928430388E+03 -0.10150222502E+04  0.24816924193E+03  0.10697800863E+04  0.50400001928E-02 0. -1.
</event>
<event>
 5   0  0.4182977E-05  0.2124382E+04  0.7818609E-02  0.8550578E-01
        1   -1    0    0  501    0  0.00000000000E+00  0.00000000000E+00  0.15125285099E+04  0.15125285099E+04  0.50400001928E-02 0.  1.
       -1   -1    0    0    0  501  0.00000000000E+00  0.00000000000E+00 -0.74593598146E+03  0.74593598148E+03  0.50400001928E-02 0. -1.
    10030    2    1    2    0    0  0.00000000000E+00  0.00000000000E+00  0.76659252839E+03  0.22584644913E+04  0.21243817345E+04 0.  0.
        1    1    3    3  502    0 -0.88687835483E+03  0.44380226852E+03 -0.21157278704E+02  0.99194823467E+03  0.50400001928E-02 0. -1.
       -1    1    3    3    0  502  0.88687835483E+03 -0.44380226852E+03  0.78774980709E+03  0.12665162567E+04  0.50400001928E-02 0.  1.
</event>
<event>
 5   0  0.4174093E-05  0.1982726E+04  0.7818609E-02  0.8614740E-01
        1   -1    0    0  501    0  0.00000000000E+00  0.00000000000E+00  0.20977022047E+04  0.20977022047E+04  0.50400001928E-02 0.  1.
       -1   -1    0    0    0  501  0.00000000000E+00  0.00000000000E+00 -0.46851282799E+03  0.46851282802E+03  0.50400001928E-02 0. -1.
    10030    2    1    2    0    0  0.00000000000E+00  0.00000000000E+00  0.16291893767E+04  0.25662150327E+04  0.19827257927E+04 0.  0.
        3    1    3    3  502    0 -0.29701603196E+03 -0.33976923090E+03  0.19570462210E+04  0.20084052317E+04  0.10100000352E+00 0.  1.
       -3    1    3    3    0  502  0.29701603196E+03  0.33976923090E+03 -0.32785684431E+03  0.55780980098E+03  0.10100000352E+00 0. -1.
</event>
<event>
 5   0  0.8547605E-05  0.2129128E+04  0.7818609E-02  0.8548520E-01
        2   -1    0    0  501    0  0.00000000000E+00  0.00000000000E+00  0.62314178801E+03  0.62314178801E+03  0.25500000920E-02 0.  1.
       -2   -1    0    0    0  501  0.00000000000E+00  0.00000000000E+00 -0.18186823980E+04  0.18186823980E+04  0.25500000920E-02 0. -1.
    10030    2    1    2    0    0  0.00000000000E+00  0.00000000000E+00 -0.11955406100E+04  0.24418241860E+04  0.21291284614E+04 0.  0.
        4    1    3    3  502    0 -0.57267404784E+03 -0.15659557573E+03  0.41564471370E+03  0.72473435156E+03  0.12699999809E+01 0.  1.
       -4    1    3    3    0  502  0.57267404784E+03  0.15659557573E+03 -0.16111853237E+04  0.17170898344E+04  0.12699999809E+01 0. -1.
</event>
<event>
 5   0  0.8858590E-05  0.2085468E+04  0.7818609E-02  0.8567672E-01
        2   -1    0    0  501    0  0.00000000000E+00  0.00000000000E+00  0.10374251996E+04  0.10374251996E+04  0.25500000920E-02 0.  1.
       -2   -1    0    0    0  501  0.00000000000E+00  0.00000000000E+00 -0.10480698359E+04  0.10480698359E+04  0.25500000920E-02 0. -1.
    10030    2    1    2    0    0  0.00000000000E+00  0.00000000000E+00 -0.10644636265E+02  0.20854950355E+04  0.20854678695E+04 0.  0.
        1    1    3    3  502    0 -0.45277326165E+03  0.45730725822E+03  0.81515196027E+03  0.10385597110E+04  0.50400001928E-02 0.  1.
       -1    1    3    3    0  502  0.45277326165E+03 -0.45730725822E+03 -0.82579659654E+03  0.10469353245E+04  0.50400001928E-02 0. -1.
</event>
<event>
 5   0  0.9086985E-05  0.2080586E+04  0.7818609E-02  0.8569844E-01
        2   -1    0    0  501    0  0.00000000000E+00  0.00000000000E+00  0.80491401395E+03  0.80491401395E+03  0.25500000920E-02 0. -1.
       -2   -1    0    0    0  501  0.00000000000E+00  0.00000000000E+00 -0.13445027529E+04  0.13445027529E+04  0.25500000920E-02 0.  1.
    10030    2    1    2    0    0  0.00000000000E+00  0.00000000000E+00 -0.53958873893E+03  0.21494167668E+04  0.20805855979E+04 0.  0.
        5    1    3    3  502    0 -0.73057675588E+03  0.90735454954E+02 -0.10291007281E+04  0.12653243528E+04  0.46999998093E+01 0.  1.
       -5    1    3    3    0  502  0.73057675588E+03 -0.90735454954E+02  0.48951198922E+03  0.88409241407E+03  0.46999998093E+01 0. -1.
</event>
<event>
 5   0  0.4050368E-05  0.2113888E+04  0.7818609E-02  0.8555150E-01
       -1   -1    0    0    0  501  0.00000000000E+00  0.00000000000E+00  0.67181093564E+03  0.67181093566E+03  0.50400001928E-02 0.  1.
        1   -1    0    0  501    0  0.00000000000E+00  0.00000000000E+00 -0.16628648202E+04  0.16628648202E+04  0.50400001928E-02 0. -1.
    10030    2    1    2    0    0  0.00000000000E+00  0.00000000000E+00 -0.99105388457E+03  0.23346757559E+04  0.21138881434E+04 0.  0.
        2    1    3    3  502    0 -0.95761069494E+01 -0.98436789362E+03 -0.70553434510E+02  0.98693953155E+03  0.25500000920E-02 0.  1.
       -2    1    3    3    0  502  0.95761069494E+01  0.98436789362E+03 -0.92050045006E+03  0.13477362243E+04  0.25500000920E-02 0. -1.
</event>
<event>
 5   0  0.4128678E-05  0.2102784E+04  0.7818609E-02  0.8560018E-01
       -1   -1    0    0    0  501  0.00000000000E+00  0.00000000000E+00  0.10964586979E+04  0.10964586979E+04  0.50400001928E-02 0. -1.
        1   -1    0    0  501    0  0.00000000000E+00  0.00000000000E+00 -0.10081771692E+04  0.10081771692E+04  0.50400001928E-02 0.  1.
    10030    2    1    2    0    0  0.00000000000E+00  0.00000000000E+00  0.88281528716E+02  0.21046358671E+04  0.21027835135E+04 0.  0.
        5    1    3    3  502    0  0.42258306467E+03  0.10126499144E+03  0.10023615261E+04  0.10925116768E+04  0.46999998093E+01 0. -1.
       -5    1    3    3    0  502 -0.42258306467E+03 -0.10126499144E+03 -0.91407999734E+03  0.10121241903E+04  0.46999998093E+01 0.  1.
</event>
<event>
 5   0  0.8547605E-05  0.2089335E+04  0.7818609E-02  0.8565956E-01
        2   -1    0    0  501    0  0.00000000000E+00  0.00000000000E+00  0.23886387399E+04  0.23886387399E+04  0.25500000920E-02 0.  1.
       -2   -1    0    0    0  501  0.00000000000E+00  0.00000000000E+00 -0.45688373460E+03  0.45688373461E+03  0.25500000920E-02 0. -1.
    10030    2    1    2    0    0  0.00000000000E+00  0.00000000000E+00  0.19317550053E+04  0.28455224745E+04  0.20893350024E+04 0.  0.
        4    1    3    3  502    0 -0.22547566164E+03  0.40354284387E+03  0.22417661015E+04  0.22889305292E+04  0.12699999809E+01 0.  1.
       -4    1    3    3    0  502  0.22547566164E+03 -0.40354284387E+03 -0.31001109624E+03  0.55659194526E+03  0.12699999809E+01 0. -1.
</event>
<event>
 5   0  0.4174093E-05  0.2132509E+04  0.7818609E-02  0.8547056E-01
       -1   -1    0    0    0  501  0.00000000000E+00  0.00000000000E+00  0.80564078024E+03  0.80564078026E+03  0.50400001928E-02 0.  1.
        1   -1    0    0  501    0  0.00000000000E+00  0.00000000000E+00 -0.14111734801E+04  0.14111734801E+04  0.50400001928E-02 0. -1.
    10030    2    1    2    0    0  0.00000000000E+00  0.00000000000E+00 -0.60553269984E+03  0.22168142604E+04  0.21325092296E+04 0.  0.
        3    1    3    3  502    0 -0.16209995188E+03  0.48935732762E+03 -0.12730201052E+04  0.13734362697E+04  0.10100000352E+00 0. -1.
       -3    1    3    3    0  502  0.16209995188E+03 -0.48935732762E+03  0.66748740540E+03  0.84337799061E+03  0.10100000352E+00 0.  1.
</event>
<event>
 5   0  0.8547605E-05  0.2107356E+04  0.7818609E-02  0.8558010E-01
        2   -1    0    0  501    0  0.00000000000E+00  0.00000000000E+00  0.17827033920E+04  0.17827033920E+04  0.25500000920E-02 0. -1.
       -2   -1    0    0    0  501  0.00000000000E+00  0.00000000000E+00 -0.62278306223E+03  0.62278306223E+03  0.25500000920E-02 0.  1.
    10030    2    1    2    0    0  0.00000000000E+00  0.00000000000E+00  0.11599203297E+04  0.24054864542E+04  0.21073561422E+04 0.  0.
        4    1    3    3  502    0 -0.22459093266E+03 -0.18871385839E+03 -0.57523009230E+03  0.64571300078E+03  0.12699999809E+01 0.  1.
       -4    1    3    3    0  502  0.22459093266E+03  0.18871385839E+03  0.17351504220E+04  0.17597734534E+04  0.12699999809E+01 0. -1.
</event>
<event>
 5   0  0.4174093E-05  0.2111901E+04  0.7818609E-02  0.8556019E-01
       -1   -1    0    0    0  501  0.00000000000E+00  0.00000000000E+00  0.68225268038E+03  0.68225268040E+03  0.50400001928E-02 0.  1.
        1   -1    0    0  501    0  0.00000000000E+00  0.00000000000E+00 -0.16343375376E+04  0.16343375376E+04  0.50400001928E-02 0. -1.
    10030    2    1    2    0    0  0.00000000000E+00  0.00000000000E+00 -0.95208485721E+03  0.23165902180E+04  0.21119007228E+04 0.  0.
        3    1    3    3  502    0  0.82188732055E+03 -0.61210473817E+03 -0.75540279085E+03  0.12731081513E+04  0.10100000352E+00 0.  1.
       -3    1    3    3    0  502 -0.82188732055E+03  0.61210473817E+03 -0.19668206636E+03  0.10434820667E+04  0.10100000352E+00 0. -1.
</event>
<event>
 5   0  0.4182977E-05  0.2092949E+04  0.7818609E-02  0.8564356E-01
       -1   -1    0    0    0  501  0.00000000000E+00  0.00000000000E+00  0.91119522645E+03  0.91119522646E+03  0.50400001928E-02 0. -1.
        1   -1    0    0  501    0  0.00000000000E+00  0.00000000000E+00 -0.12018375332E+04  0.12018375332E+04  0.50400001928E-02 0.  1.
    10030    2    1    2    0    0  0.00000000000E+00  0.00000000000E+00 -0.29064230671E+03  0.21130327596E+04  0.20929487554E+04 0.  0.
        1    1    3    3  502    0  0.20451700747E+03 -0.85363586507E+03 -0.72051382984E+03  0.11356326763E+04  0.50400001928E-02 0.  1.
       -1    1    3    3    0  502 -0.20451700747E+03  0.85363586507E+03  0.42987152312E+03  0.97740008333E+03  0.50400001928E-02 0. -1.
</event>
<event>
 5   0  0.8547605E-05  0.2109989E+04  0.7818609E-02  0.8556856E-01
       -2   -1    0    0    0  501  0.00000000000E+00  0.00000000000E+00  0.10636638794E+04  0.10636638794E+04  0.25500000920E-02 0.  1.
        2   -1    0    0  501    0  0.00000000000E+00  0.00000000000E+00 -0.10463954987E+04  0.10463954987E+04  0.25500000920E-02 0. -1.
    10030    2    1    2    0    0  0.00000000000E+00  0.00000000000E+00  0.17268380737E+02  0.21100593781E+04  0.21099887161E+04 0.  0.
        4    1    3    3  502    0 -0.66491707828E+03 -0.47841870333E+02  0.82634605906E+03  0.10617217092E+04  0.12699999809E+01 0.  1.
       -4    1    3    3    0  502  0.66491707828E+03  0.47841870333E+02 -0.80907767833E+03  0.10483376689E+04  0.12699999809E+01 0. -1.
</event>
<event>
 5   0  0.8858590E-05  0.2115983E+04  0.7818609E-02  0.8554235E-01
        2   -1    0    0  501    0  0.00000000000E+00  0.00000000000E+00  0.11986551084E+04  0.11986551084E+04  0.25500000920E-02 0.  1.
       -2   -1    0    0    0  501  0.00000000000E+00  0.00000000000E+00 -0.93383461539E+03  0.93383461540E+03  0.25500000920E-02 0. -1.
    10030    2    1    2    0    0  0.00000000000E+00  0.00000000000E+00  0.26482049300E+03  0.21324897238E+04  0.21159826390E+04 0.  0.
        1    1    3    3  502    0  0.78558720585E+02  0.30237534612E+03  0.11511089378E+04  0.11927506484E+04  0.50400001928E-02 0.  1.
       -1    1    3    3    0  502 -0.78558720585E+02 -0.30237534612E+03 -0.88628844477E+03  0.93973907543E+03  0.50400001928E-02 0. -1.
</event>
<event>
 5   0  0.9012466E-05  0.2075755E+04  0.7818609E-02  0.8571999E-01
        2   -1    0    0  501    0  0.00000000000E+00  0.00000000000E+00  0.19819802403E+04  0.19819802403E+04  0.25500000920E-02 0. -1.
       -2   -1    0    0    0  501  0.00000000000E+00  0.00000000000E+00 -0.54349183546E+03  0.54349183547E+03  0.25500000920E-02 0.  1.
    10030    2    1    2    0    0  0.00000000000E+00  0.00000000000E+00  0.14384884048E+04  0.25254720757E+04  0.20757553600E+04 0.  0.
        2    1    3    3  502    0 -0.12691785464E+02 -0.78382745626E+03 -0.10829703188E+03  0.79137526479E+03  0.25500000920E-02 0.  1.
       -2    1    3    3    0  502  0.12691785464E+02  0.78382745626E+03  0.15467854367E+04  0.17340968109E+04  0.25500000920E-02 0. -1.
</event>
<event>
 5   0  0.8547605E-05  0.1710019E+04  0.7818609E-02  0.8755670E-01
        2   -1    0    0  501    0  0.00000000000E+00  0.00000000000E+00  0.99967399829E+03  0.99967399830E+03  0.25500000920E-02 0. -1.
       -2   -1    0    0    0  501  0.00000000000E+00  0.00000000000E+00 -0.73127999224E+03  0.73127999224E+03  0.25500000920E-02 0.  1.
    10030    2    1    2    0    0  0.00000000000E+00  0.00000000000E+00  0.26839400606E+03  0.17309539905E+04  0.17100194077E+04 0.  0.
        4    1    3    3  502    0  0.53949077648E+03 -0.88631431128E+02 -0.53121982579E+03  0.76230042942E+03  0.12699999809E+01 0.  1.
       -4    1    3    3    0  502 -0.53949077648E+03  0.88631431128E+02  0.79961383184E+03  0.96865356112E+03  0.12699999809E+01 0. -1.
</event>
<event>
 5   0  0.4182977E-05  0.2095212E+04  0.7818609E-02  0.8563355E-01
       -1   -1    0    0    0  501  0.00000000000E+00  0.00000000000E+00  0.11470492863E+04  0.11470492863E+04  0.50400001928E-02 0. -1.
        1   -1    0    0  501    0  0.00000000000E+00  0.00000000000E+00 -0.95678417970E+03  0.95678417971E+03  0.50400001928E-02 0.  1.
    10030    2    1    2    0    0  0.00000000000E+00  0.00000000000E+00  0.19026510661E+03  0.21038334660E+04  0.20952122666E+04 0.  0.
        1    1    3    3  502    0  0.55418328006E+03  0.57582171196E+03 -0.58499404982E+03  0.99040789083E+03  0.50400001928E-02 0.  1.
       -1    1    3    3    0  502 -0.55418328006E+03 -0.57582171196E+03  0.77525915643E+03  0.11134255752E+04  0.50400001928E-02 0. -1.
</event>
<event>
 5   0  0.4174093E-05  0.1922700E+04  0.7818609E-02  0.8643639E-01
       -1   -1    0    0    0  501  0.00000000000E+00  0.00000000000E+00  0.66923469721E+03  0.66923469723E+03  0.50400001928E-02 0. -1.
        1   -1    0    0  501    0  0.00000000000E+00  0.00000000000E+00 -0.13809706191E+04  0.13809706191E+04  0.50400001928E-02 0.  1.
    10030    2    1    2    0    0  0.00000000000E+00  0.00000000000E+00 -0.71173592189E+03  0.20502053163E+04  0.19226996168E+04 0.  0.
        3    1    3    3  502    0  0.55939481026E+03  0.70578999954E+03 -0.71452340924E+03  0.11496111472E+04  0.10100000352E+00 0.  1.
       -3    1    3    3    0  502 -0.55939481026E+03 -0.70578999954E+03  0.27874873536E+01  0.90059416914E+03  0.10100000352E+00 0. -1.
</event>
<event>
 5   0  0.9012466E-05  0.2104080E+04  0.7818609E-02  0.8559448E-01
       -2   -1    0    0    0  501  0.00000000000E+00  0.00000000000E+00  0.56396519094E+03  0.56396519094E+03  0.25500000920E-02 0. -1.
        2   -1    0    0  501    0  0.00000000000E+00  0.00000000000E+00 -0.19625114100E+04  0.19625114100E+04  0.25500000920E-02 0.  1.
    10030    2    1    2    0    0  0.00000000000E+00  0.00000000000E+00 -0.13985462191E+04  0.25264766010E+04  0.21040799624E+04 0.  0.
        2    1    3    3  502    0  0.39170329694E+03  0.97634753540E+03 -0.71140838403E+03  0.12699558542E+04  0.25500000920E-02 0.  1.
       -2    1    3    3    0  502 -0.39170329694E+03 -0.97634753540E+03 -0.68713783506E+03  0.12565207468E+04  0.25500000920E-02 0. -1.
</event>
<event>
 5   0  0.4050368E-05  0.2115635E+04  0.7818609E-02  0.8554387E-01
       -1   -1    0    0    0  501  0.00000000000E+00  0.00000000000E+00  0.49142324662E+03  0.49142324665E+03  0.50400001928E-02 0. -1.
        1   -1    0    0  501    0  0.00000000000E+00  0.00000000000E+00 -0.22770141580E+04  0.22770141580E+04  0.50400001928E-02 0.  1.
    10030    2    1    2    0    0  0.00000000000E+00  0.00000000000E+00 -0.17855909114E+04  0.27684374047E+04  0.21156348363E+04 0.  0.
        2    1    3    3  502    0  0.62751308622E+03 -0.27253211464E+03  0.16295569668E+03  0.70327873989E+03  0.25500000920E-02 0. -1.
       -2    1    3    3    0  502 -0.62751308622E+03  0.27253211464E+03 -0.19485466081E+04  0.20651586648E+04  0.25500000920E-02 0.  1.
</event>
<event>
 5   0  0.4200061E-05  0.2096715E+04  0.7818609E-02  0.8562692E-01
        1   -1    0    0  501    0  0.00000000000E+00  0.00000000000E+00  0.12543850580E+04  0.12543850580E+04  0.50400001928E-02 0. -1.
       -1   -1    0    0    0  501  0.00000000000E+00  0.00000000000E+00 -0.87616877983E+03  0.87616877984E+03  0.50400001928E-02 0.  1.
    10030    2    1    2    0    0  0.00000000000E+00  0.00000000000E+00  0.37821627815E+03  0.21305538378E+04  0.20967145974E+04 0.  0.
        4    1    3    3  502    0  0.58307536491E+03  0.41295631923E+03 -0.59043792076E+03  0.92689177034E+03  0.12699999809E+01 0.  1.
       -4    1    3    3    0  502 -0.58307536491E+03 -0.41295631923E+03  0.96865419891E+03  0.12036620675E+04  0.12699999809E+01 0. -1.
</event>
<event>
 5   0  0.4200061E-05  0.2086843E+04  0.7818609E-02  0.8567062E-01
        1   -1    0    0  501    0  0.00000000000E+00  0.00000000000E+00  0.10995672385E+04  0.10995672385E+04  0.50400001928E-02 0. -1.
       -1   -1    0    0    0  501  0.00000000000E+00  0.00000000000E+00 -0.99014223663E+03  0.99014223664E+03  0.50400001928E-02 0.  1.
    10030    2    1    2    0    0  0.00000000000E+00  0.00000000000E+00  0.10942500183E+03  0.20897094751E+04  0.20868425574E+04 0.  0.
        4    1    3    3  502    0 -0.50768992215E+03 -0.81120270788E+03 -0.36170426832E+03  0.10230495985E+04  0.12699999809E+01 0. -1.
       -4    1    3    3    0  502  0.50768992215E+03  0.81120270788E+03  0.47112927014E+03  0.10666598766E+04  0.12699999809E+01 0.  1.
</event>
<event>
 5   0  0.9012466E-05  0.2032865E+04  0.7818609E-02  0.8591408E-01
       -2   -1    0    0    0  501  0.00000000000E+00  0.00000000000E+00  0.11127555583E+04  0.11127555583E+04  0.25500000920E-02 0.  1.
        2   -1    0    0  501    0  0.00000000000E+00  0.00000000000E+00 -0.92844696609E+03  0.92844696609E+03  0.25500000920E-02 0. -1.
    10030    2    1    2    0    0  0.00000000000E+00  0.00000000000E+00  0.18430859219E+03  0.20412025244E+04  0.20328645032E+04 0.  0.
        2    1    3    3  502    0 -0.64480903273E+03  0.69622088851E+03 -0.27352664626E+03  0.98758242213E+03  0.25500000920E-02 0. -1.
       -2    1    3    3    0  502  0.64480903273E+03 -0.69622088851E+03  0.45783523846E+03  0.10536201022E+04  0.25500000920E-02 0.  1.
</event>
<event>
 5   0  0.4182977E-05  0.2103313E+04  0.7818609E-02  0.8559785E-01
        1   -1    0    0  501    0  0.00000000000E+00  0.00000000000E+00  0.17056487826E+04  0.17056487826E+04  0.50400001928E-02 0. -1.
       -1   -1    0    0    0  501  0.00000000000E+00  0.00000000000E+00 -0.64842296046E+03  0.64842296048E+03  0.50400001928E-02 0.  1.
    10030    2    1    2    0    0  0.00000000000E+00  0.00000000000E+00  0.10572258221E+04  0.23540717430E+04  0.21033134176E+04 0.  0.
        1    1    3    3  502    0 -0.47221219406E+03 -0.28889160788E+03  0.15293858646E+04  0.16264881925E+04  0.50400001928E-02 0. -1.
       -1    1    3    3    0  502  0.47221219406E+03  0.28889160788E+03 -0.47216004252E+03  0.72758355059E+03  0.50400001928E-02 0.  1.
</event>
<event>
 5   0  0.9012466E-05  0.2154082E+04  0.7818609E-02  0.8537787E-01
        2   -1    0    0  501    0  0.00000000000E+00  0.00000000000E+00  0.13604493806E+04  0.13604493806E+04  0.25500000920E-02 0. -1.
       -2   -1    0    0    0  501  0.00000000000E+00  0.00000000000E+00 -0.85267195555E+03  0.85267195555E+03  0.25500000920E-02 0.  1.
    10030    2    1    2    0    0  0.00000000000E+00  0.00000000000E+00  0.50777742501E+03  0.22131213361E+04  0.21540817382E+04 0.  0.
        2    1    3    3  502    0  0.95458784240E+03 -0.48870515622E+03  0.15142383431E+03  0.10830511789E+04  0.25500000920E-02 0.  1.
       -2    1    3    3    0  502 -0.95458784240E+03  0.48870515622E+03  0.35635359070E+03  0.11300701572E+04  0.25500000920E-02 0. -1.
</event>
<event>
 5   0  0.9012466E-05  0.2165897E+04  0.7818609E-02  0.8532758E-01
        2   -1    0    0  501    0  0.00000000000E+00  0.00000000000E+00  0.22444737279E+04  0.22444737279E+04  0.25500000920E-02 0.  1.
       -2   -1    0    0    0  501  0.00000000000E+00  0.00000000000E+00 -0.52251765967E+03  0.52251765968E+03  0.25500000920E-02 0. -1.
    10030    2    1    2    0    0  0.00000000000E+00  0.00000000000E+00  0.17219560683E+04  0.27669913876E+04  0.21658967284E+04 0.  0.
        2    1    3    3  502    0 -0.50335378203E+03  0.55223574577E+03  0.18623895070E+04  0.20066948011E+04  0.25500000920E-02 0.  1.
       -2    1    3    3    0  502  0.50335378203E+03 -0.55223574577E+03 -0.14043343875E+03  0.76029658655E+03  0.25500000920E-02 0. -1.
</event>
<event>
 5   0  0.9012466E-05  0.2094027E+04  0.7818609E-02  0.8563879E-01
       -2   -1    0    0    0  501  0.00000000000E+00  0.00000000000E+00  0.77781320129E+03  0.77781320129E+03  0.25500000920E-02 0.  1.
        2   -1    0    0  501    0  0.00000000000E+00  0.00000000000E+00 -0.14093839371E+04  0.14093839371E+04  0.25500000920E-02 0. -1.
    10030    2    1    2    0    0  0.00000000000E+00  0.00000000000E+00 -0.63157073578E+03  0.21871971384E+04  0.20940271555E+04 0.  0.
        2    1    3    3  502    0  0.36569751870E+03  0.51851514736E+03  0.55412435857E+03  0.84240515074E+03  0.25500000920E-02 0.  1.
       -2    1    3    3    0  502 -0.36569751870E+03 -0.51851514736E+03 -0.11856950943E+04  0.13447919876E+04  0.25500000920E-02 0. -1.
</event>
<event>
 5   0  0.8858590E-05  0.2118287E+04  0.7818609E-02  0.8553230E-01
       -2   -1    0    0    0  501  0.00000000000E+00  0.00000000000E+00  0.98594826092E+03  0.98594826093E+03  0.25500000920E-02 0. -1.
        2   -1    0    0  501    0  0.00000000000E+00  0.00000000000E+00 -0.11377727600E+04  0.11377727600E+04  0.25500000920E-02 0.  1.
    10030    2    1    2    0    0  0.00000000000E+00  0.00000000000E+00 -0.15182449910E+03  0.21237210209E+04  0.21182871138E+04 0.  0.
        1    1    3    3  502    0  0.74101437131E+02  0.96087873031E+03  0.36453933621E+03  0.10303726923E+04  0.50400001928E-02 0. -1.
       -1    1    3    3    0  502 -0.74101437131E+02 -0.96087873031E+03 -0.51636383531E+03  0.10933483287E+04  0.50400001928E-02 0.  1.
</event>
<event>
 5   0  0.4050368E-05  0.2310207E+04  0.7818609E-02  0.8473907E-01
       -1   -1    0    0    0  501  0.00000000000E+00  0.00000000000E+00  0.73803287158E+03  0.73803287159E+03  0.50400001928E-02 0.  1.
        1   -1    0    0  501    0  0.00000000000E+00  0.00000000000E+00 -0.18078656542E+04  0.18078656542E+04  0.50400001928E-02 0. -1.
    10030    2    1    2    0    0  0.00000000000E+00  0.00000000000E+00 -0.10698327827E+04  0.25458985258E+04  0.23102071598E+04 0.  0.
        2    1    3    3  502    0 -0.74767084816E+03  0.73220816542E+03  0.39753808104E+01  0.10464971564E+04  0.25500000920E-02 0.  1.
       -2    1    3    3    0  502  0.74767084816E+03 -0.73220816542E+03 -0.10738081635E+04  0.14994013694E+04  0.25500000920E-02 0. -1.
</event>
<event>
 5   0  0.8547605E-05  0.2180839E+04  0.7818609E-02  0.8526446E-01
       -2   -1    0    0    0  501  0.00000000000E+00  0.00000000000E+00  0.61788306598E+03  0.61788306599E+03  0.25500000920E-02 0.  1.
        2   -1    0    0  501    0  0.00000000000E+00  0.00000000000E+00 -0.19243353415E+04  0.19243353415E+04  0.25500000920E-02 0. -1.
    10030    2    1    2    0    0  0.00000000000E+00  0.00000000000E+00 -0.13064522755E+04  0.25422184074E+04  0.21808385734E+04 0.  0.
        4    1    3    3  502    0  0.41241075893E+03  0.10032283689E+04 -0.78336211798E+03  0.13379864032E+04  0.12699999809E+01 0.  1.
       -4    1    3    3    0  502 -0.41241075893E+03 -0.10032283689E+04 -0.52309015750E+03  0.12042320043E+04  0.12699999809E+01 0. -1.
</event>
<event>
 5   0  0.9086985E-05  0.1776134E+04  0.7818609E-02  0.8719095E-01
       -2   -1    0    0    0  501  0.00000000000E+00  0.00000000000E+00  0.49896963131E+03  0.49896963131E+03  0.25500000920E-02 0. -1.
        2   -1    0    0  501    0  0.00000000000E+00  0.00000000000E+00 -0.15805828687E+04  0.15805828687E+04  0.25500000920E-02 0.  1.
    10030    2    1    2    0    0  0.00000000000E+00  0.00000000000E+00 -0.10816132374E+04  0.20795525000E+04  0.17761338365E+04 0.  0.
        5    1    3    3  502    0  0.84193477047E+03  0.33649783053E+01 -0.87150218390E+03  0.12117770535E+04  0.46999998093E+01 0.  1.
       -5    1    3    3    0  502 -0.84193477047E+03 -0.33649783053E+01 -0.21011105348E+03  0.86777544653E+03  0.46999998093E+01 0. -1.
</event>
<event>
 5   0  0.4174093E-05  0.2119168E+04  0.7818609E-02  0.8552847E-01
        1   -1    0    0  501    0  0.00000000000E+00  0.00000000000E+00  0.27858682694E+04  0.27858682694E+04  0.50400001928E-02 0. -1.
       -1   -1    0    0    0  501  0.00000000000E+00  0.00000000000E+00 -0.40300467747E+03  0.40300467750E+03  0.50400001928E-02 0.  1.
    10030    2    1    2    0    0  0.00000000000E+00  0.00000000000E+00  0.23828635919E+04  0.31888729469E+04  0.21191677078E+04 0.  0.
        3    1    3    3  502    0 -0.41477008739E+03 -0.67901470050E+03  0.13849408419E+03  0.80763593930E+03  0.10100000352E+00 0.  1.
       -3    1    3    3    0  502  0.41477008739E+03  0.67901470050E+03  0.22443695077E+04  0.23812370076E+04  0.10100000352E+00 0. -1.
</event>
<event>
 5   0  0.9086985E-05  0.2073403E+04  0.7818609E-02  0.8573051E-01
        2   -1    0    0  501    0  0.00000000000E+00  0.00000000000E+00  0.13221534416E+04  0.13221534416E+04  0.25500000920E-02 0.  1.
       -2   -1    0    0    0  501  0.00000000000E+00  0.00000000000E+00 -0.81287820526E+03  0.81287820527E+03  0.25500000920E-02 0. -1.
    10030    2    1    2    0    0  0.00000000000E+00  0.00000000000E+00  0.50927523633E+03  0.21350316469E+04  0.20734027266E+04 0.  0.
        5    1    3    3  502    0  0.57026997686E+03  0.50746999815E+03 -0.46763399488E+03  0.89523029925E+03  0.46999998093E+01 0. -1.
       -5    1    3    3    0  502 -0.57026997686E+03 -0.50746999815E+03  0.97690923121E+03  0.12398013476E+04  0.46999998093E+01 0.  1.
</event>
<event>
 5   0  0.4128678E-05  0.2102369E+04  0.7818609E-02  0.8560200E-01
       -1   -1    0    0    0  501  0.00000000000E+00  0.00000000000E+00  0.66164589766E+03  0.66164589768E+03  0.50400001928E-02 0. -1.
        1   -1    0    0  501    0  0.00000000000E+00  0.00000000000E+00 -0.16700612087E+04  0.16700612087E+04  0.50400001928E-02 0.  1.
    10030    2    1    2    0    0  0.00000000000E+00  0.00000000000E+00 -0.10084153110E+04  0.23317071064E+04  0.21023692802E+04 0.  0.
        5    1    3    3  502    0  0.74141166701E+03 -0.36561059125E+03 -0.12243489460E+04  0.14772998328E+04  0.46999998093E+01 0.  1.
       -5    1    3    3    0  502 -0.74141166701E+03  0.36561059125E+03  0.21593363499E+03  0.85440727357E+03  0.46999998093E+01 0. -1.
</event>
<event>
 5   0  0.9086985E-05  0.2091453E+04  0.7818609E-02  0.8565018E-01
       -2   -1    0    0    0  501  0.00000000000E+00  0.00000000000E+00  0.12392683240E+04  0.12392683240E+04  0.25500000920E-02 0. -1.
        2   -1    0    0  501    0  0.00000000000E+00  0.00000000000E+00 -0.88241094823E+03  0.88241094824E+03  0.25500000920E-02 0.  1.
    10030    2    1    2    0    0  0.00000000000E+00  0.00000000000E+00  0.35685737572E+03  0.21216792722E+04  0.20914530230E+04 0.  0.
        5    1    3    3  502    0 -0.69889398094E+03  0.47718858620E+02  0.96604616628E+03  0.11933135260E+04  0.46999998093E+01 0. -1.
       -5    1    3    3    0  502  0.69889398094E+03 -0.47718858620E+02 -0.60918879056E+03  0.92836574614E+03  0.46999998093E+01 0.  1.
</event>
<event>
 5   0  0.9012466E-05  0.2098133E+04  0.7818609E-02  0.8562066E-01
        2   -1    0    0  501    0  0.00000000000E+00  0.00000000000E+00  0.91660363177E+03  0.91660363177E+03  0.25500000920E-02 0.  1.
       -2   -1    0    0    0  501  0.00000000000E+00  0.00000000000E+00 -0.12006720330E+04  0.12006720330E+04  0.25500000920E-02 0. -1.
    10030    2    1    2    0    0  0.00000000000E+00  0.00000000000E+00 -0.28406840121E+03  0.21172756648E+04  0.20981328328E+04 0.  0.
        2    1    3    3  502    0 -0.53496494815E+03 -0.22371620537E+03 -0.10242553535E+04  0.11770027466E+04  0.25500000920E-02 0. -1.
       -2    1    3    3    0  502  0.53496494815E+03  0.22371620537E+03  0.74018695229E+03  0.94027291817E+03  0.25500000920E-02 0.  1.
</event>
<event>
 5   0  0.4182977E-05  0.2102145E+04  0.7818609E-02  0.8560299E-01
        1   -1    0    0  501    0  0.00000000000E+00  0.00000000000E+00  0.16906397954E+04  0.16906397954E+04  0.50400001928E-02 0.  1.
       -1   -1    0    0    0  501  0.00000000000E+00  0.00000000000E+00 -0.65345291153E+03  0.65345291155E+03  0.50400001928E-02 0. -1.
    10030    2    1    2    0    0  0.00000000000E+00  0.00000000000E+00  0.10371868838E+04  0.23440927069E+04  0.21021450917E+04 0.  0.
        1    1    3    3  502    0  0.23075751862E+03 -0.61128364344E+03  0.14366610362E+04  0.15782622273E+04  0.50400001928E-02 0.  1.
       -1    1    3    3    0  502 -0.23075751862E+03  0.61128364344E+03 -0.39947415235E+03  0.76583047965E+03  0.50400001928E-02 0. -1.
</event>
<event>
 5   0  0.4174093E-05  0.2082560E+04  0.7818609E-02  0.8568965E-01
        1   -1    0    0  501    0  0.00000000000E+00  0.00000000000E+00  0.11052394964E+04  0.11052394964E+04  0.50400001928E-02 0.  1.
       -1   -1    0    0    0  501  0.00000000000E+00  0.00000000000E+00 -0.98102166333E+03  0.98102166334E+03  0.50400001928E-02 0. -1.
    10030    2    1    2    0    0  0.00000000000E+00  0.00000000000E+00  0.12421783307E+03  0.20862611598E+04  0.20825598567E+04 0.  0.
        3    1    3    3  502    0 -0.83202803273E+03 -0.62608642263E+03  0.59099728461E+02  0.10429514102E+04  0.10100000352E+00 0.  1.
       -3    1    3    3    0  502  0.83202803273E+03  0.62608642263E+03  0.65118104613E+02  0.10433097496E+04  0.10100000352E+00 0. -1.
</event>
<event>
 5   0  0.8547605E-05  0.2110677E+04  0.7818609E-02  0.8556555E-01
       -2   -1    0    0    0  501  0.00000000000E+00  0.00000000000E+00  0.54497307612E+03  0.54497307613E+03  0.25500000920E-02 0. -1.
        2   -1    0    0  501    0  0.00000000000E+00  0.00000000000E+00 -0.20436597338E+04  0.20436597338E+04  0.25500000920E-02 0.  1.
    10030    2    1    2    0    0  0.00000000000E+00  0.00000000000E+00 -0.14986866577E+04  0.25886328099E+04  0.21106771725E+04 0.  0.
        4    1    3    3  502    0  0.32716448338E+03  0.17853316099E+03  0.46156833976E+03  0.59326017389E+03  0.12699999809E+01 0. -1.
       -4    1    3    3    0  502 -0.32716448338E+03 -0.17853316099E+03 -0.19602549974E+04  0.19953726360E+04  0.12699999809E+01 0.  1.
</event>
<event>
 5   0  0.8547605E-05  0.2164020E+04  0.7818609E-02  0.8533555E-01
        2   -1    0    0  501    0  0.00000000000E+00  0.00000000000E+00  0.27646018770E+04  0.27646018770E+04  0.25500000920E-02 0. -1.
       -2   -1    0    0    0  501  0.00000000000E+00  0.00000000000E+00 -0.42347729871E+03  0.42347729872E+03  0.25500000920E-02 0.  1.
    10030    2    1    2    0    0  0.00000000000E+00  0.00000000000E+00  0.23411245783E+04  0.31880791757E+04  0.21640204573E+04 0.  0.
        4    1    3    3  502    0  0.24289509929E+03  0.81261585110E+03  0.21603668763E+04  0.23208897440E+04  0.12699999809E+01 0. -1.
       -4    1    3    3    0  502 -0.24289509929E+03 -0.81261585110E+03  0.18075770197E+03  0.86718943170E+03  0.12699999809E+01 0.  1.
</event>
<event>
 5   0  0.8858590E-05  0.2087945E+04  0.7818609E-02  0.8566572E-01
        2   -1    0    0  501    0  0.00000000000E+00  0.00000000000E+00  0.12789171003E+04  0.12789171003E+04  0.25500000920E-02 0. -1.
       -2   -1    0    0    0  501  0.00000000000E+00  0.00000000000E+00 -0.85218898541E+03  0.85218898541E+03  0.25500000920E-02 0.  1.
    10030    2    1    2    0    0  0.00000000000E+00  0.00000000000E+00  0.42672811485E+03  0.21311060857E+04  0.20879454649E+04 0.  0.
        1    1    3    3  502    0  0.96725820211E+03  0.38955890177E+03  0.16197958011E+03  0.10552639252E+04  0.50400001928E-02 0.  1.
       -1    1    3    3    0  502 -0.96725820211E+03 -0.38955890177E+03  0.26474853474E+03  0.10758421604E+04  0.50400001928E-02 0. -1.
</event>
<event>
 5   0  0.9086985E-05  0.2112129E+04  0.7818609E-02  0.8555919E-01
        2   -1    0    0  501    0  0.00000000000E+00  0.00000000000E+00  0.10445600340E+04  0.10445600340E+04  0.25500000920E-02 0. -1.
       -2   -1    0    0    0  501  0.00000000000E+00  0.00000000000E+00 -0.10676958768E+04  0.10676958768E+04  0.25500000920E-02 0.  1.
    10030    2    1    2    0    0  0.00000000000E+00  0.00000000000E+00 -0.23135842841E+02  0.21122559108E+04  0.21121292019E+04 0.  0.
        5    1    3    3  502    0 -0.50293949148E+03 -0.60834284117E+02 -0.93823098269E+03  0.10662778292E+04  0.46999998093E+01 0.  1.
       -5    1    3    3    0  502  0.50293949148E+03  0.60834284117E+02  0.91509513985E+03  0.10459780816E+04  0.46999998093E+01 0. -1.
</event>
<event>
 5   0  0.4174093E-05  0.2097384E+04  0.7818609E-02  0.8562396E-01
        1   -1    0    0  501    0  0.00000000000E+00  0.00000000000E+00  0.15767953903E+04  0.15767953903E+04  0.50400001928E-02 0.  1.
       -1   -1    0    0    0  501  0.00000000000E+00  0.00000000000E+00 -0.69746227009E+03  0.69746227011E+03  0.50400001928E-02 0. -1.
    10030    2    1    2    0    0  0.00000000000E+00  0.00000000000E+00  0.87933312022E+03  0.22742576604E+04  0.20973843638E+04 0.  0.
        3    1    3    3  502    0  0.34879089131E+03 -0.16605102369E+03 -0.61750124103E+03  0.72837889948E+03  0.10100000352E+00 0. -1.
       -3    1    3    3    0  502 -0.34879089131E+03  0.16605102369E+03  0.14968343613E+04  0.15458787610E+04  0.10100000352E+00 0.  1.
</event>
<event>
 5   0  0.4182977E-05  0.2126194E+04  0.7818609E-02  0.8549792E-01
       -1   -1    0    0    0  501  0.00000000000E+00  0.00000000000E+00  0.12461536916E+04  0.12461536917E+04  0.50400001928E-02 0. -1.
        1   -1    0    0  501    0  0.00000000000E+00  0.00000000000E+00 -0.90693108986E+03  0.90693108987E+03  0.50400001928E-02 0.  1.
    10030    2    1    2    0    0  0.00000000000E+00  0.00000000000E+00  0.33922260179E+03  0.21530847815E+04  0.21261942768E+04 0.  0.
        1    1    3    3  502    0 -0.68754973787E+02  0.48028341731E+03 -0.78827812378E+03  0.92562509031E+03  0.50400001928E-02 0.  1.
       -1    1    3    3    0  502  0.68754973787E+02 -0.48028341731E+03  0.11275007256E+04  0.12274596912E+04  0.50400001928E-02 0. -1.
</event>
<event>
 5   0  0.9012466E-05  0.2095492E+04  0.7818609E-02  0.8563232E-01
        2   -1    0    0  501    0  0.00000000000E+00  0.00000000000E+00  0.16693083790E+04  0.16693083790E+04  0.25500000920E-02 0. -1.
       -2   -1    0    0    0  501  0.00000000000E+00  0.00000000000E+00 -0.65762057117E+03  0.65762057118E+03  0.25500000920E-02 0.  1.
    10030    2    1    2    0    0  0.00000000000E+00  0.00000000000E+00  0.10116878078E+04  0.23269289502E+04  0.20954918560E+04 0.  0.
        2    1    3    3  502    0 -0.80486357849E+03  0.47848617904E+03 -0.16203703019E+02  0.93649183847E+03  0.25500000920E-02 0. -1.
       -2    1    3    3    0  502  0.80486357849E+03 -0.47848617904E+03  0.10278915108E+04  0.13904371117E+04  0.25500000920E-02 0.  1.
</event>
<event>
 5   0  0.4128678E-05  0.2252340E+04  0.7818609E-02  0.8496954E-01
       -1   -1    0    0    0  501  0.00000000000E+00  0.00000000000E+00  0.91723580360E+03  0.91723580361E+03  0.50400001928E-02 0.  1.
        1   -1    0    0  501    0  0.00000000000E+00  0.00000000000E+00 -0.13826960793E+04  0.13826960793E+04  0.50400001928E-02 0. -1.
    10030    2    1    2    0    0  0.00000000000E+00  0.00000000000E+00 -0.46546027571E+03  0.22999318829E+04  0.22523395388E+04 0.  0.
        5    1    3    3  502    0 -0.23725315776E+03 -0.10339221295E+04 -0.61880949221E+03  0.12281006915E+04  0.46999998093E+01 0. -1.
       -5    1    3    3    0  502  0.23725315776E+03  0.10339221295E+04  0.15334921650E+03  0.10718311915E+04  0.46999998093E+01 0.  1.
</event>
<event>
 5   0  0.4182977E-05  0.2103412E+04  0.7818609E-02  0.8559742E-01
       -1   -1    0    0    0  501  0.00000000000E+00  0.00000000000E+00  0.80729936101E+03  0.80729936103E+03  0.50400001928E-02 0.  1.
        1   -1    0    0  501    0  0.00000000000E+00  0.00000000000E+00 -0.13701057212E+04  0.13701057212E+04  0.50400001928E-02 0. -1.
    10030    2    1    2    0    0  0.00000000000E+00  0.00000000000E+00 -0.56280636023E+03  0.21774050823E+04  0.21034119647E+04 0.  0.
        1    1    3    3  502    0  0.79719205622E+03  0.68588760805E+03 -0.29313717824E+03  0.10917354948E+04  0.50400001928E-02 0.  1.
       -1    1    3    3    0  502 -0.79719205622E+03 -0.68588760805E+03 -0.26966918199E+03  0.10856695874E+04  0.50400001928E-02 0. -1.
</event>
<event>
 5   0  0.4050368E-05  0.2015810E+04  0.7818609E-02  0.8599265E-01
       -1   -1    0    0    0  501  0.00000000000E+00  0.00000000000E+00  0.13560932241E+04  0.13560932241E+04  0.50400001928E-02 0.  1.
        1   -1    0    0  501    0  0.00000000000E+00  0.00000000000E+00 -0.74911676451E+03  0.74911676453E+03  0.50400001928E-02 0. -1.
    10030    2    1    2    0    0  0.00000000000E+00  0.00000000000E+00  0.60697645957E+03  0.21052099886E+04  0.20158096819E+04 0.  0.
        2    1    3    3  502    0  0.60416022941E+03 -0.58521419870E+03  0.88344266629E+03  0.12198180954E+04  0.25500000920E-02 0.  1.
       -2    1    3    3    0  502 -0.60416022941E+03  0.58521419870E+03 -0.27646620673E+03  0.88539189325E+03  0.25500000920E-02 0. -1.
</event>
<event>
 5   0  0.9012466E-05  0.2102495E+04  0.7818609E-02  0.8560145E-01
       -2   -1    0    0    0  501  0.00000000000E+00  0.00000000000E+00  0.10374730053E+04  0.10374730053E+04  0.25500000920E-02 0.  1.
        2   -1    0    0  501    0  0.00000000000E+00  0.00000000000E+00 -0.10652049436E+04  0.10652049436E+04  0.25500000920E-02 0. -1.
    10030    2    1    2    0    0  0.00000000000E+00  0.00000000000E+00 -0.27731938327E+02  0.21026779489E+04  0.21024950645E+04 0.  0.
        2    1    3    3  502    0 -0.60674917995E+03 -0.21029549386E+01 -0.87241159995E+03  0.10626622180E+04  0.25500000920E-02 0. -1.
       -2    1    3    3    0  502  0.60674917995E+03  0.21029549386E+01  0.84467966162E+03  0.10400157309E+04  0.25500000920E-02 0.  1.
</event>
<event>
 5   0  0.8872777E-05  0.2021722E+04  0.7818609E-02  0.8596532E-01
        2   -1    0    0  501    0  0.00000000000E+00  0.00000000000E+00  0.13689271659E+04  0.13689271659E+04  0.25500000920E-02 0.  1.
       -2   -1    0    0    0  501  0.00000000000E+00  0.00000000000E+00 -0.74645336079E+03  0.74645336080E+03  0.25500000920E-02 0. -1.
    10030    2    1    2    0    0  0.00000000000E+00  0.00000000000E+00  0.62247380506E+03  0.21153805267E+04  0.20217223189E+04 0.  0.
        3    1    3    3  502    0 -0.71588682088E+03  0.69507434711E+03  0.48065767317E+03  0.11075441740E+04  0.10100000352E+00 0.  1.
       -3    1    3    3    0  502  0.71588682088E+03 -0.69507434711E+03  0.14181613189E+03  0.10078363527E+04  0.10100000352E+00 0. -1.
</event>
<event>
 5   0  0.4128678E-05  0.2083320E+04  0.7818609E-02  0.8568627E-01
       -1   -1    0    0    0  501  0.00000000000E+00  0.00000000000E+00  0.73771419606E+03  0.73771419608E+03  0.50400001928E-02 0. -1.
        1   -1    0    0  501    0  0.00000000000E+00  0.00000000000E+00 -0.14708350188E+04  0.14708350188E+04  0.50400001928E-02 0.  1.
    10030    2    1    2    0    0  0.00000000000E+00  0.00000000000E+00 -0.73312082274E+03  0.22085492149E+04  0.20833203052E+04 0.  0.
        5    1    3    3  502    0 -0.83664453176E+03 -0.61967476791E+03 -0.40112216738E+03  0.11157472714E+04  0.46999998093E+01 0.  1.
       -5    1    3    3    0  502  0.83664453176E+03  0.61967476791E+03 -0.33199865536E+03  0.10928019435E+04  0.46999998093E+01 0. -1.
</event>
<event>
 5   0  0.4182977E-05  0.2109776E+04  0.7818609E-02  0.8556949E-01
        1   -1    0    0  501    0  0.00000000000E+00  0.00000000000E+00  0.97059073847E+03  0.97059073848E+03  0.50400001928E-02 0. -1.
       -1   -1    0    0    0  501  0.00000000000E+00  0.00000000000E+00 -0.11465061456E+04  0.11465061457E+04  0.50400001928E-02 0.  1.
    10030    2    1    2    0    0  0.00000000000E+00  0.00000000000E+00 -0.17591540717E+03  0.21170968841E+04  0.21097755772E+04 0.  0.
        1    1    3    3  502    0  0.54213325975E+03  0.21474859806E+02  0.81984656247E+03  0.98311648697E+03  0.50400001928E-02 0. -1.
       -1    1    3    3    0  502 -0.54213325975E+03 -0.21474859806E+02 -0.99576196965E+03  0.11339803972E+04  0.50400001928E-02 0.  1.
</event>
<event>
 5   0  0.4174093E-05  0.1990528E+04  0.7818609E-02  0.8611062E-01
        1   -1    0    0  501    0  0.00000000000E+00  0.00000000000E+00  0.13415376696E+04  0.13415376696E+04  0.50400001928E-02 0. -1.
       -1   -1    0    0    0  501  0.00000000000E+00  0.00000000000E+00 -0.73836925675E+03  0.73836925677E+03  0.50400001928E-02 0.  1.
    10030    2    1    2    0    0  0.00000000000E+00  0.00000000000E+00  0.60316841280E+03  0.20799069263E+04  0.19905277411E+04 0.  0.
        3    1    3    3  502    0  0.27913938416E+03 -0.88787021312E+03  0.67000354041E+03  0.11467942560E+04  0.10100000352E+00 0. -1.
       -3    1    3    3    0  502 -0.27913938416E+03  0.88787021312E+03 -0.66835127602E+02  0.93311267038E+03  0.10100000352E+00 0.  1.
</event>
<event>
 5   0  0.9086985E-05  0.2082280E+04  0.7818609E-02  0.8569089E-01
       -2   -1    0    0    0  501  0.00000000000E+00  0.00000000000E+00  0.13990226789E+04  0.13990226789E+04  0.25500000920E-02 0. -1.
        2   -1    0    0  501    0  0.00000000000E+00  0.00000000000E+00 -0.77480718611E+03  0.77480718612E+03  0.25500000920E-02 0.  1.
    10030    2    1    2    0    0  0.00000000000E+00  0.00000000000E+00  0.62421549274E+03  0.21738298650E+04  0.20822803127E+04 0.  0.
        5    1    3    3  502    0 -0.17712033944E+03 -0.15144307423E+03 -0.74721897860E+03  0.78272914304E+03  0.46999998093E+01 0.  1.
       -5    1    3    3    0  502  0.17712033944E+03  0.15144307423E+03  0.13714344713E+04  0.13911007219E+04  0.46999998093E+01 0. -1.
</event>
<event>
 5   0  0.3176125E-05  0.2188122E+04  0.7818609E-02  0.8523388E-01
        3   -1    0    0  501    0  0.00000000000E+00  0.00000000000E+00  0.83878242152E+03  0.83878242760E+03  0.10100000352E+00 0. -1.
       -3   -1    0    0    0  501  0.00000000000E+00  0.00000000000E+00 -0.14270320390E+04  0.14270320426E+04  0.10100000352E+00 0.  1.
    10030    2    1    2    0    0  0.00000000000E+00  0.00000000000E+00 -0.58824961750E+03  0.22658144702E+04  0.21881219346E+04 0.  0.
        4    1    3    3  502    0  0.80044410287E+03 -0.55665436318E+03  0.21987973831E+03  0.99946163212E+03  0.12699999809E+01 0. -1.
       -4    1    3    3    0  502 -0.80044410287E+03  0.55665436318E+03 -0.80812935582E+03  0.12663528381E+04  0.12699999809E+01 0.  1.
</event>
<event>
 5   0  0.9012466E-05  0.2101508E+04  0.7818609E-02  0.8560579E-01
        2   -1    0    0  501    0  0.00000000000E+00  0.00000000000E+00  0.88765730051E+03  0.88765730052E+03  0.25500000920E-02 0.  1.
       -2   -1    0    0    0  501  0.00000000000E+00  0.00000000000E+00 -0.12438183275E+04  0.12438183275E+04  0.25500000920E-02 0. -1.
    10030    2    1    2    0    0  0.00000000000E+00  0.00000000000E+00 -0.35616102701E+03  0.21314756280E+04  0.21015084287E+04 0.  0.
        2    1    3    3  502    0 -0.38113050352E+03 -0.75668467855E+03  0.45227382921E+03  0.96040813203E+03  0.25500000920E-02 0.  1.
       -2    1    3    3    0  502  0.38113050352E+03  0.75668467855E+03 -0.80843485622E+03  0.11710674960E+04  0.25500000920E-02 0. -1.
</event>
<event>
 5   0  0.9012466E-05  0.2098107E+04  0.7818609E-02  0.8562078E-01
        2   -1    0    0  501    0  0.00000000000E+00  0.00000000000E+00  0.12644682014E+04  0.12644682014E+04  0.25500000920E-02 0. -1.
       -2   -1    0    0    0  501  0.00000000000E+00  0.00000000000E+00 -0.87033675840E+03  0.87033675840E+03  0.25500000920E-02 0.  1.
    10030    2    1    2    0    0  0.00000000000E+00  0.00000000000E+00  0.39413144299E+03  0.21348049598E+04  0.20981069139E+04 0.  0.
        2    1    3    3  502    0 -0.57415388002E+03 -0.32296809489E+03 -0.63364082805E+03  0.91403597699E+03  0.25500000920E-02 0.  1.
       -2    1    3    3    0  502  0.57415388002E+03  0.32296809489E+03  0.10277722710E+04  0.12207689828E+04  0.25500000920E-02 0. -1.
</event>
<event>
 5   0  0.9086985E-05  0.2111763E+04  0.7818609E-02  0.8556079E-01
       -2   -1    0    0    0  501  0.00000000000E+00  0.00000000000E+00  0.73234455133E+03  0.73234455134E+03  0.25500000920E-02 0.  1.
        2   -1    0    0  501    0  0.00000000000E+00  0.00000000000E+00 -0.15223520412E+04  0.15223520412E+04  0.25500000920E-02 0. -1.
    10030    2    1    2    0    0  0.00000000000E+00  0.00000000000E+00 -0.79000748991E+03  0.22546965926E+04  0.21117634551E+04 0.  0.
        5    1    3    3  502    0  0.26282645523E+03  0.64088909905E+02  0.69470338561E+03  0.74553337814E+03  0.46999998093E+01 0.  1.
       -5    1    3    3    0  502 -0.26282645523E+03 -0.64088909905E+02 -0.14847108755E+04  0.15091632144E+04  0.46999998093E+01 0. -1.
</event>
<event>
 5   0  0.8858590E-05  0.2035636E+04  0.7818609E-02  0.8590138E-01
       -2   -1    0    0    0  501  0.00000000000E+00  0.00000000000E+00  0.54915202253E+03  0.54915202254E+03  0.25500000920E-02 0. -1.
        2   -1    0    0  501    0  0.00000000000E+00  0.00000000000E+00 -0.18864608953E+04  0.18864608953E+04  0.25500000920E-02 0.  1.
    10030    2    1    2    0    0  0.00000000000E+00  0.00000000000E+00 -0.13373088728E+04  0.24356129179E+04  0.20356363291E+04 0.  0.
        1    1    3    3  502    0  0.10028702670E+04 -0.15978055111E+03 -0.58684393332E+03  0.11728872064E+04  0.50400001928E-02 0.  1.
       -1    1    3    3    0  502 -0.10028702670E+04  0.15978055111E+03 -0.75046493946E+03  0.12627257114E+04  0.50400001928E-02 0. -1.
</event>
<event>
 5   0  0.9012466E-05  0.2095005E+04  0.7818609E-02  0.8563447E-01
       -2   -1    0    0    0  501  0.00000000000E+00  0.00000000000E+00  0.75565173714E+03  0.75565173714E+03  0.25500000920E-02 0. -1.
        2   -1    0    0  501    0  0.00000000000E+00  0.00000000000E+00 -0.14520735385E+04  0.14520735385E+04  0.25500000920E-02 0.  1.
    10030    2    1    2    0    0  0.00000000000E+00  0.00000000000E+00 -0.69642180139E+03  0.22077252757E+04  0.20950053860E+04 0.  0.
        2    1    3    3  502    0 -0.94137414148E+03  0.44817562258E+03 -0.24170248180E+03  0.10702648049E+04  0.25500000920E-02 0.  1.
       -2    1    3    3    0  502  0.94137414148E+03 -0.44817562258E+03 -0.45471931959E+03  0.11374604708E+04  0.25500000920E-02 0. -1.
</event>
<event>
 5   0  0.8858590E-05  0.2088777E+04  0.7818609E-02  0.8566203E-01
       -2   -1    0    0    0  501  0.00000000000E+00  0.00000000000E+00  0.86845359472E+03  0.86845359472E+03  0.25500000920E-02 0. -1.
        2   -1    0    0  501    0  0.00000000000E+00  0.00000000000E+00 -0.12559646673E+04  0.12559646673E+04  0.25500000920E-02 0.  1.
    10030    2    1    2    0    0  0.00000000000E+00  0.00000000000E+00 -0.38751107258E+03  0.21244182620E+04  0.20887767044E+04 0.  0.
        1    1    3    3  502    0 -0.43436025650E+02  0.87746834104E+03 -0.76811243632E+03  0.11669764748E+04  0.50400001928E-02 0.  1.
       -1    1    3    3    0  502  0.43436025650E+02 -0.87746834104E+03  0.38060136374E+03  0.95744178724E+03  0.50400001928E-02 0. -1.
</event>
<event>
 5   0  0.4200061E-05  0.2075729E+04  0.7818609E-02  0.8572011E-01
        1   -1    0    0  501    0  0.00000000000E+00  0.00000000000E+00  0.13541620159E+04  0.13541620159E+04  0.50400001928E-02 0. -1.
       -1   -1    0    0    0  501  0.00000000000E+00  0.00000000000E+00 -0.79544612324E+03  0.79544612326E+03  0.50400001928E-02 0.  1.
    10030    2    1    2    0    0  0.00000000000E+00  0.00000000000E+00  0.55871589265E+03  0.21496081392E+04  0.20757291980E+04 0.  0.
        4    1    3    3  502    0 -0.66452980971E+03 -0.53819921742E+03 -0.32971007462E+03  0.91649801518E+03  0.12699999809E+01 0.  1.
       -4    1    3    3    0  502  0.66452980971E+03  0.53819921742E+03  0.88842596727E+03  0.12331101240E+04  0.12699999809E+01 0. -1.
</event>
<event>
 5   0  0.4200061E-05  0.2111043E+04  0.7818609E-02  0.8556395E-01
        1   -1    0    0  501    0  0.00000000000E+00  0.00000000000E+00  0.65692032317E+03  0.65692032319E+03  0.50400001928E-02 0.  1.
       -1   -1    0    0    0  501  0.00000000000E+00  0.00000000000E+00 -0.16959823496E+04  0.16959823497E+04  0.50400001928E-02 0. -1.
    10030    2    1    2    0    0  0.00000000000E+00  0.00000000000E+00 -0.10390620265E+04  0.23529026728E+04  0.21110426554E+04 0.  0.
        4    1    3    3  502    0  0.44091524272E+03  0.30796923461E+03 -0.15318102524E+04  0.16234825416E+04  0.12699999809E+01 0. -1.
       -4    1    3    3    0  502 -0.44091524272E+03 -0.30796923461E+03  0.49274822593E+03  0.72942013119E+03  0.12699999809E+01 0.  1.
</event>
<event>
 5   0  0.4200061E-05  0.2189248E+04  0.7818609E-02  0.8522917E-01
       -1   -1    0    0    0  501  0.00000000000E+00  0.00000000000E+00  0.10427900901E+04  0.10427900901E+04  0.50400001928E-02 0. -1.
        1   -1    0    0  501    0  0.00000000000E+00  0.00000000000E+00 -0.11490345055E+04  0.11490345055E+04  0.50400001928E-02 0.  1.
    10030    2    1    2    0    0  0.00000000000E+00  0.00000000000E+00 -0.10624441546E+03  0.21918245956E+04  0.21892480860E+04 0.  0.
        4    1    3    3  502    0 -0.15209983290E+03  0.55631737704E+02 -0.11369723468E+04  0.11484498160E+04  0.12699999809E+01 0.  1.
       -4    1    3    3    0  502  0.15209983290E+03 -0.55631737704E+02  0.10307279314E+04  0.10433747797E+04  0.12699999809E+01 0. -1.
</event>
<event>
 5   0  0.8547605E-05  0.2110993E+04  0.7818609E-02  0.8556416E-01
        2   -1    0    0  501    0  0.00000000000E+00  0.00000000000E+00  0.18237452770E+04  0.18237452770E+04  0.25500000920E-02 0.  1.
       -2   -1    0    0    0  501  0.00000000000E+00  0.00000000000E+00 -0.61087082530E+03  0.61087082531E+03  0.25500000920E-02 0. -1.
    10030    2    1    2    0    0  0.00000000000E+00  0.00000000000E+00  0.12128744517E+04  0.24346161023E+04  0.21109929252E+04 0.  0.
        4    1    3    3  502    0 -0.27840456485E+03  0.10180906492E+04  0.61487275214E+03  0.12215104526E+04  0.12699999809E+01 0.  1.
       -4    1    3    3    0  502  0.27840456485E+03 -0.10180906492E+04  0.59800169955E+03  0.12131056497E+04  0.12699999809E+01 0. -1.
</event>
<event>
 5   0  0.4128678E-05  0.2080302E+04  0.7818609E-02  0.8569970E-01
        1   -1    0    0  501    0  0.00000000000E+00  0.00000000000E+00  0.11053115795E+04  0.11053115795E+04  0.50400001928E-02 0. -1.
       -1   -1    0    0    0  501  0.00000000000E+00  0.00000000000E+00 -0.97883214360E+03  0.97883214361E+03  0.50400001928E-02 0.  1.
    10030    2    1    2    0    0  0.00000000000E+00  0.00000000000E+00  0.12647943591E+03  0.20841437231E+04  0.20803023845E+04 0.  0.
        5    1    3    3  502    0  0.44232890714E+03  0.92444889284E+03  0.24142142600E+03  0.10528850899E+04  0.46999998093E+01 0. -1.
       -5    1    3    3    0  502 -0.44232890714E+03 -0.92444889284E+03 -0.11494199009E+03  0.10312586332E+04  0.46999998093E+01 0.  1.
</event>
<event>
 5   0  0.4050368E-05  0.2108940E+04  0.7818609E-02  0.8557315E-01
        1   -1    0    0  501    0  0.00000000000E+00  0.00000000000E+00  0.95796345806E+03  0.95796345808E+03  0.50400001928E-02 0. -1.
       -1   -1    0    0    0  501  0.00000000000E+00  0.00000000000E+00 -0.11606989042E+04  0.11606989042E+04  0.50400001928E-02 0.  1.
    10030    2    1    2    0    0  0.00000000000E+00  0.00000000000E+00 -0.20273544611E+03  0.21186623623E+04  0.21089401471E+04 0.  0.
        2    1    3    3  502    0  0.55584432034E+03  0.24111805217E+02  0.79850876102E+03  0.97322172656E+03  0.25500000920E-02 0. -1.
       -2    1    3    3    0  502 -0.55584432034E+03 -0.24111805217E+02 -0.10012442071E+04  0.11454406357E+04  0.25500000920E-02 0.  1.
</event>
<event>
 5   0  0.4200061E-05  0.2106024E+04  0.7818609E-02  0.8558594E-01
       -1   -1    0    0    0  501  0.00000000000E+00  0.00000000000E+00  0.98655623701E+03  0.98655623702E+03  0.50400001928E-02 0. -1.
        1   -1    0    0  501    0  0.00000000000E+00  0.00000000000E+00 -0.11239443688E+04  0.11239443688E+04  0.50400001928E-02 0.  1.
    10030    2    1    2    0    0  0.00000000000E+00  0.00000000000E+00 -0.13738813179E+03  0.21105006058E+04  0.21060240522E+04 0.  0.
        4    1    3    3  502    0  0.91662317365E+02 -0.57228322098E+02 -0.11183725055E+04  0.11235816549E+04  0.12699999809E+01 0.  1.
       -4    1    3    3    0  502 -0.91662317365E+02  0.57228322098E+02  0.98098437373E+03  0.98691895091E+03  0.12699999809E+01 0. -1.
</event>
<event>
 5   0  0.4200061E-05  0.2098252E+04  0.7818609E-02  0.8562014E-01
        1   -1    0    0  501    0  0.00000000000E+00  0.00000000000E+00  0.12557366886E+04  0.12557366886E+04  0.50400001928E-02 0. -1.
       -1   -1    0    0    0  501  0.00000000000E+00  0.00000000000E+00 -0.87651003919E+03  0.87651003921E+03  0.50400001928E-02 0.  1.
    10030    2    1    2    0    0  0.00000000000E+00  0.00000000000E+00  0.37922664939E+03  0.21322467278E+04  0.20982524292E+04 0.  0.
        4    1    3    3  502    0 -0.30398633836E+03  0.86489961031E+02 -0.82698212541E+03  0.88531873126E+03  0.12699999809E+01 0.  1.
       -4    1    3    3    0  502  0.30398633836E+03 -0.86489961031E+02  0.12062087748E+04  0.12469279965E+04  0.12699999809E+01 0. -1.
</event>
<event>
 5   0  0.8872777E-05  0.2095361E+04  0.7818609E-02  0.8563290E-01
       -2   -1    0    0    0  501  0.00000000000E+00  0.00000000000E+00  0.74711637503E+03  0.74711637504E+03  0.25500000920E-02 0.  1.
        2   -1    0    0  501    0  0.00000000000E+00  0.00000000000E+00 -0.14691612869E+04  0.14691612869E+04  0.25500000920E-02 0. -1.
    10030    2    1    2    0    0  0.00000000000E+00  0.00000000000E+00 -0.72204491188E+03  0.22162776620E+04  0.20953610238E+04 0.  0.
        3    1    3    3  502    0  0.60351854356E+03  0.29293086034E+03  0.49014658443E+03  0.83083500515E+03  0.10100000352E+00 0.  1.
       -3    1    3    3    0  502 -0.60351854356E+03 -0.29293086034E+03 -0.12121914963E+04  0.13854426568E+04  0.10100000352E+00 0. -1.
</event>
<event>
 5   0  0.4050368E-05  0.2034451E+04  0.7818609E-02  0.8590681E-01
        1   -1    0    0  501    0  0.00000000000E+00  0.00000000000E+00  0.12228569005E+04  0.12228569005E+04  0.50400001928E-02 0. -1.
       -1   -1    0    0    0  501  0.00000000000E+00  0.00000000000E+00 -0.84617278074E+03  0.84617278075E+03  0.50400001928E-02 0.  1.
    10030    2    1    2    0    0  0.00000000000E+00  0.00000000000E+00  0.37668411975E+03  0.20690296813E+04  0.20344514975E+04 0.  0.
        2    1    3    3  502    0  0.60969915349E+03  0.62793977733E+03  0.71552179881E+03  0.11304923115E+04  0.25500000920E-02 0. -1.
       -2    1    3    3    0  502 -0.60969915349E+03 -0.62793977733E+03 -0.33883767906E+03  0.93853736978E+03  0.25500000920E-02 0.  1.
</event>
<event>
 5   0  0.8872777E-05  0.2093403E+04  0.7818609E-02  0.8564155E-01
        2   -1    0    0  501    0  0.00000000000E+00  0.00000000000E+00  0.18162712741E+04  0.18162712741E+04  0.25500000920E-02 0. -1.
       -2   -1    0    0    0  501  0.00000000000E+00  0.00000000000E+00 -0.60320510662E+03  0.60320510662E+03  0.25500000920E-02 0.  1.
    10030    2    1    2    0    0  0.00000000000E+00  0.00000000000E+00  0.12130661675E+04  0.24194763807E+04  0.20934030740E+04 0.  0.
        3    1    3    3  502    0 -0.87500636299E+03  0.10350999349E+02  0.12703078360E+04  0.15425385852E+04  0.10100000352E+00 0. -1.
       -3    1    3    3    0  502  0.87500636299E+03 -0.10350999349E+02 -0.57241668472E+02  0.87693779555E+03  0.10100000352E+00 0.  1.
</event>
<event>
 5   0  0.4128678E-05  0.2106939E+04  0.7818609E-02  0.8558193E-01
       -1   -1    0    0    0  501  0.00000000000E+00  0.00000000000E+00  0.67412810413E+03  0.67412810414E+03  0.50400001928E-02 0.  1.
        1   -1    0    0  501    0  0.00000000000E+00  0.00000000000E+00 -0.16462724100E+04  0.16462724100E+04  0.50400001928E-02 0. -1.
    10030    2    1    2    0    0  0.00000000000E+00  0.00000000000E+00 -0.97214430587E+03  0.23204005141E+04  0.21069394853E+04 0.  0.
        5    1    3    3  502    0 -0.20552409375E+03 -0.73592616832E+03 -0.12847703038E+04  0.14948191536E+04  0.46999998093E+01 0. -1.
       -5    1    3    3    0  502  0.20552409375E+03  0.73592616832E+03  0.31262599795E+03  0.82558136057E+03  0.46999998093E+01 0.  1.
</event>
<event>
 5   0  0.8872777E-05  0.2112311E+04  0.7818609E-02  0.8555840E-01
        2   -1    0    0  501    0  0.00000000000E+00  0.00000000000E+00  0.24152711106E+04  0.24152711106E+04  0.25500000920E-02 0. -1.
       -2   -1    0    0    0  501  0.00000000000E+00  0.00000000000E+00 -0.46183812761E+03  0.46183812762E+03  0.25500000920E-02 0.  1.
    10030    2    1    2    0    0  0.00000000000E+00  0.00000000000E+00  0.19534329830E+04  0.28771092383E+04  0.21123108554E+04 0.  0.
        3    1    3    3  502    0 -0.10124871042E+04 -0.10661703451E+03  0.13594717799E+04  0.16984289384E+04  0.10100000352E+00 0. -1.
       -3    1    3    3    0  502  0.10124871042E+04  0.10661703451E+03  0.59396120310E+03  0.11786802998E+04  0.10100000352E+00 0.  1.
</event>
<event>
 5   0  0.4174093E-05  0.1951653E+04  0.7818609E-02  0.8629564E-01
       -1   -1    0    0    0  501  0.00000000000E+00  0.00000000000E+00  0.45343854249E+03  0.45343854251E+03  0.50400001928E-02 0. -1.
        1   -1    0    0  501    0  0.00000000000E+00  0.00000000000E+00 -0.21000361209E+04  0.21000361210E+04  0.50400001928E-02 0.  1.
    10030    2    1    2    0    0  0.00000000000E+00  0.00000000000E+00 -0.16465975785E+04  0.25534746635E+04  0.19516529588E+04 0.  0.
        3    1    3    3  502    0  0.56087124188E+03  0.72512497621E+03 -0.12608770529E+04  0.15589078658E+04  0.10100000352E+00 0.  1.
       -3    1    3    3    0  502 -0.56087124188E+03 -0.72512497621E+03 -0.38572052551E+03  0.99456679770E+03  0.10100000352E+00 0. -1.
</event>
<event>
 5   0  0.4128678E-05  0.2102167E+04  0.7818609E-02  0.8560289E-01
        1   -1    0    0  501    0  0.00000000000E+00  0.00000000000E+00  0.11582980734E+04  0.11582980734E+04  0.50400001928E-02 0. -1.
       -1   -1    0    0    0  501  0.00000000000E+00  0.00000000000E+00 -0.95379306638E+03  0.95379306639E+03  0.50400001928E-02 0.  1.
    10030    2    1    2    0    0  0.00000000000E+00  0.00000000000E+00  0.20450500706E+03  0.21120911398E+04  0.21021671401E+04 0.  0.
        5    1    3    3  502    0 -0.15309676364E+03  0.77647552312E+02 -0.93960319820E+03  0.95516701235E+03  0.46999998093E+01 0.  1.
       -5    1    3    3    0  502  0.15309676364E+03 -0.77647552312E+02  0.11441082053E+04  0.11569241275E+04  0.46999998093E+01 0. -1.
</event>
<event>
 5   0  0.8872777E-05  0.1770413E+04  0.7818609E-02  0.8722194E-01
       -2   -1    0    0    0  501  0.00000000000E+00  0.00000000000E+00  0.45599233192E+03  0.45599233193E+03  0.25500000920E-02 0.  1.
        2   -1    0    0  501    0  0.00000000000E+00  0.00000000000E+00 -0.17184294905E+04  0.17184294905E+04  0.25500000920E-02 0. -1.
    10030    2    1    2    0    0  0.00000000000E+00  0.00000000000E+00 -0.12624371586E+04  0.21744218224E+04  0.17704131389E+04 0.  0.
        3    1    3    3  502    0  0.96213968879E+02  0.29796412506E+03 -0.16481438288E+04  0.16776226746E+04  0.10100000352E+00 0. -1.
       -3    1    3    3    0  502 -0.96213968879E+02 -0.29796412506E+03  0.38570667023E+03  0.49679914784E+03  0.10100000352E+00 0.  1.
</event>
<event>
 5   0  0.4182977E-05  0.2099677E+04  0.7818609E-02  0.8561386E-01
       -1   -1    0    0    0  501  0.00000000000E+00  0.00000000000E+00  0.12526489652E+04  0.12526489652E+04  0.50400001928E-02 0. -1.
        1   -1    0    0  501    0  0.00000000000E+00  0.00000000000E+00 -0.87986398259E+03  0.87986398260E+03  0.50400001928E-02 0.  1.
    10030    2    1    2    0    0  0.00000000000E+00  0.00000000000E+00  0.37278498260E+03  0.21325129478E+04  0.20996768392E+04 0.  0.
        1    1    3    3  502    0 -0.43611999086E+03 -0.55582575736E+03 -0.60229377935E+03  0.92838608114E+03  0.50400001928E-02 0.  1.
       -1    1    3    3    0  502  0.43611999086E+03  0.55582575736E+03  0.97507876195E+03  0.12041268667E+04  0.50400001928E-02 0. -1.
</event>
<event>
 5   0  0.4050368E-05  0.2025500E+04  0.7818609E-02  0.8594791E-01
       -1   -1    0    0    0  501  0.00000000000E+00  0.00000000000E+00  0.10947353396E+04  0.10947353396E+04  0.50400001928E-02 0. -1.
        1   -1    0    0  501    0  0.00000000000E+00  0.00000000000E+00 -0.93690436586E+03  0.93690436587E+03  0.50400001928E-02 0.  1.
    10030    2    1    2    0    0  0.00000000000E+00  0.00000000000E+00  0.15783097376E+03  0.20316397055E+04  0.20254997597E+04 0.  0.
        2    1    3    3  502    0 -0.86439792627E+03 -0.49957953141E+03  0.24942737807E+03  0.10290663244E+04  0.25500000920E-02 0. -1.
       -2    1    3    3    0  502  0.86439792627E+03  0.49957953141E+03 -0.91596404306E+02  0.10025733811E+04  0.25500000920E-02 0.  1.
</event>
<event>
 5   0  0.9012466E-05  0.2086713E+04  0.7818609E-02  0.8567119E-01
       -2   -1    0    0    0  501  0.00000000000E+00  0.00000000000E+00  0.70777054302E+03  0.70777054303E+03  0.25500000920E-02 0. -1.
        2   -1    0    0  501    0  0.00000000000E+00  0.00000000000E+00 -0.15380588577E+04  0.15380588577E+04  0.25500000920E-02 0.  1.
    10030    2    1    2    0    0  0.00000000000E+00  0.00000000000E+00 -0.83028831468E+03  0.22458294007E+04  0.20867129682E+04 0.  0.
        2    1    3    3  502    0  0.77720249046E+02  0.77704875435E+03  0.32953179554E+03  0.84760628126E+03  0.25500000920E-02 0. -1.
       -2    1    3    3    0  502 -0.77720249046E+02 -0.77704875435E+03 -0.11598201102E+04  0.13982231195E+04  0.25500000920E-02 0.  1.
</event>
<event>
 5   0  0.9012466E-05  0.2078872E+04  0.7818609E-02  0.8570608E-01
       -2   -1    0    0    0  501  0.00000000000E+00  0.00000000000E+00  0.60362819212E+03  0.60362819213E+03  0.25500000920E-02 0. -1.
        2   -1    0    0  501    0  0.00000000000E+00  0.00000000000E+00 -0.17898881513E+04  0.17898881513E+04  0.25500000920E-02 0.  1.
    10030    2    1    2    0    0  0.00000000000E+00  0.00000000000E+00 -0.11862599592E+04  0.23935163435E+04  0.20788717603E+04 0.  0.
        2    1    3    3  502    0 -0.31191886402E+03 -0.94204783431E+03 -0.94926774588E+03  0.13732649975E+04  0.25500000920E-02 0.  1.
       -2    1    3    3    0  502  0.31191886402E+03  0.94204783431E+03 -0.23699221333E+03  0.10202513460E+04  0.25500000920E-02 0. -1.
</event>
<event>
 5   0  0.8547605E-05  0.2068142E+04  0.7818609E-02  0.8575408E-01
        2   -1    0    0  501    0  0.00000000000E+00  0.00000000000E+00  0.18172270326E+04  0.18172270326E+04  0.25500000920E-02 0. -1.
       -2   -1    0    0    0  501  0.00000000000E+00  0.00000000000E+00 -0.58842584059E+03  0.58842584059E+03  0.25500000920E-02 0.  1.
    10030    2    1    2    0    0  0.00000000000E+00  0.00000000000E+00  0.12288011920E+04  0.24056528732E+04  0.20681424943E+04 0.  0.
        4    1    3    3  502    0 -0.92036770059E+03  0.36019666434E+03  0.26066043225E+03  0.10221368867E+04  0.12699999809E+01 0.  1.
       -4    1    3    3    0  502  0.92036770059E+03 -0.36019666434E+03  0.96814075975E+03  0.13835159865E+04  0.12699999809E+01 0. -1.
</event>
<event>
 5   0  0.8858590E-05  0.2083740E+04  0.7818609E-02  0.8568440E-01
        2   -1    0    0  501    0  0.00000000000E+00  0.00000000000E+00  0.12290929902E+04  0.12290929902E+04  0.25500000920E-02 0. -1.
       -2   -1    0    0    0  501  0.00000000000E+00  0.00000000000E+00 -0.88316599339E+03  0.88316599339E+03  0.25500000920E-02 0.  1.
    10030    2    1    2    0    0  0.00000000000E+00  0.00000000000E+00  0.34592699682E+03  0.21122589836E+04  0.20837400334E+04 0.  0.
        1    1    3    3  502    0 -0.41848699953E+03 -0.31811393585E+03  0.10848110827E+04  0.12054637822E+04  0.50400001928E-02 0. -1.
       -1    1    3    3    0  502  0.41848699953E+03  0.31811393585E+03 -0.73888408588E+03  0.90679520143E+03  0.50400001928E-02 0.  1.
</event>
<event>
 5   0  0.9086985E-05  0.1795914E+04  0.7818609E-02  0.8708476E-01
       -2   -1    0    0    0  501  0.00000000000E+00  0.00000000000E+00  0.43016704493E+03  0.43016704494E+03  0.25500000920E-02 0. -1.
        2   -1    0    0  501    0  0.00000000000E+00  0.00000000000E+00 -0.18744496980E+04  0.18744496980E+04  0.25500000920E-02 0.  1.
    10030    2    1    2    0    0  0.00000000000E+00  0.00000000000E+00 -0.14442826531E+04  0.23046167430E+04  0.17959136811E+04 0.  0.
        5    1    3    3  502    0 -0.33530883002E+03 -0.68720796043E+03 -0.11803221993E+03  0.77371860990E+03  0.46999998093E+01 0. -1.
       -5    1    3    3    0  502  0.33530883002E+03  0.68720796043E+03 -0.13262504332E+04  0.15308981331E+04  0.46999998093E+01 0.  1.
</event>
<event>
 5   0  0.8547605E-05  0.2079273E+04  0.7818609E-02  0.8570429E-01
       -2   -1    0    0    0  501  0.00000000000E+00  0.00000000000E+00  0.71087903400E+03  0.71087903400E+03  0.25500000920E-02 0. -1.
        2   -1    0    0  501    0  0.00000000000E+00  0.00000000000E+00 -0.15204328389E+04  0.15204328389E+04  0.25500000920E-02 0.  1.
    10030    2    1    2    0    0  0.00000000000E+00  0.00000000000E+00 -0.80955380487E+03  0.22313118729E+04  0.20792727842E+04 0.  0.
        4    1    3    3  502    0 -0.29514401781E+03 -0.19854338961E+03  0.64354381703E+03  0.73530927245E+03  0.12699999809E+01 0. -1.
       -4    1    3    3    0  502  0.29514401781E+03  0.19854338961E+03 -0.14530976219E+04  0.14960026004E+04  0.12699999809E+01 0.  1.
</event>
<event>
 5   0  0.8858590E-05  0.2099227E+04  0.7818609E-02  0.8561584E-01
       -2   -1    0    0    0  501  0.00000000000E+00  0.00000000000E+00  0.53248799173E+03  0.53248799173E+03  0.25500000920E-02 0.  1.
        2   -1    0    0  501    0  0.00000000000E+00  0.00000000000E+00 -0.20689446663E+04  0.20689446663E+04  0.25500000920E-02 0. -1.
    10030    2    1    2    0    0  0.00000000000E+00  0.00000000000E+00 -0.15364566745E+04  0.26014326580E+04  0.20992267056E+04 0.  0.
        1    1    3    3  502    0  0.89075991795E+03 -0.41261504088E+03 -0.30790046114E+03  0.10288377410E+04  0.50400001928E-02 0.  1.
       -1    1    3    3    0  502 -0.89075991795E+03  0.41261504088E+03 -0.12285562134E+04  0.15725949170E+04  0.50400001928E-02 0. -1.
</event>
<event>
 5   0  0.3176125E-05  0.2085860E+04  0.7818609E-02  0.8567498E-01
        3   -1    0    0  501    0  0.00000000000E+00  0.00000000000E+00  0.14140560193E+04  0.14140560229E+04  0.10100000352E+00 0. -1.
       -3   -1    0    0    0  501  0.00000000000E+00  0.00000000000E+00 -0.76920775385E+03  0.76920776048E+03  0.10100000352E+00 0.  1.
    10030    2    1    2    0    0  0.00000000000E+00  0.00000000000E+00  0.64484826548E+03  0.21832637834E+04  0.20858598856E+04 0.  0.
        1    1    3    3  502    0 -0.94928745741E+03  0.41389863770E+03  0.45165672795E+03  0.11298019999E+04  0.50400001928E-02 0. -1.
       -1    1    3    3    0  502  0.94928745741E+03 -0.41389863770E+03  0.19319153753E+03  0.10534617835E+04  0.50400001928E-02 0.  1.
</event>
<event>
 5   0  0.3176125E-05  0.2208489E+04  0.7818609E-02  0.8514903E-01
        3   -1    0    0  501    0  0.00000000000E+00  0.00000000000E+00  0.13221052034E+04  0.13221052073E+04  0.10100000352E+00 0. -1.
       -3   -1    0    0    0  501  0.00000000000E+00  0.00000000000E+00 -0.92228330497E+03  0.92228331050E+03  0.10100000352E+00 0.  1.
    10030    2    1    2    0    0  0.00000000000E+00  0.00000000000E+00  0.39982189844E+03  0.22443885178E+04  0.22084886842E+04 0.  0.
        1    1    3    3  502    0 -0.29147819901E+03 -0.11569771455E+03  0.12758994150E+04  0.13138739737E+04  0.50400001928E-02 0. -1.
       -1    1    3    3    0  502  0.29147819901E+03  0.11569771455E+03 -0.87607751654E+03  0.93051454404E+03  0.50400001928E-02 0.  1.
</event>
<event>
 5   0  0.4174093E-05  0.2074972E+04  0.7818609E-02  0.8572349E-01
       -1   -1    0    0    0  501  0.00000000000E+00  0.00000000000E+00  0.70161803074E+03  0.70161803076E+03  0.50400001928E-02 0.  1.
        1   -1    0    0  501    0  0.00000000000E+00  0.00000000000E+00 -0.15341360793E+04  0.15341360793E+04  0.50400001928E-02 0. -1.
    10030    2    1    2    0    0  0.00000000000E+00  0.00000000000E+00 -0.83251804852E+03  0.22357541100E+04  0.20749723226E+04 0.  0.
        3    1    3    3  502    0 -0.45172123969E+03 -0.75027623756E+03  0.18308973954E+03  0.89470015869E+03  0.10100000352E+00 0.  1.
       -3    1    3    3    0  502  0.45172123969E+03  0.75027623756E+03 -0.10156077881E+04  0.13410539513E+04  0.10100000352E+00 0. -1.
</event>
<event>
 5   0  0.9086985E-05  0.2087107E+04  0.7818609E-02  0.8566944E-01
        2   -1    0    0  501    0  0.00000000000E+00  0.00000000000E+00  0.24552138935E+04  0.24552138935E+04  0.25500000920E-02 0. -1.
       -2   -1    0    0    0  501  0.00000000000E+00  0.00000000000E+00 -0.44354743978E+03  0.44354743979E+03  0.25500000920E-02 0.  1.
    10030    2    1    2    0    0  0.00000000000E+00  0.00000000000E+00  0.20116664537E+04  0.28987613333E+04  0.20871069322E+04 0.  0.
        5    1    3    3  502    0 -0.52091810522E+02  0.19663163001E+03  0.24273970831E+04  0.24359097363E+04  0.46999998093E+01 0. -1.
       -5    1    3    3    0  502  0.52091810522E+02 -0.19663163001E+03 -0.41573062934E+03  0.46285159697E+03  0.46999998093E+01 0.  1.
</event>
<event>
 5   0  0.4200061E-05  0.2081435E+04  0.7818609E-02  0.8569466E-01
        1   -1    0    0  501    0  0.00000000000E+00  0.00000000000E+00  0.12745067702E+04  0.12745067702E+04  0.50400001928E-02 0.  1.
       -1   -1    0    0    0  501  0.00000000000E+00  0.00000000000E+00 -0.84981375325E+03  0.84981375327E+03  0.50400001928E-02 0. -1.
    10030    2    1    2    0    0  0.00000000000E+00  0.00000000000E+00  0.42469301690E+03  0.21243205234E+04  0.20814354488E+04 0.  0.
        4    1    3    3  502    0  0.79501305162E+03 -0.63401269878E+03 -0.13744061877E+02  0.10169603565E+04  0.12699999809E+01 0. -1.
       -4    1    3    3    0  502 -0.79501305162E+03  0.63401269878E+03  0.43843707878E+03  0.11073601670E+04  0.12699999809E+01 0.  1.
</event>
<event>
 5   0  0.8858590E-05  0.2052933E+04  0.7818609E-02  0.8582265E-01
        2   -1    0    0  501    0  0.00000000000E+00  0.00000000000E+00  0.12955280077E+04  0.12955280077E+04  0.25500000920E-02 0. -1.
       -2   -1    0    0    0  501  0.00000000000E+00  0.00000000000E+00 -0.81328535908E+03  0.81328535908E+03  0.25500000920E-02 0.  1.
    10030    2    1    2    0    0  0.00000000000E+00  0.00000000000E+00  0.48224264866E+03  0.21088133668E+04  0.20529334728E+04 0.  0.
        1    1    3    3  502    0  0.71701367681E+03  0.55937627891E+03  0.73012910218E+03  0.11662327984E+04  0.50400001928E-02 0. -1.
       -1    1    3    3    0  502 -0.71701367681E+03 -0.55937627891E+03 -0.24788645352E+03  0.94258056844E+03  0.50400001928E-02 0.  1.
</event>
<event>
 5   0  0.9012466E-05  0.2006338E+04  0.7818609E-02  0.8603663E-01
        2   -1    0    0  501    0  0.00000000000E+00  0.00000000000E+00  0.74644616141E+03  0.74644616141E+03  0.25500000920E-02 0. -1.
       -2   -1    0    0    0  501  0.00000000000E+00  0.00000000000E+00 -0.13481853261E+04  0.13481853261E+04  0.25500000920E-02 0.  1.
    10030    2    1    2    0    0  0.00000000000E+00  0.00000000000E+00 -0.60173916474E+03  0.20946314876E+04  0.20063377199E+04 0.  0.
        2    1    3    3  502    0  0.77134513201E+03 -0.63563991926E+03 -0.39029137502E+03  0.10730045559E+04  0.25500000920E-02 0. -1.
       -2    1    3    3    0  502 -0.77134513201E+03  0.63563991926E+03 -0.21144778972E+03  0.10216269316E+04  0.25500000920E-02 0.  1.
</event>
<event>
 5   0  0.4128678E-05  0.2109412E+04  0.7818609E-02  0.8557109E-01
        1   -1    0    0  501    0  0.00000000000E+00  0.00000000000E+00  0.97189818426E+03  0.97189818427E+03  0.50400001928E-02 0.  1.
       -1   -1    0    0    0  501  0.00000000000E+00  0.00000000000E+00 -0.11445689478E+04  0.11445689478E+04  0.50400001928E-02 0. -1.
    10030    2    1    2    0    0  0.00000000000E+00  0.00000000000E+00 -0.17267076356E+03  0.21164671321E+04  0.21094117494E+04 0.  0.
        5    1    3    3  502    0  0.21889457131E+03 -0.92348884921E+02 -0.11173614185E+04  0.11423492371E+04  0.46999998093E+01 0. -1.
       -5    1    3    3    0  502 -0.21889457131E+03  0.92348884921E+02  0.94469065494E+03  0.97411789503E+03  0.46999998093E+01 0.  1.
</event>
<event>
 5   0  0.8547605E-05  0.2140785E+04  0.7818609E-02  0.8543487E-01
        2   -1    0    0  501    0  0.00000000000E+00  0.00000000000E+00  0.20122019756E+04  0.20122019756E+04  0.25500000920E-02 0. -1.
       -2   -1    0    0    0  501  0.00000000000E+00  0.00000000000E+00 -0.56939597483E+03  0.56939597484E+03  0.25500000920E-02 0.  1.
    10030    2    1    2    0    0  0.00000000000E+00  0.00000000000E+00  0.14428060007E+04  0.25815979504E+04  0.21407846276E+04 0.  0.
        4    1    3    3  502    0  0.96840113574E+03  0.44508176745E+03  0.84102286807E+03  0.13576522445E+04  0.12699999809E+01 0.  1.
       -4    1    3    3    0  502 -0.96840113574E+03 -0.44508176745E+03  0.60178313267E+03  0.12239457059E+04  0.12699999809E+01 0. -1.
</event>
<event>
 5   0  0.9086985E-05  0.1921960E+04  0.7818609E-02  0.8644002E-01
       -2   -1    0    0    0  501  0.00000000000E+00  0.00000000000E+00  0.72830436372E+03  0.72830436373E+03  0.25500000920E-02 0.  1.
        2   -1    0    0  501    0  0.00000000000E+00  0.00000000000E+00 -0.12679899688E+04  0.12679899688E+04  0.25500000920E-02 0. -1.
    10030    2    1    2    0    0  0.00000000000E+00  0.00000000000E+00 -0.53968560503E+03  0.19962943325E+04  0.19219600697E+04 0.  0.
        5    1    3    3  502    0  0.90309609033E+03 -0.35512166675E+02  0.69308264525E+02  0.90645981041E+03  0.46999998093E+01 0.  1.
       -5    1    3    3    0  502 -0.90309609033E+03  0.35512166675E+02 -0.60899386956E+03  0.10898345221E+04  0.46999998093E+01 0. -1.
</event>
<event>
 5   0  0.4200061E-05  0.2098132E+04  0.7818609E-02  0.8562067E-01
        1   -1    0    0  501    0  0.00000000000E+00  0.00000000000E+00  0.18963188490E+04  0.18963188490E+04  0.50400001928E-02 0. -1.
       -1   -1    0    0    0  501  0.00000000000E+00  0.00000000000E+00 -0.58035570353E+03  0.58035570355E+03  0.50400001928E-02 0.  1.
    10030    2    1    2    0    0  0.00000000000E+00  0.00000000000E+00  0.13159631455E+04  0.24766745526E+04  0.20981319880E+04 0.  0.
        4    1    3    3  502    0 -0.97298278551E+03  0.36005922178E+03  0.47435262184E+03  0.11407673588E+04  0.12699999809E+01 0. -1.
       -4    1    3    3    0  502  0.97298278551E+03 -0.36005922178E+03  0.84161052367E+03  0.13359071938E+04  0.12699999809E+01 0.  1.
</event>
<event>
 5   0  0.8858590E-05  0.2148064E+04  0.7818609E-02  0.8540362E-01
       -2   -1    0    0    0  501  0.00000000000E+00  0.00000000000E+00  0.55341337611E+03  0.55341337612E+03  0.25500000920E-02 0. -1.
        2   -1    0    0  501    0  0.00000000000E+00  0.00000000000E+00 -0.20844171980E+04  0.20844171980E+04  0.25500000920E-02 0.  1.
    10030    2    1    2    0    0  0.00000000000E+00  0.00000000000E+00 -0.15310038219E+04  0.26378305741E+04  0.21480636478E+04 0.  0.
        1    1    3    3  502    0 -0.60819292412E+03 -0.13957530696E+03  0.30797614202E+03  0.69586579406E+03  0.50400001928E-02 0. -1.
       -1    1    3    3    0  502  0.60819292412E+03  0.13957530696E+03 -0.18389799639E+04  0.19419647800E+04  0.50400001928E-02 0.  1.
</event>
<event>
 5   0  0.4128678E-05  0.2163449E+04  0.7818609E-02  0.8533797E-01
       -1   -1    0    0    0  501  0.00000000000E+00  0.00000000000E+00  0.14442003284E+04  0.14442003284E+04  0.50400001928E-02 0. -1.
        1   -1    0    0  501    0  0.00000000000E+00  0.00000000000E+00 -0.81022543069E+03  0.81022543071E+03  0.50400001928E-02 0.  1.
    10030    2    1    2    0    0  0.00000000000E+00  0.00000000000E+00  0.63397489767E+03  0.22544257591E+04  0.21634489438E+04 0.  0.
        5    1    3    3  502    0 -0.80194449017E+03  0.45194029420E+02 -0.43801358272E+03  0.91489641722E+03  0.46999998093E+01 0.  1.
       -5    1    3    3    0  502  0.80194449017E+03 -0.45194029420E+02  0.10719884804E+04  0.13395293419E+04  0.46999998093E+01 0. -1.
</event>
<event>
 5   0  0.4174093E-05  0.2085327E+04  0.7818609E-02  0.8567735E-01
       -1   -1    0    0    0  501  0.00000000000E+00  0.00000000000E+00  0.89815961272E+03  0.89815961274E+03  0.50400001928E-02 0.  1.
        1   -1    0    0  501    0  0.00000000000E+00  0.00000000000E+00 -0.12104158883E+04  0.12104158883E+04  0.50400001928E-02 0. -1.
    10030    2    1    2    0    0  0.00000000000E+00  0.00000000000E+00 -0.31225627560E+03  0.21085755011E+04  0.20853265121E+04 0.  0.
        3    1    3    3  502    0  0.94759382577E+03  0.38776048010E+03 -0.35544095726E+03  0.10838037336E+04  0.10100000352E+00 0. -1.
       -3    1    3    3    0  502 -0.94759382577E+03 -0.38776048010E+03  0.43184681656E+02  0.10247717675E+04  0.10100000352E+00 0.  1.
</event>
<event>
 5   0  0.4174093E-05  0.2096808E+04  0.7818609E-02  0.8562651E-01
       -1   -1    0    0    0  501  0.00000000000E+00  0.00000000000E+00  0.10620786581E+04  0.10620786582E+04  0.50400001928E-02 0.  1.
        1   -1    0    0  501    0  0.00000000000E+00  0.00000000000E+00 -0.10349052966E+04  0.10349052966E+04  0.50400001928E-02 0. -1.
    10030    2    1    2    0    0  0.00000000000E+00  0.00000000000E+00  0.27173361542E+02  0.20969839548E+04  0.20968078870E+04 0.  0.
        3    1    3    3  502    0 -0.77451294949E+03 -0.70505281072E+03 -0.33118886484E+02  0.10478867523E+04  0.10100000352E+00 0.  1.
       -3    1    3    3    0  502  0.77451294949E+03  0.70505281072E+03  0.60292248026E+02  0.10490972025E+04  0.10100000352E+00 0. -1.
</event>
<event>
 5   0  0.4182977E-05  0.2107736E+04  0.7818609E-02  0.8557843E-01
        1   -1    0    0  501    0  0.00000000000E+00  0.00000000000E+00  0.11985173207E+04  0.11985173207E+04  0.50400001928E-02 0.  1.
       -1   -1    0    0    0  501  0.00000000000E+00  0.00000000000E+00 -0.92667666788E+03  0.92667666790E+03  0.50400001928E-02 0. -1.
    10030    2    1    2    0    0  0.00000000000E+00  0.00000000000E+00  0.27184065285E+03  0.21251939886E+04  0.21077362617E+04 0.  0.
        1    1    3    3  502    0  0.48563197837E+03  0.86025057620E+03  0.50606935455E+03  0.11099439913E+04  0.50400001928E-02 0.  1.
       -1    1    3    3    0  502 -0.48563197837E+03 -0.86025057620E+03 -0.23422870170E+03  0.10152499973E+04  0.50400001928E-02 0. -1.
</event>
<event>
 5   0  0.8872777E-05  0.2090048E+04  0.7818609E-02  0.8565640E-01
       -2   -1    0    0    0  501  0.00000000000E+00  0.00000000000E+00  0.52829751178E+03  0.52829751179E+03  0.25500000920E-02 0.  1.
        2   -1    0    0  501    0  0.00000000000E+00  0.00000000000E+00 -0.20671592698E+04  0.20671592698E+04  0.25500000920E-02 0. -1.
    10030    2    1    2    0    0  0.00000000000E+00  0.00000000000E+00 -0.15388617581E+04  0.25954567816E+04  0.20900479408E+04 0.  0.
        3    1    3    3  502    0 -0.52099463859E+03 -0.38665802752E+02 -0.18933572160E+04  0.19641109987E+04  0.10100000352E+00 0. -1.
       -3    1    3    3    0  502  0.52099463859E+03  0.38665802752E+02  0.35449545791E+03  0.63134578293E+03  0.10100000352E+00 0.  1.
</event>
<event>
 5   0  0.3176125E-05  0.2107680E+04  0.7818609E-02  0.8557868E-01
        3   -1    0    0  501    0  0.00000000000E+00  0.00000000000E+00  0.13262297157E+04  0.13262297196E+04  0.10100000352E+00 0. -1.
       -3   -1    0    0    0  501  0.00000000000E+00  0.00000000000E+00 -0.83739544468E+03  0.83739545077E+03  0.10100000352E+00 0.  1.
    10030    2    1    2    0    0  0.00000000000E+00  0.00000000000E+00  0.48883427107E+03  0.21636251704E+04  0.21076799883E+04 0.  0.
        2    1    3    3  502    0  0.42122482614E+03 -0.91620363055E+03 -0.69844842623E+02  0.10108104416E+04  0.25500000920E-02 0.  1.
       -2    1    3    3    0  502 -0.42122482614E+03  0.91620363055E+03  0.55867911369E+03  0.11528147288E+04  0.25500000920E-02 0. -1.
</event>
<event>
 5   0  0.8872777E-05  0.2135262E+04  0.7818609E-02  0.8545867E-01
       -2   -1    0    0    0  501  0.00000000000E+00  0.00000000000E+00  0.97613280713E+03  0.97613280713E+03  0.25500000920E-02 0. -1.
        2   -1    0    0  501    0  0.00000000000E+00  0.00000000000E+00 -0.11677057911E+04  0.11677057911E+04  0.25500000920E-02 0.  1.
    10030    2    1    2    0    0  0.00000000000E+00  0.00000000000E+00 -0.19157298401E+03  0.21438385983E+04  0.21352619809E+04 0.  0.
        3    1    3    3  502    0 -0.67762304989E+03 -0.29137574342E+03  0.67917071014E+03  0.10026692801E+04  0.10100000352E+00 0. -1.
       -3    1    3    3    0  502  0.67762304989E+03  0.29137574342E+03 -0.87074369414E+03  0.11411693182E+04  0.10100000352E+00 0.  1.
</event>
<event>
 5   0  0.9086985E-05  0.1950743E+04  0.7818609E-02  0.8630003E-01
       -2   -1    0    0    0  501  0.00000000000E+00  0.00000000000E+00  0.98844871005E+03  0.98844871006E+03  0.25500000920E-02 0. -1.
        2   -1    0    0  501    0  0.00000000000E+00  0.00000000000E+00 -0.96246726098E+03  0.96246726098E+03  0.25500000920E-02 0.  1.
    10030    2    1    2    0    0  0.00000000000E+00  0.00000000000E+00  0.25981449078E+02  0.19509159710E+04  0.19507429586E+04 0.  0.
        5    1    3    3  502    0  0.78554122268E+03 -0.57774933203E+03  0.34396580366E+02  0.97574305938E+03  0.46999998093E+01 0. -1.
       -5    1    3    3    0  502 -0.78554122268E+03  0.57774933203E+03 -0.84151312879E+01  0.97517291165E+03  0.46999998093E+01 0.  1.
</event>
<event>
 5   0  0.4050368E-05  0.2171050E+04  0.7818609E-02  0.8530575E-01
       -1   -1    0    0    0  501  0.00000000000E+00  0.00000000000E+00  0.70943338124E+03  0.70943338126E+03  0.50400001928E-02 0.  1.
        1   -1    0    0  501    0  0.00000000000E+00  0.00000000000E+00 -0.16609931728E+04  0.16609931728E+04  0.50400001928E-02 0. -1.
    10030    2    1    2    0    0  0.00000000000E+00  0.00000000000E+00 -0.95155979159E+03  0.23704265541E+04  0.21710495184E+04 0.  0.
        2    1    3    3  502    0  0.16825393360E+03 -0.47103599103E+03  0.57611611980E+03  0.76295089915E+03  0.25500000920E-02 0.  1.
       -2    1    3    3    0  502 -0.16825393360E+03  0.47103599103E+03 -0.15276759114E+04  0.16074756550E+04  0.25500000920E-02 0. -1.
</event>
<event>
 5   0  0.4200061E-05  0.2048883E+04  0.7818609E-02  0.8584101E-01
        1   -1    0    0  501    0  0.00000000000E+00  0.00000000000E+00  0.10329462303E+04  0.10329462303E+04  0.50400001928E-02 0. -1.
       -1   -1    0    0    0  501  0.00000000000E+00  0.00000000000E+00 -0.10160065347E+04  0.10160065347E+04  0.50400001928E-02 0.  1.
    10030    2    1    2    0    0  0.00000000000E+00  0.00000000000E+00  0.16939695675E+02  0.20489527650E+04  0.20488827394E+04 0.  0.
        4    1    3    3  502    0  0.95325795475E+03  0.18876961666E+03 -0.31580009812E+03  0.10217954841E+04  0.12699999809E+01 0.  1.
       -4    1    3    3    0  502 -0.95325795475E+03 -0.18876961666E+03  0.33273979380E+03  0.10271572809E+04  0.12699999809E+01 0. -1.
</event>
<event>
 5   0  0.9012466E-05  0.2088708E+04  0.7818609E-02  0.8566234E-01
       -2   -1    0    0    0  501  0.00000000000E+00  0.00000000000E+00  0.67739389876E+03  0.67739389877E+03  0.25500000920E-02 0. -1.
        2   -1    0    0  501    0  0.00000000000E+00  0.00000000000E+00 -0.16101042251E+04  0.16101042251E+04  0.25500000920E-02 0.  1.
    10030    2    1    2    0    0  0.00000000000E+00  0.00000000000E+00 -0.93271032632E+03  0.22874981239E+04  0.20887075223E+04 0.  0.
        2    1    3    3  502    0 -0.16186827754E+02  0.20033635474E+03  0.65601282844E+03  0.68611187098E+03  0.25500000920E-02 0. -1.
       -2    1    3    3    0  502  0.16186827754E+02 -0.20033635474E+03 -0.15887231548E+04  0.16013862529E+04  0.25500000920E-02 0.  1.
</event>
<event>
 5   0  0.8872777E-05  0.2153212E+04  0.7818609E-02  0.8538159E-01
        2   -1    0    0  501    0  0.00000000000E+00  0.00000000000E+00  0.24320763749E+04  0.24320763749E+04  0.25500000920E-02 0.  1.
       -2   -1    0    0    0  501  0.00000000000E+00  0.00000000000E+00 -0.47658065431E+03  0.47658065432E+03  0.25500000920E-02 0. -1.
    10030    2    1    2    0    0  0.00000000000E+00  0.00000000000E+00  0.19554957206E+04  0.29086570293E+04  0.21532120658E+04 0.  0.
        3    1    3    3  502    0 -0.38151824263E+03  0.95999730742E+03  0.56817303549E+03  0.11789705714E+04  0.10100000352E+00 0. -1.
       -3    1    3    3    0  502  0.38151824263E+03 -0.95999730742E+03  0.13873226851E+04  0.17296864579E+04  0.10100000352E+00 0.  1.
</event>
<event>
 5   0  0.4182977E-05  0.2114459E+04  0.7818609E-02  0.8554901E-01
        1   -1    0    0  501    0  0.00000000000E+00  0.00000000000E+00  0.17946532229E+04  0.17946532229E+04  0.50400001928E-02 0. -1.
       -1   -1    0    0    0  501  0.00000000000E+00  0.00000000000E+00 -0.62281369380E+03  0.62281369382E+03  0.50400001928E-02 0.  1.
    10030    2    1    2    0    0  0.00000000000E+00  0.00000000000E+00  0.11718395291E+04  0.24174669167E+04  0.21144593663E+04 0.  0.
        1    1    3    3  502    0 -0.20032988172E+03 -0.70081563711E+03  0.14614686265E+04  0.16331457881E+04  0.50400001928E-02 0. -1.
       -1    1    3    3    0  502  0.20032988172E+03  0.70081563711E+03 -0.28962909745E+03  0.78432112865E+03  0.50400001928E-02 0.  1.
</event>
<event>
 5   0  0.9086985E-05  0.2098211E+04  0.7818609E-02  0.8562032E-01
        2   -1    0    0  501    0  0.00000000000E+00  0.00000000000E+00  0.16025552056E+04  0.16025552056E+04  0.25500000920E-02 0. -1.
       -2   -1    0    0    0  501  0.00000000000E+00  0.00000000000E+00 -0.68679217987E+03  0.68679217987E+03  0.25500000920E-02 0.  1.
    10030    2    1    2    0    0  0.00000000000E+00  0.00000000000E+00  0.91576302569E+03  0.22893473854E+04  0.20982110313E+04 0.  0.
        5    1    3    3  502    0  0.69662827133E+03  0.78143643703E+03  0.53241567085E+03  0.11744881396E+04  0.46999998093E+01 0.  1.
       -5    1    3    3    0  502 -0.69662827133E+03 -0.78143643703E+03  0.38334735484E+03  0.11148592458E+04  0.46999998093E+01 0. -1.
</event>
<event>
 5   0  0.4200061E-05  0.2059636E+04  0.7818609E-02  0.8579235E-01
       -1   -1    0    0    0  501  0.00000000000E+00  0.00000000000E+00  0.11268608732E+04  0.11268608732E+04  0.50400001928E-02 0. -1.
        1   -1    0    0  501    0  0.00000000000E+00  0.00000000000E+00 -0.94113260027E+03  0.94113260028E+03  0.50400001928E-02 0.  1.
    10030    2    1    2    0    0  0.00000000000E+00  0.00000000000E+00  0.18572827292E+03  0.20679934735E+04  0.20596363793E+04 0.  0.
        4    1    3    3  502    0  0.11382075462E+03 -0.65029620022E+03  0.88644037291E+03  0.11052685012E+04  0.12699999809E+01 0. -1.
       -4    1    3    3    0  502 -0.11382075462E+03  0.65029620022E+03 -0.70071209999E+03  0.96272497224E+03  0.12699999809E+01 0.  1.
</event>
<event>
 5   0  0.4128678E-05  0.2094396E+04  0.7818609E-02  0.8563716E-01
       -1   -1    0    0    0  501  0.00000000000E+00  0.00000000000E+00  0.11377822571E+04  0.11377822571E+04  0.50400001928E-02 0.  1.
        1   -1    0    0  501    0  0.00000000000E+00  0.00000000000E+00 -0.96382558325E+03  0.96382558326E+03  0.50400001928E-02 0. -1.
    10030    2    1    2    0    0  0.00000000000E+00  0.00000000000E+00  0.17395667383E+03  0.21016078404E+04  0.20943959965E+04 0.  0.
        5    1    3    3  502    0  0.72512535620E+03  0.46234922026E+03 -0.51259733608E+03  0.10011751608E+04  0.46999998093E+01 0. -1.
       -5    1    3    3    0  502 -0.72512535620E+03 -0.46234922026E+03  0.68655400991E+03  0.11004326795E+04  0.46999998093E+01 0.  1.
</event>
<event>
 5   0  0.9012466E-05  0.2107850E+04  0.7818609E-02  0.8557793E-01
       -2   -1    0    0    0  501  0.00000000000E+00  0.00000000000E+00  0.20986566814E+04  0.20986566814E+04  0.25500000920E-02 0. -1.
        2   -1    0    0  501    0  0.00000000000E+00  0.00000000000E+00 -0.52927102252E+03  0.52927102253E+03  0.25500000920E-02 0.  1.
    10030    2    1    2    0    0  0.00000000000E+00  0.00000000000E+00  0.15693856588E+04  0.26279277039E+04  0.21078502486E+04 0.  0.
        2    1    3    3  502    0 -0.37157929105E+03 -0.71636091960E+03  0.16298219149E+04  0.18186708363E+04  0.25500000920E-02 0. -1.
       -2    1    3    3    0  502  0.37157929105E+03  0.71636091960E+03 -0.60436256031E+02  0.80925686757E+03  0.25500000920E-02 0.  1.
</event>
<event>
 5   0  0.4182977E-05  0.2099780E+04  0.7818609E-02  0.8561340E-01
       -1   -1    0    0    0  501  0.00000000000E+00  0.00000000000E+00  0.77035235457E+03  0.77035235459E+03  0.50400001928E-02 0.  1.
        1   -1    0    0  501    0  0.00000000000E+00  0.00000000000E+00 -0.14308639125E+04  0.14308639125E+04  0.50400001928E-02 0. -1.
    10030    2    1    2    0    0  0.00000000000E+00  0.00000000000E+00 -0.66051155790E+03  0.22012162671E+04  0.20997803543E+04 0.  0.
        1    1    3    3  502    0  0.73894865515E+03  0.73950248759E+03 -0.22883319836E+03  0.10701746011E+04  0.50400001928E-02 0.  1.
       -1    1    3    3    0  502 -0.73894865515E+03 -0.73950248759E+03 -0.43167835954E+03  0.11310416660E+04  0.50400001928E-02 0. -1.
</event>
<event>
 5   0  0.4050368E-05  0.2098096E+04  0.7818609E-02  0.8562082E-01
        1   -1    0    0  501    0  0.00000000000E+00  0.00000000000E+00  0.12628607563E+04  0.12628607563E+04  0.50400001928E-02 0. -1.
       -1   -1    0    0    0  501  0.00000000000E+00  0.00000000000E+00 -0.87143573851E+03  0.87143573852E+03  0.50400001928E-02 0.  1.
    10030    2    1    2    0    0  0.00000000000E+00  0.00000000000E+00  0.39142501779E+03  0.21342964948E+04  0.20980962760E+04 0.  0.
        2    1    3    3  502    0 -0.34441076951E+03 -0.94900083605E+03  0.48572911838E+03  0.11203366197E+04  0.25500000920E-02 0.  1.
       -2    1    3    3    0  502  0.34441076951E+03  0.94900083605E+03 -0.94304100588E+02  0.10139598751E+04  0.25500000920E-02 0. -1.
</event>
<event>
 5   0  0.9086985E-05  0.2103153E+04  0.7818609E-02  0.8559856E-01
       -2   -1    0    0    0  501  0.00000000000E+00  0.00000000000E+00  0.12625266164E+04  0.12625266164E+04  0.25500000920E-02 0.  1.
        2   -1    0    0  501    0  0.00000000000E+00  0.00000000000E+00 -0.87587322820E+03  0.87587322821E+03  0.25500000920E-02 0. -1.
    10030    2    1    2    0    0  0.00000000000E+00  0.00000000000E+00  0.38665338823E+03  0.21383998446E+04  0.21031531216E+04 0.  0.
        5    1    3    3  502    0  0.31831394527E+02 -0.98251992959E+03 -0.18633787063E+03  0.10005511190E+04  0.46999998093E+01 0. -1.
       -5    1    3    3    0  502 -0.31831394527E+02  0.98251992959E+03  0.57299125886E+03  0.11378487256E+04  0.46999998093E+01 0.  1.
</event>
<event>
 5   0  0.8547605E-05  0.2075641E+04  0.7818609E-02  0.8572050E-01
       -2   -1    0    0    0  501  0.00000000000E+00  0.00000000000E+00  0.14471342686E+04  0.14471342686E+04  0.25500000920E-02 0. -1.
        2   -1    0    0  501    0  0.00000000000E+00  0.00000000000E+00 -0.74427857560E+03  0.74427857561E+03  0.25500000920E-02 0.  1.
    10030    2    1    2    0    0  0.00000000000E+00  0.00000000000E+00  0.70285569300E+03  0.21914128442E+04  0.20756406550E+04 0.  0.
        4    1    3    3  502    0 -0.60965579813E+03  0.31391123656E+03 -0.47102752474E+03  0.83191886540E+03  0.12699999809E+01 0.  1.
       -4    1    3    3    0  502  0.60965579813E+03 -0.31391123656E+03  0.11738832177E+04  0.13594939788E+04  0.12699999809E+01 0. -1.
</event>
<event>
 5   0  0.4050368E-05  0.2102627E+04  0.7818609E-02  0.8560087E-01
        1   -1    0    0  501    0  0.00000000000E+00  0.00000000000E+00  0.84069295814E+03  0.84069295815E+03  0.50400001928E-02 0. -1.
       -1   -1    0    0    0  501  0.00000000000E+00  0.00000000000E+00 -0.13147013055E+04  0.13147013055E+04  0.50400001928E-02 0.  1.
    10030    2    1    2    0    0  0.00000000000E+00  0.00000000000E+00 -0.47400834740E+03  0.21553942637E+04  0.21026270517E+04 0.  0.
        2    1    3    3  502    0 -0.85560543772E+03 -0.59706924227E+03 -0.10450172395E+03  0.10485575594E+04  0.25500000920E-02 0. -1.
       -2    1    3    3    0  502  0.85560543772E+03  0.59706924227E+03 -0.36950662344E+03  0.11068367043E+04  0.25500000920E-02 0.  1.
</event>
<event>
 5   0  0.4174093E-05  0.2102886E+04  0.7818609E-02  0.8559973E-01
       -1   -1    0    0    0  501  0.00000000000E+00  0.00000000000E+00  0.71905793706E+03  0.71905793707E+03  0.50400001928E-02 0. -1.
        1   -1    0    0  501    0  0.00000000000E+00  0.00000000000E+00 -0.15374739415E+04  0.15374739416E+04  0.50400001928E-02 0.  1.
    10030    2    1    2    0    0  0.00000000000E+00  0.00000000000E+00 -0.81841600449E+03  0.22565318786E+04  0.21028864360E+04 0.  0.
        3    1    3    3  502    0 -0.84504872559E+03 -0.20692301537E+03  0.22436190992E+03  0.89847802407E+03  0.10100000352E+00 0. -1.
       -3    1    3    3    0  502  0.84504872559E+03  0.20692301537E+03 -0.10427779144E+04  0.13580538546E+04  0.10100000352E+00 0.  1.
</event>
<event>
 5   0  0.4050368E-05  0.2111641E+04  0.7818609E-02  0.8556133E-01
        1   -1    0    0  501    0  0.00000000000E+00  0.00000000000E+00  0.11775214846E+04  0.11775214846E+04  0.50400001928E-02 0. -1.
       -1   -1    0    0    0  501  0.00000000000E+00  0.00000000000E+00 -0.94669740789E+03  0.94669740790E+03  0.50400001928E-02 0.  1.
    10030    2    1    2    0    0  0.00000000000E+00  0.00000000000E+00  0.23082407671E+03  0.21242188925E+04  0.21116406297E+04 0.  0.
        2    1    3    3  502    0 -0.82835717432E+03 -0.11939925239E+03  0.76292683135E+03  0.11324703703E+04  0.25500000920E-02 0. -1.
       -2    1    3    3    0  502  0.82835717432E+03  0.11939925239E+03 -0.53210275464E+03  0.99174852216E+03  0.25500000920E-02 0.  1.
</event>
<event>
 5   0  0.8872777E-05  0.2076209E+04  0.7818609E-02  0.8571796E-01
       -2   -1    0    0    0  501  0.00000000000E+00  0.00000000000E+00  0.72315609205E+03  0.72315609205E+03  0.25500000920E-02 0. -1.
        2   -1    0    0  501    0  0.00000000000E+00  0.00000000000E+00 -0.14902191352E+04  0.14902191352E+04  0.25500000920E-02 0.  1.
    10030    2    1    2    0    0  0.00000000000E+00  0.00000000000E+00 -0.76706304315E+03  0.22133752272E+04  0.20762090898E+04 0.  0.
        3    1    3    3  502    0  0.33667216154E+03 -0.12004756902E+03  0.65548687544E+03  0.74660740504E+03  0.10100000352E+00 0. -1.
       -3    1    3    3    0  502 -0.33667216154E+03  0.12004756902E+03 -0.14225499186E+04  0.14667678222E+04  0.10100000352E+00 0.  1.
</event>
<event>
 5   0  0.4128678E-05  0.2117649E+04  0.7818609E-02  0.8553508E-01
        1   -1    0    0  501    0  0.00000000000E+00  0.00000000000E+00  0.13206164987E+04  0.13206164987E+04  0.50400001928E-02 0.  1.
       -1   -1    0    0    0  501  0.00000000000E+00  0.00000000000E+00 -0.84892912401E+03  0.84892912402E+03  0.50400001928E-02 0. -1.
    10030    2    1    2    0    0  0.00000000000E+00  0.00000000000E+00  0.47168737471E+03  0.21695456227E+04  0.21176494586E+04 0.  0.
        5    1    3    3  502    0 -0.10495413285E+04 -0.31143603754E+01  0.92628753083E+02  0.10536360260E+04  0.46999998093E+01 0.  1.
       -5    1    3    3    0  502  0.10495413285E+04  0.31143603754E+01  0.37905862162E+03  0.11159095967E+04  0.46999998093E+01 0. -1.
</event>
<event>
 5   0  0.4200061E-05  0.2099901E+04  0.7818609E-02  0.8561287E-01
        1   -1    0    0  501    0  0.00000000000E+00  0.00000000000E+00  0.12379167244E+04  0.12379167244E+04  0.50400001928E-02 0.  1.
       -1   -1    0    0    0  501  0.00000000000E+00  0.00000000000E+00 -0.89052561278E+03  0.89052561280E+03  0.50400001928E-02 0. -1.
    10030    2    1    2    0    0  0.00000000000E+00  0.00000000000E+00  0.34739111162E+03  0.21284423372E+04  0.20999014735E+04 0.  0.
        4    1    3    3  502    0  0.10282167350E+04  0.18798328428E+03  0.73214084798E+02  0.10478212083E+04  0.12699999809E+01 0. -1.
       -4    1    3    3    0  502 -0.10282167350E+04 -0.18798328428E+03  0.27417702682E+03  0.10806211289E+04  0.12699999809E+01 0.  1.
</event>
<event>
 5   0  0.4174093E-05  0.2093972E+04  0.7818609E-02  0.8563904E-01
       -1   -1    0    0    0  501  0.00000000000E+00  0.00000000000E+00  0.86810329871E+03  0.86810329873E+03  0.50400001928E-02 0.  1.
        1   -1    0    0  501    0  0.00000000000E+00  0.00000000000E+00 -0.12627291388E+04  0.12627291388E+04  0.50400001928E-02 0. -1.
    10030    2    1    2    0    0  0.00000000000E+00  0.00000000000E+00 -0.39462584009E+03  0.21308324375E+04  0.20939716625E+04 0.  0.
        3    1    3    3  502    0  0.10304898172E+04  0.32092430090E+02 -0.11784743380E+02  0.10310567772E+04  0.10100000352E+00 0.  1.
       -3    1    3    3    0  502 -0.10304898172E+04 -0.32092430090E+02 -0.38284109671E+03  0.10997756603E+04  0.10100000352E+00 0. -1.
</event>
<event>
 5   0  0.8858590E-05  0.2091757E+04  0.7818609E-02  0.8564883E-01
       -2   -1    0    0    0  501  0.00000000000E+00  0.00000000000E+00  0.63395407685E+03  0.63395407685E+03  0.25500000920E-02 0. -1.
        2   -1    0    0  501    0  0.00000000000E+00  0.00000000000E+00 -0.17254583890E+04  0.17254583890E+04  0.25500000920E-02 0.  1.
    10030    2    1    2    0    0  0.00000000000E+00  0.00000000000E+00 -0.10915043122E+04  0.23594124659E+04  0.20917565634E+04 0.  0.
        1    1    3    3  502    0 -0.61624766042E+02 -0.55247032090E+03 -0.15450233782E+04  0.16419860860E+04  0.50400001928E-02 0.  1.
       -1    1    3    3    0  502  0.61624766042E+02  0.55247032090E+03  0.45351906605E+03  0.71742637989E+03  0.50400001928E-02 0. -1.
</event>
<event>
 5   0  0.4182977E-05  0.2108142E+04  0.7818609E-02  0.8557665E-01
        1   -1    0    0  501    0  0.00000000000E+00  0.00000000000E+00  0.61669525592E+03  0.61669525594E+03  0.50400001928E-02 0.  1.
       -1   -1    0    0    0  501  0.00000000000E+00  0.00000000000E+00 -0.18016446239E+04  0.18016446239E+04  0.50400001928E-02 0. -1.
    10030    2    1    2    0    0  0.00000000000E+00  0.00000000000E+00 -0.11849493680E+04  0.24183398799E+04  0.21081420184E+04 0.  0.
        1    1    3    3  502    0  0.10218024509E+04  0.11906046557E+02 -0.29589070956E+03  0.10638483514E+04  0.50400001928E-02 0.  1.
       -1    1    3    3    0  502 -0.10218024509E+04 -0.11906046557E+02 -0.88905865843E+03  0.13544915285E+04  0.50400001928E-02 0. -1.
</event>
<event>
 5   0  0.8872777E-05  0.2094457E+04  0.7818609E-02  0.8563689E-01
        2   -1    0    0  501    0  0.00000000000E+00  0.00000000000E+00  0.57910083200E+03  0.57910083201E+03  0.25500000920E-02 0.  1.
       -2   -1    0    0    0  501  0.00000000000E+00  0.00000000000E+00 -0.18937762595E+04  0.18937762595E+04  0.25500000920E-02 0. -1.
    10030    2    1    2    0    0  0.00000000000E+00  0.00000000000E+00 -0.13146754275E+04  0.24728770915E+04  0.20944568819E+04 0.  0.
        3    1    3    3  502    0 -0.16891569069E+03 -0.10301989243E+04 -0.75502090455E+03  0.12883706418E+04  0.10100000352E+00 0.  1.
       -3    1    3    3    0  502  0.16891569069E+03  0.10301989243E+04 -0.55965452292E+03  0.11845064497E+04  0.10100000352E+00 0. -1.
</event>
<event>
 5   0  0.8872777E-05  0.2094235E+04  0.7818609E-02  0.8563787E-01
       -2   -1    0    0    0  501  0.00000000000E+00  0.00000000000E+00  0.53253649054E+03  0.53253649055E+03  0.25500000920E-02 0.  1.
        2   -1    0    0  501    0  0.00000000000E+00  0.00000000000E+00 -0.20589290768E+04  0.20589290768E+04  0.25500000920E-02 0. -1.
    10030    2    1    2    0    0  0.00000000000E+00  0.00000000000E+00 -0.15263925863E+04  0.25914655674E+04  0.20942348148E+04 0.  0.
        3    1    3    3  502    0  0.35038068071E+03  0.77428980144E+03 -0.62748675546E+01  0.84990040722E+03  0.10100000352E+00 0.  1.
       -3    1    3    3    0  502 -0.35038068071E+03 -0.77428980144E+03 -0.15201177187E+04  0.17415651601E+04  0.10100000352E+00 0. -1.
</event>
<event>
 5   0  0.8547605E-05  0.2111119E+04  0.7818609E-02  0.8556361E-01
        2   -1    0    0  501    0  0.00000000000E+00  0.00000000000E+00  0.13618006733E+04  0.13618006733E+04  0.25500000920E-02 0.  1.
       -2   -1    0    0    0  501  0.00000000000E+00  0.00000000000E+00 -0.81818596799E+03  0.81818596799E+03  0.25500000920E-02 0. -1.
    10030    2    1    2    0    0  0.00000000000E+00  0.00000000000E+00  0.54361470531E+03  0.21799866413E+04  0.21111193259E+04 0.  0.
        4    1    3    3  502    0 -0.78827949472E+03 -0.68373865385E+03  0.10748917898E+03  0.10490179432E+04  0.12699999809E+01 0. -1.
       -4    1    3    3    0  502  0.78827949472E+03  0.68373865385E+03  0.43612552633E+03  0.11309686981E+04  0.12699999809E+01 0.  1.
</event>
<event>
 5   0  0.4174093E-05  0.2100627E+04  0.7818609E-02  0.8560967E-01
       -1   -1    0    0    0  501  0.00000000000E+00  0.00000000000E+00  0.98840532931E+03  0.98840532932E+03  0.50400001928E-02 0. -1.
        1   -1    0    0  501    0  0.00000000000E+00  0.00000000000E+00 -0.11160990540E+04  0.11160990540E+04  0.50400001928E-02 0.  1.
    10030    2    1    2    0    0  0.00000000000E+00  0.00000000000E+00 -0.12769372470E+03  0.21045043833E+04  0.21006268141E+04 0.  0.
        3    1    3    3  502    0  0.63498957952E+03 -0.11328035544E+03 -0.89430040181E+03  0.11026411129E+04  0.10100000352E+00 0.  1.
       -3    1    3    3    0  502 -0.63498957952E+03  0.11328035544E+03  0.76660667711E+03  0.10018632704E+04  0.10100000352E+00 0. -1.
</event>
<event>
 5   0  0.8547605E-05  0.2092326E+04  0.7818609E-02  0.8564632E-01
       -2   -1    0    0    0  501  0.00000000000E+00  0.00000000000E+00  0.61249986213E+03  0.61249986213E+03  0.25500000920E-02 0.  1.
        2   -1    0    0  501    0  0.00000000000E+00  0.00000000000E+00 -0.17868684285E+04  0.17868684285E+04  0.25500000920E-02 0. -1.
    10030    2    1    2    0    0  0.00000000000E+00  0.00000000000E+00 -0.11743685664E+04  0.23993682906E+04  0.20923256593E+04 0.  0.
        4    1    3    3  502    0 -0.36771309619E+03  0.18726563376E+03  0.51522900643E+03  0.66010899150E+03  0.12699999809E+01 0.  1.
       -4    1    3    3    0  502  0.36771309619E+03 -0.18726563376E+03 -0.16895975728E+04  0.17392592991E+04  0.12699999809E+01 0. -1.
</event>
<event>
 5   0  0.4128678E-05  0.2110075E+04  0.7818609E-02  0.8556818E-01
        1   -1    0    0  501    0  0.00000000000E+00  0.00000000000E+00  0.70939044660E+03  0.70939044662E+03  0.50400001928E-02 0.  1.
       -1   -1    0    0    0  501  0.00000000000E+00  0.00000000000E+00 -0.15690999057E+04  0.15690999057E+04  0.50400001928E-02 0. -1.
    10030    2    1    2    0    0  0.00000000000E+00  0.00000000000E+00 -0.85970945910E+03  0.22784903523E+04  0.21100753379E+04 0.  0.
        5    1    3    3  502    0 -0.29563053537E+02  0.41988087023E+03 -0.14744929757E+04  0.15334032557E+04  0.46999998093E+01 0. -1.
       -5    1    3    3    0  502  0.29563053537E+02 -0.41988087023E+03  0.61478351656E+03  0.74508709662E+03  0.46999998093E+01 0.  1.
</event>
<event>
 5   0  0.8858590E-05  0.1927906E+04  0.7818609E-02  0.8641089E-01
       -2   -1    0    0    0  501  0.00000000000E+00  0.00000000000E+00  0.54501255397E+03  0.54501255398E+03  0.25500000920E-02 0.  1.
        2   -1    0    0  501    0  0.00000000000E+00  0.00000000000E+00 -0.17049255990E+04  0.17049255990E+04  0.25500000920E-02 0. -1.
    10030    2    1    2    0    0  0.00000000000E+00  0.00000000000E+00 -0.11599130450E+04  0.22499381529E+04  0.19279064864E+04 0.  0.
        1    1    3    3  502    0  0.88727006651E+03 -0.26170708560E+03 -0.26363334013E+03  0.96189464477E+03  0.50400001928E-02 0. -1.
       -1    1    3    3    0  502 -0.88727006651E+03  0.26170708560E+03 -0.89627970485E+03  0.12880435082E+04  0.50400001928E-02 0.  1.
</event>
<event>
 5   0  0.4050368E-05  0.2215431E+04  0.7818609E-02  0.8512033E-01
        1   -1    0    0  501    0  0.00000000000E+00  0.00000000000E+00  0.18972842814E+04  0.18972842814E+04  0.50400001928E-02 0.  1.
       -1   -1    0    0    0  501  0.00000000000E+00  0.00000000000E+00 -0.64673176009E+03  0.64673176011E+03  0.50400001928E-02 0. -1.
    10030    2    1    2    0    0  0.00000000000E+00  0.00000000000E+00  0.12505525213E+04  0.25440160415E+04  0.22154313374E+04 0.  0.
        2    1    3    3  502    0  0.10651831544E+03  0.89137752804E+03 -0.11992173776E+03  0.90569380710E+03  0.25500000920E-02 0. -1.
       -2    1    3    3    0  502 -0.10651831544E+03 -0.89137752804E+03  0.13704742590E+04  0.16383222344E+04  0.25500000920E-02 0.  1.
</event>
<event>
 5   0  0.9086985E-05  0.2100307E+04  0.7818609E-02  0.8561108E-01
       -2   -1    0    0    0  501  0.00000000000E+00  0.00000000000E+00  0.66289124346E+03  0.66289124346E+03  0.25500000920E-02 0. -1.
        2   -1    0    0  501    0  0.00000000000E+00  0.00000000000E+00 -0.16636543131E+04  0.16636543131E+04  0.25500000920E-02 0.  1.
    10030    2    1    2    0    0  0.00000000000E+00  0.00000000000E+00 -0.10007630696E+04  0.23265455566E+04  0.21003065265E+04 0.  0.
        5    1    3    3  502    0  0.85444306845E+03  0.95217826208E+02 -0.11683821800E+04  0.14506131118E+04  0.46999998093E+01 0.  1.
       -5    1    3    3    0  502 -0.85444306845E+03 -0.95217826208E+02  0.16761911033E+03  0.87593244477E+03  0.46999998093E+01 0. -1.
</event>
<event>
 5   0  0.4174093E-05  0.2127804E+04  0.7818609E-02  0.8549093E-01
       -1   -1    0    0    0  501  0.00000000000E+00  0.00000000000E+00  0.88298416612E+03  0.88298416613E+03  0.50400001928E-02 0. -1.
        1   -1    0    0  501    0  0.00000000000E+00  0.00000000000E+00 -0.12818892239E+04  0.12818892239E+04  0.50400001928E-02 0.  1.
    10030    2    1    2    0    0  0.00000000000E+00  0.00000000000E+00 -0.39890505782E+03  0.21648733901E+04  0.21278043965E+04 0.  0.
        3    1    3    3  502    0 -0.32091875053E+03 -0.93347778530E+03 -0.60325246824E+03  0.11568418953E+04  0.10100000352E+00 0.  1.
       -3    1    3    3    0  502  0.32091875053E+03  0.93347778530E+03  0.20434741043E+03  0.10080314948E+04  0.10100000352E+00 0. -1.
</event>
<event>
 5   0  0.4174093E-05  0.2118853E+04  0.7818609E-02  0.8552984E-01
       -1   -1    0    0    0  501  0.00000000000E+00  0.00000000000E+00  0.69251929349E+03  0.69251929351E+03  0.50400001928E-02 0.  1.
        1   -1    0    0  501    0  0.00000000000E+00  0.00000000000E+00 -0.16207259981E+04  0.16207259981E+04  0.50400001928E-02 0. -1.
    10030    2    1    2    0    0  0.00000000000E+00  0.00000000000E+00 -0.92820670459E+03  0.23132452916E+04  0.21188525415E+04 0.  0.
        3    1    3    3  502    0 -0.98665646516E+03 -0.36656624847E+03 -0.59566746236E+03  0.12094137136E+04  0.10100000352E+00 0. -1.
       -3    1    3    3    0  502  0.98665646516E+03  0.36656624847E+03 -0.33253924223E+03  0.11038315780E+04  0.10100000352E+00 0.  1.
</event>
<event>
 5   0  0.3176125E-05  0.1984650E+04  0.7818609E-02  0.8613831E-01
       -3   -1    0    0    0  501  0.00000000000E+00  0.00000000000E+00  0.32907887932E+03  0.32907889482E+03  0.10100000352E+00 0. -1.
        3   -1    0    0  501    0  0.00000000000E+00  0.00000000000E+00 -0.29923197908E+04  0.29923197925E+04  0.10100000352E+00 0.  1.
    10030    2    1    2    0    0  0.00000000000E+00  0.00000000000E+00 -0.26632409115E+04  0.33213986874E+04  0.19846503691E+04 0.  0.
        4    1    3    3  502    0 -0.60950674900E+03  0.74062163372E+03 -0.90597159763E+03  0.13193957064E+04  0.12699999809E+01 0. -1.
       -4    1    3    3    0  502  0.60950674900E+03 -0.74062163372E+03 -0.17572693139E+04  0.20020029810E+04  0.12699999809E+01 0.  1.
</event>
<event>
 5   0  0.4182977E-05  0.2075062E+04  0.7818609E-02  0.8572309E-01
        1   -1    0    0  501    0  0.00000000000E+00  0.00000000000E+00  0.96803411461E+03  0.96803411462E+03  0.50400001928E-02 0.  1.
       -1   -1    0    0    0  501  0.00000000000E+00  0.00000000000E+00 -0.11120173755E+04  0.11120173755E+04  0.50400001928E-02 0. -1.
    10030    2    1    2    0    0  0.00000000000E+00  0.00000000000E+00 -0.14398326091E+03  0.20800514901E+04  0.20750621731E+04 0.  0.
        1    1    3    3  502    0  0.48378224226E+03 -0.29676486287E+02 -0.99155485288E+03  0.11036788383E+04  0.50400001928E-02 0. -1.
       -1    1    3    3    0  502 -0.48378224226E+03  0.29676486287E+02  0.84757159197E+03  0.97637265187E+03  0.50400001928E-02 0.  1.
</event>
<event>
 5   0  0.4050368E-05  0.2082380E+04  0.7818609E-02  0.8569045E-01
       -1   -1    0    0    0  501  0.00000000000E+00  0.00000000000E+00  0.11199225889E+04  0.11199225889E+04  0.50400001928E-02 0. -1.
        1   -1    0    0  501    0  0.00000000000E+00  0.00000000000E+00 -0.96799217723E+03  0.96799217724E+03  0.50400001928E-02 0.  1.
    10030    2    1    2    0    0  0.00000000000E+00  0.00000000000E+00  0.15193041164E+03  0.20879147661E+04  0.20823797014E+04 0.  0.
        2    1    3    3  502    0  0.10084272069E+04 -0.15933613796E+03 -0.12893764728E+03  0.10290473037E+04  0.25500000920E-02 0.  1.
       -2    1    3    3    0  502 -0.10084272069E+04  0.15933613796E+03  0.28086805892E+03  0.10588674624E+04  0.25500000920E-02 0. -1.
</event>
<event>
 5   0  0.4128678E-05  0.2115906E+04  0.7818609E-02  0.8554269E-01
       -1   -1    0    0    0  501  0.00000000000E+00  0.00000000000E+00  0.14750321499E+04  0.14750321499E+04  0.50400001928E-02 0. -1.
        1   -1    0    0  501    0  0.00000000000E+00  0.00000000000E+00 -0.75880661350E+03  0.75880661351E+03  0.50400001928E-02 0.  1.
    10030    2    1    2    0    0  0.00000000000E+00  0.00000000000E+00  0.71622553642E+03  0.22338387634E+04  0.21159056222E+04 0.  0.
        5    1    3    3  502    0 -0.51932899165E+03 -0.31836250642E+03  0.12713002788E+04  0.14097105291E+04  0.46999998093E+01 0. -1.
       -5    1    3    3    0  502  0.51932899165E+03  0.31836250642E+03 -0.55507474234E+03  0.82412823435E+03  0.46999998093E+01 0.  1.
</event>
<event>
 5   0  0.9086985E-05  0.2111909E+04  0.7818609E-02  0.8556016E-01
        2   -1    0    0  501    0  0.00000000000E+00  0.00000000000E+00  0.20600023799E+04  0.20600023799E+04  0.25500000920E-02 0. -1.
       -2   -1    0    0    0  501  0.00000000000E+00  0.00000000000E+00 -0.54128076949E+03  0.54128076950E+03  0.25500000920E-02 0.  1.
    10030    2    1    2    0    0  0.00000000000E+00  0.00000000000E+00  0.15187216104E+04  0.26012831494E+04  0.21119087796E+04 0.  0.
        5    1    3    3  502    0 -0.60106203627E+03 -0.55853067738E+03  0.15780483779E+04  0.17786204941E+04  0.46999998093E+01 0.  1.
       -5    1    3    3    0  502  0.60106203627E+03  0.55853067738E+03 -0.59326767541E+02  0.82266265526E+03  0.46999998093E+01 0. -1.
</event>
<event>
 5   0  0.4128678E-05  0.2040940E+04  0.7818609E-02  0.8587716E-01
        1   -1    0    0  501    0  0.00000000000E+00  0.00000000000E+00  0.16558128991E+04  0.16558128991E+04  0.50400001928E-02 0.  1.
       -1   -1    0    0    0  501  0.00000000000E+00  0.00000000000E+00 -0.62891103747E+03  0.62891103749E+03  0.50400001928E-02 0. -1.
    10030    2    1    2    0    0  0.00000000000E+00  0.00000000000E+00  0.10269018616E+04  0.22847239365E+04  0.20409399876E+04 0.  0.
        5    1    3    3  502    0 -0.19975039995E+03  0.93558438196E+03  0.11589979462E+03  0.96367692223E+03  0.46999998093E+01 0. -1.
       -5    1    3    3    0  502  0.19975039995E+03 -0.93558438196E+03  0.91100206696E+03  0.13210470143E+04  0.46999998093E+01 0.  1.
</event>
<event>
 5   0  0.8858590E-05  0.2098108E+04  0.7818609E-02  0.8562077E-01
       -2   -1    0    0    0  501  0.00000000000E+00  0.00000000000E+00  0.12142691512E+04  0.12142691512E+04  0.25500000920E-02 0. -1.
        2   -1    0    0  501    0  0.00000000000E+00  0.00000000000E+00 -0.90631842244E+03  0.90631842244E+03  0.25500000920E-02 0.  1.
    10030    2    1    2    0    0  0.00000000000E+00  0.00000000000E+00  0.30795072879E+03  0.21205875737E+04  0.20981081970E+04 0.  0.
        1    1    3    3  502    0 -0.42422636488E+03 -0.40223421875E+03 -0.72642226522E+03  0.93244285767E+03  0.50400001928E-02 0.  1.
       -1    1    3    3    0  502  0.42422636488E+03  0.40223421875E+03  0.10343729940E+04  0.11881447160E+04  0.50400001928E-02 0. -1.
</event>
<event>
 5   0  0.4182977E-05  0.2093952E+04  0.7818609E-02  0.8563912E-01
       -1   -1    0    0    0  501  0.00000000000E+00  0.00000000000E+00  0.53378573474E+03  0.53378573477E+03  0.50400001928E-02 0. -1.
        1   -1    0    0  501    0  0.00000000000E+00  0.00000000000E+00 -0.20535554098E+04  0.20535554098E+04  0.50400001928E-02 0.  1.
    10030    2    1    2    0    0  0.00000000000E+00  0.00000000000E+00 -0.15197696751E+04  0.25873411446E+04  0.20939518460E+04 0.  0.
        1    1    3    3  502    0  0.24937393516E+03  0.78895338430E+03 -0.15525403302E+04  0.17592658352E+04  0.50400001928E-02 0.  1.
       -1    1    3    3    0  502 -0.24937393516E+03 -0.78895338430E+03  0.32770655099E+02  0.82807530937E+03  0.50400001928E-02 0. -1.
</event>
<event>
 5   0  0.8547605E-05  0.2085259E+04  0.7818609E-02  0.8567765E-01
       -2   -1    0    0    0  501  0.00000000000E+00  0.00000000000E+00  0.12371632532E+04  0.12371632532E+04  0.25500000920E-02 0. -1.
        2   -1    0    0  501    0  0.00000000000E+00  0.00000000000E+00 -0.87868459683E+03  0.87868459683E+03  0.25500000920E-02 0.  1.
    10030    2    1    2    0    0  0.00000000000E+00  0.00000000000E+00  0.35847865635E+03  0.21158478500E+04  0.20852590192E+04 0.  0.
        4    1    3    3  502    0 -0.19665804160E+03 -0.10226733635E+04  0.12810677400E+03  0.10492607646E+04  0.12699999809E+01 0.  1.
       -4    1    3    3    0  502  0.19665804160E+03  0.10226733635E+04  0.23037188234E+03  0.10665870854E+04  0.12699999809E+01 0. -1.
</event>
<event>
 5   0  0.8872777E-05  0.2087005E+04  0.7818609E-02  0.8566989E-01
        2   -1    0    0  501    0  0.00000000000E+00  0.00000000000E+00  0.14838921595E+04  0.14838921595E+04  0.25500000920E-02 0. -1.
       -2   -1    0    0    0  501  0.00000000000E+00  0.00000000000E+00 -0.73381187062E+03  0.73381187063E+03  0.25500000920E-02 0.  1.
    10030    2    1    2    0    0  0.00000000000E+00  0.00000000000E+00  0.75008028887E+03  0.22177040301E+04  0.20870052049E+04 0.  0.
        3    1    3    3  502    0  0.49870567955E+03  0.90540422705E+03  0.52693793462E+03  0.11602274632E+04  0.10100000352E+00 0. -1.
       -3    1    3    3    0  502 -0.49870567955E+03 -0.90540422705E+03  0.22314235425E+03  0.10574765669E+04  0.10100000352E+00 0.  1.
</event>
<event>
 5   0  0.4174093E-05  0.2091842E+04  0.7818609E-02  0.8564845E-01
       -1   -1    0    0    0  501  0.00000000000E+00  0.00000000000E+00  0.10522895666E+04  0.10522895666E+04  0.50400001928E-02 0.  1.
        1   -1    0    0  501    0  0.00000000000E+00  0.00000000000E+00 -0.10395911600E+04  0.10395911600E+04  0.50400001928E-02 0. -1.
    10030    2    1    2    0    0  0.00000000000E+00  0.00000000000E+00  0.12698406593E+02  0.20918807266E+04  0.20918421844E+04 0.  0.
        3    1    3    3  502    0 -0.16292650514E+03 -0.95225172455E+03  0.40713399213E+03  0.10483732593E+04  0.10100000352E+00 0.  1.
       -3    1    3    3    0  502  0.16292650514E+03  0.95225172455E+03 -0.39443558554E+03  0.10435074673E+04  0.10100000352E+00 0. -1.
</event>
<event>
 5   0  0.4128678E-05  0.2097491E+04  0.7818609E-02  0.8562350E-01
        1   -1    0    0  501    0  0.00000000000E+00  0.00000000000E+00  0.73757572039E+03  0.73757572040E+03  0.50400001928E-02 0.  1.
       -1   -1    0    0    0  501  0.00000000000E+00  0.00000000000E+00 -0.14911914646E+04  0.14911914646E+04  0.50400001928E-02 0. -1.
    10030    2    1    2    0    0  0.00000000000E+00  0.00000000000E+00 -0.75361574420E+03  0.22287671850E+04  0.20974905185E+04 0.  0.
        5    1    3    3  502    0  0.21602759133E+03  0.10192896587E+04 -0.25007365311E+03  0.10715307977E+04  0.46999998093E+01 0.  1.
       -5    1    3    3    0  502 -0.21602759133E+03 -0.10192896587E+04 -0.50354209109E+03  0.11572363873E+04  0.46999998093E+01 0. -1.
</event>
<event>
 5   0  0.3176125E-05  0.2114059E+04  0.7818609E-02  0.8555075E-01
        3   -1    0    0  501    0  0.00000000000E+00  0.00000000000E+00  0.14097576280E+04  0.14097576316E+04  0.10100000352E+00 0. -1.
       -3   -1    0    0    0  501  0.00000000000E+00  0.00000000000E+00 -0.79255570773E+03  0.79255571417E+03  0.10100000352E+00 0.  1.
    10030    2    1    2    0    0  0.00000000000E+00  0.00000000000E+00  0.61720192026E+03  0.22023133458E+04  0.21140590963E+04 0.  0.
        3    1    3    3  502    0 -0.64145045961E+03  0.43164251673E+02  0.11826687415E+04  0.13461155994E+04  0.10100000352E+00 0. -1.
       -3    1    3    3    0  502  0.64145045961E+03 -0.43164251673E+02 -0.56546682122E+03  0.85619774635E+03  0.10100000352E+00 0.  1.
</event>
<event>
 5   0  0.4050368E-05  0.2183348E+04  0.7818609E-02  0.8525391E-01
       -1   -1    0    0    0  501  0.00000000000E+00  0.00000000000E+00  0.63933600240E+03  0.63933600242E+03  0.50400001928E-02 0.  1.
        1   -1    0    0  501    0  0.00000000000E+00  0.00000000000E+00 -0.18640466682E+04  0.18640466682E+04  0.50400001928E-02 0. -1.
    10030    2    1    2    0    0  0.00000000000E+00  0.00000000000E+00 -0.12247106658E+04  0.25033826706E+04  0.21833480209E+04 0.  0.
        2    1    3    3  502    0  0.68559471405E+03 -0.32071576590E+03  0.28962730125E+03  0.81042130282E+03  0.25500000920E-02 0. -1.
       -2    1    3    3    0  502 -0.68559471405E+03  0.32071576590E+03 -0.15143379670E+04  0.16929613678E+04  0.25500000920E-02 0.  1.
</event>
<event>
 5   0  0.8872777E-05  0.2091417E+04  0.7818609E-02  0.8565034E-01
       -2   -1    0    0    0  501  0.00000000000E+00  0.00000000000E+00  0.49203997919E+03  0.49203997920E+03  0.25500000920E-02 0.  1.
        2   -1    0    0  501    0  0.00000000000E+00  0.00000000000E+00 -0.22223938240E+04  0.22223938240E+04  0.25500000920E-02 0. -1.
    10030    2    1    2    0    0  0.00000000000E+00  0.00000000000E+00 -0.17303538448E+04  0.27144338032E+04  0.20914173289E+04 0.  0.
        3    1    3    3  502    0 -0.89026625329E+03  0.54384929014E+03 -0.95841353556E+03  0.14166518865E+04  0.10100000352E+00 0.  1.
       -3    1    3    3    0  502  0.89026625329E+03 -0.54384929014E+03 -0.77194030925E+03  0.12977819167E+04  0.10100000352E+00 0. -1.
</event>
<event>
 5   0  0.9012466E-05  0.2016366E+04  0.7818609E-02  0.8599007E-01
       -2   -1    0    0    0  501  0.00000000000E+00  0.00000000000E+00  0.44712719020E+03  0.44712719021E+03  0.25500000920E-02 0.  1.
        2   -1    0    0  501    0  0.00000000000E+00  0.00000000000E+00 -0.22732525957E+04  0.22732525957E+04  0.25500000920E-02 0. -1.
    10030    2    1    2    0    0  0.00000000000E+00  0.00000000000E+00 -0.18261254055E+04  0.27203797859E+04  0.20163660836E+04 0.  0.
        2    1    3    3  502    0 -0.44014223829E+03  0.57104647536E+03  0.37694311048E+02  0.72196961712E+03  0.25500000920E-02 0.  1.
       -2    1    3    3    0  502  0.44014223829E+03 -0.57104647536E+03 -0.18638197166E+04  0.19984101688E+04  0.25500000920E-02 0. -1.
</event>
<event>
 5   0  0.8872777E-05  0.2102516E+04  0.7818609E-02  0.8560136E-01
        2   -1    0    0  501    0  0.00000000000E+00  0.00000000000E+00  0.11322013680E+04  0.11322013680E+04  0.25500000920E-02 0. -1.
       -2   -1    0    0    0  501  0.00000000000E+00  0.00000000000E+00 -0.97610180909E+03  0.97610180909E+03  0.25500000920E-02 0.  1.
    10030    2    1    2    0    0  0.00000000000E+00  0.00000000000E+00  0.15609955895E+03  0.21083031771E+04  0.21025164005E+04 0.  0.
        3    1    3    3  502    0  0.62589751474E+03  0.84426708135E+03  0.10279948166E+03  0.10559840658E+04  0.10100000352E+00 0. -1.
       -3    1    3    3    0  502 -0.62589751474E+03 -0.84426708135E+03  0.53300077288E+02  0.10523191113E+04  0.10100000352E+00 0.  1.
</event>
<event>
 5   0  0.9012466E-05  0.2097278E+04  0.7818609E-02  0.8562444E-01
       -2   -1    0    0    0  501  0.00000000000E+00  0.00000000000E+00  0.96504609855E+03  0.96504609855E+03  0.25500000920E-02 0.  1.
        2   -1    0    0  501    0  0.00000000000E+00  0.00000000000E+00 -0.11394723624E+04  0.11394723624E+04  0.25500000920E-02 0. -1.
    10030    2    1    2    0    0  0.00000000000E+00  0.00000000000E+00 -0.17442626388E+03  0.21045184610E+04  0.20972776238E+04 0.  0.
        2    1    3    3  502    0 -0.86612861045E+03 -0.11166250753E+03  0.49530471559E+03  0.10039791067E+04  0.25500000920E-02 0.  1.
       -2    1    3    3    0  502  0.86612861045E+03  0.11166250753E+03 -0.66973097946E+03  0.11005393543E+04  0.25500000920E-02 0. -1.
</event>
<event>
 5   0  0.8872777E-05  0.2112328E+04  0.7818609E-02  0.8555832E-01
        2   -1    0    0  501    0  0.00000000000E+00  0.00000000000E+00  0.29694404218E+04  0.29694404218E+04  0.25500000920E-02 0.  1.
       -2   -1    0    0    0  501  0.00000000000E+00  0.00000000000E+00 -0.37565390666E+03  0.37565390667E+03  0.25500000920E-02 0. -1.
    10030    2    1    2    0    0  0.00000000000E+00  0.00000000000E+00  0.25937865151E+04  0.33450943285E+04  0.21123275268E+04 0.  0.
        3    1    3    3  502    0 -0.84445331309E+03  0.18212812729E+03  0.22591339951E+04  0.24186687394E+04  0.10100000352E+00 0.  1.
       -3    1    3    3    0  502  0.84445331309E+03 -0.18212812729E+03  0.33465251999E+03  0.92642558907E+03  0.10100000352E+00 0. -1.
</event>
<event>
 5   0  0.9086985E-05  0.2118926E+04  0.7818609E-02  0.8552952E-01
       -2   -1    0    0    0  501  0.00000000000E+00  0.00000000000E+00  0.15206652563E+04  0.15206652563E+04  0.25500000920E-02 0.  1.
        2   -1    0    0  501    0  0.00000000000E+00  0.00000000000E+00 -0.73813891184E+03  0.73813891184E+03  0.25500000920E-02 0. -1.
    10030    2    1    2    0    0  0.00000000000E+00  0.00000000000E+00  0.78252634443E+03  0.22588041681E+04  0.21189263296E+04 0.  0.
        5    1    3    3  502    0  0.26315443448E+03 -0.36824200004E+03  0.14124060439E+04  0.14831605948E+04  0.46999998093E+01 0.  1.
       -5    1    3    3    0  502 -0.26315443448E+03  0.36824200004E+03 -0.62987969951E+03  0.77564357332E+03  0.46999998093E+01 0. -1.
</event>
<event>
 5   0  0.8547605E-05  0.2092848E+04  0.7818609E-02  0.8564400E-01
       -2   -1    0    0    0  501  0.00000000000E+00  0.00000000000E+00  0.55984382614E+03  0.55984382615E+03  0.25500000920E-02 0. -1.
        2   -1    0    0  501    0  0.00000000000E+00  0.00000000000E+00 -0.19559084972E+04  0.19559084972E+04  0.25500000920E-02 0.  1.
    10030    2    1    2    0    0  0.00000000000E+00  0.00000000000E+00 -0.13960646711E+04  0.25157523234E+04  0.20928481041E+04 0.  0.
        4    1    3    3  502    0  0.77795738039E+03 -0.38020994124E+03 -0.14043188504E+04  0.16498152416E+04  0.12699999809E+01 0.  1.
       -4    1    3    3    0  502 -0.77795738039E+03  0.38020994124E+03  0.82541793056E+01  0.86593708172E+03  0.12699999809E+01 0. -1.
</event>
<event>
 5   0  0.8547605E-05  0.2098470E+04  0.7818609E-02  0.8561918E-01
       -2   -1    0    0    0  501  0.00000000000E+00  0.00000000000E+00  0.10423244384E+04  0.10423244384E+04  0.25500000920E-02 0.  1.
        2   -1    0    0  501    0  0.00000000000E+00  0.00000000000E+00 -0.10561913445E+04  0.10561913445E+04  0.25500000920E-02 0. -1.
    10030    2    1    2    0    0  0.00000000000E+00  0.00000000000E+00 -0.13866906085E+02  0.20985157829E+04  0.20984699664E+04 0.  0.
        4    1    3    3  502    0  0.42205774198E+03  0.44409638047E+03 -0.85873729574E+03  0.10548865762E+04  0.12699999809E+01 0. -1.
       -4    1    3    3    0  502 -0.42205774198E+03 -0.44409638047E+03  0.84487038965E+03  0.10436292066E+04  0.12699999809E+01 0.  1.
</event>
<event>
 5   0  0.4182977E-05  0.2100712E+04  0.7818609E-02  0.8560930E-01
        1   -1    0    0  501    0  0.00000000000E+00  0.00000000000E+00  0.99456891267E+03  0.99456891268E+03  0.50400001928E-02 0.  1.
       -1   -1    0    0    0  501  0.00000000000E+00  0.00000000000E+00 -0.11092725210E+04  0.11092725210E+04  0.50400001928E-02 0. -1.
    10030    2    1    2    0    0  0.00000000000E+00  0.00000000000E+00 -0.11470360833E+03  0.21038414337E+04  0.21007122269E+04 0.  0.
        1    1    3    3  502    0 -0.80988492922E+03 -0.44579337489E+03 -0.55669519166E+03  0.10791454342E+04  0.50400001928E-02 0. -1.
       -1    1    3    3    0  502  0.80988492922E+03  0.44579337489E+03  0.44199158332E+03  0.10246959995E+04  0.50400001928E-02 0.  1.
</event>
<event>
 5   0  0.9012466E-05  0.2106320E+04  0.7818609E-02  0.8558464E-01
        2   -1    0    0  501    0  0.00000000000E+00  0.00000000000E+00  0.21935239329E+04  0.21935239329E+04  0.25500000920E-02 0.  1.
       -2   -1    0    0    0  501  0.00000000000E+00  0.00000000000E+00 -0.50564594282E+03  0.50564594283E+03  0.25500000920E-02 0. -1.
    10030    2    1    2    0    0  0.00000000000E+00  0.00000000000E+00  0.16878779900E+04  0.26991698757E+04  0.21063204667E+04 0.  0.
        2    1    3    3  502    0 -0.35821848763E+03 -0.93939212833E+02  0.21073341861E+04  0.21396267040E+04  0.25500000920E-02 0.  1.
       -2    1    3    3    0  502  0.35821848763E+03  0.93939212833E+02 -0.41945619605E+03  0.55954317170E+03  0.25500000920E-02 0. -1.
</event>
<event>
 5   0  0.4128678E-05  0.1877360E+04  0.7818609E-02  0.8666209E-01
       -1   -1    0    0    0  501  0.00000000000E+00  0.00000000000E+00  0.61195826766E+03  0.61195826768E+03  0.50400001928E-02 0. -1.
        1   -1    0    0  501    0  0.00000000000E+00  0.00000000000E+00 -0.14398364842E+04  0.14398364842E+04  0.50400001928E-02 0.  1.
    10030    2    1    2    0    0  0.00000000000E+00  0.00000000000E+00 -0.82787821654E+03  0.20517947519E+04  0.18773596785E+04 0.  0.
        5    1    3    3  502    0  0.36776480616E+03 -0.51965675332E+03 -0.11678158006E+04  0.13300789180E+04  0.46999998093E+01 0.  1.
       -5    1    3    3    0  502 -0.36776480616E+03  0.51965675332E+03  0.33993758403E+03  0.72171583394E+03  0.46999998093E+01 0. -1.
</event>
<event>
 5   0  0.4200061E-05  0.2205347E+04  0.7818609E-02  0.8516206E-01
        1   -1    0    0  501    0  0.00000000000E+00  0.00000000000E+00  0.14343229542E+04  0.14343229542E+04  0.50400001928E-02 0. -1.
       -1   -1    0    0    0  501  0.00000000000E+00  0.00000000000E+00 -0.84770895470E+03  0.84770895471E+03  0.50400001928E-02 0.  1.
    10030    2    1    2    0    0  0.00000000000E+00  0.00000000000E+00  0.58661399953E+03  0.22820319089E+04  0.22053466052E+04 0.  0.
        4    1    3    3  502    0  0.98352671893E+03 -0.49133856946E+03  0.20581882400E+03  0.11185264404E+04  0.12699999809E+01 0. -1.
       -4    1    3    3    0  502 -0.98352671893E+03  0.49133856946E+03  0.38079517553E+03  0.11635054685E+04  0.12699999809E+01 0.  1.
</event>
<event>
 5   0  0.4128678E-05  0.2177135E+04  0.7818609E-02  0.8528006E-01
        1   -1    0    0  501    0  0.00000000000E+00  0.00000000000E+00  0.97483381315E+03  0.97483381317E+03  0.50400001928E-02 0.  1.
       -1   -1    0    0    0  501  0.00000000000E+00  0.00000000000E+00 -0.12155708712E+04  0.12155708712E+04  0.50400001928E-02 0. -1.
    10030    2    1    2    0    0  0.00000000000E+00  0.00000000000E+00 -0.24073705803E+03  0.21904046844E+04  0.21771353541E+04 0.  0.
        5    1    3    3  502    0  0.22955001752E+03 -0.14424829083E+03  0.94031349041E+03  0.97862777919E+03  0.46999998093E+01 0.  1.
       -5    1    3    3    0  502 -0.22955001752E+03  0.14424829083E+03 -0.11810505484E+04  0.12117769052E+04  0.46999998093E+01 0. -1.
</event>
<event>
 5   0  0.8858590E-05  0.2115361E+04  0.7818609E-02  0.8554507E-01
        2   -1    0    0  501    0  0.00000000000E+00  0.00000000000E+00  0.13091815352E+04  0.13091815352E+04  0.25500000920E-02 0.  1.
       -2   -1    0    0    0  501  0.00000000000E+00  0.00000000000E+00 -0.85449403408E+03  0.85449403408E+03  0.25500000920E-02 0. -1.
    10030    2    1    2    0    0  0.00000000000E+00  0.00000000000E+00  0.45468750113E+03  0.21636755693E+04  0.21153607838E+04 0.  0.
        1    1    3    3  502    0  0.95159699554E+03 -0.39889162986E+03 -0.10422957753E+02  0.10318720911E+04  0.50400001928E-02 0.  1.
       -1    1    3    3    0  502 -0.95159699554E+03  0.39889162986E+03  0.46511045888E+03  0.11318034782E+04  0.50400001928E-02 0. -1.
</event>
<event>
 5   0  0.8872777E-05  0.2129022E+04  0.7818609E-02  0.8548566E-01
        2   -1    0    0  501    0  0.00000000000E+00  0.00000000000E+00  0.22096513089E+04  0.22096513089E+04  0.25500000920E-02 0. -1.
       -2   -1    0    0    0  501  0.00000000000E+00  0.00000000000E+00 -0.51283368490E+03  0.51283368491E+03  0.25500000920E-02 0.  1.
    10030    2    1    2    0    0  0.00000000000E+00  0.00000000000E+00  0.16968176240E+04  0.27224849938E+04  0.21290219568E+04 0.  0.
        3    1    3    3  502    0  0.87895335857E+03  0.16286042521E+03  0.10927290722E+03  0.90056821124E+03  0.10100000352E+00 0.  1.
       -3    1    3    3    0  502 -0.87895335857E+03 -0.16286042521E+03  0.15875447168E+04  0.18219167826E+04  0.10100000352E+00 0. -1.
</event>
<event>
 5   0  0.9086985E-05  0.2083771E+04  0.7818609E-02  0.8568426E-01
       -2   -1    0    0    0  501  0.00000000000E+00  0.00000000000E+00  0.10066766699E+04  0.10066766699E+04  0.25500000920E-02 0. -1.
        2   -1    0    0  501    0  0.00000000000E+00  0.00000000000E+00 -0.10783258610E+04  0.10783258610E+04  0.25500000920E-02 0.  1.
    10030    2    1    2    0    0  0.00000000000E+00  0.00000000000E+00 -0.71649191121E+02  0.20850025309E+04  0.20837710880E+04 0.  0.
        5    1    3    3  502    0 -0.23464269553E+03  0.25660723125E+03  0.94689579345E+03  0.10087309846E+04  0.46999998093E+01 0. -1.
       -5    1    3    3    0  502  0.23464269553E+03 -0.25660723125E+03 -0.10185449846E+04  0.10762715463E+04  0.46999998093E+01 0.  1.
</event>
<event>
 5   0  0.4128678E-05  0.2100005E+04  0.7818609E-02  0.8561241E-01
        1   -1    0    0  501    0  0.00000000000E+00  0.00000000000E+00  0.12585729318E+04  0.12585729318E+04  0.50400001928E-02 0.  1.
       -1   -1    0    0    0  501  0.00000000000E+00  0.00000000000E+00 -0.87599639824E+03  0.87599639825E+03  0.50400001928E-02 0. -1.
    10030    2    1    2    0    0  0.00000000000E+00  0.00000000000E+00  0.38257653357E+03  0.21345693301E+04  0.21000051002E+04 0.  0.
        5    1    3    3  502    0  0.56587260604E+03 -0.80041968600E+03  0.57377925993E+03  0.11358381087E+04  0.46999998093E+01 0.  1.
       -5    1    3    3    0  502 -0.56587260604E+03  0.80041968600E+03 -0.19120272637E+03  0.99873122139E+03  0.46999998093E+01 0. -1.
</event>
<event>
 5   0  0.8872777E-05  0.2110294E+04  0.7818609E-02  0.8556722E-01
       -2   -1    0    0    0  501  0.00000000000E+00  0.00000000000E+00  0.49133492971E+03  0.49133492972E+03  0.25500000920E-02 0. -1.
        2   -1    0    0  501    0  0.00000000000E+00  0.00000000000E+00 -0.22659399452E+04  0.22659399452E+04  0.25500000920E-02 0.  1.
    10030    2    1    2    0    0  0.00000000000E+00  0.00000000000E+00 -0.17746050155E+04  0.27572748749E+04  0.21102942389E+04 0.  0.
        3    1    3    3  502    0 -0.91431846958E+03  0.52306673991E+03 -0.80720187115E+03  0.13270840023E+04  0.10100000352E+00 0.  1.
       -3    1    3    3    0  502  0.91431846958E+03 -0.52306673991E+03 -0.96740314435E+03  0.14301908726E+04  0.10100000352E+00 0. -1.
</event>
<event>
 5   0  0.8547605E-05  0.2082299E+04  0.7818609E-02  0.8569081E-01
        2   -1    0    0  501    0  0.00000000000E+00  0.00000000000E+00  0.12010515050E+04  0.12010515050E+04  0.25500000920E-02 0. -1.
       -2   -1    0    0    0  501  0.00000000000E+00  0.00000000000E+00 -0.90253627358E+03  0.90253627359E+03  0.25500000920E-02 0.  1.
    10030    2    1    2    0    0  0.00000000000E+00  0.00000000000E+00  0.29851523138E+03  0.21035877786E+04  0.20822992577E+04 0.  0.
        4    1    3    3  502    0  0.52659941280E+03 -0.89442703503E+03  0.66664352679E+02  0.10400732721E+04  0.12699999809E+01 0.  1.
       -4    1    3    3    0  502 -0.52659941280E+03  0.89442703503E+03  0.23185087870E+03  0.10635145064E+04  0.12699999809E+01 0. -1.
</event>
<event>
 5   0  0.9086985E-05  0.2125905E+04  0.7818609E-02  0.8549917E-01
        2   -1    0    0  501    0  0.00000000000E+00  0.00000000000E+00  0.25875373951E+04  0.25875373951E+04  0.25500000920E-02 0. -1.
       -2   -1    0    0    0  501  0.00000000000E+00  0.00000000000E+00 -0.43665754138E+03  0.43665754139E+03  0.25500000920E-02 0.  1.
    10030    2    1    2    0    0  0.00000000000E+00  0.00000000000E+00  0.21508798538E+04  0.30241949365E+04  0.21259047177E+04 0.  0.
        5    1    3    3  502    0 -0.34079614095E+03  0.85675156958E+03  0.32312968294E+03  0.97703640857E+03  0.46999998093E+01 0.  1.
       -5    1    3    3    0  502  0.34079614095E+03 -0.85675156958E+03  0.18277501708E+04  0.20471585280E+04  0.46999998093E+01 0. -1.
</event>
<event>
 5   0  0.4128678E-05  0.2140638E+04  0.7818609E-02  0.8543550E-01
        1   -1    0    0  501    0  0.00000000000E+00  0.00000000000E+00  0.12830432085E+04  0.12830432085E+04  0.50400001928E-02 0.  1.
       -1   -1    0    0    0  501  0.00000000000E+00  0.00000000000E+00 -0.89286344859E+03  0.89286344861E+03  0.50400001928E-02 0. -1.
    10030    2    1    2    0    0  0.00000000000E+00  0.00000000000E+00  0.39017975994E+03  0.21759066572E+04  0.21406376470E+04 0.  0.
        5    1    3    3  502    0 -0.68892693389E+03  0.20654147874E+03 -0.61061115916E+03  0.94347643339E+03  0.46999998093E+01 0. -1.
       -5    1    3    3    0  502  0.68892693389E+03 -0.20654147874E+03  0.10007909191E+04  0.12324302238E+04  0.46999998093E+01 0.  1.
</event>
<event>
 5   0  0.8872777E-05  0.2083818E+04  0.7818609E-02  0.8568405E-01
       -2   -1    0    0    0  501  0.00000000000E+00  0.00000000000E+00  0.62860490965E+03  0.62860490966E+03  0.25500000920E-02 0.  1.
        2   -1    0    0  501    0  0.00000000000E+00  0.00000000000E+00 -0.17269586292E+04  0.17269586292E+04  0.25500000920E-02 0. -1.
    10030    2    1    2    0    0  0.00000000000E+00  0.00000000000E+00 -0.10983537195E+04  0.23555635388E+04  0.20838182964E+04 0.  0.
        3    1    3    3  502    0  0.33636195854E+03  0.76918958984E+03 -0.12467240026E+04  0.15030345110E+04  0.10100000352E+00 0. -1.
       -3    1    3    3    0  502 -0.33636195854E+03 -0.76918958984E+03  0.14837028308E+03  0.85252902788E+03  0.10100000352E+00 0.  1.
</event>
<event>
 5   0  0.8858590E-05  0.2113714E+04  0.7818609E-02  0.8555226E-01
       -2   -1    0    0    0  501  0.00000000000E+00  0.00000000000E+00  0.50412704019E+03  0.50412704020E+03  0.25500000920E-02 0.  1.
        2   -1    0    0  501    0  0.00000000000E+00  0.00000000000E+00 -0.22156057268E+04  0.22156057268E+04  0.25500000920E-02 0. -1.
    10030    2    1    2    0    0  0.00000000000E+00  0.00000000000E+00 -0.17114786866E+04  0.27197327670E+04  0.21137140367E+04 0.  0.
        1    1    3    3  502    0  0.65979909723E+03  0.78325614537E+03 -0.11915719050E+04  0.15711997463E+04  0.50400001928E-02 0. -1.
       -1    1    3    3    0  502 -0.65979909723E+03 -0.78325614537E+03 -0.51990678153E+03  0.11485330206E+04  0.50400001928E-02 0.  1.
</event>
<event>
 5   0  0.8547605E-05  0.2101357E+04  0.7818609E-02  0.8560646E-01
        2   -1    0    0  501    0  0.00000000000E+00  0.00000000000E+00  0.12228786268E+04  0.12228786268E+04  0.25500000920E-02 0. -1.
       -2   -1    0    0    0  501  0.00000000000E+00  0.00000000000E+00 -0.90272654428E+03  0.90272654428E+03  0.25500000920E-02 0.  1.
    10030    2    1    2    0    0  0.00000000000E+00  0.00000000000E+00  0.32015208250E+03  0.21256051711E+04  0.21013567016E+04 0.  0.
        4    1    3    3  502    0  0.72190097618E+03 -0.70561936825E+03  0.45478605790E+03  0.11071908976E+04  0.12699999809E+01 0. -1.
       -4    1    3    3    0  502 -0.72190097618E+03  0.70561936825E+03 -0.13463397540E+03  0.10184142735E+04  0.12699999809E+01 0.  1.
</event>
<event>
 5   0  0.8858590E-05  0.2106724E+04  0.7818609E-02  0.8558287E-01
        2   -1    0    0  501    0  0.00000000000E+00  0.00000000000E+00  0.18520018692E+04  0.18520018692E+04  0.25500000920E-02 0. -1.
       -2   -1    0    0    0  501  0.00000000000E+00  0.00000000000E+00 -0.59912003262E+03  0.59912003262E+03  0.25500000920E-02 0.  1.
    10030    2    1    2    0    0  0.00000000000E+00  0.00000000000E+00  0.12528818366E+04  0.24511219018E+04  0.21067239214E+04 0.  0.
        1    1    3    3  502    0  0.91342393532E+03  0.26564869671E+03  0.11527884693E+04  0.14946015425E+04  0.50400001928E-02 0. -1.
       -1    1    3    3    0  502 -0.91342393532E+03 -0.26564869671E+03  0.10009336726E+03  0.95652035936E+03  0.50400001928E-02 0.  1.
</event>
<event>
 5   0  0.8872777E-05  0.2101647E+04  0.7818609E-02  0.8560518E-01
        2   -1    0    0  501    0  0.00000000000E+00  0.00000000000E+00  0.79751043446E+03  0.79751043447E+03  0.25500000920E-02 0. -1.
       -2   -1    0    0    0  501  0.00000000000E+00  0.00000000000E+00 -0.13845968175E+04  0.13845968175E+04  0.25500000920E-02 0.  1.
    10030    2    1    2    0    0  0.00000000000E+00  0.00000000000E+00 -0.58708638307E+03  0.21821072520E+04  0.21016473629E+04 0.  0.
        3    1    3    3  502    0 -0.96367594110E+03  0.20711616111E+03 -0.67171528337E+03  0.11927991682E+04  0.10100000352E+00 0.  1.
       -3    1    3    3    0  502  0.96367594110E+03 -0.20711616111E+03  0.84628900298E+02  0.98930808377E+03  0.10100000352E+00 0. -1.
</event>
<event>
 5   0  0.9012466E-05  0.1876808E+04  0.7818609E-02  0.8666487E-01
       -2   -1    0    0    0  501  0.00000000000E+00  0.00000000000E+00  0.12007046831E+04  0.12007046831E+04  0.25500000920E-02 0.  1.
        2   -1    0    0  501    0  0.00000000000E+00  0.00000000000E+00 -0.73340461349E+03  0.73340461349E+03  0.25500000920E-02 0. -1.
    10030    2    1    2    0    0  0.00000000000E+00  0.00000000000E+00  0.46730006960E+03  0.19341092966E+04  0.18768083056E+04 0.  0.
        2    1    3    3  502    0 -0.85517918393E+03 -0.31461326416E+03  0.46474972964E+03  0.10228906363E+04  0.25500000920E-02 0. -1.
       -2    1    3    3    0  502  0.85517918393E+03  0.31461326416E+03  0.25503399617E+01  0.91121866028E+03  0.25500000920E-02 0.  1.
</event>
<event>
 5   0  0.8858590E-05  0.2099159E+04  0.7818609E-02  0.8561614E-01
       -2   -1    0    0    0  501  0.00000000000E+00  0.00000000000E+00  0.10065382077E+04  0.10065382077E+04  0.25500000920E-02 0. -1.
        2   -1    0    0  501    0  0.00000000000E+00  0.00000000000E+00 -0.10944612070E+04  0.10944612070E+04  0.25500000920E-02 0.  1.
    10030    2    1    2    0    0  0.00000000000E+00  0.00000000000E+00 -0.87922999275E+02  0.21009994148E+04  0.20991588999E+04 0.  0.
        1    1    3    3  502    0  0.68427586772E+03 -0.81809551283E+02 -0.83629361817E+03  0.10836573636E+04  0.50400001928E-02 0.  1.
       -1    1    3    3    0  502 -0.68427586772E+03  0.81809551283E+02  0.74837061890E+03  0.10173420512E+04  0.50400001928E-02 0. -1.
</event>
<event>
 5   0  0.9012466E-05  0.2118571E+04  0.7818609E-02  0.8553107E-01
        2   -1    0    0  501    0  0.00000000000E+00  0.00000000000E+00  0.94124305041E+03  0.94124305041E+03  0.25500000920E-02 0.  1.
       -2   -1    0    0    0  501  0.00000000000E+00  0.00000000000E+00 -0.11921317758E+04  0.11921317758E+04  0.25500000920E-02 0. -1.
    10030    2    1    2    0    0  0.00000000000E+00  0.00000000000E+00 -0.25088872540E+03  0.21333748262E+04  0.21185709798E+04 0.  0.
        2    1    3    3  502    0 -0.35801145579E+03 -0.44234403405E+03 -0.10251332014E+04  0.11724924424E+04  0.25500000920E-02 0. -1.
       -2    1    3    3    0  502  0.35801145579E+03  0.44234403405E+03  0.77424447598E+03  0.96088238381E+03  0.25500000920E-02 0.  1.
</event>
<event>
 5   0  0.4182977E-05  0.2115198E+04  0.7818609E-02  0.8554578E-01
        1   -1    0    0  501    0  0.00000000000E+00  0.00000000000E+00  0.14157573219E+04  0.14157573219E+04  0.50400001928E-02 0. -1.
       -1   -1    0    0    0  501  0.00000000000E+00  0.00000000000E+00 -0.79004788386E+03  0.79004788387E+03  0.50400001928E-02 0.  1.
    10030    2    1    2    0    0  0.00000000000E+00  0.00000000000E+00  0.62570943804E+03  0.22058052058E+04  0.21151984079E+04 0.  0.
        1    1    3    3  502    0  0.15518987200E+03  0.28738686360E+03 -0.73613728225E+03  0.80534042745E+03  0.50400001928E-02 0.  1.
       -1    1    3    3    0  502 -0.15518987200E+03 -0.28738686360E+03  0.13618467203E+04  0.14004647783E+04  0.50400001928E-02 0. -1.
</event>
<event>
 5   0  0.4050368E-05  0.2082853E+04  0.7818609E-02  0.8568835E-01
        1   -1    0    0  501    0  0.00000000000E+00  0.00000000000E+00  0.17288122735E+04  0.17288122735E+04  0.50400001928E-02 0.  1.
       -1   -1    0    0    0  501  0.00000000000E+00  0.00000000000E+00 -0.62734935104E+03  0.62734935106E+03  0.50400001928E-02 0. -1.
    10030    2    1    2    0    0  0.00000000000E+00  0.00000000000E+00  0.11014629225E+04  0.23561616246E+04  0.20828530989E+04 0.  0.
        2    1    3    3  502    0  0.22501081481E+03 -0.99575133083E+03  0.31774804798E+03  0.10691652827E+04  0.25500000920E-02 0. -1.
       -2    1    3    3    0  502 -0.22501081481E+03  0.99575133083E+03  0.78371487447E+03  0.12869963419E+04  0.25500000920E-02 0.  1.
</event>
<event>
 5   0  0.4200061E-05  0.2055579E+04  0.7818609E-02  0.8581068E-01
        1   -1    0    0  501    0  0.00000000000E+00  0.00000000000E+00  0.17466122232E+04  0.17466122232E+04  0.50400001928E-02 0. -1.
       -1   -1    0    0    0  501  0.00000000000E+00  0.00000000000E+00 -0.60479994059E+03  0.60479994061E+03  0.50400001928E-02 0.  1.
    10030    2    1    2    0    0  0.00000000000E+00  0.00000000000E+00  0.11418122826E+04  0.23514121638E+04  0.20555787203E+04 0.  0.
        4    1    3    3  502    0  0.67530791339E+03  0.44536090447E+02 -0.31393083641E+03  0.74604183809E+03  0.12699999809E+01 0.  1.
       -4    1    3    3    0  502 -0.67530791339E+03 -0.44536090447E+02  0.14557431190E+04  0.16053703257E+04  0.12699999809E+01 0. -1.
</event>
<event>
 5   0  0.4128678E-05  0.1895020E+04  0.7818609E-02  0.8657339E-01
       -1   -1    0    0    0  501  0.00000000000E+00  0.00000000000E+00  0.48990509500E+03  0.48990509503E+03  0.50400001928E-02 0.  1.
        1   -1    0    0  501    0  0.00000000000E+00  0.00000000000E+00 -0.18325486287E+04  0.18325486287E+04  0.50400001928E-02 0. -1.
    10030    2    1    2    0    0  0.00000000000E+00  0.00000000000E+00 -0.13426435337E+04  0.23224537237E+04  0.18950196939E+04 0.  0.
        5    1    3    3  502    0  0.70561830983E+03 -0.61763299160E+03 -0.50514647849E+03  0.10651585639E+04  0.46999998093E+01 0.  1.
       -5    1    3    3    0  502 -0.70561830983E+03  0.61763299160E+03 -0.83749705518E+03  0.12572951598E+04  0.46999998093E+01 0. -1.
</event>
<event>
 5   0  0.8872777E-05  0.2105940E+04  0.7818609E-02  0.8558631E-01
       -2   -1    0    0    0  501  0.00000000000E+00  0.00000000000E+00  0.91138708641E+03  0.91138708642E+03  0.25500000920E-02 0. -1.
        2   -1    0    0  501    0  0.00000000000E+00  0.00000000000E+00 -0.12165471000E+04  0.12165471000E+04  0.25500000920E-02 0.  1.
    10030    2    1    2    0    0  0.00000000000E+00  0.00000000000E+00 -0.30516001356E+03  0.21279341864E+04  0.21059395214E+04 0.  0.
        3    1    3    3  502    0  0.13253786418E+03  0.83343637803E+03  0.48372933138E+03  0.97271607260E+03  0.10100000352E+00 0. -1.
       -3    1    3    3    0  502 -0.13253786418E+03 -0.83343637803E+03 -0.78888934495E+03  0.11552181138E+04  0.10100000352E+00 0.  1.
</event>
<event>
 5   0  0.3176125E-05  0.2077771E+04  0.7818609E-02  0.8571099E-01
       -3   -1    0    0    0  501  0.00000000000E+00  0.00000000000E+00  0.97536703103E+03  0.97536703625E+03  0.10100000352E+00 0.  1.
        3   -1    0    0  501    0  0.00000000000E+00  0.00000000000E+00 -0.11065409228E+04  0.11065409274E+04  0.10100000352E+00 0. -1.
    10030    2    1    2    0    0  0.00000000000E+00  0.00000000000E+00 -0.13117389176E+03  0.20819079637E+04  0.20777714454E+04 0.  0.
        5    1    3    3  502    0 -0.54918099347E+03 -0.78789772781E+03 -0.46245484092E+03  0.10659592689E+04  0.46999998093E+01 0. -1.
       -5    1    3    3    0  502  0.54918099347E+03  0.78789772781E+03  0.33128094916E+03  0.10159486947E+04  0.46999998093E+01 0.  1.
</event>
<event>
 5   0  0.8872777E-05  0.2203182E+04  0.7818609E-02  0.8517105E-01
        2   -1    0    0  501    0  0.00000000000E+00  0.00000000000E+00  0.94925707280E+03  0.94925707280E+03  0.25500000920E-02 0.  1.
       -2   -1    0    0    0  501  0.00000000000E+00  0.00000000000E+00 -0.12783712956E+04  0.12783712956E+04  0.25500000920E-02 0. -1.
    10030    2    1    2    0    0  0.00000000000E+00  0.00000000000E+00 -0.32911422278E+03  0.22276283684E+04  0.22031822385E+04 0.  0.
        3    1    3    3  502    0 -0.68070808751E+03 -0.47270718179E+03  0.56922781154E+03  0.10054033478E+04  0.10100000352E+00 0.  1.
       -3    1    3    3    0  502  0.68070808751E+03  0.47270718179E+03 -0.89834203432E+03  0.12222250206E+04  0.10100000352E+00 0. -1.
</event>
<event>
 5   0  0.4174093E-05  0.2093888E+04  0.7818609E-02  0.8563940E-01
       -1   -1    0    0    0  501  0.00000000000E+00  0.00000000000E+00  0.41607360716E+03  0.41607360719E+03  0.50400001928E-02 0.  1.
        1   -1    0    0  501    0  0.00000000000E+00  0.00000000000E+00 -0.26343706556E+04  0.26343706556E+04  0.50400001928E-02 0. -1.
    10030    2    1    2    0    0  0.00000000000E+00  0.00000000000E+00 -0.22182970485E+04  0.30504442628E+04  0.20938883460E+04 0.  0.
        3    1    3    3  502    0 -0.95259008429E+03 -0.19890668299E+03 -0.16716826988E+04  0.19342995613E+04  0.10100000352E+00 0. -1.
       -3    1    3    3    0  502  0.95259008429E+03  0.19890668299E+03 -0.54661434964E+03  0.11161447015E+04  0.10100000352E+00 0.  1.
</event>
<event>
 5   0  0.4200061E-05  0.2098270E+04  0.7818609E-02  0.8562006E-01
        1   -1    0    0  501    0  0.00000000000E+00  0.00000000000E+00  0.10515750689E+04  0.10515750689E+04  0.50400001928E-02 0. -1.
       -1   -1    0    0    0  501  0.00000000000E+00  0.00000000000E+00 -0.10467004866E+04  0.10467004866E+04  0.50400001928E-02 0.  1.
    10030    2    1    2    0    0  0.00000000000E+00  0.00000000000E+00  0.48745823480E+01  0.20982755555E+04  0.20982698934E+04 0.  0.
        4    1    3    3  502    0 -0.76254851968E+03 -0.54735442757E+03  0.47105930774E+03  0.10502264511E+04  0.12699999809E+01 0.  1.
       -4    1    3    3    0  502  0.76254851968E+03  0.54735442757E+03 -0.46618472539E+03  0.10480491044E+04  0.12699999809E+01 0. -1.
</event>
<event>
 5   0  0.4128678E-05  0.2166303E+04  0.7818609E-02  0.8532586E-01
        1   -1    0    0  501    0  0.00000000000E+00  0.00000000000E+00  0.17522996616E+04  0.17522996616E+04  0.50400001928E-02 0. -1.
       -1   -1    0    0    0  501  0.00000000000E+00  0.00000000000E+00 -0.66953014068E+03  0.66953014070E+03  0.50400001928E-02 0.  1.
    10030    2    1    2    0    0  0.00000000000E+00  0.00000000000E+00  0.10827695209E+04  0.24218298023E+04  0.21663032465E+04 0.  0.
        5    1    3    3  502    0 -0.42038243810E+03 -0.12123144903E+03  0.16491067353E+04  0.17061634074E+04  0.46999998093E+01 0. -1.
       -5    1    3    3    0  502  0.42038243810E+03  0.12123144903E+03 -0.56633721432E+03  0.71566639492E+03  0.46999998093E+01 0.  1.
</event>
<event>
 5   0  0.8547605E-05  0.1992100E+04  0.7818609E-02  0.8610323E-01
       -2   -1    0    0    0  501  0.00000000000E+00  0.00000000000E+00  0.65782169883E+03  0.65782169883E+03  0.25500000920E-02 0. -1.
        2   -1    0    0  501    0  0.00000000000E+00  0.00000000000E+00 -0.15081829654E+04  0.15081829654E+04  0.25500000920E-02 0.  1.
    10030    2    1    2    0    0  0.00000000000E+00  0.00000000000E+00 -0.85036126653E+03  0.21660046642E+04  0.19920998774E+04 0.  0.
        4    1    3    3  502    0  0.18198145121E+03 -0.68306257622E+02  0.63699850111E+03  0.66599676931E+03  0.12699999809E+01 0. -1.
       -4    1    3    3    0  502 -0.18198145121E+03  0.68306257622E+02 -0.14873597676E+04  0.15000078949E+04  0.12699999809E+01 0.  1.
</event>
<event>
 5   0  0.8547605E-05  0.2110869E+04  0.7818609E-02  0.8556471E-01
        2   -1    0    0  501    0  0.00000000000E+00  0.00000000000E+00  0.16197971432E+04  0.16197971432E+04  0.25500000920E-02 0.  1.
       -2   -1    0    0    0  501  0.00000000000E+00  0.00000000000E+00 -0.68770463646E+03  0.68770463647E+03  0.25500000920E-02 0. -1.
    10030    2    1    2    0    0  0.00000000000E+00  0.00000000000E+00  0.93209250676E+03  0.23075017797E+04  0.21108690206E+04 0.  0.
        4    1    3    3  502    0 -0.88206555315E+03  0.37279494414E+03  0.95114576244E+03  0.13497020355E+04  0.12699999809E+01 0.  1.
       -4    1    3    3    0  502  0.88206555315E+03 -0.37279494414E+03 -0.19053255686E+02  0.95779974414E+03  0.12699999809E+01 0. -1.
</event>
<event>
 5   0  0.8872777E-05  0.2155648E+04  0.7818609E-02  0.8537118E-01
        2   -1    0    0  501    0  0.00000000000E+00  0.00000000000E+00  0.27702305302E+04  0.27702305302E+04  0.25500000920E-02 0.  1.
       -2   -1    0    0    0  501  0.00000000000E+00  0.00000000000E+00 -0.41935314959E+03  0.41935314960E+03  0.25500000920E-02 0. -1.
    10030    2    1    2    0    0  0.00000000000E+00  0.00000000000E+00  0.23508773806E+04  0.31895836798E+04  0.21556482996E+04 0.  0.
        3    1    3    3  502    0 -0.58945620882E+03 -0.64275967633E+03  0.21125384291E+04  0.22854796539E+04  0.10100000352E+00 0.  1.
       -3    1    3    3    0  502  0.58945620882E+03  0.64275967633E+03  0.23833895146E+03  0.90410402589E+03  0.10100000352E+00 0. -1.
</event>
<event>
 5   0  0.4182977E-05  0.1998970E+04  0.7818609E-02  0.8607102E-01
       -1   -1    0    0    0  501  0.00000000000E+00  0.00000000000E+00  0.10649928839E+04  0.10649928839E+04  0.50400001928E-02 0.  1.
        1   -1    0    0  501    0  0.00000000000E+00  0.00000000000E+00 -0.93800698145E+03  0.93800698146E+03  0.50400001928E-02 0. -1.
    10030    2    1    2    0    0  0.00000000000E+00  0.00000000000E+00  0.12698590241E+03  0.20029998653E+04  0.19989704953E+04 0.  0.
        1    1    3    3  502    0  0.14807722029E+03  0.50378691592E+03  0.91564393087E+03  0.10555244801E+04  0.50400001928E-02 0.  1.
       -1    1    3    3    0  502 -0.14807722029E+03 -0.50378691592E+03 -0.78865802847E+03  0.94747538528E+03  0.50400001928E-02 0. -1.
</event>
<event>
 5   0  0.8547605E-05  0.2094224E+04  0.7818609E-02  0.8563792E-01
        2   -1    0    0  501    0  0.00000000000E+00  0.00000000000E+00  0.86180642623E+03  0.86180642623E+03  0.25500000920E-02 0.  1.
       -2   -1    0    0    0  501  0.00000000000E+00  0.00000000000E+00 -0.12722617324E+04  0.12722617324E+04  0.25500000920E-02 0. -1.
    10030    2    1    2    0    0  0.00000000000E+00  0.00000000000E+00 -0.41045530616E+03  0.21340681586E+04  0.20942238054E+04 0.  0.
        4    1    3    3  502    0  0.77602325804E+03  0.18775658858E+03 -0.89559572538E+03  0.11998157983E+04  0.12699999809E+01 0. -1.
       -4    1    3    3    0  502 -0.77602325804E+03 -0.18775658858E+03  0.48514041921E+03  0.93425236035E+03  0.12699999809E+01 0.  1.
</event>
<event>
 5   0  0.4200061E-05  0.2125555E+04  0.7818609E-02  0.8550069E-01
        1   -1    0    0  501    0  0.00000000000E+00  0.00000000000E+00  0.15187005007E+04  0.15187005007E+04  0.50400001928E-02 0.  1.
       -1   -1    0    0    0  501  0.00000000000E+00  0.00000000000E+00 -0.74372552987E+03  0.74372552988E+03  0.50400001928E-02 0. -1.
    10030    2    1    2    0    0  0.00000000000E+00  0.00000000000E+00  0.77497497078E+03  0.22624260305E+04  0.21255553012E+04 0.  0.
        4    1    3    3  502    0 -0.78339465911E+03  0.47346778623E+03 -0.18730025254E+03  0.93432431951E+03  0.12699999809E+01 0. -1.
       -4    1    3    3    0  502  0.78339465911E+03 -0.47346778623E+03  0.96227522332E+03  0.13281017110E+04  0.12699999809E+01 0.  1.
</event>
<event>
 5   0  0.8858590E-05  0.2103656E+04  0.7818609E-02  0.8559635E-01
        2   -1    0    0  501    0  0.00000000000E+00  0.00000000000E+00  0.11356834926E+04  0.11356834926E+04  0.25500000920E-02 0.  1.
       -2   -1    0    0    0  501  0.00000000000E+00  0.00000000000E+00 -0.97416378136E+03  0.97416378136E+03  0.25500000920E-02 0. -1.
    10030    2    1    2    0    0  0.00000000000E+00  0.00000000000E+00  0.16151971125E+03  0.21098472740E+04  0.21036556045E+04 0.  0.
        1    1    3    3  502    0  0.52908958636E+03 -0.98398330553E+01  0.99245081566E+03  0.11247182911E+04  0.50400001928E-02 0.  1.
       -1    1    3    3    0  502 -0.52908958636E+03  0.98398330553E+01 -0.83093110440E+03  0.98512898293E+03  0.50400001928E-02 0. -1.
</event>
<event>
 5   0  0.9086985E-05  0.2206227E+04  0.7818609E-02  0.8515841E-01
       -2   -1    0    0    0  501  0.00000000000E+00  0.00000000000E+00  0.10327622857E+04  0.10327622857E+04  0.25500000920E-02 0. -1.
        2   -1    0    0  501    0  0.00000000000E+00  0.00000000000E+00 -0.11782566581E+04  0.11782566581E+04  0.25500000920E-02 0.  1.
    10030    2    1    2    0    0  0.00000000000E+00  0.00000000000E+00 -0.14549437239E+03  0.22110189439E+04  0.22062266787E+04 0.  0.
        5    1    3    3  502    0 -0.10458524919E+04  0.22289181008E+02  0.27805989062E+03  0.10824248866E+04  0.46999998093E+01 0. -1.
       -5    1    3    3    0  502  0.10458524919E+04 -0.22289181008E+02 -0.42355426301E+03  0.11285940573E+04  0.46999998093E+01 0.  1.
</event>
<event>
 5   0  0.4200061E-05  0.2102440E+04  0.7818609E-02  0.8560169E-01
        1   -1    0    0  501    0  0.00000000000E+00  0.00000000000E+00  0.10335477406E+04  0.10335477406E+04  0.50400001928E-02 0. -1.
       -1   -1    0    0    0  501  0.00000000000E+00  0.00000000000E+00 -0.10691941337E+04  0.10691941337E+04  0.50400001928E-02 0.  1.
    10030    2    1    2    0    0  0.00000000000E+00  0.00000000000E+00 -0.35646393135E+02  0.21027418744E+04  0.21024397078E+04 0.  0.
        4    1    3    3  502    0  0.78969116045E+03 -0.68704118684E+03  0.79267256269E+02  0.10497250269E+04  0.12699999809E+01 0.  1.
       -4    1    3    3    0  502 -0.78969116045E+03  0.68704118684E+03 -0.11491364940E+03  0.10530168475E+04  0.12699999809E+01 0. -1.
</event>
<event>
 5   0  0.4182977E-05  0.2126207E+04  0.7818609E-02  0.8549786E-01
       -1   -1    0    0    0  501  0.00000000000E+00  0.00000000000E+00  0.62304666434E+03  0.62304666436E+03  0.50400001928E-02 0. -1.
        1   -1    0    0  501    0  0.00000000000E+00  0.00000000000E+00 -0.18139723715E+04  0.18139723715E+04  0.50400001928E-02 0.  1.
    10030    2    1    2    0    0  0.00000000000E+00  0.00000000000E+00 -0.11909257072E+04  0.24370190359E+04  0.21262073608E+04 0.  0.
        1    1    3    3  502    0  0.62567608729E+03  0.66762842287E+03  0.24949677893E+02  0.91532549603E+03  0.50400001928E-02 0. -1.
       -1    1    3    3    0  502 -0.62567608729E+03 -0.66762842287E+03 -0.12158753851E+04  0.15216935399E+04  0.50400001928E-02 0.  1.
</event>
<event>
 5   0  0.4200061E-05  0.2110608E+04  0.7818609E-02  0.8556585E-01
       -1   -1    0    0    0  501  0.00000000000E+00  0.00000000000E+00  0.12697786962E+04  0.12697786963E+04  0.50400001928E-02 0.  1.
        1   -1    0    0  501    0  0.00000000000E+00  0.00000000000E+00 -0.87705558068E+03  0.87705558069E+03  0.50400001928E-02 0. -1.
    10030    2    1    2    0    0  0.00000000000E+00  0.00000000000E+00  0.39272311557E+03  0.21468342770E+04  0.21106079615E+04 0.  0.
        4    1    3    3  502    0 -0.20065859431E+03 -0.25991969170E+03  0.12164926773E+04  0.12600310173E+04  0.12699999809E+01 0.  1.
       -4    1    3    3    0  502  0.20065859431E+03  0.25991969170E+03 -0.82376956176E+03  0.88680325968E+03  0.12699999809E+01 0. -1.
</event>
<event>
 5   0  0.8547605E-05  0.1983998E+04  0.7818609E-02  0.8614139E-01
        2   -1    0    0  501    0  0.00000000000E+00  0.00000000000E+00  0.17947444414E+04  0.17947444414E+04  0.25500000920E-02 0.  1.
       -2   -1    0    0    0  501  0.00000000000E+00  0.00000000000E+00 -0.54830186846E+03  0.54830186847E+03  0.25500000920E-02 0. -1.
    10030    2    1    2    0    0  0.00000000000E+00  0.00000000000E+00  0.12464425729E+04  0.23430463098E+04  0.19839977123E+04 0.  0.
        4    1    3    3  502    0 -0.55417535927E+03  0.79350046884E+03  0.36635833550E+03  0.10348784304E+04  0.12699999809E+01 0. -1.
       -4    1    3    3    0  502  0.55417535927E+03 -0.79350046884E+03  0.88008423740E+03  0.13081678794E+04  0.12699999809E+01 0.  1.
</event>
<event>
 5   0  0.4182977E-05  0.2156544E+04  0.7818609E-02  0.8536736E-01
        1   -1    0    0  501    0  0.00000000000E+00  0.00000000000E+00  0.13455271019E+04  0.13455271019E+04  0.50400001928E-02 0. -1.
       -1   -1    0    0    0  501  0.00000000000E+00  0.00000000000E+00 -0.86410053616E+03  0.86410053618E+03  0.50400001928E-02 0.  1.
    10030    2    1    2    0    0  0.00000000000E+00  0.00000000000E+00  0.48142656577E+03  0.22096276381E+04  0.21565441709E+04 0.  0.
        1    1    3    3  502    0  0.24424465543E+03 -0.56810374537E+02  0.13152349775E+04  0.13389271513E+04  0.50400001928E-02 0. -1.
       -1    1    3    3    0  502 -0.24424465543E+03  0.56810374537E+02 -0.83380841171E+03  0.87070048686E+03  0.50400001928E-02 0.  1.
</event>
<event>
 5   0  0.8858590E-05  0.2072170E+04  0.7818609E-02  0.8573603E-01
       -2   -1    0    0    0  501  0.00000000000E+00  0.00000000000E+00  0.88350218398E+03  0.88350218399E+03  0.25500000920E-02 0.  1.
        2   -1    0    0  501    0  0.00000000000E+00  0.00000000000E+00 -0.12150196610E+04  0.12150196610E+04  0.25500000920E-02 0. -1.
    10030    2    1    2    0    0  0.00000000000E+00  0.00000000000E+00 -0.33151747702E+03  0.20985218450E+04  0.20721703830E+04 0.  0.
        1    1    3    3  502    0  0.99886616797E+03 -0.16934079586E+03 -0.38545667530E+03  0.10839680693E+04  0.50400001928E-02 0. -1.
       -1    1    3    3    0  502 -0.99886616797E+03  0.16934079586E+03  0.53939198280E+02  0.10145537757E+04  0.50400001928E-02 0.  1.
</event>
<event>
 5   0  0.3176125E-05  0.2097665E+04  0.7818609E-02  0.8562273E-01
       -3   -1    0    0    0  501  0.00000000000E+00  0.00000000000E+00  0.10310499093E+04  0.10310499142E+04  0.10100000352E+00 0.  1.
        3   -1    0    0  501    0  0.00000000000E+00  0.00000000000E+00 -0.10669213174E+04  0.10669213222E+04  0.10100000352E+00 0. -1.
    10030    2    1    2    0    0  0.00000000000E+00  0.00000000000E+00 -0.35871408131E+02  0.20979712365E+04  0.20976645468E+04 0.  0.
        1    1    3    3  502    0 -0.60224611917E+03  0.79475670452E+03 -0.34311479848E+03  0.10545455763E+04  0.50400001928E-02 0.  1.
       -1    1    3    3    0  502  0.60224611917E+03 -0.79475670452E+03  0.30724339035E+03  0.10434256602E+04  0.50400001928E-02 0. -1.
</event>
<event>
 5   0  0.4128678E-05  0.2114954E+04  0.7818609E-02  0.8554685E-01
       -1   -1    0    0    0  501  0.00000000000E+00  0.00000000000E+00  0.13527832014E+04  0.13527832014E+04  0.50400001928E-02 0.  1.
        1   -1    0    0  501    0  0.00000000000E+00  0.00000000000E+00 -0.82663452547E+03  0.82663452549E+03  0.50400001928E-02 0. -1.
    10030    2    1    2    0    0  0.00000000000E+00  0.00000000000E+00  0.52614867589E+03  0.21794177269E+04  0.21149537108E+04 0.  0.
        5    1    3    3  502    0 -0.73495430823E+03 -0.17601387842E+03 -0.49913028116E+03  0.90569964566E+03  0.46999998093E+01 0. -1.
       -5    1    3    3    0  502  0.73495430823E+03  0.17601387842E+03  0.10252789570E+04  0.12737180812E+04  0.46999998093E+01 0.  1.
</event>
<event>
 5   0  0.8872777E-05  0.2165260E+04  0.7818609E-02  0.8533028E-01
        2   -1    0    0  501    0  0.00000000000E+00  0.00000000000E+00  0.12856268305E+04  0.12856268305E+04  0.25500000920E-02 0. -1.
       -2   -1    0    0    0  501  0.00000000000E+00  0.00000000000E+00 -0.91168589173E+03  0.91168589173E+03  0.25500000920E-02 0.  1.
    10030    2    1    2    0    0  0.00000000000E+00  0.00000000000E+00  0.37394093878E+03  0.21973127222E+04  0.21652601168E+04 0.  0.
        3    1    3    3  502    0  0.28071774614E+03  0.60941838624E+02 -0.87230680661E+03  0.91838746493E+03  0.10100000352E+00 0.  1.
       -3    1    3    3    0  502 -0.28071774614E+03 -0.60941838624E+02  0.12462477454E+04  0.12789252573E+04  0.10100000352E+00 0. -1.
</event>
<event>
 5   0  0.4182977E-05  0.2101593E+04  0.7818609E-02  0.8560542E-01
        1   -1    0    0  501    0  0.00000000000E+00  0.00000000000E+00  0.18829276947E+04  0.18829276948E+04  0.50400001928E-02 0.  1.
       -1   -1    0    0    0  501  0.00000000000E+00  0.00000000000E+00 -0.58641289980E+03  0.58641289982E+03  0.50400001928E-02 0. -1.
    10030    2    1    2    0    0  0.00000000000E+00  0.00000000000E+00  0.12965147949E+04  0.24693405946E+04  0.21015928146E+04 0.  0.
        1    1    3    3  502    0  0.92537781730E+03  0.15223643435E+03  0.12051967613E+04  0.15270884946E+04  0.50400001928E-02 0.  1.
       -1    1    3    3    0  502 -0.92537781730E+03 -0.15223643435E+03  0.91318033619E+02  0.94225210001E+03  0.50400001928E-02 0. -1.
</event>
<event>
 5   0  0.4128678E-05  0.2098864E+04  0.7818609E-02  0.8561744E-01
       -1   -1    0    0    0  501  0.00000000000E+00  0.00000000000E+00  0.74282775499E+03  0.74282775501E+03  0.50400001928E-02 0. -1.
        1   -1    0    0  501    0  0.00000000000E+00  0.00000000000E+00 -0.14825881061E+04  0.14825881061E+04  0.50400001928E-02 0.  1.
    10030    2    1    2    0    0  0.00000000000E+00  0.00000000000E+00 -0.73976035109E+03  0.22254158611E+04  0.20988640684E+04 0.  0.
        5    1    3    3  502    0  0.75792574167E+03  0.35946765790E+02 -0.11385335563E+04  0.13682194081E+04  0.46999998093E+01 0.  1.
       -5    1    3    3    0  502 -0.75792574167E+03 -0.35946765790E+02  0.39877320521E+03  0.85719645301E+03  0.46999998093E+01 0. -1.
</event>
<event>
 5   0  0.9086985E-05  0.2126036E+04  0.7818609E-02  0.8549860E-01
        2   -1    0    0  501    0  0.00000000000E+00  0.00000000000E+00  0.18362644371E+04  0.18362644371E+04  0.25500000920E-02 0.  1.
       -2   -1    0    0    0  501  0.00000000000E+00  0.00000000000E+00 -0.61538352002E+03  0.61538352003E+03  0.25500000920E-02 0. -1.
    10030    2    1    2    0    0  0.00000000000E+00  0.00000000000E+00  0.12208809171E+04  0.24516479571E+04  0.21260356281E+04 0.  0.
        5    1    3    3  502    0 -0.91194184731E+03 -0.36417041541E+03  0.14099635539E+03  0.99204842955E+03  0.46999998093E+01 0. -1.
       -5    1    3    3    0  502  0.91194184731E+03  0.36417041541E+03  0.10798845617E+04  0.14595995276E+04  0.46999998093E+01 0.  1.
</event>
<event>
 5   0  0.4182977E-05  0.2075838E+04  0.7818609E-02  0.8571962E-01
       -1   -1    0    0    0  501  0.00000000000E+00  0.00000000000E+00  0.37363444001E+03  0.37363444005E+03  0.50400001928E-02 0.  1.
        1   -1    0    0  501    0  0.00000000000E+00  0.00000000000E+00 -0.28832356835E+04  0.28832356835E+04  0.50400001928E-02 0. -1.
    10030    2    1    2    0    0  0.00000000000E+00  0.00000000000E+00 -0.25096012435E+04  0.32568701236E+04  0.20758382886E+04 0.  0.
        1    1    3    3  502    0  0.79697646239E+03  0.50663805446E+03 -0.19303983756E+04  0.21490210535E+04  0.50400001928E-02 0. -1.
       -1    1    3    3    0  502 -0.79697646239E+03 -0.50663805446E+03 -0.57920286789E+03  0.11078490701E+04  0.50400001928E-02 0.  1.
</event>
<event>
 5   0  0.4128678E-05  0.2093576E+04  0.7818609E-02  0.8564078E-01
        1   -1    0    0  501    0  0.00000000000E+00  0.00000000000E+00  0.13713298854E+04  0.13713298855E+04  0.50400001928E-02 0. -1.
       -1   -1    0    0    0  501  0.00000000000E+00  0.00000000000E+00 -0.79905302830E+03  0.79905302832E+03  0.50400001928E-02 0.  1.
    10030    2    1    2    0    0  0.00000000000E+00  0.00000000000E+00  0.57227685714E+03  0.21703829138E+04  0.20935761728E+04 0.  0.
        5    1    3    3  502    0  0.16287787015E+03  0.73891093954E+02  0.13553612534E+04  0.13671193480E+04  0.46999998093E+01 0. -1.
       -5    1    3    3    0  502 -0.16287787015E+03 -0.73891093954E+02 -0.78308439631E+03  0.80326356576E+03  0.46999998093E+01 0.  1.
</event>
<event>
 5   0  0.4174093E-05  0.2093343E+04  0.7818609E-02  0.8564181E-01
        1   -1    0    0  501    0  0.00000000000E+00  0.00000000000E+00  0.89732985122E+03  0.89732985123E+03  0.50400001928E-02 0.  1.
       -1   -1    0    0    0  501  0.00000000000E+00  0.00000000000E+00 -0.12208680077E+04  0.12208680077E+04  0.50400001928E-02 0. -1.
    10030    2    1    2    0    0  0.00000000000E+00  0.00000000000E+00 -0.32353815647E+03  0.21181978589E+04  0.20933430753E+04 0.  0.
        3    1    3    3  502    0  0.70797494788E+03 -0.72926032648E+03 -0.41468101663E+03  0.10977292500E+04  0.10100000352E+00 0. -1.
       -3    1    3    3    0  502 -0.70797494788E+03  0.72926032648E+03  0.91142860167E+02  0.10204686089E+04  0.10100000352E+00 0.  1.
</event>
<event>
 5   0  0.8547605E-05  0.2095113E+04  0.7818609E-02  0.8563399E-01
        2   -1    0    0  501    0  0.00000000000E+00  0.00000000000E+00  0.91553845658E+03  0.91553845658E+03  0.25500000920E-02 0. -1.
       -2   -1    0    0    0  501  0.00000000000E+00  0.00000000000E+00 -0.11986111613E+04  0.11986111613E+04  0.25500000920E-02 0.  1.
    10030    2    1    2    0    0  0.00000000000E+00  0.00000000000E+00 -0.28307270472E+03  0.21141496179E+04  0.20951129923E+04 0.  0.
        4    1    3    3  502    0  0.10103021432E+04  0.14339583031E+03 -0.38054330349E+03  0.10890764911E+04  0.12699999809E+01 0.  1.
       -4    1    3    3    0  502 -0.10103021432E+04 -0.14339583031E+03  0.97470598772E+02  0.10250731268E+04  0.12699999809E+01 0. -1.
</event>
<event>
 5   0  0.4050368E-05  0.2118228E+04  0.7818609E-02  0.8553256E-01
        1   -1    0    0  501    0  0.00000000000E+00  0.00000000000E+00  0.12838523568E+04  0.12838523568E+04  0.50400001928E-02 0. -1.
       -1   -1    0    0    0  501  0.00000000000E+00  0.00000000000E+00 -0.87371637464E+03  0.87371637465E+03  0.50400001928E-02 0.  1.
    10030    2    1    2    0    0  0.00000000000E+00  0.00000000000E+00  0.41013598214E+03  0.21575687314E+04  0.21182283416E+04 0.  0.
        2    1    3    3  502    0  0.13586517781E+01 -0.81729753209E+03 -0.48104894259E+03  0.94835920783E+03  0.25500000920E-02 0.  1.
       -2    1    3    3    0  502 -0.13586517781E+01  0.81729753209E+03  0.89118492473E+03  0.12092095236E+04  0.25500000920E-02 0. -1.
</event>
<event>
 5   0  0.3176125E-05  0.2135344E+04  0.7818609E-02  0.8545832E-01
       -3   -1    0    0    0  501  0.00000000000E+00  0.00000000000E+00  0.96896593333E+03  0.96896593859E+03  0.10100000352E+00 0.  1.
        3   -1    0    0  501    0  0.00000000000E+00  0.00000000000E+00 -0.11764326526E+04  0.11764326569E+04  0.10100000352E+00 0. -1.
    10030    2    1    2    0    0  0.00000000000E+00  0.00000000000E+00 -0.20746671927E+03  0.21453985955E+04  0.21353436946E+04 0.  0.
        4    1    3    3  502    0  0.14657103556E+03  0.59592753187E+03 -0.98152281462E+03  0.11575842692E+04  0.12699999809E+01 0. -1.
       -4    1    3    3    0  502 -0.14657103556E+03 -0.59592753187E+03  0.77405609535E+03  0.98781432636E+03  0.12699999809E+01 0.  1.
</event>
<event>
 5   0  0.8858590E-05  0.1985827E+04  0.7818609E-02  0.8613276E-01
       -2   -1    0    0    0  501  0.00000000000E+00  0.00000000000E+00  0.85873598791E+03  0.85873598791E+03  0.25500000920E-02 0.  1.
        2   -1    0    0  501    0  0.00000000000E+00  0.00000000000E+00 -0.11480565651E+04  0.11480565651E+04  0.25500000920E-02 0. -1.
    10030    2    1    2    0    0  0.00000000000E+00  0.00000000000E+00 -0.28932057716E+03  0.20067925530E+04  0.19858272720E+04 0.  0.
        1    1    3    3  502    0  0.50059299834E+03 -0.38042731357E+03  0.63193138337E+03  0.89143455408E+03  0.50400001928E-02 0.  1.
       -1    1    3    3    0  502 -0.50059299834E+03  0.38042731357E+03 -0.92125196053E+03  0.11153579989E+04  0.50400001928E-02 0. -1.
</event>
<event>
 5   0  0.8547605E-05  0.2108852E+04  0.7818609E-02  0.8557354E-01
        2   -1    0    0  501    0  0.00000000000E+00  0.00000000000E+00  0.14361704281E+04  0.14361704281E+04  0.25500000920E-02 0.  1.
       -2   -1    0    0    0  501  0.00000000000E+00  0.00000000000E+00 -0.77415204081E+03  0.77415204081E+03  0.25500000920E-02 0. -1.
    10030    2    1    2    0    0  0.00000000000E+00  0.00000000000E+00  0.66201838729E+03  0.22103224689E+04  0.21088520743E+04 0.  0.
        4    1    3    3  502    0 -0.86566703191E+03 -0.55490093885E+03  0.57573527002E+03  0.11784596625E+04  0.12699999809E+01 0.  1.
       -4    1    3    3    0  502  0.86566703191E+03  0.55490093885E+03  0.86283117271E+02  0.10318628064E+04  0.12699999809E+01 0. -1.
</event>
<event>
 5   0  0.8547605E-05  0.1990088E+04  0.7818609E-02  0.8611269E-01
       -2   -1    0    0    0  501  0.00000000000E+00  0.00000000000E+00  0.10110648586E+04  0.10110648586E+04  0.25500000920E-02 0.  1.
        2   -1    0    0  501    0  0.00000000000E+00  0.00000000000E+00 -0.97927702198E+03  0.97927702198E+03  0.25500000920E-02 0. -1.
    10030    2    1    2    0    0  0.00000000000E+00  0.00000000000E+00  0.31787836657E+02  0.19903418806E+04  0.19900880220E+04 0.  0.
        4    1    3    3  502    0 -0.46728337213E+02  0.79145051306E+03 -0.58545935570E+03  0.98556670104E+03  0.12699999809E+01 0. -1.
       -4    1    3    3    0  502  0.46728337213E+02 -0.79145051306E+03  0.61724719235E+03  0.10047751796E+04  0.12699999809E+01 0.  1.
</event>
<event>
 5   0  0.9012466E-05  0.2007216E+04  0.7818609E-02  0.8603255E-01
       -2   -1    0    0    0  501  0.00000000000E+00  0.00000000000E+00  0.80797828589E+03  0.80797828590E+03  0.25500000920E-02 0. -1.
        2   -1    0    0  501    0  0.00000000000E+00  0.00000000000E+00 -0.12466035847E+04  0.12466035847E+04  0.25500000920E-02 0.  1.
    10030    2    1    2    0    0  0.00000000000E+00  0.00000000000E+00 -0.43862529881E+03  0.20545818706E+04  0.20072156113E+04 0.  0.
        2    1    3    3  502    0 -0.41792647812E+03  0.57471374568E+03 -0.94474702318E+03  0.11821613123E+04  0.25500000920E-02 0.  1.
       -2    1    3    3    0  502  0.41792647812E+03 -0.57471374568E+03  0.50612172437E+03  0.87242055826E+03  0.25500000920E-02 0. -1.
</event>
<event>
 5   0  0.8872777E-05  0.2101427E+04  0.7818609E-02  0.8560615E-01
       -2   -1    0    0    0  501  0.00000000000E+00  0.00000000000E+00  0.71210393813E+03  0.71210393813E+03  0.25500000920E-02 0. -1.
        2   -1    0    0  501    0  0.00000000000E+00  0.00000000000E+00 -0.15503334358E+04  0.15503334358E+04  0.25500000920E-02 0.  1.
    10030    2    1    2    0    0  0.00000000000E+00  0.00000000000E+00 -0.83822949764E+03  0.22624373739E+04  0.21014267011E+04 0.  0.
        3    1    3    3  502    0 -0.72920414359E+03  0.37990756787E+03 -0.11234002269E+04  0.13921553517E+04  0.10100000352E+00 0.  1.
       -3    1    3    3    0  502  0.72920414359E+03 -0.37990756787E+03  0.28517072929E+03  0.87028202222E+03  0.10100000352E+00 0. -1.
</event>
<event>
 5   0  0.4174093E-05  0.2042244E+04  0.7818609E-02  0.8587121E-01
        1   -1    0    0  501    0  0.00000000000E+00  0.00000000000E+00  0.10543162391E+04  0.10543162391E+04  0.50400001928E-02 0. -1.
       -1   -1    0    0    0  501  0.00000000000E+00  0.00000000000E+00 -0.98897291199E+03  0.98897291201E+03  0.50400001928E-02 0.  1.
    10030    2    1    2    0    0  0.00000000000E+00  0.00000000000E+00  0.65343327138E+02  0.20432891512E+04  0.20422440610E+04 0.  0.
        3    1    3    3  502    0 -0.52396590233E+02 -0.43415274573E+03  0.95588769815E+03  0.10511685455E+04  0.10100000352E+00 0. -1.
       -3    1    3    3    0  502  0.52396590233E+02  0.43415274573E+03 -0.89054437101E+03  0.99212060569E+03  0.10100000352E+00 0.  1.
</event>
<event>
 5   0  0.4200061E-05  0.2081530E+04  0.7818609E-02  0.8569424E-01
        1   -1    0    0  501    0  0.00000000000E+00  0.00000000000E+00  0.16412102607E+04  0.16412102607E+04  0.50400001928E-02 0.  1.
       -1   -1    0    0    0  501  0.00000000000E+00  0.00000000000E+00 -0.65999560182E+03  0.65999560184E+03  0.50400001928E-02 0. -1.
    10030    2    1    2    0    0  0.00000000000E+00  0.00000000000E+00  0.98121465888E+03  0.23012058625E+04  0.20815297776E+04 0.  0.
        4    1    3    3  502    0  0.89418284060E+03  0.25614278818E+03  0.10068083756E+04  0.13707066785E+04  0.12699999809E+01 0.  1.
       -4    1    3    3    0  502 -0.89418284060E+03 -0.25614278818E+03 -0.25593716677E+02  0.93049918409E+03  0.12699999809E+01 0. -1.
</event>
<event>
 5   0  0.8872777E-05  0.2113100E+04  0.7818609E-02  0.8555495E-01
        2   -1    0    0  501    0  0.00000000000E+00  0.00000000000E+00  0.21894113150E+04  0.21894113150E+04  0.25500000920E-02 0. -1.
       -2   -1    0    0    0  501  0.00000000000E+00  0.00000000000E+00 -0.50986208235E+03  0.50986208235E+03  0.25500000920E-02 0.  1.
    10030    2    1    2    0    0  0.00000000000E+00  0.00000000000E+00  0.16795492326E+04  0.26992733973E+04  0.21130999145E+04 0.  0.
        3    1    3    3  502    0  0.72785826108E+03  0.62603947730E+03  0.27627662069E+03  0.99901544367E+03  0.10100000352E+00 0.  1.
       -3    1    3    3    0  502 -0.72785826108E+03 -0.62603947730E+03  0.14032726119E+04  0.17002579536E+04  0.10100000352E+00 0. -1.
</event>
<event>
 5   0  0.9012466E-05  0.2162514E+04  0.7818609E-02  0.8534195E-01
        2   -1    0    0  501    0  0.00000000000E+00  0.00000000000E+00  0.13536915784E+04  0.13536915784E+04  0.25500000920E-02 0.  1.
       -2   -1    0    0    0  501  0.00000000000E+00  0.00000000000E+00 -0.86365040475E+03  0.86365040475E+03  0.25500000920E-02 0. -1.
    10030    2    1    2    0    0  0.00000000000E+00  0.00000000000E+00  0.49004117361E+03  0.22173419831E+04  0.21625136111E+04 0.  0.
        2    1    3    3  502    0 -0.14473477411E+03  0.85603089582E+03  0.90586042909E+03  0.12547191584E+04  0.25500000920E-02 0.  1.
       -2    1    3    3    0  502  0.14473477411E+03 -0.85603089582E+03 -0.41581925549E+03  0.96262282472E+03  0.25500000920E-02 0. -1.
</event>
<event>
 5   0  0.4182977E-05  0.2106523E+04  0.7818609E-02  0.8558375E-01
       -1   -1    0    0    0  501  0.00000000000E+00  0.00000000000E+00  0.11470163554E+04  0.11470163554E+04  0.50400001928E-02 0.  1.
        1   -1    0    0  501    0  0.00000000000E+00  0.00000000000E+00 -0.96716990496E+03  0.96716990497E+03  0.50400001928E-02 0. -1.
    10030    2    1    2    0    0  0.00000000000E+00  0.00000000000E+00  0.17984645040E+03  0.21141862603E+04  0.21065229165E+04 0.  0.
        1    1    3    3  502    0  0.51195368226E+03 -0.68430561113E+03 -0.52793713882E+03  0.10045339042E+04  0.50400001928E-02 0. -1.
       -1    1    3    3    0  502 -0.51195368226E+03  0.68430561113E+03  0.70778358922E+03  0.11096523561E+04  0.50400001928E-02 0.  1.
</event>
<event>
 5   0  0.8858590E-05  0.2086333E+04  0.7818609E-02  0.8567288E-01
        2   -1    0    0  501    0  0.00000000000E+00  0.00000000000E+00  0.19790955723E+04  0.19790955723E+04  0.25500000920E-02 0.  1.
       -2   -1    0    0    0  501  0.00000000000E+00  0.00000000000E+00 -0.54984516802E+03  0.54984516803E+03  0.25500000920E-02 0. -1.
    10030    2    1    2    0    0  0.00000000000E+00  0.00000000000E+00  0.14292504042E+04  0.25289407403E+04  0.20863327994E+04 0.  0.
        1    1    3    3  502    0 -0.76473777593E+03 -0.21369645660E+03  0.15346904639E+04  0.17279365907E+04  0.50400001928E-02 0.  1.
       -1    1    3    3    0  502  0.76473777593E+03  0.21369645660E+03 -0.10544005962E+03  0.80100414961E+03  0.50400001928E-02 0. -1.
</event>
<event>
 5   0  0.4050368E-05  0.1976208E+04  0.7818609E-02  0.8617826E-01
       -1   -1    0    0    0  501  0.00000000000E+00  0.00000000000E+00  0.60164872975E+03  0.60164872977E+03  0.50400001928E-02 0.  1.
        1   -1    0    0  501    0  0.00000000000E+00  0.00000000000E+00 -0.16227896612E+04  0.16227896612E+04  0.50400001928E-02 0. -1.
    10030    2    1    2    0    0  0.00000000000E+00  0.00000000000E+00 -0.10211409315E+04  0.22244383910E+04  0.19762078214E+04 0.  0.
        2    1    3    3  502    0 -0.87797283339E+03 -0.30789413083E+03 -0.88510297658E+03  0.12841504472E+04  0.25500000920E-02 0. -1.
       -2    1    3    3    0  502  0.87797283339E+03  0.30789413083E+03 -0.13603795487E+03  0.94028794374E+03  0.25500000920E-02 0.  1.
</event>
<event>
 5   0  0.9086985E-05  0.2093224E+04  0.7818609E-02  0.8564234E-01
        2   -1    0    0  501    0  0.00000000000E+00  0.00000000000E+00  0.19745123777E+04  0.19745123777E+04  0.25500000920E-02 0.  1.
       -2   -1    0    0    0  501  0.00000000000E+00  0.00000000000E+00 -0.55476794672E+03  0.55476794672E+03  0.25500000920E-02 0. -1.
    10030    2    1    2    0    0  0.00000000000E+00  0.00000000000E+00  0.14197444310E+04  0.25292803244E+04  0.20932235213E+04 0.  0.
        5    1    3    3  502    0 -0.46982664176E+03  0.67207907632E+02 -0.41724987802E+03  0.63196006746E+03  0.46999998093E+01 0. -1.
       -5    1    3    3    0  502  0.46982664176E+03 -0.67207907632E+02  0.18369943090E+04  0.18973202569E+04  0.46999998093E+01 0.  1.
</event>
<event>
 5   0  0.4050368E-05  0.2097323E+04  0.7818609E-02  0.8562424E-01
        1   -1    0    0  501    0  0.00000000000E+00  0.00000000000E+00  0.51805509419E+03  0.51805509422E+03  0.50400001928E-02 0.  1.
       -1   -1    0    0    0  501  0.00000000000E+00  0.00000000000E+00 -0.21227289677E+04  0.21227289677E+04  0.50400001928E-02 0. -1.
    10030    2    1    2    0    0  0.00000000000E+00  0.00000000000E+00 -0.16046738735E+04  0.26407840619E+04  0.20973226317E+04 0.  0.
        2    1    3    3  502    0 -0.56341177965E+02 -0.63216565337E+03 -0.18534453786E+04  0.19590986481E+04  0.25500000920E-02 0. -1.
       -2    1    3    3    0  502  0.56341177965E+02  0.63216565337E+03  0.24877150509E+03  0.68168541380E+03  0.25500000920E-02 0.  1.
</event>
<event>
 5   0  0.4174093E-05  0.2122095E+04  0.7818609E-02  0.8551572E-01
        1   -1    0    0  501    0  0.00000000000E+00  0.00000000000E+00  0.11388744787E+04  0.11388744787E+04  0.50400001928E-02 0. -1.
       -1   -1    0    0    0  501  0.00000000000E+00  0.00000000000E+00 -0.98853866785E+03  0.98853866787E+03  0.50400001928E-02 0.  1.
    10030    2    1    2    0    0  0.00000000000E+00  0.00000000000E+00  0.15033581086E+03  0.21274131466E+04  0.21220946822E+04 0.  0.
        3    1    3    3  502    0  0.48445087568E+03 -0.59917836882E+03 -0.65612179616E+03  0.10120292437E+04  0.10100000352E+00 0.  1.
       -3    1    3    3    0  502 -0.48445087568E+03  0.59917836882E+03  0.80645760701E+03  0.11153839028E+04  0.10100000352E+00 0. -1.
</event>
<event>
 5   0  0.4128678E-05  0.2089359E+04  0.7818609E-02  0.8565945E-01
       -1   -1    0    0    0  501  0.00000000000E+00  0.00000000000E+00  0.11402503214E+04  0.11402503214E+04  0.50400001928E-02 0. -1.
        1   -1    0    0  501    0  0.00000000000E+00  0.00000000000E+00 -0.95711925853E+03  0.95711925854E+03  0.50400001928E-02 0.  1.
    10030    2    1    2    0    0  0.00000000000E+00  0.00000000000E+00  0.18313106286E+03  0.20973695799E+04  0.20893592723E+04 0.  0.
        5    1    3    3  502    0  0.79558242104E+03  0.45559177181E+03  0.59430312755E+03  0.10925811405E+04  0.46999998093E+01 0. -1.
       -5    1    3    3    0  502 -0.79558242104E+03 -0.45559177181E+03 -0.41117206470E+03  0.10047884394E+04  0.46999998093E+01 0.  1.
</event>
<event>
 5   0  0.8858590E-05  0.2129621E+04  0.7818609E-02  0.8548306E-01
       -2   -1    0    0    0  501  0.00000000000E+00  0.00000000000E+00  0.90411083128E+03  0.90411083129E+03  0.25500000920E-02 0. -1.
        2   -1    0    0  501    0  0.00000000000E+00  0.00000000000E+00 -0.12540728959E+04  0.12540728959E+04  0.25500000920E-02 0.  1.
    10030    2    1    2    0    0  0.00000000000E+00  0.00000000000E+00 -0.34996206459E+03  0.21581837272E+04  0.21296205187E+04 0.  0.
        1    1    3    3  502    0  0.13826956165E+03 -0.44372010666E+03  0.79589490877E+03  0.92165867357E+03  0.50400001928E-02 0. -1.
       -1    1    3    3    0  502 -0.13826956165E+03  0.44372010666E+03 -0.11458569734E+04  0.12365250536E+04  0.50400001928E-02 0.  1.
</event>
<event>
 5   0  0.4174093E-05  0.2096696E+04  0.7818609E-02  0.8562700E-01
        1   -1    0    0  501    0  0.00000000000E+00  0.00000000000E+00  0.98376605897E+03  0.98376605898E+03  0.50400001928E-02 0.  1.
       -1   -1    0    0    0  501  0.00000000000E+00  0.00000000000E+00 -0.11171696963E+04  0.11171696963E+04  0.50400001928E-02 0. -1.
    10030    2    1    2    0    0  0.00000000000E+00  0.00000000000E+00 -0.13340363736E+03  0.21009357553E+04  0.20966960957E+04 0.  0.
        3    1    3    3  502    0 -0.11691965585E+03 -0.62672807015E+03  0.76719208248E+03  0.99751791034E+03  0.10100000352E+00 0. -1.
       -3    1    3    3    0  502  0.11691965585E+03  0.62672807015E+03 -0.90059571983E+03  0.11034178450E+04  0.10100000352E+00 0.  1.
</event>
<event>
 5   0  0.9012466E-05  0.2013259E+04  0.7818609E-02  0.8600447E-01
       -2   -1    0    0    0  501  0.00000000000E+00  0.00000000000E+00  0.56447150785E+03  0.56447150785E+03  0.25500000920E-02 0. -1.
        2   -1    0    0  501    0  0.00000000000E+00  0.00000000000E+00 -0.17951357076E+04  0.17951357076E+04  0.25500000920E-02 0.  1.
    10030    2    1    2    0    0  0.00000000000E+00  0.00000000000E+00 -0.12306641998E+04  0.23596072155E+04  0.20132590094E+04 0.  0.
        2    1    3    3  502    0  0.66835005882E+03  0.46860081404E+03  0.75098597809E+02  0.81970624217E+03  0.25500000920E-02 0. -1.
       -2    1    3    3    0  502 -0.66835005882E+03 -0.46860081404E+03 -0.13057627976E+04  0.15399009733E+04  0.25500000920E-02 0.  1.
</event>
<event>
 5   0  0.4200061E-05  0.2098348E+04  0.7818609E-02  0.8561972E-01
        1   -1    0    0  501    0  0.00000000000E+00  0.00000000000E+00  0.23571361037E+04  0.23571361037E+04  0.50400001928E-02 0. -1.
       -1   -1    0    0    0  501  0.00000000000E+00  0.00000000000E+00 -0.46699281869E+03  0.46699281872E+03  0.50400001928E-02 0.  1.
    10030    2    1    2    0    0  0.00000000000E+00  0.00000000000E+00  0.18901432850E+04  0.28241289224E+04  0.20983475719E+04 0.  0.
        4    1    3    3  502    0 -0.44139439226E+03 -0.88452319031E+03  0.47199115703E+03  0.10954394319E+04  0.12699999809E+01 0.  1.
       -4    1    3    3    0  502  0.44139439226E+03  0.88452319031E+03  0.14181521280E+04  0.17286894905E+04  0.12699999809E+01 0. -1.
</event>
<event>
 5   0  0.4128678E-05  0.2101259E+04  0.7818609E-02  0.8560689E-01
       -1   -1    0    0    0  501  0.00000000000E+00  0.00000000000E+00  0.91225524246E+03  0.91225524247E+03  0.50400001928E-02 0.  1.
        1   -1    0    0  501    0  0.00000000000E+00  0.00000000000E+00 -0.12099925784E+04  0.12099925784E+04  0.50400001928E-02 0. -1.
    10030    2    1    2    0    0  0.00000000000E+00  0.00000000000E+00 -0.29773733598E+03  0.21222478209E+04  0.21012587399E+04 0.  0.
        5    1    3    3  502    0  0.28359980766E+03 -0.48687352787E+03  0.74673876260E+03  0.93547611012E+03  0.46999998093E+01 0.  1.
       -5    1    3    3    0  502 -0.28359980766E+03  0.48687352787E+03 -0.10444760986E+04  0.11867717108E+04  0.46999998093E+01 0. -1.
</event>
<event>
 5   0  0.9086985E-05  0.2104557E+04  0.7818609E-02  0.8559239E-01
       -2   -1    0    0    0  501  0.00000000000E+00  0.00000000000E+00  0.66567169945E+03  0.66567169946E+03  0.25500000920E-02 0. -1.
        2   -1    0    0  501    0  0.00000000000E+00  0.00000000000E+00 -0.16634175992E+04  0.16634175992E+04  0.25500000920E-02 0.  1.
    10030    2    1    2    0    0  0.00000000000E+00  0.00000000000E+00 -0.99774589976E+03  0.23290892987E+04  0.21045569797E+04 0.  0.
        5    1    3    3  502    0  0.65188616085E+03 -0.74128217097E+03 -0.95556515632E+02  0.99177011519E+03  0.46999998093E+01 0. -1.
       -5    1    3    3    0  502 -0.65188616085E+03  0.74128217097E+03 -0.90218938413E+03  0.13373191835E+04  0.46999998093E+01 0.  1.
</event>
<event>
 5   0  0.4128678E-05  0.2105231E+04  0.7818609E-02  0.8558943E-01
        1   -1    0    0  501    0  0.00000000000E+00  0.00000000000E+00  0.10732108420E+04  0.10732108420E+04  0.50400001928E-02 0. -1.
       -1   -1    0    0    0  501  0.00000000000E+00  0.00000000000E+00 -0.10324150058E+04  0.10324150058E+04  0.50400001928E-02 0.  1.
    10030    2    1    2    0    0  0.00000000000E+00  0.00000000000E+00  0.40795836144E+02  0.21056258478E+04  0.21052306075E+04 0.  0.
        5    1    3    3  502    0 -0.60973776704E+03  0.49726598273E+02 -0.83633981082E+03  0.10362139008E+04  0.46999998093E+01 0.  1.
       -5    1    3    3    0  502  0.60973776704E+03 -0.49726598273E+02  0.87713564697E+03  0.10694119470E+04  0.46999998093E+01 0. -1.
</event>
<event>
 5   0  0.4050368E-05  0.2079613E+04  0.7818609E-02  0.8570278E-01
        1   -1    0    0  501    0  0.00000000000E+00  0.00000000000E+00  0.12005441228E+04  0.12005441228E+04  0.50400001928E-02 0.  1.
       -1   -1    0    0    0  501  0.00000000000E+00  0.00000000000E+00 -0.90058943041E+03  0.90058943042E+03  0.50400001928E-02 0. -1.
    10030    2    1    2    0    0  0.00000000000E+00  0.00000000000E+00  0.29995469239E+03  0.21011335532E+04  0.20796127983E+04 0.  0.
        2    1    3    3  502    0  0.73147922834E+03 -0.66489542262E+03  0.47588255928E+03  0.10970925188E+04  0.25500000920E-02 0. -1.
       -2    1    3    3    0  502 -0.73147922834E+03  0.66489542262E+03 -0.17592786689E+03  0.10040410345E+04  0.25500000920E-02 0.  1.
</event>
<event>
 5   0  0.8858590E-05  0.2081187E+04  0.7818609E-02  0.8569576E-01
       -2   -1    0    0    0  501  0.00000000000E+00  0.00000000000E+00  0.68592239148E+03  0.68592239148E+03  0.25500000920E-02 0. -1.
        2   -1    0    0  501    0  0.00000000000E+00  0.00000000000E+00 -0.15786551195E+04  0.15786551195E+04  0.25500000920E-02 0.  1.
    10030    2    1    2    0    0  0.00000000000E+00  0.00000000000E+00 -0.89273272804E+03  0.22645775110E+04  0.20811870602E+04 0.  0.
        1    1    3    3  502    0 -0.46269916091E+03 -0.89678951393E+03 -0.72274185090E+03  0.12412403993E+04  0.50400001928E-02 0. -1.
       -1    1    3    3    0  502  0.46269916091E+03  0.89678951393E+03 -0.16999087714E+03  0.10233371117E+04  0.50400001928E-02 0.  1.
</event>
<event>
 5   0  0.4200061E-05  0.2060825E+04  0.7818609E-02  0.8578699E-01
       -1   -1    0    0    0  501  0.00000000000E+00  0.00000000000E+00  0.14530839975E+04  0.14530839976E+04  0.50400001928E-02 0. -1.
        1   -1    0    0  501    0  0.00000000000E+00  0.00000000000E+00 -0.73068726598E+03  0.73068726599E+03  0.50400001928E-02 0.  1.
    10030    2    1    2    0    0  0.00000000000E+00  0.00000000000E+00  0.72239673157E+03  0.21837712635E+04  0.20608250517E+04 0.  0.
        4    1    3    3  502    0  0.20397938590E+03  0.64049548625E+03  0.11887547290E+04  0.13656432464E+04  0.12699999809E+01 0. -1.
       -4    1    3    3    0  502 -0.20397938590E+03 -0.64049548625E+03 -0.46635799744E+03  0.81812801716E+03  0.12699999809E+01 0.  1.
</event>
<event>
 5   0  0.8858590E-05  0.2104994E+04  0.7818609E-02  0.8559047E-01
        2   -1    0    0  501    0  0.00000000000E+00  0.00000000000E+00  0.29481474360E+04  0.29481474360E+04  0.25500000920E-02 0. -1.
       -2   -1    0    0    0  501  0.00000000000E+00  0.00000000000E+00 -0.37574428723E+03  0.37574428724E+03  0.25500000920E-02 0.  1.
    10030    2    1    2    0    0  0.00000000000E+00  0.00000000000E+00  0.25724031488E+04  0.33238917233E+04  0.21049936409E+04 0.  0.
        1    1    3    3  502    0  0.65779771194E+02  0.89124363373E+03  0.40829003862E+03  0.98251867597E+03  0.50400001928E-02 0.  1.
       -1    1    3    3    0  502 -0.65779771194E+02 -0.89124363373E+03  0.21641131102E+04  0.23413730473E+04  0.50400001928E-02 0. -1.
</event>
<event>
 5   0  0.8858590E-05  0.2089572E+04  0.7818609E-02  0.8565851E-01
        2   -1    0    0  501    0  0.00000000000E+00  0.00000000000E+00  0.71314501033E+03  0.71314501034E+03  0.25500000920E-02 0. -1.
       -2   -1    0    0    0  501  0.00000000000E+00  0.00000000000E+00 -0.15306534602E+04  0.15306534602E+04  0.25500000920E-02 0.  1.
    10030    2    1    2    0    0  0.00000000000E+00  0.00000000000E+00 -0.81750844985E+03  0.22437984705E+04  0.20895720880E+04 0.  0.
        1    1    3    3  502    0 -0.94498566976E+03 -0.12874983528E+03 -0.86686055126E+03  0.12888062894E+04  0.50400001928E-02 0.  1.
       -1    1    3    3    0  502  0.94498566976E+03  0.12874983528E+03  0.49352101410E+02  0.95499218116E+03  0.50400001928E-02 0. -1.
</event>
<event>
 5   0  0.4200061E-05  0.2108863E+04  0.7818609E-02  0.8557349E-01
        1   -1    0    0  501    0  0.00000000000E+00  0.00000000000E+00  0.10198002950E+04  0.10198002950E+04  0.50400001928E-02 0.  1.
       -1   -1    0    0    0  501  0.00000000000E+00  0.00000000000E+00 -0.10902382716E+04  0.10902382716E+04  0.50400001928E-02 0. -1.
    10030    2    1    2    0    0  0.00000000000E+00  0.00000000000E+00 -0.70437976609E+02  0.21100385666E+04  0.21088625474E+04 0.  0.
        4    1    3    3  502    0 -0.10249559657E+04  0.52314735680E+01  0.21242984150E+03  0.10467521915E+04  0.12699999809E+01 0.  1.
       -4    1    3    3    0  502  0.10249559657E+04 -0.52314735680E+01 -0.28286781811E+03  0.10632863751E+04  0.12699999809E+01 0. -1.
</event>
<event>
 5   0  0.4174093E-05  0.2103465E+04  0.7818609E-02  0.8559718E-01
        1   -1    0    0  501    0  0.00000000000E+00  0.00000000000E+00  0.16924391374E+04  0.16924391375E+04  0.50400001928E-02 0. -1.
       -1   -1    0    0    0  501  0.00000000000E+00  0.00000000000E+00 -0.65357840234E+03  0.65357840236E+03  0.50400001928E-02 0.  1.
    10030    2    1    2    0    0  0.00000000000E+00  0.00000000000E+00  0.10388607351E+04  0.23460175398E+04  0.21034653955E+04 0.  0.
        3    1    3    3  502    0  0.42643105292E+03  0.53623358020E+03  0.14094118298E+04  0.15671093171E+04  0.10100000352E+00 0. -1.
       -3    1    3    3    0  502 -0.42643105292E+03 -0.53623358020E+03 -0.37055109473E+03  0.77890822273E+03  0.10100000352E+00 0.  1.
</event>
<event>
 5   0  0.8547605E-05  0.2096479E+04  0.7818609E-02  0.8562796E-01
       -2   -1    0    0    0  501  0.00000000000E+00  0.00000000000E+00  0.74841845000E+03  0.74841845001E+03  0.25500000920E-02 0.  1.
        2   -1    0    0  501    0  0.00000000000E+00  0.00000000000E+00 -0.14681709310E+04  0.14681709310E+04  0.25500000920E-02 0. -1.
    10030    2    1    2    0    0  0.00000000000E+00  0.00000000000E+00 -0.71975248103E+03  0.22165893810E+04  0.20964791557E+04 0.  0.
        4    1    3    3  502    0 -0.26741367932E+03  0.30160787406E+03  0.66320123383E+03  0.77608947618E+03  0.12699999809E+01 0.  1.
       -4    1    3    3    0  502  0.26741367932E+03 -0.30160787406E+03 -0.13829537149E+04  0.14404999049E+04  0.12699999809E+01 0. -1.
</event>
<event>
 5   0  0.4200061E-05  0.2171313E+04  0.7818609E-02  0.8530464E-01
       -1   -1    0    0    0  501  0.00000000000E+00  0.00000000000E+00  0.93633348425E+03  0.93633348427E+03  0.50400001928E-02 0.  1.
        1   -1    0    0  501    0  0.00000000000E+00  0.00000000000E+00 -0.12587927856E+04  0.12587927856E+04  0.50400001928E-02 0. -1.
    10030    2    1    2    0    0  0.00000000000E+00  0.00000000000E+00 -0.32245930135E+03  0.21951262699E+04  0.21713128148E+04 0.  0.
        4    1    3    3  502    0 -0.81471567738E+03 -0.67509870660E+02  0.56097825420E+03  0.99147235573E+03  0.12699999809E+01 0.  1.
       -4    1    3    3    0  502  0.81471567738E+03  0.67509870660E+02 -0.88343755555E+03  0.12036539142E+04  0.12699999809E+01 0. -1.
</event>
<event>
 5   0  0.4182977E-05  0.2076354E+04  0.7818609E-02  0.8571732E-01
       -1   -1    0    0    0  501  0.00000000000E+00  0.00000000000E+00  0.10650638102E+04  0.10650638102E+04  0.50400001928E-02 0. -1.
        1   -1    0    0  501    0  0.00000000000E+00  0.00000000000E+00 -0.10119684736E+04  0.10119684736E+04  0.50400001928E-02 0.  1.
    10030    2    1    2    0    0  0.00000000000E+00  0.00000000000E+00  0.53095336595E+02  0.20770322839E+04  0.20763535329E+04 0.  0.
        1    1    3    3  502    0  0.40970672198E+02  0.20044513723E+03  0.10446987170E+04  0.10645432158E+04  0.50400001928E-02 0. -1.
       -1    1    3    3    0  502 -0.40970672198E+02 -0.20044513723E+03 -0.99160338036E+03  0.10124890681E+04  0.50400001928E-02 0.  1.
</event>
<event>
 5   0  0.4128678E-05  0.2022498E+04  0.7818609E-02  0.8596174E-01
       -1   -1    0    0    0  501  0.00000000000E+00  0.00000000000E+00  0.31996982228E+03  0.31996982232E+03  0.50400001928E-02 0.  1.
        1   -1    0    0  501    0  0.00000000000E+00  0.00000000000E+00 -0.31960015359E+04  0.31960015359E+04  0.50400001928E-02 0. -1.
    10030    2    1    2    0    0  0.00000000000E+00  0.00000000000E+00 -0.28760317136E+04  0.35159713582E+04  0.20224975090E+04 0.  0.
        5    1    3    3  502    0  0.32937356978E+03  0.79696745568E+03 -0.51983834903E+03  0.10069250583E+04  0.46999998093E+01 0.  1.
       -5    1    3    3    0  502 -0.32937356978E+03 -0.79696745568E+03 -0.23561933645E+04  0.25090462999E+04  0.46999998093E+01 0. -1.
</event>
<event>
 5   0  0.8547605E-05  0.2097063E+04  0.7818609E-02  0.8562538E-01
        2   -1    0    0  501    0  0.00000000000E+00  0.00000000000E+00  0.14963786118E+04  0.14963786118E+04  0.25500000920E-02 0. -1.
       -2   -1    0    0    0  501  0.00000000000E+00  0.00000000000E+00 -0.73471919515E+03  0.73471919516E+03  0.25500000920E-02 0.  1.
    10030    2    1    2    0    0  0.00000000000E+00  0.00000000000E+00  0.76165941666E+03  0.22310978070E+04  0.20970627929E+04 0.  0.
        4    1    3    3  502    0  0.78594673541E+03 -0.35861225806E+02 -0.35659365061E+03  0.86380492182E+03  0.12699999809E+01 0.  1.
       -4    1    3    3    0  502 -0.78594673541E+03  0.35861225806E+02  0.11182530673E+04  0.13672928851E+04  0.12699999809E+01 0. -1.
</event>
<event>
 5   0  0.9012466E-05  0.2086533E+04  0.7818609E-02  0.8567199E-01
        2   -1    0    0  501    0  0.00000000000E+00  0.00000000000E+00  0.15209527007E+04  0.15209527007E+04  0.25500000920E-02 0.  1.
       -2   -1    0    0    0  501  0.00000000000E+00  0.00000000000E+00 -0.71560727664E+03  0.71560727665E+03  0.25500000920E-02 0. -1.
    10030    2    1    2    0    0  0.00000000000E+00  0.00000000000E+00  0.80534542409E+03  0.22365599774E+04  0.20865328371E+04 0.  0.
        2    1    3    3  502    0  0.99848647704E+02 -0.90011419844E+03  0.95782047372E+03  0.13181788128E+04  0.25500000920E-02 0.  1.
       -2    1    3    3    0  502 -0.99848647704E+02  0.90011419844E+03 -0.15247504963E+03  0.91838116457E+03  0.25500000920E-02 0. -1.
</event>
<event>
 5   0  0.4128678E-05  0.2081301E+04  0.7818609E-02  0.8569525E-01
       -1   -1    0    0    0  501  0.00000000000E+00  0.00000000000E+00  0.45203867552E+03  0.45203867555E+03  0.50400001928E-02 0.  1.
        1   -1    0    0  501    0  0.00000000000E+00  0.00000000000E+00 -0.23957107471E+04  0.23957107471E+04  0.50400001928E-02 0. -1.
    10030    2    1    2    0    0  0.00000000000E+00  0.00000000000E+00 -0.19436720716E+04  0.28477494227E+04  0.20813014324E+04 0.  0.
        5    1    3    3  502    0  0.84357475924E+03  0.59769698342E+03 -0.11341444638E+04  0.15346549492E+04  0.46999998093E+01 0. -1.
       -5    1    3    3    0  502 -0.84357475924E+03 -0.59769698342E+03 -0.80952760778E+03  0.13130944734E+04  0.46999998093E+01 0.  1.
</event>
<event>
 5   0  0.4182977E-05  0.2102254E+04  0.7818609E-02  0.8560251E-01
        1   -1    0    0  501    0  0.00000000000E+00  0.00000000000E+00  0.75623634678E+03  0.75623634680E+03  0.50400001928E-02 0. -1.
       -1   -1    0    0    0  501  0.00000000000E+00  0.00000000000E+00 -0.14610083205E+04  0.14610083205E+04  0.50400001928E-02 0.  1.
    10030    2    1    2    0    0  0.00000000000E+00  0.00000000000E+00 -0.70477197374E+03  0.22172446673E+04  0.21022536431E+04 0.  0.
        1    1    3    3  502    0 -0.67135678178E+03 -0.49067858541E+03 -0.10305026049E+04  0.13241680487E+04  0.50400001928E-02 0.  1.
       -1    1    3    3    0  502  0.67135678178E+03  0.49067858541E+03  0.32573063112E+03  0.89307661860E+03  0.50400001928E-02 0. -1.
</event>
<event>
 5   0  0.8872777E-05  0.2112158E+04  0.7818609E-02  0.8555906E-01
       -2   -1    0    0    0  501  0.00000000000E+00  0.00000000000E+00  0.56944769326E+03  0.56944769327E+03  0.25500000920E-02 0. -1.
        2   -1    0    0  501    0  0.00000000000E+00  0.00000000000E+00 -0.19585703056E+04  0.19585703056E+04  0.25500000920E-02 0.  1.
    10030    2    1    2    0    0  0.00000000000E+00  0.00000000000E+00 -0.13891226123E+04  0.25280179988E+04  0.21121584624E+04 0.  0.
        3    1    3    3  502    0  0.12866051387E+03  0.95781078806E+03 -0.18486626643E+03  0.98393626837E+03  0.10100000352E+00 0. -1.
       -3    1    3    3    0  502 -0.12866051387E+03 -0.95781078806E+03 -0.12042563459E+04  0.15440817305E+04  0.10100000352E+00 0.  1.
</event>
<event>
 5   0  0.8547605E-05  0.2112714E+04  0.7818609E-02  0.8555663E-01
        2   -1    0    0  501    0  0.00000000000E+00  0.00000000000E+00  0.12413921308E+04  0.12413921308E+04  0.25500000920E-02 0.  1.
       -2   -1    0    0    0  501  0.00000000000E+00  0.00000000000E+00 -0.89890242520E+03  0.89890242520E+03  0.25500000920E-02 0. -1.
    10030    2    1    2    0    0  0.00000000000E+00  0.00000000000E+00  0.34248970559E+03  0.21402945560E+04  0.21127142703E+04 0.  0.
        4    1    3    3  502    0 -0.41750035735E+03  0.18898924928E+03  0.11354392263E+04  0.12244375584E+04  0.12699999809E+01 0.  1.
       -4    1    3    3    0  502  0.41750035735E+03 -0.18898924928E+03 -0.79294952075E+03  0.91585699762E+03  0.12699999809E+01 0. -1.
</event>
<event>
 5   0  0.8547605E-05  0.2071342E+04  0.7818609E-02  0.8573973E-01
       -2   -1    0    0    0  501  0.00000000000E+00  0.00000000000E+00  0.10001016739E+04  0.10001016739E+04  0.25500000920E-02 0.  1.
        2   -1    0    0  501    0  0.00000000000E+00  0.00000000000E+00 -0.10725058785E+04  0.10725058785E+04  0.25500000920E-02 0. -1.
    10030    2    1    2    0    0  0.00000000000E+00  0.00000000000E+00 -0.72404204560E+02  0.20726075524E+04  0.20713424867E+04 0.  0.
        4    1    3    3  502    0 -0.15852201163E+03 -0.97794751239E+03  0.26581455560E+03  0.10257531653E+04  0.12699999809E+01 0.  1.
       -4    1    3    3    0  502  0.15852201163E+03  0.97794751239E+03 -0.33821876016E+03  0.10468543871E+04  0.12699999809E+01 0. -1.
</event>
<event>
 5   0  0.4174093E-05  0.2132047E+04  0.7818609E-02  0.8547256E-01
        1   -1    0    0  501    0  0.00000000000E+00  0.00000000000E+00  0.60680532807E+03  0.60680532809E+03  0.50400001928E-02 0. -1.
       -1   -1    0    0    0  501  0.00000000000E+00  0.00000000000E+00 -0.18727694369E+04  0.18727694369E+04  0.50400001928E-02 0.  1.
    10030    2    1    2    0    0  0.00000000000E+00  0.00000000000E+00 -0.12659641089E+04  0.24795747650E+04  0.21320473471E+04 0.  0.
        3    1    3    3  502    0 -0.34884581406E+03  0.86375625557E+03 -0.30194550967E+02  0.93203003822E+03  0.10100000352E+00 0. -1.
       -3    1    3    3    0  502  0.34884581406E+03 -0.86375625557E+03 -0.12357695579E+04  0.15475447268E+04  0.10100000352E+00 0.  1.
</event>
<event>
 5   0  0.4174093E-05  0.2085114E+04  0.7818609E-02  0.8567829E-01
        1   -1    0    0  501    0  0.00000000000E+00  0.00000000000E+00  0.11960072217E+04  0.11960072217E+04  0.50400001928E-02 0. -1.
       -1   -1    0    0    0  501  0.00000000000E+00  0.00000000000E+00 -0.90879518786E+03  0.90879518788E+03  0.50400001928E-02 0.  1.
    10030    2    1    2    0    0  0.00000000000E+00  0.00000000000E+00  0.28721203379E+03  0.21048024095E+04  0.20851144887E+04 0.  0.
        3    1    3    3  502    0 -0.97682428165E+03  0.21955031836E+03  0.43710481478E+03  0.10924507535E+04  0.10100000352E+00 0. -1.
       -3    1    3    3    0  502  0.97682428165E+03 -0.21955031836E+03 -0.14989278099E+03  0.10123516560E+04  0.10100000352E+00 0.  1.
</event>
<event>
 5   0  0.4182977E-05  0.2100948E+04  0.7818609E-02  0.8560826E-01
        1   -1    0    0  501    0  0.00000000000E+00  0.00000000000E+00  0.19648400910E+04  0.19648400910E+04  0.50400001928E-02 0.  1.
       -1   -1    0    0    0  501  0.00000000000E+00  0.00000000000E+00 -0.56162113451E+03  0.56162113453E+03  0.50400001928E-02 0. -1.
    10030    2    1    2    0    0  0.00000000000E+00  0.00000000000E+00  0.14032189565E+04  0.25264612255E+04  0.21009480918E+04 0.  0.
        1    1    3    3  502    0  0.28890417256E+03  0.30290876821E+03 -0.45699703214E+03  0.61973028826E+03  0.50400001928E-02 0. -1.
       -1    1    3    3    0  502 -0.28890417256E+03 -0.30290876821E+03  0.18602159886E+04  0.19067309373E+04  0.50400001928E-02 0.  1.
</event>
<event>
 5   0  0.4050368E-05  0.2060777E+04  0.7818609E-02  0.8578721E-01
       -1   -1    0    0    0  501  0.00000000000E+00  0.00000000000E+00  0.57403435311E+03  0.57403435314E+03  0.50400001928E-02 0. -1.
        1   -1    0    0  501    0  0.00000000000E+00  0.00000000000E+00 -0.18495415979E+04  0.18495415979E+04  0.50400001928E-02 0.  1.
    10030    2    1    2    0    0  0.00000000000E+00  0.00000000000E+00 -0.12755072448E+04  0.24235759510E+04  0.20607769552E+04 0.  0.
        2    1    3    3  502    0  0.73765482066E+03 -0.38500736818E+03  0.76966386790E+02  0.83563696226E+03  0.25500000920E-02 0. -1.
       -2    1    3    3    0  502 -0.73765482066E+03  0.38500736818E+03 -0.13524736316E+04  0.15879389888E+04  0.25500000920E-02 0.  1.
</event>
<event>
 5   0  0.8872777E-05  0.2117494E+04  0.7818609E-02  0.8553576E-01
        2   -1    0    0  501    0  0.00000000000E+00  0.00000000000E+00  0.25334247982E+04  0.25334247982E+04  0.25500000920E-02 0. -1.
       -2   -1    0    0    0  501  0.00000000000E+00  0.00000000000E+00 -0.44246250204E+03  0.44246250205E+03  0.25500000920E-02 0.  1.
    10030    2    1    2    0    0  0.00000000000E+00  0.00000000000E+00  0.20909622962E+04  0.29758873003E+04  0.21174942503E+04 0.  0.
        3    1    3    3  502    0  0.16474688706E+03 -0.39338292848E+02  0.25142604529E+04  0.25199592602E+04  0.10100000352E+00 0. -1.
       -3    1    3    3    0  502 -0.16474688706E+03  0.39338292848E+02 -0.42329815667E+03  0.45592804007E+03  0.10100000352E+00 0.  1.
</event>
<event>
 5   0  0.8872777E-05  0.2109697E+04  0.7818609E-02  0.8556984E-01
       -2   -1    0    0    0  501  0.00000000000E+00  0.00000000000E+00  0.76020760289E+03  0.76020760290E+03  0.25500000920E-02 0.  1.
        2   -1    0    0  501    0  0.00000000000E+00  0.00000000000E+00 -0.14636855909E+04  0.14636855909E+04  0.25500000920E-02 0. -1.
    10030    2    1    2    0    0  0.00000000000E+00  0.00000000000E+00 -0.70347798805E+03  0.22238931938E+04  0.21096965796E+04 0.  0.
        3    1    3    3  502    0 -0.44119416627E+03 -0.94610955087E+03 -0.51135983932E+03  0.11624390178E+04  0.10100000352E+00 0. -1.
       -3    1    3    3    0  502  0.44119416627E+03  0.94610955087E+03 -0.19211814873E+03  0.10614541761E+04  0.10100000352E+00 0.  1.
</event>
<event>
 5   0  0.4174093E-05  0.2104536E+04  0.7818609E-02  0.8559248E-01
       -1   -1    0    0    0  501  0.00000000000E+00  0.00000000000E+00  0.10613514748E+04  0.10613514748E+04  0.50400001928E-02 0.  1.
        1   -1    0    0  501    0  0.00000000000E+00  0.00000000000E+00 -0.10432626240E+04  0.10432626240E+04  0.50400001928E-02 0. -1.
    10030    2    1    2    0    0  0.00000000000E+00  0.00000000000E+00  0.18088850867E+02  0.21046140988E+04  0.21045363619E+04 0.  0.
        3    1    3    3  502    0  0.61714957259E+03  0.82646303766E+03 -0.19917845917E+03  0.10505174041E+04  0.10100000352E+00 0.  1.
       -3    1    3    3    0  502 -0.61714957259E+03 -0.82646303766E+03  0.21726731003E+03  0.10540966947E+04  0.10100000352E+00 0. -1.
</event>
<event>
 5   0  0.9012466E-05  0.2146743E+04  0.7818609E-02  0.8540927E-01
        2   -1    0    0  501    0  0.00000000000E+00  0.00000000000E+00  0.20468383083E+04  0.20468383083E+04  0.25500000920E-02 0.  1.
       -2   -1    0    0    0  501  0.00000000000E+00  0.00000000000E+00 -0.56288124935E+03  0.56288124936E+03  0.25500000920E-02 0. -1.
    10030    2    1    2    0    0  0.00000000000E+00  0.00000000000E+00  0.14839570589E+04  0.26097195577E+04  0.21467434912E+04 0.  0.
        2    1    3    3  502    0  0.41882264210E+03 -0.67875384493E+00  0.19434055642E+04  0.19880236551E+04  0.25500000920E-02 0.  1.
       -2    1    3    3    0  502 -0.41882264210E+03  0.67875384493E+00 -0.45944850528E+03  0.62169590255E+03  0.25500000920E-02 0. -1.
</event>
<event>
 5   0  0.8858590E-05  0.2167802E+04  0.7818609E-02  0.8531951E-01
       -2   -1    0    0    0  501  0.00000000000E+00  0.00000000000E+00  0.14006053899E+04  0.14006053899E+04  0.25500000920E-02 0. -1.
        2   -1    0    0  501    0  0.00000000000E+00  0.00000000000E+00 -0.83880933848E+03  0.83880933848E+03  0.25500000920E-02 0.  1.
    10030    2    1    2    0    0  0.00000000000E+00  0.00000000000E+00  0.56179605147E+03  0.22394147284E+04  0.21678015413E+04 0.  0.
        1    1    3    3  502    0  0.40898158040E+03  0.91274650379E+03  0.71239112618E+03  0.12279548974E+04  0.50400001928E-02 0. -1.
       -1    1    3    3    0  502 -0.40898158040E+03 -0.91274650379E+03 -0.15059507471E+03  0.10114598311E+04  0.50400001928E-02 0.  1.
</event>
<event>
 5   0  0.8547605E-05  0.2171493E+04  0.7818609E-02  0.8530388E-01
        2   -1    0    0  501    0  0.00000000000E+00  0.00000000000E+00  0.13949609344E+04  0.13949609344E+04  0.25500000920E-02 0. -1.
       -2   -1    0    0    0  501  0.00000000000E+00  0.00000000000E+00 -0.84507397562E+03  0.84507397563E+03  0.25500000920E-02 0.  1.
    10030    2    1    2    0    0  0.00000000000E+00  0.00000000000E+00  0.54988695879E+03  0.22400349100E+04  0.21714927425E+04 0.  0.
        4    1    3    3  502    0  0.98082275186E+03 -0.44751091486E+03  0.40770820129E+03  0.11526087280E+04  0.12699999809E+01 0. -1.
       -4    1    3    3    0  502 -0.98082275186E+03  0.44751091486E+03  0.14217875750E+03  0.10874261821E+04  0.12699999809E+01 0.  1.
</event>
<event>
 5   0  0.4128678E-05  0.2101177E+04  0.7818609E-02  0.8560725E-01
        1   -1    0    0  501    0  0.00000000000E+00  0.00000000000E+00  0.15515742514E+04  0.15515742514E+04  0.50400001928E-02 0.  1.
       -1   -1    0    0    0  501  0.00000000000E+00  0.00000000000E+00 -0.71136526594E+03  0.71136526596E+03  0.50400001928E-02 0. -1.
    10030    2    1    2    0    0  0.00000000000E+00  0.00000000000E+00  0.84020898543E+03  0.22629395173E+04  0.21011768417E+04 0.  0.
        5    1    3    3  502    0  0.52097125459E+03 -0.89668574060E+03  0.60114584359E+03  0.11986887756E+04  0.46999998093E+01 0.  1.
       -5    1    3    3    0  502 -0.52097125459E+03  0.89668574060E+03  0.23906314185E+03  0.10642507417E+04  0.46999998093E+01 0. -1.
</event>
<event>
 5   0  0.8858590E-05  0.2034925E+04  0.7818609E-02  0.8590464E-01
       -2   -1    0    0    0  501  0.00000000000E+00  0.00000000000E+00  0.16586023123E+04  0.16586023124E+04  0.25500000920E-02 0.  1.
        2   -1    0    0  501    0  0.00000000000E+00  0.00000000000E+00 -0.62415826502E+03  0.62415826502E+03  0.25500000920E-02 0. -1.
    10030    2    1    2    0    0  0.00000000000E+00  0.00000000000E+00  0.10344440473E+04  0.22827605774E+04  0.20349253958E+04 0.  0.
        1    1    3    3  502    0  0.97356764984E+03 -0.29149341240E+03  0.57249755587E+03  0.11664286647E+04  0.50400001928E-02 0.  1.
       -1    1    3    3    0  502 -0.97356764984E+03  0.29149341240E+03  0.46194649146E+03  0.11163319127E+04  0.50400001928E-02 0. -1.
</event>
<event>
 5   0  0.8872777E-05  0.2099804E+04  0.7818609E-02  0.8561330E-01
        2   -1    0    0  501    0  0.00000000000E+00  0.00000000000E+00  0.23540099151E+04  0.23540099151E+04  0.25500000920E-02 0.  1.
       -2   -1    0    0    0  501  0.00000000000E+00  0.00000000000E+00 -0.46826231372E+03  0.46826231372E+03  0.25500000920E-02 0. -1.
    10030    2    1    2    0    0  0.00000000000E+00  0.00000000000E+00  0.18857476014E+04  0.28222722288E+04  0.20998039236E+04 0.  0.
        3    1    3    3  502    0 -0.22773780608E+03 -0.86187698874E+03  0.16883120586E+04  0.19092129450E+04  0.10100000352E+00 0. -1.
       -3    1    3    3    0  502  0.22773780608E+03  0.86187698874E+03  0.19743554282E+03  0.91305928384E+03  0.10100000352E+00 0.  1.
</event>
<event>
 5   0  0.4200061E-05  0.2054909E+04  0.7818609E-02  0.8581370E-01
        1   -1    0    0  501    0  0.00000000000E+00  0.00000000000E+00  0.87326822667E+03  0.87326822669E+03  0.50400001928E-02 0. -1.
       -1   -1    0    0    0  501  0.00000000000E+00  0.00000000000E+00 -0.12088648057E+04  0.12088648057E+04  0.50400001928E-02 0.  1.
    10030    2    1    2    0    0  0.00000000000E+00  0.00000000000E+00 -0.33559657901E+03  0.20821330324E+04  0.20549094629E+04 0.  0.
        4    1    3    3  502    0  0.80358059608E+03 -0.53999025032E+03 -0.51634732765E+03  0.10972453784E+04  0.12699999809E+01 0. -1.
       -4    1    3    3    0  502 -0.80358059608E+03  0.53999025032E+03  0.18075074865E+03  0.98488765393E+03  0.12699999809E+01 0.  1.
</event>
<event>
 5   0  0.9086985E-05  0.2109170E+04  0.7818609E-02  0.8557215E-01
       -2   -1    0    0    0  501  0.00000000000E+00  0.00000000000E+00  0.73478316799E+03  0.73478316799E+03  0.25500000920E-02 0.  1.
        2   -1    0    0  501    0  0.00000000000E+00  0.00000000000E+00 -0.15135748382E+04  0.15135748382E+04  0.25500000920E-02 0. -1.
    10030    2    1    2    0    0  0.00000000000E+00  0.00000000000E+00 -0.77879167018E+03  0.22483580062E+04  0.21091698031E+04 0.  0.
        5    1    3    3  502    0 -0.50345060245E+03 -0.89223241334E+03 -0.65607718402E+03  0.12165527321E+04  0.46999998093E+01 0.  1.
       -5    1    3    3    0  502  0.50345060245E+03  0.89223241334E+03 -0.12271448616E+03  0.10318052741E+04  0.46999998093E+01 0. -1.
</event>
<event>
 5   0  0.9012466E-05  0.2102816E+04  0.7818609E-02  0.8560004E-01
        2   -1    0    0  501    0  0.00000000000E+00  0.00000000000E+00  0.20317877430E+04  0.20317877430E+04  0.25500000920E-02 0. -1.
       -2   -1    0    0    0  501  0.00000000000E+00  0.00000000000E+00 -0.54408173098E+03  0.54408173099E+03  0.25500000920E-02 0.  1.
    10030    2    1    2    0    0  0.00000000000E+00  0.00000000000E+00  0.14877060121E+04  0.25758694740E+04  0.21028158191E+04 0.  0.
        2    1    3    3  502    0 -0.10282804872E+04 -0.21927781601E+03  0.74860853353E+03  0.12906813152E+04  0.25500000920E-02 0. -1.
       -2    1    3    3    0  502  0.10282804872E+04  0.21927781601E+03  0.73909747853E+03  0.12851881589E+04  0.25500000920E-02 0.  1.
</event>
<event>
 5   0  0.9012466E-05  0.2079373E+04  0.7818609E-02  0.8570384E-01
        2   -1    0    0  501    0  0.00000000000E+00  0.00000000000E+00  0.13348546646E+04  0.13348546646E+04  0.25500000920E-02 0. -1.
       -2   -1    0    0    0  501  0.00000000000E+00  0.00000000000E+00 -0.80978740871E+03  0.80978740871E+03  0.25500000920E-02 0.  1.
    10030    2    1    2    0    0  0.00000000000E+00  0.00000000000E+00  0.52506725593E+03  0.21446420734E+04  0.20793734632E+04 0.  0.
        2    1    3    3  502    0  0.56043683258E+03 -0.20483976928E+03 -0.61560138178E+03  0.85732947905E+03  0.25500000920E-02 0.  1.
       -2    1    3    3    0  502 -0.56043683258E+03  0.20483976928E+03  0.11406686377E+04  0.12873125943E+04  0.25500000920E-02 0. -1.
</event>
<event>
 5   0  0.4174093E-05  0.2113639E+04  0.7818609E-02  0.8555259E-01
       -1   -1    0    0    0  501  0.00000000000E+00  0.00000000000E+00  0.66916857861E+03  0.66916857863E+03  0.50400001928E-02 0. -1.
        1   -1    0    0  501    0  0.00000000000E+00  0.00000000000E+00 -0.16690367248E+04  0.16690367248E+04  0.50400001928E-02 0.  1.
    10030    2    1    2    0    0  0.00000000000E+00  0.00000000000E+00 -0.99986814615E+03  0.23382053034E+04  0.21136385053E+04 0.  0.
        3    1    3    3  502    0 -0.43957003566E+03 -0.87047025339E+03 -0.95055358638E+03  0.13617974919E+04  0.10100000352E+00 0.  1.
       -3    1    3    3    0  502  0.43957003566E+03  0.87047025339E+03 -0.49314559771E+02  0.97640781146E+03  0.10100000352E+00 0. -1.
</event>
<event>
 5   0  0.4050368E-05  0.2072947E+04  0.7818609E-02  0.8573255E-01
        1   -1    0    0  501    0  0.00000000000E+00  0.00000000000E+00  0.13621549863E+04  0.13621549863E+04  0.50400001928E-02 0. -1.
       -1   -1    0    0    0  501  0.00000000000E+00  0.00000000000E+00 -0.78866024243E+03  0.78866024245E+03  0.50400001928E-02 0.  1.
    10030    2    1    2    0    0  0.00000000000E+00  0.00000000000E+00  0.57349474384E+03  0.21508152287E+04  0.20729471597E+04 0.  0.
        2    1    3    3  502    0 -0.73268309601E+03 -0.35750807081E+03  0.95082148197E+03  0.12524767584E+04  0.25500000920E-02 0. -1.
       -2    1    3    3    0  502  0.73268309601E+03  0.35750807081E+03 -0.37732673813E+03  0.89833847028E+03  0.25500000920E-02 0.  1.
</event>
<event>
 5   0  0.8858590E-05  0.2041641E+04  0.7818609E-02  0.8587396E-01
       -2   -1    0    0    0  501  0.00000000000E+00  0.00000000000E+00  0.12837354245E+04  0.12837354245E+04  0.25500000920E-02 0. -1.
        2   -1    0    0  501    0  0.00000000000E+00  0.00000000000E+00 -0.81175202230E+03  0.81175202231E+03  0.25500000920E-02 0.  1.
    10030    2    1    2    0    0  0.00000000000E+00  0.00000000000E+00  0.47198340216E+03  0.20954874468E+04  0.20416413269E+04 0.  0.
        1    1    3    3  502    0 -0.36818930626E+03  0.81261033530E+03 -0.27325519032E+03  0.93304197191E+03  0.50400001928E-02 0. -1.
       -1    1    3    3    0  502  0.36818930626E+03 -0.81261033530E+03  0.74523859247E+03  0.11624454749E+04  0.50400001928E-02 0.  1.
</event>
<event>
 5   0  0.3176125E-05  0.2150950E+04  0.7818609E-02  0.8539126E-01
       -4   -1    0    0    0  501  0.00000000000E+00  0.00000000000E+00  0.78920243611E+03  0.78920345796E+03  0.12699999809E+01 0. -1.
        4   -1    0    0  501    0  0.00000000000E+00  0.00000000000E+00 -0.14655868443E+04  0.14655873945E+04  0.12699999809E+01 0.  1.
    10030    2    1    2    0    0  0.00000000000E+00  0.00000000000E+00 -0.67638440815E+03  0.22547908525E+04  0.21509500043E+04 0.  0.
        5    1    3    3  502    0  0.88632574924E+03 -0.59200328844E+03 -0.48858672136E+03  0.11725102565E+04  0.46999998093E+01 0.  1.
       -5    1    3    3    0  502 -0.88632574924E+03  0.59200328844E+03 -0.18779768678E+03  0.10822805960E+04  0.46999998093E+01 0. -1.
</event>
<event>
 5   0  0.4128678E-05  0.2153269E+04  0.7818609E-02  0.8538134E-01
       -1   -1    0    0    0  501  0.00000000000E+00  0.00000000000E+00  0.54018817259E+03  0.54018817262E+03  0.50400001928E-02 0. -1.
        1   -1    0    0  501    0  0.00000000000E+00  0.00000000000E+00 -0.21458120359E+04  0.21458120359E+04  0.50400001928E-02 0.  1.
    10030    2    1    2    0    0  0.00000000000E+00  0.00000000000E+00 -0.16056238633E+04  0.26860002086E+04  0.21532694048E+04 0.  0.
        5    1    3    3  502    0 -0.98108365161E+03 -0.41132661334E+03 -0.59630893218E+03  0.12195577669E+04  0.46999998093E+01 0. -1.
       -5    1    3    3    0  502  0.98108365161E+03  0.41132661334E+03 -0.10093149312E+04  0.14664424416E+04  0.46999998093E+01 0.  1.
</event>
<event>
 5   0  0.9086985E-05  0.2101052E+04  0.7818609E-02  0.8560780E-01
        2   -1    0    0  501    0  0.00000000000E+00  0.00000000000E+00  0.17633496988E+04  0.17633496988E+04  0.25500000920E-02 0.  1.
       -2   -1    0    0    0  501  0.00000000000E+00  0.00000000000E+00 -0.62585731441E+03  0.62585731441E+03  0.25500000920E-02 0. -1.
    10030    2    1    2    0    0  0.00000000000E+00  0.00000000000E+00  0.11374923844E+04  0.23892070132E+04  0.21010524095E+04 0.  0.
        5    1    3    3  502    0  0.19806696667E+03 -0.78694640435E+03 -0.18988396816E+03  0.83342256867E+03  0.46999998093E+01 0. -1.
       -5    1    3    3    0  502 -0.19806696667E+03  0.78694640435E+03  0.13273763526E+04  0.15557844446E+04  0.46999998093E+01 0.  1.
</event>
<event>
 5   0  0.4050368E-05  0.2127456E+04  0.7818609E-02  0.8549244E-01
        1   -1    0    0  501    0  0.00000000000E+00  0.00000000000E+00  0.13037518102E+04  0.13037518102E+04  0.50400001928E-02 0.  1.
       -1   -1    0    0    0  501  0.00000000000E+00  0.00000000000E+00 -0.86789294675E+03  0.86789294676E+03  0.50400001928E-02 0. -1.
    10030    2    1    2    0    0  0.00000000000E+00  0.00000000000E+00  0.43585886347E+03  0.21716447570E+04  0.21274557579E+04 0.  0.
        2    1    3    3  502    0 -0.54293333507E+03  0.35478740483E+02 -0.71510292528E+03  0.89855859081E+03  0.25500000920E-02 0. -1.
       -2    1    3    3    0  502  0.54293333507E+03 -0.35478740483E+02  0.11509617888E+04  0.12730861662E+04  0.25500000920E-02 0.  1.
</event>
<event>
 5   0  0.4174093E-05  0.2116322E+04  0.7818609E-02  0.8554087E-01
       -1   -1    0    0    0  501  0.00000000000E+00  0.00000000000E+00  0.14979401387E+04  0.14979401387E+04  0.50400001928E-02 0.  1.
        1   -1    0    0  501    0  0.00000000000E+00  0.00000000000E+00 -0.74749626209E+03  0.74749626210E+03  0.50400001928E-02 0. -1.
    10030    2    1    2    0    0  0.00000000000E+00  0.00000000000E+00  0.75044387665E+03  0.22454364008E+04  0.21163219552E+04 0.  0.
        3    1    3    3  502    0  0.75421521329E+03  0.30417020817E+03  0.10935371323E+04  0.13627852264E+04  0.10100000352E+00 0.  1.
       -3    1    3    3    0  502 -0.75421521329E+03 -0.30417020817E+03 -0.34309325561E+03  0.88265117444E+03  0.10100000352E+00 0. -1.
</event>
<event>
 5   0  0.4128678E-05  0.2115847E+04  0.7818609E-02  0.8554295E-01
        1   -1    0    0  501    0  0.00000000000E+00  0.00000000000E+00  0.11347511027E+04  0.11347511027E+04  0.50400001928E-02 0. -1.
       -1   -1    0    0    0  501  0.00000000000E+00  0.00000000000E+00 -0.98629746010E+03  0.98629746011E+03  0.50400001928E-02 0.  1.
    10030    2    1    2    0    0  0.00000000000E+00  0.00000000000E+00  0.14845364261E+03  0.21210485628E+04  0.21158469987E+04 0.  0.
        5    1    3    3  502    0  0.73961746994E+03  0.66867529195E+03 -0.28022323083E+03  0.10357160793E+04  0.46999998093E+01 0. -1.
       -5    1    3    3    0  502 -0.73961746994E+03 -0.66867529195E+03  0.42867687344E+03  0.10853324835E+04  0.46999998093E+01 0.  1.
</event>
<event>
 5   0  0.9012466E-05  0.2091190E+04  0.7818609E-02  0.8565134E-01
       -2   -1    0    0    0  501  0.00000000000E+00  0.00000000000E+00  0.74708537150E+03  0.74708537150E+03  0.25500000920E-02 0.  1.
        2   -1    0    0  501    0  0.00000000000E+00  0.00000000000E+00 -0.14633781609E+04  0.14633781609E+04  0.25500000920E-02 0. -1.
    10030    2    1    2    0    0  0.00000000000E+00  0.00000000000E+00 -0.71629278944E+03  0.22104635324E+04  0.20911895342E+04 0.  0.
        2    1    3    3  502    0 -0.20740258183E+03 -0.99159856358E+03 -0.84570182319E+02  0.10165803746E+04  0.25500000920E-02 0. -1.
       -2    1    3    3    0  502  0.20740258183E+03  0.99159856358E+03 -0.63172260713E+03  0.11938831579E+04  0.25500000920E-02 0.  1.
</event>
<event>
 5   0  0.8858590E-05  0.2106815E+04  0.7818609E-02  0.8558247E-01
       -2   -1    0    0    0  501  0.00000000000E+00  0.00000000000E+00  0.14919211491E+04  0.14919211491E+04  0.25500000920E-02 0. -1.
        2   -1    0    0  501    0  0.00000000000E+00  0.00000000000E+00 -0.74378390882E+03  0.74378390883E+03  0.25500000920E-02 0.  1.
    10030    2    1    2    0    0  0.00000000000E+00  0.00000000000E+00  0.74813724030E+03  0.22357050580E+04  0.21068146040E+04 0.  0.
        1    1    3    3  502    0  0.51082745772E+03 -0.47148773188E+03  0.12139569395E+04  0.13989055807E+04  0.50400001928E-02 0. -1.
       -1    1    3    3    0  502 -0.51082745772E+03  0.47148773188E+03 -0.46581969919E+03  0.83679947721E+03  0.50400001928E-02 0.  1.
</event>
<event>
 5   0  0.4174093E-05  0.2103486E+04  0.7818609E-02  0.8559709E-01
        1   -1    0    0  501    0  0.00000000000E+00  0.00000000000E+00  0.83018756113E+03  0.83018756114E+03  0.50400001928E-02 0. -1.
       -1   -1    0    0    0  501  0.00000000000E+00  0.00000000000E+00 -0.13324257912E+04  0.13324257912E+04  0.50400001928E-02 0.  1.
    10030    2    1    2    0    0  0.00000000000E+00  0.00000000000E+00 -0.50223823005E+03  0.21626133523E+04  0.21034859809E+04 0.  0.
        3    1    3    3  502    0  0.49257797143E+03 -0.83851218084E+03 -0.66291192939E+03  0.11769400884E+04  0.10100000352E+00 0.  1.
       -3    1    3    3    0  502 -0.49257797143E+03  0.83851218084E+03  0.16067369934E+03  0.98567326393E+03  0.10100000352E+00 0. -1.
</event>
<event>
 5   0  0.8858590E-05  0.2099491E+04  0.7818609E-02  0.8561468E-01
       -2   -1    0    0    0  501  0.00000000000E+00  0.00000000000E+00  0.71379847974E+03  0.71379847974E+03  0.25500000920E-02 0.  1.
        2   -1    0    0  501    0  0.00000000000E+00  0.00000000000E+00 -0.15438042484E+04  0.15438042484E+04  0.25500000920E-02 0. -1.
    10030    2    1    2    0    0  0.00000000000E+00  0.00000000000E+00 -0.83000576865E+03  0.22576027281E+04  0.20994905339E+04 0.  0.
        1    1    3    3  502    0  0.47422691457E+03  0.25771395748E+03  0.55316862018E+03  0.77285391424E+03  0.50400001928E-02 0.  1.
       -1    1    3    3    0  502 -0.47422691457E+03 -0.25771395748E+03 -0.13831743888E+04  0.14847488139E+04  0.50400001928E-02 0. -1.
</event>
<event>
 5   0  0.8858590E-05  0.2031473E+04  0.7818609E-02  0.8592046E-01
       -2   -1    0    0    0  501  0.00000000000E+00  0.00000000000E+00  0.73587743351E+03  0.73587743352E+03  0.25500000920E-02 0.  1.
        2   -1    0    0  501    0  0.00000000000E+00  0.00000000000E+00 -0.14020272747E+04  0.14020272747E+04  0.25500000920E-02 0. -1.
    10030    2    1    2    0    0  0.00000000000E+00  0.00000000000E+00 -0.66614984123E+03  0.21379047083E+04  0.20314726015E+04 0.  0.
        1    1    3    3  502    0  0.10153763685E+04  0.11244707957E+02 -0.35895218822E+03  0.10770154533E+04  0.50400001928E-02 0. -1.
       -1    1    3    3    0  502 -0.10153763685E+04 -0.11244707957E+02 -0.30719765301E+03  0.10608892549E+04  0.50400001928E-02 0.  1.
</event>
<event>
 5   0  0.9086985E-05  0.2096633E+04  0.7818609E-02  0.8562728E-01
       -2   -1    0    0    0  501  0.00000000000E+00  0.00000000000E+00  0.10238562756E+04  0.10238562756E+04  0.25500000920E-02 0. -1.
        2   -1    0    0  501    0  0.00000000000E+00  0.00000000000E+00 -0.10733615007E+04  0.10733615007E+04  0.25500000920E-02 0.  1.
    10030    2    1    2    0    0  0.00000000000E+00  0.00000000000E+00 -0.49505225095E+02  0.20972177763E+04  0.20966334048E+04 0.  0.
        5    1    3    3  502    0  0.72950849112E+02  0.69094730399E+03 -0.80996555514E+03  0.10671439893E+04  0.46999998093E+01 0.  1.
       -5    1    3    3    0  502 -0.72950849112E+02 -0.69094730399E+03  0.76046033005E+03  0.10300737871E+04  0.46999998093E+01 0. -1.
</event>
<event>
 5   0  0.8858590E-05  0.2078811E+04  0.7818609E-02  0.8570635E-01
        2   -1    0    0  501    0  0.00000000000E+00  0.00000000000E+00  0.17403173010E+04  0.17403173010E+04  0.25500000920E-02 0.  1.
       -2   -1    0    0    0  501  0.00000000000E+00  0.00000000000E+00 -0.62078571270E+03  0.62078571271E+03  0.25500000920E-02 0. -1.
    10030    2    1    2    0    0  0.00000000000E+00  0.00000000000E+00  0.11195315883E+04  0.23611030137E+04  0.20788113104E+04 0.  0.
        1    1    3    3  502    0 -0.91886651390E+03 -0.42341073063E+03  0.83038972138E+03  0.13088695147E+04  0.50400001928E-02 0.  1.
       -1    1    3    3    0  502  0.91886651390E+03  0.42341073063E+03  0.28914186694E+03  0.10522334990E+04  0.50400001928E-02 0. -1.
</event>
<event>
 5   0  0.4182977E-05  0.2105728E+04  0.7818609E-02  0.8558724E-01
       -1   -1    0    0    0  501  0.00000000000E+00  0.00000000000E+00  0.89376006667E+03  0.89376006669E+03  0.50400001928E-02 0.  1.
        1   -1    0    0  501    0  0.00000000000E+00  0.00000000000E+00 -0.12402912371E+04  0.12402912371E+04  0.50400001928E-02 0. -1.
    10030    2    1    2    0    0  0.00000000000E+00  0.00000000000E+00 -0.34653117046E+03  0.21340513038E+04  0.21057281675E+04 0.  0.
        1    1    3    3  502    0  0.88523910900E+03 -0.56966691127E+03 -0.15419469491E+03  0.10639288857E+04  0.50400001928E-02 0.  1.
       -1    1    3    3    0  502 -0.88523910900E+03  0.56966691127E+03 -0.19233647556E+03  0.10701224181E+04  0.50400001928E-02 0. -1.
</event>
<event>
 5   0  0.4182977E-05  0.2103810E+04  0.7818609E-02  0.8559567E-01
       -1   -1    0    0    0  501  0.00000000000E+00  0.00000000000E+00  0.54718609095E+03  0.54718609097E+03  0.50400001928E-02 0. -1.
        1   -1    0    0  501    0  0.00000000000E+00  0.00000000000E+00 -0.20221715193E+04  0.20221715193E+04  0.50400001928E-02 0.  1.
    10030    2    1    2    0    0  0.00000000000E+00  0.00000000000E+00 -0.14749854284E+04  0.25693576103E+04  0.21038099999E+04 0.  0.
        1    1    3    3  502    0 -0.73638681478E+03  0.56132079640E+03 -0.13471069032E+04  0.16346386714E+04  0.50400001928E-02 0. -1.
       -1    1    3    3    0  502  0.73638681478E+03 -0.56132079640E+03 -0.12787852517E+03  0.93471893887E+03  0.50400001928E-02 0.  1.
</event>
<event>
 5   0  0.4182977E-05  0.2157805E+04  0.7818609E-02  0.8536199E-01
        1   -1    0    0  501    0  0.00000000000E+00  0.00000000000E+00  0.11087864810E+04  0.11087864810E+04  0.50400001928E-02 0.  1.
       -1   -1    0    0    0  501  0.00000000000E+00  0.00000000000E+00 -0.10498238183E+04  0.10498238183E+04  0.50400001928E-02 0. -1.
    10030    2    1    2    0    0  0.00000000000E+00  0.00000000000E+00  0.58962662684E+02  0.21586102993E+04  0.21578048634E+04 0.  0.
        1    1    3    3  502    0 -0.69387314585E+03  0.65242311219E+03  0.53653796350E+03  0.10931554538E+04  0.50400001928E-02 0.  1.
       -1    1    3    3    0  502  0.69387314585E+03 -0.65242311219E+03 -0.47757530081E+03  0.10654548455E+04  0.50400001928E-02 0. -1.
</event>
<event>
 5   0  0.9086985E-05  0.2095153E+04  0.7818609E-02  0.8563382E-01
        2   -1    0    0  501    0  0.00000000000E+00  0.00000000000E+00  0.10699130848E+04  0.10699130848E+04  0.25500000920E-02 0.  1.
       -2   -1    0    0    0  501  0.00000000000E+00  0.00000000000E+00 -0.10257061050E+04  0.10257061050E+04  0.25500000920E-02 0. -1.
    10030    2    1    2    0    0  0.00000000000E+00  0.00000000000E+00  0.44206979757E+02  0.20956191898E+04  0.20951528659E+04 0.  0.
        5    1    3    3  502    0  0.88286569881E+03  0.32042203977E+03  0.48618107526E+03  0.10575992878E+04  0.46999998093E+01 0.  1.
       -5    1    3    3    0  502 -0.88286569881E+03 -0.32042203977E+03 -0.44197409551E+03  0.10380199019E+04  0.46999998093E+01 0. -1.
</event>
<event>
 5   0  0.8858590E-05  0.2089690E+04  0.7818609E-02  0.8565799E-01
        2   -1    0    0  501    0  0.00000000000E+00  0.00000000000E+00  0.10862307768E+04  0.10862307768E+04  0.25500000920E-02 0. -1.
       -2   -1    0    0    0  501  0.00000000000E+00  0.00000000000E+00 -0.10050356825E+04  0.10050356825E+04  0.25500000920E-02 0.  1.
    10030    2    1    2    0    0  0.00000000000E+00  0.00000000000E+00  0.81195094328E+02  0.20912664593E+04  0.20896896326E+04 0.  0.
        1    1    3    3  502    0 -0.54931340866E+03 -0.57401945566E+03 -0.63848440252E+03  0.10192673294E+04  0.50400001928E-02 0.  1.
       -1    1    3    3    0  502  0.54931340866E+03  0.57401945566E+03  0.71967949685E+03  0.10719991300E+04  0.50400001928E-02 0. -1.
</event>
<event>
 5   0  0.4128678E-05  0.2097475E+04  0.7818609E-02  0.8562356E-01
       -1   -1    0    0    0  501  0.00000000000E+00  0.00000000000E+00  0.92910031233E+03  0.92910031235E+03  0.50400001928E-02 0.  1.
        1   -1    0    0  501    0  0.00000000000E+00  0.00000000000E+00 -0.11837800431E+04  0.11837800431E+04  0.50400001928E-02 0. -1.
    10030    2    1    2    0    0  0.00000000000E+00  0.00000000000E+00 -0.25467973078E+03  0.21128803555E+04  0.20974750609E+04 0.  0.
        5    1    3    3  502    0  0.24127143436E+02 -0.76318727643E+03 -0.85150186253E+03  0.11437283112E+04  0.46999998093E+01 0. -1.
       -5    1    3    3    0  502 -0.24127143436E+02  0.76318727643E+03  0.59682213175E+03  0.96915204426E+03  0.46999998093E+01 0.  1.
</event>
<event>
 5   0  0.4174093E-05  0.2123592E+04  0.7818609E-02  0.8550922E-01
        1   -1    0    0  501    0  0.00000000000E+00  0.00000000000E+00  0.13776999089E+04  0.13776999089E+04  0.50400001928E-02 0. -1.
       -1   -1    0    0    0  501  0.00000000000E+00  0.00000000000E+00 -0.81832789299E+03  0.81832789301E+03  0.50400001928E-02 0.  1.
    10030    2    1    2    0    0  0.00000000000E+00  0.00000000000E+00  0.55937201588E+03  0.21960278019E+04  0.21235915461E+04 0.  0.
        3    1    3    3  502    0 -0.69383492133E+03 -0.11272519447E+03 -0.54325812067E+03  0.88839364214E+03  0.10100000352E+00 0.  1.
       -3    1    3    3    0  502  0.69383492133E+03  0.11272519447E+03  0.11026301366E+04  0.13076341598E+04  0.10100000352E+00 0. -1.
</event>
<event>
 5   0  0.8858590E-05  0.2109759E+04  0.7818609E-02  0.8556956E-01
       -2   -1    0    0    0  501  0.00000000000E+00  0.00000000000E+00  0.98961457053E+03  0.98961457053E+03  0.25500000920E-02 0. -1.
        2   -1    0    0  501    0  0.00000000000E+00  0.00000000000E+00 -0.11244491628E+04  0.11244491628E+04  0.25500000920E-02 0.  1.
    10030    2    1    2    0    0  0.00000000000E+00  0.00000000000E+00 -0.13483459229E+03  0.21140637334E+04  0.21097594890E+04 0.  0.
        1    1    3    3  502    0 -0.26868530897E+03  0.37192743696E+03  0.88438871425E+03  0.99632585610E+03  0.50400001928E-02 0. -1.
       -1    1    3    3    0  502  0.26868530897E+03 -0.37192743696E+03 -0.10192233065E+04  0.11177378773E+04  0.50400001928E-02 0.  1.
</event>
<event>
 5   0  0.4182977E-05  0.2103076E+04  0.7818609E-02  0.8559889E-01
        1   -1    0    0  501    0  0.00000000000E+00  0.00000000000E+00  0.22334686931E+04  0.22334686931E+04  0.50400001928E-02 0. -1.
       -1   -1    0    0    0  501  0.00000000000E+00  0.00000000000E+00 -0.49507417417E+03  0.49507417419E+03  0.50400001928E-02 0.  1.
    10030    2    1    2    0    0  0.00000000000E+00  0.00000000000E+00  0.17383945190E+04  0.27285428673E+04  0.21030764787E+04 0.  0.
        1    1    3    3  502    0  0.16314507786E+03 -0.38645515455E+03 -0.38181968312E+03  0.56723026484E+03  0.50400001928E-02 0.  1.
       -1    1    3    3    0  502 -0.16314507786E+03  0.38645515455E+03  0.21202142021E+04  0.21613126025E+04  0.50400001928E-02 0. -1.
</event>
<event>
 5   0  0.4050368E-05  0.2103097E+04  0.7818609E-02  0.8559880E-01
        1   -1    0    0  501    0  0.00000000000E+00  0.00000000000E+00  0.61650128870E+03  0.61650128872E+03  0.50400001928E-02 0.  1.
       -1   -1    0    0    0  501  0.00000000000E+00  0.00000000000E+00 -0.17935956703E+04  0.17935956703E+04  0.50400001928E-02 0. -1.
    10030    2    1    2    0    0  0.00000000000E+00  0.00000000000E+00 -0.11770943816E+04  0.24100969590E+04  0.21030968044E+04 0.  0.
        2    1    3    3  502    0  0.95428603884E+02 -0.95537660397E+03 -0.10799861933E+04  0.14450679055E+04  0.25500000920E-02 0. -1.
       -2    1    3    3    0  502 -0.95428603884E+02  0.95537660397E+03 -0.97108188282E+02  0.96502905349E+03  0.25500000920E-02 0.  1.
</event>
<event>
 5   0  0.4200061E-05  0.2098350E+04  0.7818609E-02  0.8561971E-01
        1   -1    0    0  501    0  0.00000000000E+00  0.00000000000E+00  0.22124451583E+04  0.22124451583E+04  0.50400001928E-02 0. -1.
       -1   -1    0    0    0  501  0.00000000000E+00  0.00000000000E+00 -0.49753472064E+03  0.49753472067E+03  0.50400001928E-02 0.  1.
    10030    2    1    2    0    0  0.00000000000E+00  0.00000000000E+00  0.17149104376E+04  0.27099798790E+04  0.20983500983E+04 0.  0.
        4    1    3    3  502    0 -0.23260806447E+03 -0.52246417524E+03 -0.27852818349E+03  0.63612489965E+03  0.12699999809E+01 0.  1.
       -4    1    3    3    0  502  0.23260806447E+03  0.52246417524E+03  0.19934386211E+04  0.20738549793E+04  0.12699999809E+01 0. -1.
</event>
<event>
 5   0  0.4200061E-05  0.2094529E+04  0.7818609E-02  0.8563657E-01
       -1   -1    0    0    0  501  0.00000000000E+00  0.00000000000E+00  0.97024933008E+03  0.97024933010E+03  0.50400001928E-02 0.  1.
        1   -1    0    0  501    0  0.00000000000E+00  0.00000000000E+00 -0.11303924136E+04  0.11303924136E+04  0.50400001928E-02 0. -1.
    10030    2    1    2    0    0  0.00000000000E+00  0.00000000000E+00 -0.16014308347E+03  0.21006417437E+04  0.20945285694E+04 0.  0.
        4    1    3    3  502    0 -0.34953308805E+03 -0.72995933055E+03 -0.74665179054E+03  0.11011378266E+04  0.12699999809E+01 0. -1.
       -4    1    3    3    0  502  0.34953308805E+03  0.72995933055E+03  0.58650870707E+03  0.99950391708E+03  0.12699999809E+01 0.  1.
</event>
<event>
 5   0  0.4182977E-05  0.2105176E+04  0.7818609E-02  0.8558967E-01
       -1   -1    0    0    0  501  0.00000000000E+00  0.00000000000E+00  0.10653722954E+04  0.10653722954E+04  0.50400001928E-02 0. -1.
        1   -1    0    0  501    0  0.00000000000E+00  0.00000000000E+00 -0.10399568419E+04  0.10399568420E+04  0.50400001928E-02 0.  1.
    10030    2    1    2    0    0  0.00000000000E+00  0.00000000000E+00  0.25415453439E+02  0.21053291373E+04  0.21051757246E+04 0.  0.
        1    1    3    3  502    0  0.50779934651E+03  0.33881793250E+03  0.87025691495E+03  0.10630168699E+04  0.50400001928E-02 0. -1.
       -1    1    3    3    0  502 -0.50779934651E+03 -0.33881793250E+03 -0.84484146151E+03  0.10423122674E+04  0.50400001928E-02 0.  1.
</event>
<event>
 5   0  0.4174093E-05  0.2091731E+04  0.7818609E-02  0.8564895E-01
        1   -1    0    0  501    0  0.00000000000E+00  0.00000000000E+00  0.17603472204E+04  0.17603472204E+04  0.50400001928E-02 0. -1.
       -1   -1    0    0    0  501  0.00000000000E+00  0.00000000000E+00 -0.62137411156E+03  0.62137411158E+03  0.50400001928E-02 0.  1.
    10030    2    1    2    0    0  0.00000000000E+00  0.00000000000E+00  0.11389731088E+04  0.23817213320E+04  0.20917305659E+04 0.  0.
        3    1    3    3  502    0  0.57687774411E+03  0.81347144636E+03  0.92831154976E+03  0.13624558963E+04  0.10100000352E+00 0. -1.
       -3    1    3    3    0  502 -0.57687774411E+03 -0.81347144636E+03  0.21066155906E+03  0.10192654357E+04  0.10100000352E+00 0.  1.
</event>
<event>
 5   0  0.4200061E-05  0.2091474E+04  0.7818609E-02  0.8565009E-01
       -1   -1    0    0    0  501  0.00000000000E+00  0.00000000000E+00  0.89094219002E+03  0.89094219003E+03  0.50400001928E-02 0.  1.
        1   -1    0    0  501    0  0.00000000000E+00  0.00000000000E+00 -0.12274261585E+04  0.12274261585E+04  0.50400001928E-02 0. -1.
    10030    2    1    2    0    0  0.00000000000E+00  0.00000000000E+00 -0.33648396847E+03  0.21183683485E+04  0.20914738820E+04 0.  0.
        4    1    3    3  502    0  0.54724763115E+03 -0.86828024508E+03 -0.37125286590E+03  0.10914306470E+04  0.12699999809E+01 0. -1.
       -4    1    3    3    0  502 -0.54724763115E+03  0.86828024508E+03  0.34768897427E+02  0.10269377016E+04  0.12699999809E+01 0.  1.
</event>
<event>
 5   0  0.8872777E-05  0.2108165E+04  0.7818609E-02  0.8557655E-01
       -2   -1    0    0    0  501  0.00000000000E+00  0.00000000000E+00  0.91121719425E+03  0.91121719425E+03  0.25500000920E-02 0.  1.
        2   -1    0    0  501    0  0.00000000000E+00  0.00000000000E+00 -0.12193470320E+04  0.12193470320E+04  0.25500000920E-02 0. -1.
    10030    2    1    2    0    0  0.00000000000E+00  0.00000000000E+00 -0.30812983771E+03  0.21305642262E+04  0.21081650612E+04 0.  0.
        3    1    3    3  502    0  0.18725063261E+03  0.62900797933E+03 -0.98767806454E+03  0.11858422352E+04  0.10100000352E+00 0. -1.
       -3    1    3    3    0  502 -0.18725063261E+03 -0.62900797933E+03  0.67954822682E+03  0.94472199099E+03  0.10100000352E+00 0.  1.
</event>
<event>
 5   0  0.4050368E-05  0.2131140E+04  0.7818609E-02  0.8547649E-01
       -1   -1    0    0    0  501  0.00000000000E+00  0.00000000000E+00  0.72766325193E+03  0.72766325195E+03  0.50400001928E-02 0.  1.
        1   -1    0    0  501    0  0.00000000000E+00  0.00000000000E+00 -0.15603914973E+04  0.15603914973E+04  0.50400001928E-02 0. -1.
    10030    2    1    2    0    0  0.00000000000E+00  0.00000000000E+00 -0.83272824532E+03  0.22880547492E+04  0.21311401185E+04 0.  0.
        2    1    3    3  502    0  0.92642689181E+03  0.31498975534E+03  0.36542375996E+02  0.97919389147E+03  0.25500000920E-02 0.  1.
       -2    1    3    3    0  502 -0.92642689181E+03 -0.31498975534E+03 -0.86927062131E+03  0.13088608577E+04  0.25500000920E-02 0. -1.
</event>
<event>
 5   0  0.4174093E-05  0.2094463E+04  0.7818609E-02  0.8563686E-01
        1   -1    0    0  501    0  0.00000000000E+00  0.00000000000E+00  0.19677107300E+04  0.19677107300E+04  0.50400001928E-02 0.  1.
       -1   -1    0    0    0  501  0.00000000000E+00  0.00000000000E+00 -0.55734510042E+03  0.55734510044E+03  0.50400001928E-02 0. -1.
    10030    2    1    2    0    0  0.00000000000E+00  0.00000000000E+00  0.14103656295E+04  0.25250558304E+04  0.20944631144E+04 0.  0.
        3    1    3    3  502    0  0.43605632104E+03  0.21018849414E+03 -0.41437103946E+03  0.63720301846E+03  0.10100000352E+00 0. -1.
       -3    1    3    3    0  502 -0.43605632104E+03 -0.21018849414E+03  0.18247366690E+04  0.18878528119E+04  0.10100000352E+00 0.  1.
</event>
<event>
 5   0  0.4050368E-05  0.2098810E+04  0.7818609E-02  0.8561768E-01
       -1   -1    0    0    0  501  0.00000000000E+00  0.00000000000E+00  0.56260992988E+03  0.56260992990E+03  0.50400001928E-02 0.  1.
        1   -1    0    0  501    0  0.00000000000E+00  0.00000000000E+00 -0.19573964122E+04  0.19573964122E+04  0.50400001928E-02 0. -1.
    10030    2    1    2    0    0  0.00000000000E+00  0.00000000000E+00 -0.13947864823E+04  0.25200063421E+04  0.20988098134E+04 0.  0.
        2    1    3    3  502    0  0.20050545280E+03  0.64700746692E+02 -0.19317414644E+04  0.19431967756E+04  0.25500000920E-02 0. -1.
       -2    1    3    3    0  502 -0.20050545280E+03 -0.64700746692E+02  0.53695498211E+03  0.57680956653E+03  0.25500000920E-02 0.  1.
</event>
<event>
 5   0  0.8858590E-05  0.2022220E+04  0.7818609E-02  0.8596302E-01
        2   -1    0    0  501    0  0.00000000000E+00  0.00000000000E+00  0.86145610605E+03  0.86145610605E+03  0.25500000920E-02 0.  1.
       -2   -1    0    0    0  501  0.00000000000E+00  0.00000000000E+00 -0.11867623508E+04  0.11867623508E+04  0.25500000920E-02 0. -1.
    10030    2    1    2    0    0  0.00000000000E+00  0.00000000000E+00 -0.32530624472E+03  0.20482184568E+04  0.20222202387E+04 0.  0.
        1    1    3    3  502    0  0.68147084503E+02 -0.70944525347E+03  0.56377533478E+03  0.90873495636E+03  0.50400001928E-02 0.  1.
       -1    1    3    3    0  502 -0.68147084503E+02  0.70944525347E+03 -0.88908157949E+03  0.11394835005E+04  0.50400001928E-02 0. -1.
</event>
<event>
 5   0  0.4182977E-05  0.2107619E+04  0.7818609E-02  0.8557895E-01
        1   -1    0    0  501    0  0.00000000000E+00  0.00000000000E+00  0.10996896723E+04  0.10996896723E+04  0.50400001928E-02 0. -1.
       -1   -1    0    0    0  501  0.00000000000E+00  0.00000000000E+00 -0.10098431096E+04  0.10098431096E+04  0.50400001928E-02 0.  1.
    10030    2    1    2    0    0  0.00000000000E+00  0.00000000000E+00  0.89846562753E+02  0.21095327819E+04  0.21076185977E+04 0.  0.
        1    1    3    3  502    0 -0.60767035345E+03  0.66812015757E+03  0.58843232980E+03  0.10779148437E+04  0.50400001928E-02 0. -1.
       -1    1    3    3    0  502  0.60767035345E+03 -0.66812015757E+03 -0.49858576705E+03  0.10316179383E+04  0.50400001928E-02 0.  1.
</event>
<event>
 5   0  0.9012466E-05  0.2119723E+04  0.7818609E-02  0.8552605E-01
        2   -1    0    0  501    0  0.00000000000E+00  0.00000000000E+00  0.13479579146E+04  0.13479579146E+04  0.25500000920E-02 0. -1.
       -2   -1    0    0    0  501  0.00000000000E+00  0.00000000000E+00 -0.83333941514E+03  0.83333941515E+03  0.25500000920E-02 0.  1.
    10030    2    1    2    0    0  0.00000000000E+00  0.00000000000E+00  0.51461849945E+03  0.21812973297E+04  0.21197230576E+04 0.  0.
        2    1    3    3  502    0  0.77289105924E+02  0.74728565930E+03 -0.51200120091E+03  0.90915053332E+03  0.25500000920E-02 0.  1.
       -2    1    3    3    0  502 -0.77289105924E+02 -0.74728565930E+03  0.10266197004E+04  0.12721467964E+04  0.25500000920E-02 0. -1.
</event>
<event>
 5   0  0.4128678E-05  0.2032667E+04  0.7818609E-02  0.8591498E-01
       -1   -1    0    0    0  501  0.00000000000E+00  0.00000000000E+00  0.73809755016E+03  0.73809755018E+03  0.50400001928E-02 0. -1.
        1   -1    0    0  501    0  0.00000000000E+00  0.00000000000E+00 -0.13994549344E+04  0.13994549344E+04  0.50400001928E-02 0.  1.
    10030    2    1    2    0    0  0.00000000000E+00  0.00000000000E+00 -0.66135738421E+03  0.21375524846E+04  0.20326674678E+04 0.  0.
        5    1    3    3  502    0  0.93492613866E+02  0.84868655892E+03 -0.91039769021E+03  0.12481409329E+04  0.46999998093E+01 0.  1.
       -5    1    3    3    0  502 -0.93492613866E+02 -0.84868655892E+03  0.24904030600E+03  0.88941155162E+03  0.46999998093E+01 0. -1.
</event>
<event>
 5   0  0.4200061E-05  0.2107390E+04  0.7818609E-02  0.8557995E-01
        1   -1    0    0  501    0  0.00000000000E+00  0.00000000000E+00  0.77164472781E+03  0.77164472783E+03  0.50400001928E-02 0.  1.
       -1   -1    0    0    0  501  0.00000000000E+00  0.00000000000E+00 -0.14388402165E+04  0.14388402165E+04  0.50400001928E-02 0. -1.
    10030    2    1    2    0    0  0.00000000000E+00  0.00000000000E+00 -0.66719548865E+03  0.22104849443E+04  0.21073902982E+04 0.  0.
        4    1    3    3  502    0  0.95694433221E+03  0.29953889807E+02  0.12796562428E+03  0.96592779459E+03  0.12699999809E+01 0.  1.
       -4    1    3    3    0  502 -0.95694433221E+03 -0.29953889807E+02 -0.79516111293E+03  0.12445571497E+04  0.12699999809E+01 0. -1.
</event>
<event>
 5   0  0.4174093E-05  0.1884382E+04  0.7818609E-02  0.8662670E-01
       -1   -1    0    0    0  501  0.00000000000E+00  0.00000000000E+00  0.11419078996E+04  0.11419078996E+04  0.50400001928E-02 0.  1.
        1   -1    0    0  501    0  0.00000000000E+00  0.00000000000E+00 -0.77740412710E+03  0.77740412711E+03  0.50400001928E-02 0. -1.
    10030    2    1    2    0    0  0.00000000000E+00  0.00000000000E+00  0.36450377247E+03  0.19193120267E+04  0.18843820355E+04 0.  0.
        3    1    3    3  502    0  0.81442038471E+03  0.40124138767E+03  0.43881130178E+03  0.10083801778E+04  0.10100000352E+00 0.  1.
       -3    1    3    3    0  502 -0.81442038471E+03 -0.40124138767E+03 -0.74307529303E+02  0.91093184889E+03  0.10100000352E+00 0. -1.
</event>
<event>
 5   0  0.8872777E-05  0.2085544E+04  0.7818609E-02  0.8567638E-01
       -2   -1    0    0    0  501  0.00000000000E+00  0.00000000000E+00  0.57847033522E+03  0.57847033523E+03  0.25500000920E-02 0. -1.
        2   -1    0    0  501    0  0.00000000000E+00  0.00000000000E+00 -0.18797398857E+04  0.18797398857E+04  0.25500000920E-02 0.  1.
    10030    2    1    2    0    0  0.00000000000E+00  0.00000000000E+00 -0.13012695504E+04  0.24582102209E+04  0.20855443048E+04 0.  0.
        3    1    3    3  502    0  0.61858305630E+03 -0.48320028027E+03  0.15850499957E+03  0.80078171400E+03  0.10100000352E+00 0.  1.
       -3    1    3    3    0  502 -0.61858305630E+03  0.48320028027E+03 -0.14597745500E+04  0.16574285069E+04  0.10100000352E+00 0. -1.
</event>
<event>
 5   0  0.8547605E-05  0.2126916E+04  0.7818609E-02  0.8549479E-01
       -2   -1    0    0    0  501  0.00000000000E+00  0.00000000000E+00  0.69527267303E+03  0.69527267303E+03  0.25500000920E-02 0.  1.
        2   -1    0    0  501    0  0.00000000000E+00  0.00000000000E+00 -0.16266177047E+04  0.16266177047E+04  0.25500000920E-02 0. -1.
    10030    2    1    2    0    0  0.00000000000E+00  0.00000000000E+00 -0.93134503169E+03  0.23218903778E+04  0.21269159265E+04 0.  0.
        4    1    3    3  502    0  0.65971808626E+03 -0.48389532062E+03  0.27598740149E+03  0.86345427982E+03  0.12699999809E+01 0.  1.
       -4    1    3    3    0  502 -0.65971808626E+03  0.48389532062E+03 -0.12073324332E+04  0.14584360979E+04  0.12699999809E+01 0. -1.
</event>
<event>
 5   0  0.4200061E-05  0.2109172E+04  0.7818609E-02  0.8557214E-01
       -1   -1    0    0    0  501  0.00000000000E+00  0.00000000000E+00  0.68678185151E+03  0.68678185153E+03  0.50400001928E-02 0.  1.
        1   -1    0    0  501    0  0.00000000000E+00  0.00000000000E+00 -0.16193660675E+04  0.16193660675E+04  0.50400001928E-02 0. -1.
    10030    2    1    2    0    0  0.00000000000E+00  0.00000000000E+00 -0.93258421598E+03  0.23061479190E+04  0.21091716157E+04 0.  0.
        4    1    3    3  502    0 -0.69588267815E+03  0.45075031504E+02 -0.13312911523E+04  0.15028713202E+04  0.12699999809E+01 0. -1.
       -4    1    3    3    0  502  0.69588267815E+03 -0.45075031504E+02  0.39870693628E+03  0.80327659878E+03  0.12699999809E+01 0.  1.
</event>
<event>
 5   0  0.4128678E-05  0.2108036E+04  0.7818609E-02  0.8557712E-01
        1   -1    0    0  501    0  0.00000000000E+00  0.00000000000E+00  0.97168087528E+03  0.97168087530E+03  0.50400001928E-02 0.  1.
       -1   -1    0    0    0  501  0.00000000000E+00  0.00000000000E+00 -0.11433323563E+04  0.11433323563E+04  0.50400001928E-02 0. -1.
    10030    2    1    2    0    0  0.00000000000E+00  0.00000000000E+00 -0.17165148097E+03  0.21150132316E+04  0.21080362280E+04 0.  0.
        5    1    3    3  502    0 -0.45653523649E+03  0.47440297101E+03  0.73997159960E+03  0.99048607223E+03  0.46999998093E+01 0.  1.
       -5    1    3    3    0  502  0.45653523649E+03 -0.47440297101E+03 -0.91162308057E+03  0.11245271593E+04  0.46999998093E+01 0. -1.
</event>
<event>
 5   0  0.8872777E-05  0.2090287E+04  0.7818609E-02  0.8565534E-01
       -2   -1    0    0    0  501  0.00000000000E+00  0.00000000000E+00  0.77200612299E+03  0.77200612299E+03  0.25500000920E-02 0.  1.
        2   -1    0    0  501    0  0.00000000000E+00  0.00000000000E+00 -0.14149171806E+04  0.14149171806E+04  0.25500000920E-02 0. -1.
    10030    2    1    2    0    0  0.00000000000E+00  0.00000000000E+00 -0.64291105764E+03  0.21869233036E+04  0.20902868004E+04 0.  0.
        3    1    3    3  502    0 -0.44774534691E+03 -0.94433774246E+03 -0.31239192609E+03  0.10907971366E+04  0.10100000352E+00 0.  1.
       -3    1    3    3    0  502  0.44774534691E+03  0.94433774246E+03 -0.33051913156E+03  0.10961261670E+04  0.10100000352E+00 0. -1.
</event>
<event>
 5   0  0.4200061E-05  0.2092783E+04  0.7818609E-02  0.8564429E-01
       -1   -1    0    0    0  501  0.00000000000E+00  0.00000000000E+00  0.10951109426E+04  0.10951109426E+04  0.50400001928E-02 0. -1.
        1   -1    0    0  501    0  0.00000000000E+00  0.00000000000E+00 -0.99983911438E+03  0.99983911439E+03  0.50400001928E-02 0.  1.
    10030    2    1    2    0    0  0.00000000000E+00  0.00000000000E+00  0.95271828238E+02  0.20949500570E+04  0.20927826022E+04 0.  0.
        4    1    3    3  502    0  0.93553863511E+03 -0.18218701738E+03  0.47994948277E+03  0.10671353082E+04  0.12699999809E+01 0. -1.
       -4    1    3    3    0  502 -0.93553863511E+03  0.18218701738E+03 -0.38467765454E+03  0.10278147488E+04  0.12699999809E+01 0.  1.
</event>
<event>
 5   0  0.8872777E-05  0.2089327E+04  0.7818609E-02  0.8565959E-01
        2   -1    0    0  501    0  0.00000000000E+00  0.00000000000E+00  0.25043389256E+04  0.25043389256E+04  0.25500000920E-02 0.  1.
       -2   -1    0    0    0  501  0.00000000000E+00  0.00000000000E+00 -0.43577246943E+03  0.43577246944E+03  0.25500000920E-02 0. -1.
    10030    2    1    2    0    0  0.00000000000E+00  0.00000000000E+00  0.20685664562E+04  0.29401113950E+04  0.20893271241E+04 0.  0.
        3    1    3    3  502    0  0.56555888260E+03  0.86035246196E+03  0.78548741259E+03  0.12950110787E+04  0.10100000352E+00 0. -1.
       -3    1    3    3    0  502 -0.56555888260E+03 -0.86035246196E+03  0.12830790436E+04  0.16451003163E+04  0.10100000352E+00 0.  1.
</event>
<event>
 5   0  0.4128678E-05  0.2094678E+04  0.7818609E-02  0.8563591E-01
        1   -1    0    0  501    0  0.00000000000E+00  0.00000000000E+00  0.12031280418E+04  0.12031280418E+04  0.50400001928E-02 0. -1.
       -1   -1    0    0    0  501  0.00000000000E+00  0.00000000000E+00 -0.91172244436E+03  0.91172244437E+03  0.50400001928E-02 0.  1.
    10030    2    1    2    0    0  0.00000000000E+00  0.00000000000E+00  0.29140559740E+03  0.21148504861E+04  0.20946778646E+04 0.  0.
        5    1    3    3  502    0 -0.59802775875E+02 -0.36861533149E+03  0.11336162896E+04  0.11935500060E+04  0.46999998093E+01 0. -1.
       -5    1    3    3    0  502  0.59802775875E+02  0.36861533149E+03 -0.84221069225E+03  0.92130048016E+03  0.46999998093E+01 0.  1.
</event>
<event>
 5   0  0.4050368E-05  0.2029553E+04  0.7818609E-02  0.8592927E-01
       -1   -1    0    0    0  501  0.00000000000E+00  0.00000000000E+00  0.35516332549E+03  0.35516332553E+03  0.50400001928E-02 0. -1.
        1   -1    0    0  501    0  0.00000000000E+00  0.00000000000E+00 -0.28994314357E+04  0.28994314357E+04  0.50400001928E-02 0.  1.
    10030    2    1    2    0    0  0.00000000000E+00  0.00000000000E+00 -0.25442681102E+04  0.32545947612E+04  0.20295533605E+04 0.  0.
        2    1    3    3  502    0 -0.67222416170E+03 -0.21445954174E+03 -0.24416571038E+04  0.25415679474E+04  0.25500000920E-02 0.  1.
       -2    1    3    3    0  502  0.67222416170E+03  0.21445954174E+03 -0.10261100640E+03  0.71302681384E+03  0.25500000920E-02 0. -1.
</event>
<event>
 5   0  0.9086985E-05  0.2092182E+04  0.7818609E-02  0.8564695E-01
        2   -1    0    0  501    0  0.00000000000E+00  0.00000000000E+00  0.16101212085E+04  0.16101212085E+04  0.25500000920E-02 0.  1.
       -2   -1    0    0    0  501  0.00000000000E+00  0.00000000000E+00 -0.67964210447E+03  0.67964210447E+03  0.25500000920E-02 0. -1.
    10030    2    1    2    0    0  0.00000000000E+00  0.00000000000E+00  0.93047910406E+03  0.22897633130E+04  0.20921817958E+04 0.  0.
        5    1    3    3  502    0 -0.32622655247E+03 -0.35146631544E+03  0.14827324934E+04  0.15583549247E+04  0.46999998093E+01 0.  1.
       -5    1    3    3    0  502  0.32622655247E+03  0.35146631544E+03 -0.55225338933E+03  0.73140838828E+03  0.46999998093E+01 0. -1.
</event>
<event>
 5   0  0.4182977E-05  0.2077997E+04  0.7818609E-02  0.8570998E-01
        1   -1    0    0  501    0  0.00000000000E+00  0.00000000000E+00  0.12258706278E+04  0.12258706278E+04  0.50400001928E-02 0. -1.
       -1   -1    0    0    0  501  0.00000000000E+00  0.00000000000E+00 -0.88061287301E+03  0.88061287303E+03  0.50400001928E-02 0.  1.
    10030    2    1    2    0    0  0.00000000000E+00  0.00000000000E+00  0.34525775476E+03  0.21064835008E+04  0.20779965885E+04 0.  0.
        1    1    3    3  502    0  0.24740015450E+03 -0.51616257344E+03  0.10516300748E+04  0.11973121786E+04  0.50400001928E-02 0. -1.
       -1    1    3    3    0  502 -0.24740015450E+03  0.51616257344E+03 -0.70637232004E+03  0.90917132225E+03  0.50400001928E-02 0.  1.
</event>
<event>
 5   0  0.4182977E-05  0.2120666E+04  0.7818609E-02  0.8552194E-01
        1   -1    0    0  501    0  0.00000000000E+00  0.00000000000E+00  0.21436852939E+04  0.21436852939E+04  0.50400001928E-02 0.  1.
       -1   -1    0    0    0  501  0.00000000000E+00  0.00000000000E+00 -0.52447365479E+03  0.52447365481E+03  0.50400001928E-02 0. -1.
    10030    2    1    2    0    0  0.00000000000E+00  0.00000000000E+00  0.16192116391E+04  0.26681589487E+04  0.21206663677E+04 0.  0.
        1    1    3    3  502    0 -0.69045782042E+03  0.35757064534E+03 -0.97427205462E+02  0.78363309564E+03  0.50400001928E-02 0. -1.
       -1    1    3    3    0  502  0.69045782042E+03 -0.35757064534E+03  0.17166388445E+04  0.18845258530E+04  0.50400001928E-02 0.  1.
</event>
<event>
 5   0  0.8872777E-05  0.1918579E+04  0.7818609E-02  0.8645663E-01
        2   -1    0    0  501    0  0.00000000000E+00  0.00000000000E+00  0.11176225990E+04  0.11176225990E+04  0.25500000920E-02 0. -1.
       -2   -1    0    0    0  501  0.00000000000E+00  0.00000000000E+00 -0.82338779457E+03  0.82338779457E+03  0.25500000920E-02 0.  1.
    10030    2    1    2    0    0  0.00000000000E+00  0.00000000000E+00  0.29423480444E+03  0.19410103936E+04  0.19185794818E+04 0.  0.
        3    1    3    3  502    0 -0.19397119941E+03 -0.23470573323E+03  0.10674370132E+04  0.11100150426E+04  0.10100000352E+00 0. -1.
       -3    1    3    3    0  502  0.19397119941E+03  0.23470573323E+03 -0.77320220880E+03  0.83099535095E+03  0.10100000352E+00 0.  1.
</event>
<event>
 5   0  0.4200061E-05  0.2102478E+04  0.7818609E-02  0.8560153E-01
        1   -1    0    0  501    0  0.00000000000E+00  0.00000000000E+00  0.15357932724E+04  0.15357932724E+04  0.50400001928E-02 0.  1.
       -1   -1    0    0    0  501  0.00000000000E+00  0.00000000000E+00 -0.71956513716E+03  0.71956513718E+03  0.50400001928E-02 0. -1.
    10030    2    1    2    0    0  0.00000000000E+00  0.00000000000E+00  0.81622813526E+03  0.22553584096E+04  0.21024778684E+04 0.  0.
        4    1    3    3  502    0 -0.54624815950E+03  0.23051184240E+03 -0.52309780832E+03  0.79066787668E+03  0.12699999809E+01 0. -1.
       -4    1    3    3    0  502  0.54624815950E+03 -0.23051184240E+03  0.13393259436E+04  0.14646905329E+04  0.12699999809E+01 0.  1.
</event>
<event>
 5   0  0.4182977E-05  0.2069629E+04  0.7818609E-02  0.8574741E-01
        1   -1    0    0  501    0  0.00000000000E+00  0.00000000000E+00  0.10091341743E+04  0.10091341743E+04  0.50400001928E-02 0. -1.
       -1   -1    0    0    0  501  0.00000000000E+00  0.00000000000E+00 -0.10611479861E+04  0.10611479861E+04  0.50400001928E-02 0.  1.
    10030    2    1    2    0    0  0.00000000000E+00  0.00000000000E+00 -0.52013811745E+02  0.20702821604E+04  0.20696286592E+04 0.  0.
        1    1    3    3  502    0 -0.26561471608E+03  0.58164794010E+03  0.78786858009E+03  0.10146932557E+04  0.50400001928E-02 0. -1.
       -1    1    3    3    0  502  0.26561471608E+03 -0.58164794010E+03 -0.83988239183E+03  0.10555889047E+04  0.50400001928E-02 0.  1.
</event>
<event>
 5   0  0.9086985E-05  0.2120989E+04  0.7818609E-02  0.8552054E-01
       -2   -1    0    0    0  501  0.00000000000E+00  0.00000000000E+00  0.84495893824E+03  0.84495893824E+03  0.25500000920E-02 0. -1.
        2   -1    0    0  501    0  0.00000000000E+00  0.00000000000E+00 -0.13310096583E+04  0.13310096583E+04  0.25500000920E-02 0.  1.
    10030    2    1    2    0    0  0.00000000000E+00  0.00000000000E+00 -0.48605072008E+03  0.21759685966E+04  0.21209889275E+04 0.  0.
        5    1    3    3  502    0 -0.20218008079E+03 -0.68631714967E+03  0.56002851895E+03  0.90860445026E+03  0.46999998093E+01 0. -1.
       -5    1    3    3    0  502  0.20218008079E+03  0.68631714967E+03 -0.10460792390E+04  0.12673641463E+04  0.46999998093E+01 0.  1.
</event>
<event>
 5   0  0.4128678E-05  0.2120128E+04  0.7818609E-02  0.8552428E-01
        1   -1    0    0  501    0  0.00000000000E+00  0.00000000000E+00  0.15848190814E+04  0.15848190814E+04  0.50400001928E-02 0.  1.
       -1   -1    0    0    0  501  0.00000000000E+00  0.00000000000E+00 -0.70906229526E+03  0.70906229528E+03  0.50400001928E-02 0. -1.
    10030    2    1    2    0    0  0.00000000000E+00  0.00000000000E+00  0.87575678610E+03  0.22938813767E+04  0.21201277843E+04 0.  0.
        5    1    3    3  502    0  0.56491783162E+03  0.22032407264E+03 -0.50288601273E+03  0.78777616444E+03  0.46999998093E+01 0. -1.
       -5    1    3    3    0  502 -0.56491783162E+03 -0.22032407264E+03  0.13786427988E+04  0.15061052122E+04  0.46999998093E+01 0.  1.
</event>
<event>
 5   0  0.8872777E-05  0.2084683E+04  0.7818609E-02  0.8568021E-01
        2   -1    0    0  501    0  0.00000000000E+00  0.00000000000E+00  0.63628759983E+03  0.63628759983E+03  0.25500000920E-02 0. -1.
       -2   -1    0    0    0  501  0.00000000000E+00  0.00000000000E+00 -0.17075227199E+04  0.17075227199E+04  0.25500000920E-02 0.  1.
    10030    2    1    2    0    0  0.00000000000E+00  0.00000000000E+00 -0.10712351200E+04  0.23438103197E+04  0.20846827414E+04 0.  0.
        3    1    3    3  502    0 -0.30593842456E+03 -0.99452265676E+03 -0.46629378957E+03  0.11402208307E+04  0.10100000352E+00 0.  1.
       -3    1    3    3    0  502  0.30593842456E+03  0.99452265676E+03 -0.60494133046E+03  0.12035894890E+04  0.10100000352E+00 0. -1.
</event>
<event>
 5   0  0.4050368E-05  0.2160906E+04  0.7818609E-02  0.8534878E-01
        1   -1    0    0  501    0  0.00000000000E+00  0.00000000000E+00  0.13485899415E+04  0.13485899415E+04  0.50400001928E-02 0. -1.
       -1   -1    0    0    0  501  0.00000000000E+00  0.00000000000E+00 -0.86562911824E+03  0.86562911826E+03  0.50400001928E-02 0.  1.
    10030    2    1    2    0    0  0.00000000000E+00  0.00000000000E+00  0.48296082329E+03  0.22142190598E+04  0.21609060340E+04 0.  0.
        2    1    3    3  502    0  0.56993720636E+03 -0.89186964685E+03  0.46390458157E+03  0.11556242239E+04  0.25500000920E-02 0. -1.
       -2    1    3    3    0  502 -0.56993720636E+03  0.89186964685E+03  0.19056241726E+02  0.10585948359E+04  0.25500000920E-02 0.  1.
</event>
<event>
 5   0  0.4200061E-05  0.2102671E+04  0.7818609E-02  0.8560068E-01
       -1   -1    0    0    0  501  0.00000000000E+00  0.00000000000E+00  0.82093519891E+03  0.82093519892E+03  0.50400001928E-02 0. -1.
        1   -1    0    0  501    0  0.00000000000E+00  0.00000000000E+00 -0.13463991497E+04  0.13463991497E+04  0.50400001928E-02 0.  1.
    10030    2    1    2    0    0  0.00000000000E+00  0.00000000000E+00 -0.52546395083E+03  0.21673343487E+04  0.21026711144E+04 0.  0.
        4    1    3    3  502    0  0.34686046285E+03 -0.41145962380E+03  0.66820033287E+03  0.85796532590E+03  0.12699999809E+01 0. -1.
       -4    1    3    3    0  502 -0.34686046285E+03  0.41145962380E+03 -0.11936642837E+04  0.13093690228E+04  0.12699999809E+01 0.  1.
</event>
<event>
 5   0  0.4182977E-05  0.2238114E+04  0.7818609E-02  0.8502730E-01
        1   -1    0    0  501    0  0.00000000000E+00  0.00000000000E+00  0.12686179332E+04  0.12686179332E+04  0.50400001928E-02 0. -1.
       -1   -1    0    0    0  501  0.00000000000E+00  0.00000000000E+00 -0.98712822831E+03  0.98712822833E+03  0.50400001928E-02 0.  1.
    10030    2    1    2    0    0  0.00000000000E+00  0.00000000000E+00  0.28148970491E+03  0.22557461616E+04  0.22381140032E+04 0.  0.
        1    1    3    3  502    0  0.52320956593E+03 -0.43760510896E+03  0.10348878963E+04  0.12394512654E+04  0.50400001928E-02 0. -1.
       -1    1    3    3    0  502 -0.52320956593E+03  0.43760510896E+03 -0.75339819138E+03  0.10162948962E+04  0.50400001928E-02 0.  1.
</event>
<event>
 5   0  0.4200061E-05  0.2099201E+04  0.7818609E-02  0.8561595E-01
        1   -1    0    0  501    0  0.00000000000E+00  0.00000000000E+00  0.24814697993E+04  0.24814697993E+04  0.50400001928E-02 0.  1.
       -1   -1    0    0    0  501  0.00000000000E+00  0.00000000000E+00 -0.44395525636E+03  0.44395525639E+03  0.50400001928E-02 0. -1.
    10030    2    1    2    0    0  0.00000000000E+00  0.00000000000E+00  0.20375145429E+04  0.29254250557E+04  0.20992013347E+04 0.  0.
        4    1    3    3  502    0 -0.16223904513E+03 -0.99294765076E+03  0.60209169853E+03  0.11725112244E+04  0.12699999809E+01 0. -1.
       -4    1    3    3    0  502  0.16223904513E+03  0.99294765076E+03  0.14354228444E+04  0.17529138313E+04  0.12699999809E+01 0.  1.
</event>
<event>
 5   0  0.9012466E-05  0.2047867E+04  0.7818609E-02  0.8584563E-01
       -2   -1    0    0    0  501  0.00000000000E+00  0.00000000000E+00  0.98879197940E+03  0.98879197940E+03  0.25500000920E-02 0.  1.
        2   -1    0    0  501    0  0.00000000000E+00  0.00000000000E+00 -0.10603240025E+04  0.10603240025E+04  0.25500000920E-02 0. -1.
    10030    2    1    2    0    0  0.00000000000E+00  0.00000000000E+00 -0.71532023092E+02  0.20491159819E+04  0.20478670555E+04 0.  0.
        2    1    3    3  502    0  0.65982759810E+02 -0.17815082568E+03 -0.10425349027E+04  0.10597030077E+04  0.25500000920E-02 0. -1.
       -2    1    3    3    0  502 -0.65982759810E+02  0.17815082568E+03  0.97100287958E+03  0.98941297417E+03  0.25500000920E-02 0.  1.
</event>
<event>
 5   0  0.8858590E-05  0.2100059E+04  0.7818609E-02  0.8561217E-01
        2   -1    0    0  501    0  0.00000000000E+00  0.00000000000E+00  0.15874469937E+04  0.15874469937E+04  0.25500000920E-02 0.  1.
       -2   -1    0    0    0  501  0.00000000000E+00  0.00000000000E+00 -0.69455027409E+03  0.69455027409E+03  0.25500000920E-02 0. -1.
    10030    2    1    2    0    0  0.00000000000E+00  0.00000000000E+00  0.89289671961E+03  0.22819972678E+04  0.21000588035E+04 0.  0.
        1    1    3    3  502    0 -0.65536420524E+03  0.53427571175E+03  0.11229682540E+04  0.14057063979E+04  0.50400001928E-02 0.  1.
       -1    1    3    3    0  502  0.65536420524E+03 -0.53427571175E+03 -0.23007153437E+03  0.87629086988E+03  0.50400001928E-02 0. -1.
</event>
<event>
 5   0  0.8872777E-05  0.2101082E+04  0.7818609E-02  0.8560767E-01
        2   -1    0    0  501    0  0.00000000000E+00  0.00000000000E+00  0.32121642604E+04  0.32121642604E+04  0.25500000920E-02 0.  1.
       -2   -1    0    0    0  501  0.00000000000E+00  0.00000000000E+00 -0.34358044963E+03  0.34358044964E+03  0.25500000920E-02 0. -1.
    10030    2    1    2    0    0  0.00000000000E+00  0.00000000000E+00  0.28685838108E+04  0.35557447100E+04  0.21010824267E+04 0.  0.
        3    1    3    3  502    0  0.97990766084E+02  0.68736078320E+03  0.10005658615E+03  0.70148297709E+03  0.10100000352E+00 0. -1.
       -3    1    3    3    0  502 -0.97990766084E+02 -0.68736078320E+03  0.27685272246E+04  0.28542617329E+04  0.10100000352E+00 0.  1.
</event>
<event>
 5   0  0.8858590E-05  0.2102616E+04  0.7818609E-02  0.8560092E-01
        2   -1    0    0  501    0  0.00000000000E+00  0.00000000000E+00  0.12912638186E+04  0.12912638186E+04  0.25500000920E-02 0.  1.
       -2   -1    0    0    0  501  0.00000000000E+00  0.00000000000E+00 -0.85594358294E+03  0.85594358295E+03  0.25500000920E-02 0. -1.
    10030    2    1    2    0    0  0.00000000000E+00  0.00000000000E+00  0.43532023566E+03  0.21472074016E+04  0.21026164457E+04 0.  0.
        1    1    3    3  502    0 -0.20793456590E+03  0.34579960198E+03  0.12090388615E+04  0.12745937067E+04  0.50400001928E-02 0.  1.
       -1    1    3    3    0  502  0.20793456590E+03 -0.34579960198E+03 -0.77371862587E+03  0.87261369486E+03  0.50400001928E-02 0. -1.
</event>
<event>
 5   0  0.8547605E-05  0.2102733E+04  0.7818609E-02  0.8560041E-01
        2   -1    0    0  501    0  0.00000000000E+00  0.00000000000E+00  0.98016205195E+03  0.98016205196E+03  0.25500000920E-02 0.  1.
       -2   -1    0    0    0  501  0.00000000000E+00  0.00000000000E+00 -0.11277431542E+04  0.11277431542E+04  0.25500000920E-02 0. -1.
    10030    2    1    2    0    0  0.00000000000E+00  0.00000000000E+00 -0.14758110229E+03  0.21079052062E+04  0.21027325499E+04 0.  0.
        4    1    3    3  502    0  0.18175338902E+03  0.64535103208E+03 -0.88563285565E+03  0.11107922474E+04  0.12699999809E+01 0. -1.
       -4    1    3    3    0  502 -0.18175338902E+03 -0.64535103208E+03  0.73805175336E+03  0.99711295878E+03  0.12699999809E+01 0.  1.
</event>
<event>
 5   0  0.4174093E-05  0.2069734E+04  0.7818609E-02  0.8574694E-01
       -1   -1    0    0    0  501  0.00000000000E+00  0.00000000000E+00  0.31501691664E+04  0.31501691664E+04  0.50400001928E-02 0. -1.
        1   -1    0    0  501    0  0.00000000000E+00  0.00000000000E+00 -0.33996569267E+03  0.33996569271E+03  0.50400001928E-02 0.  1.
    10030    2    1    2    0    0  0.00000000000E+00  0.00000000000E+00  0.28102034738E+04  0.34901348591E+04  0.20697337440E+04 0.  0.
        3    1    3    3  502    0  0.84074562894E+03  0.20887451032E+03  0.23596982245E+04  0.25136939938E+04  0.10100000352E+00 0. -1.
       -3    1    3    3    0  502 -0.84074562894E+03 -0.20887451032E+03  0.45050524925E+03  0.97644086531E+03  0.10100000352E+00 0.  1.
</event>
<event>
 5   0  0.4182977E-05  0.2080600E+04  0.7818609E-02  0.8569838E-01
       -1   -1    0    0    0  501  0.00000000000E+00  0.00000000000E+00  0.96381199730E+03  0.96381199731E+03  0.50400001928E-02 0. -1.
        1   -1    0    0  501    0  0.00000000000E+00  0.00000000000E+00 -0.11228584016E+04  0.11228584016E+04  0.50400001928E-02 0.  1.
    10030    2    1    2    0    0  0.00000000000E+00  0.00000000000E+00 -0.15904640427E+03  0.20866703989E+04  0.20806002968E+04 0.  0.
        1    1    3    3  502    0 -0.28754900586E+03 -0.18104621880E+03  0.90658605916E+03  0.96817376891E+03  0.50400001928E-02 0. -1.
       -1    1    3    3    0  502  0.28754900586E+03  0.18104621880E+03 -0.10656324634E+04  0.11184966300E+04  0.50400001928E-02 0.  1.
</event>
<event>
 5   0  0.4128678E-05  0.2172021E+04  0.7818609E-02  0.8530165E-01
       -1   -1    0    0    0  501  0.00000000000E+00  0.00000000000E+00  0.60406432827E+03  0.60406432829E+03  0.50400001928E-02 0.  1.
        1   -1    0    0  501    0  0.00000000000E+00  0.00000000000E+00 -0.19524719778E+04  0.19524719778E+04  0.50400001928E-02 0. -1.
    10030    2    1    2    0    0  0.00000000000E+00  0.00000000000E+00 -0.13484076496E+04  0.25565363061E+04  0.21720208782E+04 0.  0.
        5    1    3    3  502    0  0.68943231236E+02  0.36539227560E+03  0.52679019732E+03  0.64482143745E+03  0.46999998093E+01 0.  1.
       -5    1    3    3    0  502 -0.68943231236E+02 -0.36539227560E+03 -0.18751978469E+04  0.19117148687E+04  0.46999998093E+01 0. -1.
</event>
<event>
 5   0  0.4182977E-05  0.2110677E+04  0.7818609E-02  0.8556555E-01
        1   -1    0    0  501    0  0.00000000000E+00  0.00000000000E+00  0.10076524041E+04  0.10076524042E+04  0.50400001928E-02 0.  1.
       -1   -1    0    0    0  501  0.00000000000E+00  0.00000000000E+00 -0.11052813478E+04  0.11052813478E+04  0.50400001928E-02 0. -1.
    10030    2    1    2    0    0  0.00000000000E+00  0.00000000000E+00 -0.97628943682E+02  0.21129337520E+04  0.21106770548E+04 0.  0.
        1    1    3    3  502    0 -0.68344920393E+03 -0.42330692415E+03  0.63561810240E+03  0.10248423969E+04  0.50400001928E-02 0.  1.
       -1    1    3    3    0  502  0.68344920393E+03  0.42330692415E+03 -0.73324704608E+03  0.10880913551E+04  0.50400001928E-02 0. -1.
</event>
<event>
 5   0  0.4200061E-05  0.2100998E+04  0.7818609E-02  0.8560804E-01
       -1   -1    0    0    0  501  0.00000000000E+00  0.00000000000E+00  0.10674320789E+04  0.10674320789E+04  0.50400001928E-02 0.  1.
        1   -1    0    0  501    0  0.00000000000E+00  0.00000000000E+00 -0.10338340472E+04  0.10338340473E+04  0.50400001928E-02 0. -1.
    10030    2    1    2    0    0  0.00000000000E+00  0.00000000000E+00  0.33598031618E+02  0.21012661261E+04  0.21009975024E+04 0.  0.
        4    1    3    3  502    0  0.96716656774E+03  0.40889627836E+03  0.47440771555E+02  0.10511230070E+04  0.12699999809E+01 0. -1.
       -4    1    3    3    0  502 -0.96716656774E+03 -0.40889627836E+03 -0.13842739937E+02  0.10501431191E+04  0.12699999809E+01 0.  1.
</event>
<event>
 5   0  0.4174093E-05  0.2046409E+04  0.7818609E-02  0.8585225E-01
       -1   -1    0    0    0  501  0.00000000000E+00  0.00000000000E+00  0.61583444690E+03  0.61583444692E+03  0.50400001928E-02 0.  1.
        1   -1    0    0  501    0  0.00000000000E+00  0.00000000000E+00 -0.17000465792E+04  0.17000465792E+04  0.50400001928E-02 0. -1.
    10030    2    1    2    0    0  0.00000000000E+00  0.00000000000E+00 -0.10842121323E+04  0.23158810261E+04  0.20464088006E+04 0.  0.
        3    1    3    3  502    0  0.98191510225E+03 -0.29006317966E+02 -0.21814365743E+03  0.10062729749E+04  0.10100000352E+00 0.  1.
       -3    1    3    3    0  502 -0.98191510225E+03  0.29006317966E+02 -0.86606847488E+03  0.13096080512E+04  0.10100000352E+00 0. -1.
</event>
<event>
 5   0  0.8547605E-05  0.2104697E+04  0.7818609E-02  0.8559177E-01
       -2   -1    0    0    0  501  0.00000000000E+00  0.00000000000E+00  0.11243407638E+04  0.11243407638E+04  0.25500000920E-02 0. -1.
        2   -1    0    0  501    0  0.00000000000E+00  0.00000000000E+00 -0.98496552411E+03  0.98496552411E+03  0.25500000920E-02 0.  1.
    10030    2    1    2    0    0  0.00000000000E+00  0.00000000000E+00  0.13937523965E+03  0.21093062879E+04  0.21046965479E+04 0.  0.
        4    1    3    3  502    0 -0.13781905260E+03 -0.33574613492E+03 -0.92025907331E+03  0.98924108956E+03  0.12699999809E+01 0.  1.
       -4    1    3    3    0  502  0.13781905260E+03  0.33574613492E+03  0.10596343130E+04  0.11200651983E+04  0.12699999809E+01 0. -1.
</event>
<event>
 5   0  0.4050368E-05  0.2078977E+04  0.7818609E-02  0.8570561E-01
       -1   -1    0    0    0  501  0.00000000000E+00  0.00000000000E+00  0.45049716835E+03  0.45049716837E+03  0.50400001928E-02 0.  1.
        1   -1    0    0  501    0  0.00000000000E+00  0.00000000000E+00 -0.23985415044E+04  0.23985415044E+04  0.50400001928E-02 0. -1.
    10030    2    1    2    0    0  0.00000000000E+00  0.00000000000E+00 -0.19480443361E+04  0.28490386728E+04  0.20789768214E+04 0.  0.
        2    1    3    3  502    0  0.34844801927E+03  0.40949964273E+03  0.24512181538E+03  0.59092358551E+03  0.25500000920E-02 0.  1.
       -2    1    3    3    0  502 -0.34844801927E+03 -0.40949964273E+03 -0.21931661514E+04  0.22581150873E+04  0.25500000920E-02 0. -1.
</event>
<event>
 5   0  0.4174093E-05  0.2067622E+04  0.7818609E-02  0.8575642E-01
        1   -1    0    0  501    0  0.00000000000E+00  0.00000000000E+00  0.15070468006E+04  0.15070468006E+04  0.50400001928E-02 0. -1.
       -1   -1    0    0    0  501  0.00000000000E+00  0.00000000000E+00 -0.70917847593E+03  0.70917847595E+03  0.50400001928E-02 0.  1.
    10030    2    1    2    0    0  0.00000000000E+00  0.00000000000E+00  0.79786832470E+03  0.22162252766E+04  0.20676219705E+04 0.  0.
        3    1    3    3  502    0 -0.17479727654E+03  0.21696489879E+03 -0.66817702520E+03  0.72393950189E+03  0.10100000352E+00 0.  1.
       -3    1    3    3    0  502  0.17479727654E+03 -0.21696489879E+03  0.14660453499E+04  0.14922857747E+04  0.10100000352E+00 0. -1.
</event>
<event>
 5   0  0.9086985E-05  0.2124442E+04  0.7818609E-02  0.8550552E-01
       -2   -1    0    0    0  501  0.00000000000E+00  0.00000000000E+00  0.86207578368E+03  0.86207578368E+03  0.25500000920E-02 0.  1.
        2   -1    0    0  501    0  0.00000000000E+00  0.00000000000E+00 -0.13088334498E+04  0.13088334498E+04  0.25500000920E-02 0. -1.
    10030    2    1    2    0    0  0.00000000000E+00  0.00000000000E+00 -0.44675766613E+03  0.21709092335E+04  0.21244421592E+04 0.  0.
        5    1    3    3  502    0  0.47041720872E+02  0.10241921171E+04  0.60380147934E+02  0.10270590385E+04  0.46999998093E+01 0.  1.
       -5    1    3    3    0  502 -0.47041720872E+02 -0.10241921171E+04 -0.50713781406E+03  0.11438501950E+04  0.46999998093E+01 0. -1.
</event>
<event>
 5   0  0.4050368E-05  0.2074220E+04  0.7818609E-02  0.8572685E-01
        1   -1    0    0  501    0  0.00000000000E+00  0.00000000000E+00  0.19135906926E+04  0.19135906926E+04  0.50400001928E-02 0.  1.
       -1   -1    0    0    0  501  0.00000000000E+00  0.00000000000E+00 -0.56208334921E+03  0.56208334924E+03  0.50400001928E-02 0. -1.
    10030    2    1    2    0    0  0.00000000000E+00  0.00000000000E+00  0.13515073433E+04  0.24756740418E+04  0.20742203022E+04 0.  0.
        2    1    3    3  502    0 -0.71213110509E+03 -0.43072692076E+03 -0.62838257964E+02  0.83462868257E+03  0.25500000920E-02 0. -1.
       -2    1    3    3    0  502  0.71213110509E+03  0.43072692076E+03  0.14143456013E+04  0.16410453592E+04  0.25500000920E-02 0.  1.
</event>
<event>
 5   0  0.4128678E-05  0.2104050E+04  0.7818609E-02  0.8559461E-01
       -1   -1    0    0    0  501  0.00000000000E+00  0.00000000000E+00  0.46844865759E+03  0.46844865761E+03  0.50400001928E-02 0. -1.
        1   -1    0    0  501    0  0.00000000000E+00  0.00000000000E+00 -0.23625999946E+04  0.23625999946E+04  0.50400001928E-02 0.  1.
    10030    2    1    2    0    0  0.00000000000E+00  0.00000000000E+00 -0.18941513370E+04  0.28310486522E+04  0.21040501856E+04 0.  0.
        5    1    3    3  502    0 -0.35142570433E+03 -0.99090318752E+03 -0.99643186428E+03  0.14485467555E+04  0.46999998093E+01 0.  1.
       -5    1    3    3    0  502  0.35142570433E+03  0.99090318752E+03 -0.89771947270E+03  0.13825018967E+04  0.46999998093E+01 0. -1.
</event>
<event>
 5   0  0.4128678E-05  0.2120526E+04  0.7818609E-02  0.8552255E-01
       -1   -1    0    0    0  501  0.00000000000E+00  0.00000000000E+00  0.12074005217E+04  0.12074005217E+04  0.50400001928E-02 0.  1.
        1   -1    0    0  501    0  0.00000000000E+00  0.00000000000E+00 -0.93105613501E+03  0.93105613502E+03  0.50400001928E-02 0. -1.
    10030    2    1    2    0    0  0.00000000000E+00  0.00000000000E+00  0.27634438666E+03  0.21384566567E+04  0.21205260320E+04 0.  0.
        5    1    3    3  502    0  0.39773747570E+03 -0.20194398032E+03  0.11081572795E+04  0.11945757058E+04  0.46999998093E+01 0.  1.
       -5    1    3    3    0  502 -0.39773747570E+03  0.20194398032E+03 -0.83181289285E+03  0.94388095090E+03  0.46999998093E+01 0. -1.
</event>
<event>
 5   0  0.9012466E-05  0.2099111E+04  0.7818609E-02  0.8561635E-01
        2   -1    0    0  501    0  0.00000000000E+00  0.00000000000E+00  0.57460833086E+03  0.57460833087E+03  0.25500000920E-02 0. -1.
       -2   -1    0    0    0  501  0.00000000000E+00  0.00000000000E+00 -0.19170740877E+04  0.19170740877E+04  0.25500000920E-02 0.  1.
    10030    2    1    2    0    0  0.00000000000E+00  0.00000000000E+00 -0.13424657568E+04  0.24916824185E+04  0.20991109944E+04 0.  0.
        2    1    3    3  502    0  0.32587623681E+03 -0.89990762789E+03 -0.15993575801E+03  0.97036514114E+03  0.25500000920E-02 0. -1.
       -2    1    3    3    0  502 -0.32587623681E+03  0.89990762789E+03 -0.11825299988E+04  0.15213172774E+04  0.25500000920E-02 0.  1.
</event>
<event>
 5   0  0.9012466E-05  0.2115224E+04  0.7818609E-02  0.8554566E-01
        2   -1    0    0  501    0  0.00000000000E+00  0.00000000000E+00  0.11744907107E+04  0.11744907107E+04  0.25500000920E-02 0. -1.
       -2   -1    0    0    0  501  0.00000000000E+00  0.00000000000E+00 -0.95236461123E+03  0.95236461123E+03  0.25500000920E-02 0.  1.
    10030    2    1    2    0    0  0.00000000000E+00  0.00000000000E+00  0.22212609943E+03  0.21268553219E+04  0.21152242331E+04 0.  0.
        2    1    3    3  502    0  0.66264949616E+03 -0.64792341765E+03  0.62340810666E+03  0.11169363354E+04  0.25500000920E-02 0. -1.
       -2    1    3    3    0  502 -0.66264949616E+03  0.64792341765E+03 -0.40128200724E+03  0.10099189865E+04  0.25500000920E-02 0.  1.
</event>
<event>
 5   0  0.8872777E-05  0.2103165E+04  0.7818609E-02  0.8559851E-01
       -2   -1    0    0    0  501  0.00000000000E+00  0.00000000000E+00  0.84454027101E+03  0.84454027102E+03  0.25500000920E-02 0. -1.
        2   -1    0    0  501    0  0.00000000000E+00  0.00000000000E+00 -0.13093813312E+04  0.13093813312E+04  0.25500000920E-02 0.  1.
    10030    2    1    2    0    0  0.00000000000E+00  0.00000000000E+00 -0.46484106021E+03  0.21539216022E+04  0.21031645341E+04 0.  0.
        3    1    3    3  502    0  0.16313003725E+03  0.10153419811E+04 -0.73568021374E+01  0.10283894595E+04  0.10100000352E+00 0. -1.
       -3    1    3    3    0  502 -0.16313003725E+03 -0.10153419811E+04 -0.45748425808E+03  0.11255321427E+04  0.10100000352E+00 0.  1.
</event>
<event>
 5   0  0.8547605E-05  0.2056112E+04  0.7818609E-02  0.8580827E-01
       -2   -1    0    0    0  501  0.00000000000E+00  0.00000000000E+00  0.60842021293E+03  0.60842021293E+03  0.25500000920E-02 0.  1.
        2   -1    0    0  501    0  0.00000000000E+00  0.00000000000E+00 -0.17371209334E+04  0.17371209334E+04  0.25500000920E-02 0. -1.
    10030    2    1    2    0    0  0.00000000000E+00  0.00000000000E+00 -0.11287007204E+04  0.23455411463E+04  0.20561123395E+04 0.  0.
        4    1    3    3  502    0  0.51069959369E+03 -0.59844562717E+02 -0.15798891520E+04  0.16614592358E+04  0.12699999809E+01 0. -1.
       -4    1    3    3    0  502 -0.51069959369E+03  0.59844562717E+02  0.45118843154E+03  0.68408191054E+03  0.12699999809E+01 0.  1.
</event>
<event>
 5   0  0.4182977E-05  0.2128038E+04  0.7818609E-02  0.8548992E-01
        1   -1    0    0  501    0  0.00000000000E+00  0.00000000000E+00  0.63713434323E+03  0.63713434325E+03  0.50400001928E-02 0. -1.
       -1   -1    0    0    0  501  0.00000000000E+00  0.00000000000E+00 -0.17769201809E+04  0.17769201809E+04  0.50400001928E-02 0.  1.
    10030    2    1    2    0    0  0.00000000000E+00  0.00000000000E+00 -0.11397858377E+04  0.24140545242E+04  0.21280384136E+04 0.  0.
        1    1    3    3  502    0 -0.65849259120E+03 -0.62445276875E+03 -0.12000570711E+04  0.15045566547E+04  0.50400001928E-02 0.  1.
       -1    1    3    3    0  502  0.65849259120E+03  0.62445276875E+03  0.60271233441E+02  0.90949786952E+03  0.50400001928E-02 0. -1.
</event>
<event>
 5   0  0.8547605E-05  0.2112341E+04  0.7818609E-02  0.8555826E-01
        2   -1    0    0  501    0  0.00000000000E+00  0.00000000000E+00  0.12673659613E+04  0.12673659613E+04  0.25500000920E-02 0.  1.
       -2   -1    0    0    0  501  0.00000000000E+00  0.00000000000E+00 -0.88016912218E+03  0.88016912218E+03  0.25500000920E-02 0. -1.
    10030    2    1    2    0    0  0.00000000000E+00  0.00000000000E+00  0.38719683908E+03  0.21475350834E+04  0.21123412467E+04 0.  0.
        4    1    3    3  502    0  0.79596624388E+03  0.49929154042E+02 -0.51035372308E+03  0.94684619520E+03  0.12699999809E+01 0. -1.
       -4    1    3    3    0  502 -0.79596624388E+03 -0.49929154042E+02  0.89755056215E+03  0.12006888882E+04  0.12699999809E+01 0.  1.
</event>
<event>
 5   0  0.4200061E-05  0.2082455E+04  0.7818609E-02  0.8569012E-01
        1   -1    0    0  501    0  0.00000000000E+00  0.00000000000E+00  0.83294761576E+03  0.83294761578E+03  0.50400001928E-02 0.  1.
       -1   -1    0    0    0  501  0.00000000000E+00  0.00000000000E+00 -0.13015879905E+04  0.13015879905E+04  0.50400001928E-02 0. -1.
    10030    2    1    2    0    0  0.00000000000E+00  0.00000000000E+00 -0.46864037474E+03  0.21345356063E+04  0.20824549104E+04 0.  0.
        4    1    3    3  502    0  0.93919515064E+02  0.16830656806E+03  0.81450275763E+03  0.83699721102E+03  0.12699999809E+01 0.  1.
       -4    1    3    3    0  502 -0.93919515064E+02 -0.16830656806E+03 -0.12831431324E+04  0.12975383953E+04  0.12699999809E+01 0. -1.
</event>
<event>
 5   0  0.8858590E-05  0.2084755E+04  0.7818609E-02  0.8567989E-01
        2   -1    0    0  501    0  0.00000000000E+00  0.00000000000E+00  0.84797061334E+03  0.84797061335E+03  0.25500000920E-02 0.  1.
       -2   -1    0    0    0  501  0.00000000000E+00  0.00000000000E+00 -0.12813538169E+04  0.12813538169E+04  0.25500000920E-02 0. -1.
    10030    2    1    2    0    0  0.00000000000E+00  0.00000000000E+00 -0.43338320351E+03  0.21293244302E+04  0.20847545486E+04 0.  0.
        1    1    3    3  502    0  0.60059429461E+03 -0.44128225508E+03  0.52765953649E+03  0.91316379793E+03  0.50400001928E-02 0.  1.
       -1    1    3    3    0  502 -0.60059429461E+03  0.44128225508E+03 -0.96104274001E+03  0.12161606323E+04  0.50400001928E-02 0. -1.
</event>
<event>
 5   0  0.4174093E-05  0.2117541E+04  0.7818609E-02  0.8553556E-01
        1   -1    0    0  501    0  0.00000000000E+00  0.00000000000E+00  0.23129142445E+04  0.23129142445E+04  0.50400001928E-02 0. -1.
       -1   -1    0    0    0  501  0.00000000000E+00  0.00000000000E+00 -0.48466779997E+03  0.48466780000E+03  0.50400001928E-02 0.  1.
    10030    2    1    2    0    0  0.00000000000E+00  0.00000000000E+00  0.18282464446E+04  0.27975820445E+04  0.21175410820E+04 0.  0.
        3    1    3    3  502    0 -0.80238855367E+03 -0.19159523339E+03  0.17909295872E+04  0.19717923119E+04  0.10100000352E+00 0. -1.
       -3    1    3    3    0  502  0.80238855367E+03  0.19159523339E+03  0.37316857322E+02  0.82578973266E+03  0.10100000352E+00 0.  1.
</event>
<event>
 5   0  0.8872777E-05  0.2071329E+04  0.7818609E-02  0.8573980E-01
        2   -1    0    0  501    0  0.00000000000E+00  0.00000000000E+00  0.15803417723E+04  0.15803417723E+04  0.25500000920E-02 0. -1.
       -2   -1    0    0    0  501  0.00000000000E+00  0.00000000000E+00 -0.67871435038E+03  0.67871435038E+03  0.25500000920E-02 0.  1.
    10030    2    1    2    0    0  0.00000000000E+00  0.00000000000E+00  0.90162742192E+03  0.22590561227E+04  0.20713286937E+04 0.  0.
        3    1    3    3  502    0  0.69324240112E+03 -0.47978600763E+03 -0.20521806764E+03  0.86769470744E+03  0.10100000352E+00 0.  1.
       -3    1    3    3    0  502 -0.69324240112E+03  0.47978600763E+03  0.11068454896E+04  0.13913614152E+04  0.10100000352E+00 0. -1.
</event>
<event>
 5   0  0.4128678E-05  0.2088127E+04  0.7818609E-02  0.8566492E-01
        1   -1    0    0  501    0  0.00000000000E+00  0.00000000000E+00  0.15432372908E+04  0.15432372908E+04  0.50400001928E-02 0. -1.
       -1   -1    0    0    0  501  0.00000000000E+00  0.00000000000E+00 -0.70635179820E+03  0.70635179822E+03  0.50400001928E-02 0.  1.
    10030    2    1    2    0    0  0.00000000000E+00  0.00000000000E+00  0.83688549262E+03  0.22495890890E+04  0.20881268500E+04 0.  0.
        5    1    3    3  502    0 -0.54901350820E+03 -0.58300919361E+03  0.11401137498E+04  0.13932684610E+04  0.46999998093E+01 0. -1.
       -5    1    3    3    0  502  0.54901350820E+03  0.58300919361E+03 -0.30322825717E+03  0.85632062802E+03  0.46999998093E+01 0.  1.
</event>
<event>
 5   0  0.8858590E-05  0.2107481E+04  0.7818609E-02  0.8557955E-01
       -2   -1    0    0    0  501  0.00000000000E+00  0.00000000000E+00  0.58342396893E+03  0.58342396894E+03  0.25500000920E-02 0. -1.
        2   -1    0    0  501    0  0.00000000000E+00  0.00000000000E+00 -0.19031937950E+04  0.19031937950E+04  0.25500000920E-02 0.  1.
    10030    2    1    2    0    0  0.00000000000E+00  0.00000000000E+00 -0.13197698261E+04  0.24866177640E+04  0.21074808446E+04 0.  0.
        1    1    3    3  502    0 -0.57074884121E+02  0.93033307306E+02  0.57673648215E+03  0.58697334568E+03  0.50400001928E-02 0. -1.
       -1    1    3    3    0  502  0.57074884121E+02 -0.93033307306E+02 -0.18965063083E+04  0.18996444183E+04  0.50400001928E-02 0.  1.
</event>
<event>
 5   0  0.8872777E-05  0.2085107E+04  0.7818609E-02  0.8567832E-01
       -2   -1    0    0    0  501  0.00000000000E+00  0.00000000000E+00  0.81855748616E+03  0.81855748616E+03  0.25500000920E-02 0.  1.
        2   -1    0    0  501    0  0.00000000000E+00  0.00000000000E+00 -0.13278460348E+04  0.13278460348E+04  0.25500000920E-02 0. -1.
    10030    2    1    2    0    0  0.00000000000E+00  0.00000000000E+00 -0.50928854864E+03  0.21464035210E+04  0.20851074910E+04 0.  0.
        3    1    3    3  502    0 -0.87255021753E+03  0.28378204294E+03  0.25492512546E+03  0.95229352608E+03  0.10100000352E+00 0.  1.
       -3    1    3    3    0  502  0.87255021753E+03 -0.28378204294E+03 -0.76421367410E+03  0.11941099949E+04  0.10100000352E+00 0. -1.
</event>
<event>
 5   0  0.4128678E-05  0.2086547E+04  0.7818609E-02  0.8567193E-01
       -1   -1    0    0    0  501  0.00000000000E+00  0.00000000000E+00  0.61707789644E+03  0.61707789646E+03  0.50400001928E-02 0. -1.
        1   -1    0    0  501    0  0.00000000000E+00  0.00000000000E+00 -0.17638287742E+04  0.17638287742E+04  0.50400001928E-02 0.  1.
    10030    2    1    2    0    0  0.00000000000E+00  0.00000000000E+00 -0.11467508777E+04  0.23809066706E+04  0.20865471475E+04 0.  0.
        5    1    3    3  502    0  0.25492638227E+03 -0.15567232303E+02 -0.17275928313E+04  0.17463759274E+04  0.46999998093E+01 0.  1.
       -5    1    3    3    0  502 -0.25492638227E+03  0.15567232303E+02  0.58084195356E+03  0.63453074324E+03  0.46999998093E+01 0. -1.
</event>
<event>
 5   0  0.4200061E-05  0.2096925E+04  0.7818609E-02  0.8562599E-01
       -1   -1    0    0    0  501  0.00000000000E+00  0.00000000000E+00  0.79804343060E+03  0.79804343061E+03  0.50400001928E-02 0.  1.
        1   -1    0    0  501    0  0.00000000000E+00  0.00000000000E+00 -0.13774610978E+04  0.13774610978E+04  0.50400001928E-02 0. -1.
    10030    2    1    2    0    0  0.00000000000E+00  0.00000000000E+00 -0.57941766724E+03  0.21755045285E+04  0.20969251585E+04 0.  0.
        4    1    3    3  502    0 -0.93463488682E+03  0.10125252303E+03 -0.77129970833E+03  0.12160178033E+04  0.12699999809E+01 0. -1.
       -4    1    3    3    0  502  0.93463488682E+03 -0.10125252303E+03  0.19188204109E+03  0.95948672512E+03  0.12699999809E+01 0.  1.
</event>
<event>
 5   0  0.4050368E-05  0.2088402E+04  0.7818609E-02  0.8566370E-01
        1   -1    0    0  501    0  0.00000000000E+00  0.00000000000E+00  0.13101778128E+04  0.13101778129E+04  0.50400001928E-02 0. -1.
       -1   -1    0    0    0  501  0.00000000000E+00  0.00000000000E+00 -0.83221934066E+03  0.83221934068E+03  0.50400001928E-02 0.  1.
    10030    2    1    2    0    0  0.00000000000E+00  0.00000000000E+00  0.47795847219E+03  0.21423971535E+04  0.20884016047E+04 0.  0.
        2    1    3    3  502    0 -0.40124244799E+03 -0.88986105039E+03  0.61938629272E+03  0.11560655564E+04  0.25500000920E-02 0. -1.
       -2    1    3    3    0  502  0.40124244799E+03  0.88986105039E+03 -0.14142782054E+03  0.98633159713E+03  0.25500000920E-02 0.  1.
</event>
<event>
 5   0  0.8547605E-05  0.2095996E+04  0.7818609E-02  0.8563009E-01
        2   -1    0    0  501    0  0.00000000000E+00  0.00000000000E+00  0.20874301193E+04  0.20874301193E+04  0.25500000920E-02 0. -1.
       -2   -1    0    0    0  501  0.00000000000E+00  0.00000000000E+00 -0.52614915789E+03  0.52614915789E+03  0.25500000920E-02 0.  1.
    10030    2    1    2    0    0  0.00000000000E+00  0.00000000000E+00  0.15612809614E+04  0.26135792772E+04  0.20959958010E+04 0.  0.
        4    1    3    3  502    0 -0.82124462239E+02  0.19905715825E+03  0.20595465557E+04  0.20707732391E+04  0.12699999809E+01 0. -1.
       -4    1    3    3    0  502  0.82124462239E+02 -0.19905715825E+03 -0.49826559436E+03  0.54280603808E+03  0.12699999809E+01 0.  1.
</event>
<event>
 5   0  0.8858590E-05  0.2131740E+04  0.7818609E-02  0.8547389E-01
        2   -1    0    0  501    0  0.00000000000E+00  0.00000000000E+00  0.12972339383E+04  0.12972339383E+04  0.25500000920E-02 0.  1.
       -2   -1    0    0    0  501  0.00000000000E+00  0.00000000000E+00 -0.87576981851E+03  0.87576981851E+03  0.25500000920E-02 0. -1.
    10030    2    1    2    0    0  0.00000000000E+00  0.00000000000E+00  0.42146411981E+03  0.21730037568E+04  0.21317395063E+04 0.  0.
        1    1    3    3  502    0  0.22044681548E+03  0.19048590105E+03 -0.83439316095E+03  0.88379501244E+03  0.50400001928E-02 0. -1.
       -1    1    3    3    0  502 -0.22044681548E+03 -0.19048590105E+03  0.12558572808E+04  0.12892087444E+04  0.50400001928E-02 0.  1.
</event>
<event>
 5   0  0.4182977E-05  0.2082223E+04  0.7818609E-02  0.8569115E-01
        1   -1    0    0  501    0  0.00000000000E+00  0.00000000000E+00  0.41610958872E+03  0.41610958875E+03  0.50400001928E-02 0. -1.
       -1   -1    0    0    0  501  0.00000000000E+00  0.00000000000E+00 -0.26048739468E+04  0.26048739468E+04  0.50400001928E-02 0.  1.
    10030    2    1    2    0    0  0.00000000000E+00  0.00000000000E+00 -0.21887643581E+04  0.30209835356E+04  0.20822228764E+04 0.  0.
        1    1    3    3  502    0  0.94048705533E+03  0.38393713939E+03 -0.14251921118E+04  0.17501703300E+04  0.50400001928E-02 0.  1.
       -1    1    3    3    0  502 -0.94048705533E+03 -0.38393713939E+03 -0.76357224625E+03  0.12708132056E+04  0.50400001928E-02 0. -1.
</event>
<event>
 5   0  0.9086985E-05  0.2095671E+04  0.7818609E-02  0.8563153E-01
       -2   -1    0    0    0  501  0.00000000000E+00  0.00000000000E+00  0.20669623846E+04  0.20669623846E+04  0.25500000920E-02 0.  1.
        2   -1    0    0  501    0  0.00000000000E+00  0.00000000000E+00 -0.53119471868E+03  0.53119471868E+03  0.25500000920E-02 0. -1.
    10030    2    1    2    0    0  0.00000000000E+00  0.00000000000E+00  0.15357676660E+04  0.25981571033E+04  0.20956712552E+04 0.  0.
        5    1    3    3  502    0  0.71781736338E+03  0.67085858837E+03  0.31638777054E+03  0.10321997501E+04  0.46999998093E+01 0. -1.
       -5    1    3    3    0  502 -0.71781736338E+03 -0.67085858837E+03  0.12193798954E+04  0.15659573532E+04  0.46999998093E+01 0.  1.
</event>
<event>
 5   0  0.4200061E-05  0.2103807E+04  0.7818609E-02  0.8559568E-01
       -1   -1    0    0    0  501  0.00000000000E+00  0.00000000000E+00  0.16819544558E+04  0.16819544558E+04  0.50400001928E-02 0. -1.
        1   -1    0    0  501    0  0.00000000000E+00  0.00000000000E+00 -0.65786597958E+03  0.65786597960E+03  0.50400001928E-02 0.  1.
    10030    2    1    2    0    0  0.00000000000E+00  0.00000000000E+00  0.10240884762E+04  0.23398204354E+04  0.21038066601E+04 0.  0.
        4    1    3    3  502    0 -0.27347764051E+00  0.68611390011E+03  0.13988300627E+04  0.15580370714E+04  0.12699999809E+01 0. -1.
       -4    1    3    3    0  502  0.27347764051E+00 -0.68611390011E+03 -0.37474158646E+03  0.78178336401E+03  0.12699999809E+01 0.  1.
</event>
<event>
 5   0  0.4174093E-05  0.1789310E+04  0.7818609E-02  0.8712005E-01
        1   -1    0    0  501    0  0.00000000000E+00  0.00000000000E+00  0.17213074479E+04  0.17213074479E+04  0.50400001928E-02 0. -1.
       -1   -1    0    0    0  501  0.00000000000E+00  0.00000000000E+00 -0.46499957606E+03  0.46499957609E+03  0.50400001928E-02 0.  1.
    10030    2    1    2    0    0  0.00000000000E+00  0.00000000000E+00  0.12563078719E+04  0.21863070240E+04  0.17893096251E+04 0.  0.
        3    1    3    3  502    0 -0.57649421628E+03 -0.67355335690E+03  0.48159288085E+03  0.10089357854E+04  0.10100000352E+00 0.  1.
       -3    1    3    3    0  502  0.57649421628E+03  0.67355335690E+03  0.77471499101E+03  0.11773712386E+04  0.10100000352E+00 0. -1.
</event>
<event>
 5   0  0.4050368E-05  0.2105837E+04  0.7818609E-02  0.8558676E-01
        1   -1    0    0  501    0  0.00000000000E+00  0.00000000000E+00  0.23499015243E+04  0.23499015243E+04  0.50400001928E-02 0. -1.
       -1   -1    0    0    0  501  0.00000000000E+00  0.00000000000E+00 -0.47178044228E+03  0.47178044230E+03  0.50400001928E-02 0.  1.
    10030    2    1    2    0    0  0.00000000000E+00  0.00000000000E+00  0.18781210820E+04  0.28216819666E+04  0.21058372021E+04 0.  0.
        2    1    3    3  502    0  0.33221868684E+03  0.17770408594E+03  0.22564882333E+04  0.22877253211E+04  0.25500000920E-02 0. -1.
       -2    1    3    3    0  502 -0.33221868684E+03 -0.17770408594E+03 -0.37836715127E+03  0.53395664545E+03  0.25500000920E-02 0.  1.
</event>
<event>
 5   0  0.8547605E-05  0.2095323E+04  0.7818609E-02  0.8563306E-01
       -2   -1    0    0    0  501  0.00000000000E+00  0.00000000000E+00  0.73727478654E+03  0.73727478654E+03  0.25500000920E-02 0. -1.
        2   -1    0    0  501    0  0.00000000000E+00  0.00000000000E+00 -0.14887182853E+04  0.14887182853E+04  0.25500000920E-02 0.  1.
    10030    2    1    2    0    0  0.00000000000E+00  0.00000000000E+00 -0.75144349877E+03  0.22259930719E+04  0.20953228448E+04 0.  0.
        4    1    3    3  502    0 -0.99348590865E+03 -0.74173590858E+02 -0.72009263372E+03  0.12292481386E+04  0.12699999809E+01 0.  1.
       -4    1    3    3    0  502  0.99348590865E+03  0.74173590858E+02 -0.31350865054E+02  0.99674493323E+03  0.12699999809E+01 0. -1.
</event>
<event>
 5   0  0.4182977E-05  0.2180927E+04  0.7818609E-02  0.8526409E-01
        1   -1    0    0  501    0  0.00000000000E+00  0.00000000000E+00  0.13713242197E+04  0.13713242197E+04  0.50400001928E-02 0. -1.
       -1   -1    0    0    0  501  0.00000000000E+00  0.00000000000E+00 -0.86712554083E+03  0.86712554085E+03  0.50400001928E-02 0.  1.
    10030    2    1    2    0    0  0.00000000000E+00  0.00000000000E+00  0.50419867889E+03  0.22384497606E+04  0.21809266432E+04 0.  0.
        1    1    3    3  502    0  0.77692370567E+01  0.20275062304E+03  0.13517792253E+04  0.13669218156E+04  0.50400001928E-02 0. -1.
       -1    1    3    3    0  502 -0.77692370567E+01 -0.20275062304E+03 -0.84758054637E+03  0.87152794494E+03  0.50400001928E-02 0.  1.
</event>
<event>
 5   0  0.4174093E-05  0.2297937E+04  0.7818609E-02  0.8478735E-01
        1   -1    0    0  501    0  0.00000000000E+00  0.00000000000E+00  0.12707428321E+04  0.12707428321E+04  0.50400001928E-02 0. -1.
       -1   -1    0    0    0  501  0.00000000000E+00  0.00000000000E+00 -0.10388640630E+04  0.10388640630E+04  0.50400001928E-02 0.  1.
    10030    2    1    2    0    0  0.00000000000E+00  0.00000000000E+00  0.23187876909E+03  0.23096068951E+04  0.22979373896E+04 0.  0.
        3    1    3    3  502    0 -0.11137700906E+04  0.26137762822E+03  0.89706659998E+01  0.11440640551E+04  0.10100000352E+00 0.  1.
       -3    1    3    3    0  502  0.11137700906E+04 -0.26137762822E+03  0.22290810309E+03  0.11655428400E+04  0.10100000352E+00 0. -1.
</event>
<event>
 5   0  0.9012466E-05  0.2126756E+04  0.7818609E-02  0.8549548E-01
        2   -1    0    0  501    0  0.00000000000E+00  0.00000000000E+00  0.10326418221E+04  0.10326418221E+04  0.25500000920E-02 0. -1.
       -2   -1    0    0    0  501  0.00000000000E+00  0.00000000000E+00 -0.10950286936E+04  0.10950286937E+04  0.25500000920E-02 0.  1.
    10030    2    1    2    0    0  0.00000000000E+00  0.00000000000E+00 -0.62386871507E+02  0.21276705158E+04  0.21267556752E+04 0.  0.
        2    1    3    3  502    0  0.24801911606E+02 -0.49025708069E+03 -0.97489411053E+03  0.10915061460E+04  0.25500000920E-02 0.  1.
       -2    1    3    3    0  502 -0.24801911606E+02  0.49025708069E+03  0.91250723902E+03  0.10361643698E+04  0.25500000920E-02 0. -1.
</event>
<event>
 5   0  0.8547605E-05  0.2098268E+04  0.7818609E-02  0.8562007E-01
       -2   -1    0    0    0  501  0.00000000000E+00  0.00000000000E+00  0.48047715978E+03  0.48047715978E+03  0.25500000920E-02 0.  1.
        2   -1    0    0  501    0  0.00000000000E+00  0.00000000000E+00 -0.22908100126E+04  0.22908100126E+04  0.25500000920E-02 0. -1.
    10030    2    1    2    0    0  0.00000000000E+00  0.00000000000E+00 -0.18103328528E+04  0.27712871724E+04  0.20982677508E+04 0.  0.
        4    1    3    3  502    0 -0.64192138870E+03  0.18861936926E+02 -0.20008807605E+04  0.21014148264E+04  0.12699999809E+01 0. -1.
       -4    1    3    3    0  502  0.64192138870E+03 -0.18861936926E+02  0.19054790766E+03  0.66987234601E+03  0.12699999809E+01 0.  1.
</event>
<event>
 5   0  0.4128678E-05  0.2104241E+04  0.7818609E-02  0.8559377E-01
       -1   -1    0    0    0  501  0.00000000000E+00  0.00000000000E+00  0.78507569537E+03  0.78507569539E+03  0.50400001928E-02 0.  1.
        1   -1    0    0  501    0  0.00000000000E+00  0.00000000000E+00 -0.14100015291E+04  0.14100015292E+04  0.50400001928E-02 0. -1.
    10030    2    1    2    0    0  0.00000000000E+00  0.00000000000E+00 -0.62492583378E+03  0.21950772245E+04  0.21042413654E+04 0.  0.
        5    1    3    3  502    0 -0.16068017229E+03  0.29488226367E+03 -0.13525815280E+04  0.13936543858E+04  0.46999998093E+01 0. -1.
       -5    1    3    3    0  502  0.16068017229E+03 -0.29488226367E+03  0.72765569419E+03  0.80142283876E+03  0.46999998093E+01 0.  1.
</event>
<event>
 5   0  0.8547605E-05  0.2086354E+04  0.7818609E-02  0.8567279E-01
        2   -1    0    0  501    0  0.00000000000E+00  0.00000000000E+00  0.93866898576E+03  0.93866898577E+03  0.25500000920E-02 0.  1.
       -2   -1    0    0    0  501  0.00000000000E+00  0.00000000000E+00 -0.11593201237E+04  0.11593201237E+04  0.25500000920E-02 0. -1.
    10030    2    1    2    0    0  0.00000000000E+00  0.00000000000E+00 -0.22065113789E+03  0.20979891094E+04  0.20863536082E+04 0.  0.
        4    1    3    3  502    0 -0.34889571842E+03  0.77662101459E+03 -0.71647064995E+03  0.11127444575E+04  0.12699999809E+01 0. -1.
       -4    1    3    3    0  502  0.34889571842E+03 -0.77662101459E+03  0.49581951206E+03  0.98524465189E+03  0.12699999809E+01 0.  1.
</event>
<event>
 5   0  0.4050368E-05  0.2081416E+04  0.7818609E-02  0.8569474E-01
        1   -1    0    0  501    0  0.00000000000E+00  0.00000000000E+00  0.19657875728E+04  0.19657875728E+04  0.50400001928E-02 0. -1.
       -1   -1    0    0    0  501  0.00000000000E+00  0.00000000000E+00 -0.55096141011E+03  0.55096141013E+03  0.50400001928E-02 0.  1.
    10030    2    1    2    0    0  0.00000000000E+00  0.00000000000E+00  0.14148261627E+04  0.25167489829E+04  0.20814159537E+04 0.  0.
        2    1    3    3  502    0  0.54303654302E+03  0.75500882615E+03  0.14266504714E+03  0.94089336819E+03  0.25500000920E-02 0.  1.
       -2    1    3    3    0  502 -0.54303654302E+03 -0.75500882615E+03  0.12721611156E+04  0.15758556148E+04  0.25500000920E-02 0. -1.
</event>
<event>
 5   0  0.9086985E-05  0.2112320E+04  0.7818609E-02  0.8555836E-01
        2   -1    0    0  501    0  0.00000000000E+00  0.00000000000E+00  0.94553954610E+03  0.94553954610E+03  0.25500000920E-02 0.  1.
       -2   -1    0    0    0  501  0.00000000000E+00  0.00000000000E+00 -0.11797218736E+04  0.11797218736E+04  0.25500000920E-02 0. -1.
    10030    2    1    2    0    0  0.00000000000E+00  0.00000000000E+00 -0.23418232750E+03  0.21252614197E+04  0.21123197531E+04 0.  0.
        5    1    3    3  502    0 -0.49809233205E+03 -0.63959989401E+03 -0.79819335013E+03  0.11376812866E+04  0.46999998093E+01 0. -1.
       -5    1    3    3    0  502  0.49809233205E+03  0.63959989401E+03  0.56401102263E+03  0.98758013311E+03  0.46999998093E+01 0.  1.
</event>
<event>
 5   0  0.4050368E-05  0.2162120E+04  0.7818609E-02  0.8534362E-01
       -1   -1    0    0    0  501  0.00000000000E+00  0.00000000000E+00  0.72197337527E+03  0.72197337528E+03  0.50400001928E-02 0. -1.
        1   -1    0    0  501    0  0.00000000000E+00  0.00000000000E+00 -0.16187455794E+04  0.16187455794E+04  0.50400001928E-02 0.  1.
    10030    2    1    2    0    0  0.00000000000E+00  0.00000000000E+00 -0.89677220414E+03  0.23407189547E+04  0.21621204496E+04 0.  0.
        2    1    3    3  502    0  0.13612212245E+03 -0.70808349398E+03 -0.13203892008E+04  0.15044397988E+04  0.25500000920E-02 0.  1.
       -2    1    3    3    0  502 -0.13612212245E+03  0.70808349398E+03  0.42361699667E+03  0.83627915587E+03  0.25500000920E-02 0. -1.
</event>
<event>
 5   0  0.8872777E-05  0.2063883E+04  0.7818609E-02  0.8577322E-01
       -2   -1    0    0    0  501  0.00000000000E+00  0.00000000000E+00  0.10274284542E+04  0.10274284542E+04  0.25500000920E-02 0. -1.
        2   -1    0    0  501    0  0.00000000000E+00  0.00000000000E+00 -0.10364741708E+04  0.10364741708E+04  0.25500000920E-02 0.  1.
    10030    2    1    2    0    0  0.00000000000E+00  0.00000000000E+00 -0.90457165989E+01  0.20639026251E+04  0.20638828021E+04 0.  0.
        3    1    3    3  502    0 -0.43771344745E+03  0.30706635382E+03 -0.88715256655E+03  0.10358197209E+04  0.10100000352E+00 0.  1.
       -3    1    3    3    0  502  0.43771344745E+03 -0.30706635382E+03  0.87810684995E+03  0.10280829042E+04  0.10100000352E+00 0. -1.
</event>
<event>
 5   0  0.3176125E-05  0.2028471E+04  0.7818609E-02  0.8593424E-01
       -4   -1    0    0    0  501  0.00000000000E+00  0.00000000000E+00  0.12968869570E+04  0.12968875788E+04  0.12699999809E+01 0. -1.
        4   -1    0    0  501    0  0.00000000000E+00  0.00000000000E+00 -0.79318549566E+03  0.79318651238E+03  0.12699999809E+01 0.  1.
    10030    2    1    2    0    0  0.00000000000E+00  0.00000000000E+00  0.50370146133E+03  0.20900740912E+04  0.20284709869E+04 0.  0.
        4    1    3    3  502    0  0.46254862395E+03  0.72387207899E+03  0.80741948250E+03  0.11789274150E+04  0.12699999809E+01 0. -1.
       -4    1    3    3    0  502 -0.46254862395E+03 -0.72387207899E+03 -0.30371802117E+03  0.91114667619E+03  0.12699999809E+01 0.  1.
</event>
<event>
 5   0  0.9012466E-05  0.2082709E+04  0.7818609E-02  0.8568899E-01
        2   -1    0    0  501    0  0.00000000000E+00  0.00000000000E+00  0.16397875611E+04  0.16397875611E+04  0.25500000920E-02 0. -1.
       -2   -1    0    0    0  501  0.00000000000E+00  0.00000000000E+00 -0.66131690760E+03  0.66131690760E+03  0.25500000920E-02 0.  1.
    10030    2    1    2    0    0  0.00000000000E+00  0.00000000000E+00  0.97847065354E+03  0.23011044687E+04  0.20827090426E+04 0.  0.
        2    1    3    3  502    0  0.46705732784E+03  0.34376581086E+03  0.14448615773E+04  0.15569015569E+04  0.25500000920E-02 0. -1.
       -2    1    3    3    0  502 -0.46705732784E+03 -0.34376581086E+03 -0.46639092379E+03  0.74420291185E+03  0.25500000920E-02 0.  1.
</event>
<event>
 5   0  0.3176125E-05  0.2209808E+04  0.7818609E-02  0.8514357E-01
        3   -1    0    0  501    0  0.00000000000E+00  0.00000000000E+00  0.80141468318E+03  0.80141468954E+03  0.10100000352E+00 0. -1.
       -3   -1    0    0    0  501  0.00000000000E+00  0.00000000000E+00 -0.15233218811E+04  0.15233218845E+04  0.10100000352E+00 0.  1.
    10030    2    1    2    0    0  0.00000000000E+00  0.00000000000E+00 -0.72190719794E+03  0.23247365740E+04  0.22098077147E+04 0.  0.
        4    1    3    3  502    0 -0.70255737950E+03  0.80414796424E+03 -0.65956488470E+03  0.12550969165E+04  0.12699999809E+01 0. -1.
       -4    1    3    3    0  502  0.70255737950E+03 -0.80414796424E+03 -0.62342313235E+02  0.10696396575E+04  0.12699999809E+01 0.  1.
</event>
<event>
 5   0  0.8547605E-05  0.2146330E+04  0.7818609E-02  0.8541105E-01
       -2   -1    0    0    0  501  0.00000000000E+00  0.00000000000E+00  0.51583701407E+03  0.51583701408E+03  0.25500000920E-02 0.  1.
        2   -1    0    0  501    0  0.00000000000E+00  0.00000000000E+00 -0.22326484180E+04  0.22326484180E+04  0.25500000920E-02 0. -1.
    10030    2    1    2    0    0  0.00000000000E+00  0.00000000000E+00 -0.17168114040E+04  0.27484854321E+04  0.21463296051E+04 0.  0.
        4    1    3    3  502    0  0.54615803129E+03  0.78422980450E+03 -0.23319215782E+03  0.98370990479E+03  0.12699999809E+01 0.  1.
       -4    1    3    3    0  502 -0.54615803129E+03 -0.78422980450E+03 -0.14836192462E+04  0.17647755273E+04  0.12699999809E+01 0. -1.
</event>
<event>
 5   0  0.9086985E-05  0.2099629E+04  0.7818609E-02  0.8561407E-01
        2   -1    0    0  501    0  0.00000000000E+00  0.00000000000E+00  0.13860359715E+04  0.13860359715E+04  0.25500000920E-02 0. -1.
       -2   -1    0    0    0  501  0.00000000000E+00  0.00000000000E+00 -0.79515282781E+03  0.79515282782E+03  0.25500000920E-02 0.  1.
    10030    2    1    2    0    0  0.00000000000E+00  0.00000000000E+00  0.59088314372E+03  0.21811887994E+04  0.20996289408E+04 0.  0.
        5    1    3    3  502    0  0.10044599919E+04 -0.17204674348E+02  0.61199528088E+03  0.11763486685E+04  0.46999998093E+01 0. -1.
       -5    1    3    3    0  502 -0.10044599919E+04  0.17204674348E+02 -0.21112137162E+02  0.10048401308E+04  0.46999998093E+01 0.  1.
</event>
<event>
 5   0  0.4200061E-05  0.2080090E+04  0.7818609E-02  0.8570065E-01
        1   -1    0    0  501    0  0.00000000000E+00  0.00000000000E+00  0.10577613887E+04  0.10577613887E+04  0.50400001928E-02 0. -1.
       -1   -1    0    0    0  501  0.00000000000E+00  0.00000000000E+00 -0.10226257439E+04  0.10226257439E+04  0.50400001928E-02 0.  1.
    10030    2    1    2    0    0  0.00000000000E+00  0.00000000000E+00  0.35135644862E+02  0.20803871326E+04  0.20800904086E+04 0.  0.
        4    1    3    3  502    0  0.45563018986E+03  0.25181798106E+03  0.91807465293E+03  0.10554022204E+04  0.12699999809E+01 0. -1.
       -4    1    3    3    0  502 -0.45563018986E+03 -0.25181798106E+03 -0.88293900807E+03  0.10249849123E+04  0.12699999809E+01 0.  1.
</event>
<event>
 5   0  0.3176125E-05  0.2128792E+04  0.7818609E-02  0.8548665E-01
       -4   -1    0    0    0  501  0.00000000000E+00  0.00000000000E+00  0.80793930393E+03  0.80794030209E+03  0.12699999809E+01 0. -1.
        4   -1    0    0  501    0  0.00000000000E+00  0.00000000000E+00 -0.14022546164E+04  0.14022551915E+04  0.12699999809E+01 0.  1.
    10030    2    1    2    0    0  0.00000000000E+00  0.00000000000E+00 -0.59431531245E+03  0.22101954936E+04  0.21287915420E+04 0.  0.
        5    1    3    3  502    0  0.10232047122E+03 -0.33296522396E+03  0.74707644981E+03  0.82430615129E+03  0.46999998093E+01 0. -1.
       -5    1    3    3    0  502 -0.10232047122E+03  0.33296522396E+03 -0.13413917623E+04  0.13858893423E+04  0.46999998093E+01 0.  1.
</event>
<event>
 5   0  0.9086985E-05  0.2108896E+04  0.7818609E-02  0.8557335E-01
       -2   -1    0    0    0  501  0.00000000000E+00  0.00000000000E+00  0.12450179776E+04  0.12450179776E+04  0.25500000920E-02 0. -1.
        2   -1    0    0  501    0  0.00000000000E+00  0.00000000000E+00 -0.89304781354E+03  0.89304781354E+03  0.25500000920E-02 0.  1.
    10030    2    1    2    0    0  0.00000000000E+00  0.00000000000E+00  0.35197016403E+03  0.21380657911E+04  0.21088959981E+04 0.  0.
        5    1    3    3  502    0 -0.79725347375E+02  0.59966927987E+03  0.10515737376E+04  0.12131730263E+04  0.46999998093E+01 0. -1.
       -5    1    3    3    0  502  0.79725347375E+02 -0.59966927987E+03 -0.69960357355E+03  0.92489276479E+03  0.46999998093E+01 0.  1.
</event>
<event>
 5   0  0.4174093E-05  0.2108940E+04  0.7818609E-02  0.8557316E-01
        1   -1    0    0  501    0  0.00000000000E+00  0.00000000000E+00  0.11571491278E+04  0.11571491278E+04  0.50400001928E-02 0. -1.
       -1   -1    0    0    0  501  0.00000000000E+00  0.00000000000E+00 -0.96090165899E+03  0.96090165900E+03  0.50400001928E-02 0.  1.
    10030    2    1    2    0    0  0.00000000000E+00  0.00000000000E+00  0.19624746884E+03  0.21180507868E+04  0.21089395597E+04 0.  0.
        3    1    3    3  502    0 -0.52611103094E+03 -0.58543704094E+03 -0.60660371184E+03  0.99372904717E+03  0.10100000352E+00 0.  1.
       -3    1    3    3    0  502  0.52611103094E+03  0.58543704094E+03  0.80285118067E+03  0.11243217397E+04  0.10100000352E+00 0. -1.
</event>
<event>
 5   0  0.8858590E-05  0.2098797E+04  0.7818609E-02  0.8561774E-01
       -2   -1    0    0    0  501  0.00000000000E+00  0.00000000000E+00  0.62052097933E+03  0.62052097934E+03  0.25500000920E-02 0. -1.
        2   -1    0    0  501    0  0.00000000000E+00  0.00000000000E+00 -0.17746974606E+04  0.17746974606E+04  0.25500000920E-02 0.  1.
    10030    2    1    2    0    0  0.00000000000E+00  0.00000000000E+00 -0.11541764812E+04  0.23952184399E+04  0.20987968041E+04 0.  0.
        1    1    3    3  502    0 -0.24498120759E+03  0.26927802647E+02  0.58702428509E+03  0.63666192751E+03  0.50400001928E-02 0. -1.
       -1    1    3    3    0  502  0.24498120759E+03 -0.26927802647E+02 -0.17412007663E+04  0.17585565124E+04  0.50400001928E-02 0.  1.
</event>
<event>
 5   0  0.4182977E-05  0.2091282E+04  0.7818609E-02  0.8565093E-01
        1   -1    0    0  501    0  0.00000000000E+00  0.00000000000E+00  0.17412258265E+04  0.17412258265E+04  0.50400001928E-02 0.  1.
       -1   -1    0    0    0  501  0.00000000000E+00  0.00000000000E+00 -0.62792844316E+03  0.62792844318E+03  0.50400001928E-02 0. -1.
    10030    2    1    2    0    0  0.00000000000E+00  0.00000000000E+00  0.11132973833E+04  0.23691542697E+04  0.20912821163E+04 0.  0.
        1    1    3    3  502    0 -0.43649603083E+03 -0.95015483828E+03  0.54928757159E+03  0.11811180457E+04  0.50400001928E-02 0.  1.
       -1    1    3    3    0  502  0.43649603083E+03  0.95015483828E+03  0.56400981176E+03  0.11880362240E+04  0.50400001928E-02 0. -1.
</event>
<event>
 5   0  0.8858590E-05  0.2073721E+04  0.7818609E-02  0.8572909E-01
       -2   -1    0    0    0  501  0.00000000000E+00  0.00000000000E+00  0.50943293909E+03  0.50943293910E+03  0.25500000920E-02 0. -1.
        2   -1    0    0  501    0  0.00000000000E+00  0.00000000000E+00 -0.21103456541E+04  0.21103456541E+04  0.25500000920E-02 0.  1.
    10030    2    1    2    0    0  0.00000000000E+00  0.00000000000E+00 -0.16009127150E+04  0.26197785932E+04  0.20737208964E+04 0.  0.
        1    1    3    3  502    0  0.95147887690E+03  0.36855100483E+03 -0.10331880038E+04  0.14521085867E+04  0.50400001928E-02 0.  1.
       -1    1    3    3    0  502 -0.95147887690E+03 -0.36855100483E+03 -0.56772471122E+03  0.11676700065E+04  0.50400001928E-02 0. -1.
</event>
<event>
 5   0  0.8858590E-05  0.2103149E+04  0.7818609E-02  0.8559857E-01
        2   -1    0    0  501    0  0.00000000000E+00  0.00000000000E+00  0.96481230018E+03  0.96481230018E+03  0.25500000920E-02 0. -1.
       -2   -1    0    0    0  501  0.00000000000E+00  0.00000000000E+00 -0.11461390623E+04  0.11461390623E+04  0.25500000920E-02 0.  1.
    10030    2    1    2    0    0  0.00000000000E+00  0.00000000000E+00 -0.18132676212E+03  0.21109513625E+04  0.21031491293E+04 0.  0.
        1    1    3    3  502    0 -0.73765946894E+03  0.69895599321E+03 -0.36208865257E+03  0.10787906029E+04  0.50400001928E-02 0.  1.
       -1    1    3    3    0  502  0.73765946894E+03 -0.69895599321E+03  0.18076189045E+03  0.10321607596E+04  0.50400001928E-02 0. -1.
</event>
<event>
 5   0  0.9086985E-05  0.2089469E+04  0.7818609E-02  0.8565897E-01
       -2   -1    0    0    0  501  0.00000000000E+00  0.00000000000E+00  0.37674607208E+03  0.37674607209E+03  0.25500000920E-02 0.  1.
        2   -1    0    0  501    0  0.00000000000E+00  0.00000000000E+00 -0.28970968340E+04  0.28970968340E+04  0.25500000920E-02 0. -1.
    10030    2    1    2    0    0  0.00000000000E+00  0.00000000000E+00 -0.25203507620E+04  0.32738429061E+04  0.20894686910E+04 0.  0.
        5    1    3    3  502    0 -0.60437524113E+03  0.58017453094E+03 -0.22381283700E+04  0.23897934239E+04  0.46999998093E+01 0. -1.
       -5    1    3    3    0  502  0.60437524113E+03 -0.58017453094E+03 -0.28222239194E+03  0.88404948219E+03  0.46999998093E+01 0.  1.
</event>
<event>
 5   0  0.8872777E-05  0.2124174E+04  0.7818609E-02  0.8550669E-01
       -2   -1    0    0    0  501  0.00000000000E+00  0.00000000000E+00  0.10602575924E+04  0.10602575925E+04  0.25500000920E-02 0. -1.
        2   -1    0    0  501    0  0.00000000000E+00  0.00000000000E+00 -0.10639195082E+04  0.10639195082E+04  0.25500000920E-02 0.  1.
    10030    2    1    2    0    0  0.00000000000E+00  0.00000000000E+00 -0.36619157255E+01  0.21241771006E+04  0.21241739442E+04 0.  0.
        3    1    3    3  502    0 -0.42948431120E+03  0.12230136969E+03 -0.96547876036E+03  0.10637498040E+04  0.10100000352E+00 0.  1.
       -3    1    3    3    0  502  0.42948431120E+03 -0.12230136969E+03  0.96181684464E+03  0.10604272966E+04  0.10100000352E+00 0. -1.
</event>
<event>
 5   0  0.4050368E-05  0.2069711E+04  0.7818609E-02  0.8574704E-01
        1   -1    0    0  501    0  0.00000000000E+00  0.00000000000E+00  0.16145862799E+04  0.16145862799E+04  0.50400001928E-02 0. -1.
       -1   -1    0    0    0  501  0.00000000000E+00  0.00000000000E+00 -0.66328202219E+03  0.66328202221E+03  0.50400001928E-02 0.  1.
    10030    2    1    2    0    0  0.00000000000E+00  0.00000000000E+00  0.95130425771E+03  0.22778683021E+04  0.20697111419E+04 0.  0.
        2    1    3    3  502    0  0.73225011820E+03  0.46214863706E+03  0.10993522790E+04  0.13994095296E+04  0.25500000920E-02 0. -1.
       -2    1    3    3    0  502 -0.73225011820E+03 -0.46214863706E+03 -0.14804802127E+03  0.87845877248E+03  0.25500000920E-02 0.  1.
</event>
<event>
 5   0  0.4174093E-05  0.2109552E+04  0.7818609E-02  0.8557047E-01
       -1   -1    0    0    0  501  0.00000000000E+00  0.00000000000E+00  0.11767376991E+04  0.11767376991E+04  0.50400001928E-02 0. -1.
        1   -1    0    0  501    0  0.00000000000E+00  0.00000000000E+00 -0.94545482196E+03  0.94545482197E+03  0.50400001928E-02 0.  1.
    10030    2    1    2    0    0  0.00000000000E+00  0.00000000000E+00  0.23128287718E+03  0.21221925211E+04  0.21095519257E+04 0.  0.
        3    1    3    3  502    0 -0.32640655587E+03 -0.46990364246E+03 -0.77578428306E+03  0.96394602388E+03  0.10100000352E+00 0.  1.
       -3    1    3    3    0  502  0.32640655587E+03  0.46990364246E+03  0.10070671602E+04  0.11582464972E+04  0.10100000352E+00 0. -1.
</event>
<event>
 5   0  0.3176125E-05  0.2105216E+04  0.7818609E-02  0.8558949E-01
        3   -1    0    0  501    0  0.00000000000E+00  0.00000000000E+00  0.14525536955E+04  0.14525536990E+04  0.10100000352E+00 0. -1.
       -3   -1    0    0    0  501  0.00000000000E+00  0.00000000000E+00 -0.76278347151E+03  0.76278347820E+03  0.10100000352E+00 0.  1.
    10030    2    1    2    0    0  0.00000000000E+00  0.00000000000E+00  0.68977022402E+03  0.22153371772E+04  0.21052163421E+04 0.  0.
        1    1    3    3  502    0  0.92109853315E+03  0.48808195916E+03  0.19117076197E+03  0.10598078915E+04  0.50400001928E-02 0. -1.
       -1    1    3    3    0  502 -0.92109853315E+03 -0.48808195916E+03  0.49859946205E+03  0.11555292857E+04  0.50400001928E-02 0.  1.
</event>
<event>
 5   0  0.4050368E-05  0.2054216E+04  0.7818609E-02  0.8581684E-01
       -1   -1    0    0    0  501  0.00000000000E+00  0.00000000000E+00  0.10178954081E+04  0.10178954081E+04  0.50400001928E-02 0. -1.
        1   -1    0    0  501    0  0.00000000000E+00  0.00000000000E+00 -0.10364041138E+04  0.10364041138E+04  0.50400001928E-02 0.  1.
    10030    2    1    2    0    0  0.00000000000E+00  0.00000000000E+00 -0.18508705736E+02  0.20542995219E+04  0.20542161409E+04 0.  0.
        2    1    3    3  502    0  0.67637336803E+03  0.19420167013E+03 -0.75745299549E+03  0.10338908366E+04  0.25500000920E-02 0.  1.
       -2    1    3    3    0  502 -0.67637336803E+03 -0.19420167013E+03  0.73894428976E+03  0.10204086853E+04  0.25500000920E-02 0. -1.
</event>
<event>
 5   0  0.4182977E-05  0.2099384E+04  0.7818609E-02  0.8561515E-01
        1   -1    0    0  501    0  0.00000000000E+00  0.00000000000E+00  0.89070119439E+03  0.89070119440E+03  0.50400001928E-02 0.  1.
       -1   -1    0    0    0  501  0.00000000000E+00  0.00000000000E+00 -0.12370623076E+04  0.12370623076E+04  0.50400001928E-02 0. -1.
    10030    2    1    2    0    0  0.00000000000E+00  0.00000000000E+00 -0.34636111318E+03  0.21277635020E+04  0.20993835999E+04 0.  0.
        1    1    3    3  502    0  0.31192778227E+03 -0.61177846636E+03 -0.97781510690E+03  0.11948615889E+04  0.50400001928E-02 0. -1.
       -1    1    3    3    0  502 -0.31192778227E+03  0.61177846636E+03  0.63145399372E+03  0.93290191310E+03  0.50400001928E-02 0.  1.
</event>
<event>
 5   0  0.8547605E-05  0.2067347E+04  0.7818609E-02  0.8575765E-01
       -2   -1    0    0    0  501  0.00000000000E+00  0.00000000000E+00  0.55705261640E+03  0.55705261641E+03  0.25500000920E-02 0.  1.
        2   -1    0    0  501    0  0.00000000000E+00  0.00000000000E+00 -0.19180968788E+04  0.19180968788E+04  0.25500000920E-02 0. -1.
    10030    2    1    2    0    0  0.00000000000E+00  0.00000000000E+00 -0.13610442624E+04  0.24751494952E+04  0.20673469809E+04 0.  0.
        4    1    3    3  502    0 -0.98529362699E+02 -0.45754047671E+02 -0.19112423999E+04  0.19143277129E+04  0.12699999809E+01 0. -1.
       -4    1    3    3    0  502  0.98529362699E+02  0.45754047671E+02  0.55019813748E+03  0.56082178237E+03  0.12699999809E+01 0.  1.
</event>
<event>
 5   0  0.4174093E-05  0.2169700E+04  0.7818609E-02  0.8531147E-01
        1   -1    0    0  501    0  0.00000000000E+00  0.00000000000E+00  0.11982097554E+04  0.11982097554E+04  0.50400001928E-02 0.  1.
       -1   -1    0    0    0  501  0.00000000000E+00  0.00000000000E+00 -0.98221456646E+03  0.98221456647E+03  0.50400001928E-02 0. -1.
    10030    2    1    2    0    0  0.00000000000E+00  0.00000000000E+00  0.21599518891E+03  0.21804243219E+04  0.21696995879E+04 0.  0.
        3    1    3    3  502    0 -0.10723510296E+04 -0.12356604732E+03  0.21666983439E+03  0.11009773504E+04  0.10100000352E+00 0. -1.
       -3    1    3    3    0  502  0.10723510296E+04  0.12356604732E+03 -0.67464547742E+00  0.10794469714E+04  0.10100000352E+00 0.  1.
</event>
<event>
 5   0  0.9012466E-05  0.2094687E+04  0.7818609E-02  0.8563588E-01
       -2   -1    0    0    0  501  0.00000000000E+00  0.00000000000E+00  0.71503315289E+03  0.71503315289E+03  0.25500000920E-02 0.  1.
        2   -1    0    0  501    0  0.00000000000E+00  0.00000000000E+00 -0.15340937863E+04  0.15340937863E+04  0.25500000920E-02 0. -1.
    10030    2    1    2    0    0  0.00000000000E+00  0.00000000000E+00 -0.81906063346E+03  0.22491269392E+04  0.20946865321E+04 0.  0.
        2    1    3    3  502    0 -0.62713500769E+03  0.79992356603E+03 -0.13842286754E+03  0.10258347428E+04  0.25500000920E-02 0.  1.
       -2    1    3    3    0  502  0.62713500769E+03 -0.79992356603E+03 -0.68063776592E+03  0.12232921964E+04  0.25500000920E-02 0. -1.
</event>
<event>
 5   0  0.4128678E-05  0.2048626E+04  0.7818609E-02  0.8584218E-01
       -1   -1    0    0    0  501  0.00000000000E+00  0.00000000000E+00  0.61946361521E+03  0.61946361523E+03  0.50400001928E-02 0. -1.
        1   -1    0    0  501    0  0.00000000000E+00  0.00000000000E+00 -0.16937505481E+04  0.16937505481E+04  0.50400001928E-02 0.  1.
    10030    2    1    2    0    0  0.00000000000E+00  0.00000000000E+00 -0.10742869329E+04  0.23132141633E+04  0.20486257226E+04 0.  0.
        5    1    3    3  502    0  0.75914281748E+03  0.44061358819E+03  0.59020603187E+02  0.87974068511E+03  0.46999998093E+01 0. -1.
       -5    1    3    3    0  502 -0.75914281748E+03 -0.44061358819E+03 -0.11333075361E+04  0.14334734782E+04  0.46999998093E+01 0.  1.
</event>
<event>
 5   0  0.8547605E-05  0.2084514E+04  0.7818609E-02  0.8568096E-01
        2   -1    0    0  501    0  0.00000000000E+00  0.00000000000E+00  0.19761355401E+04  0.19761355401E+04  0.25500000920E-02 0.  1.
       -2   -1    0    0    0  501  0.00000000000E+00  0.00000000000E+00 -0.54970911816E+03  0.54970911816E+03  0.25500000920E-02 0. -1.
    10030    2    1    2    0    0  0.00000000000E+00  0.00000000000E+00  0.14264264219E+04  0.25258446582E+04  0.20845140682E+04 0.  0.
        4    1    3    3  502    0 -0.21002143764E+03  0.97558828791E+03  0.10775691844E+04  0.14686859678E+04  0.12699999809E+01 0. -1.
       -4    1    3    3    0  502  0.21002143764E+03 -0.97558828791E+03  0.34885723746E+03  0.10571586905E+04  0.12699999809E+01 0.  1.
</event>
<event>
 5   0  0.8858590E-05  0.2107549E+04  0.7818609E-02  0.8557925E-01
       -2   -1    0    0    0  501  0.00000000000E+00  0.00000000000E+00  0.66699119478E+03  0.66699119478E+03  0.25500000920E-02 0. -1.
        2   -1    0    0  501    0  0.00000000000E+00  0.00000000000E+00 -0.16648512709E+04  0.16648512709E+04  0.25500000920E-02 0.  1.
    10030    2    1    2    0    0  0.00000000000E+00  0.00000000000E+00 -0.99786007615E+03  0.23318424657E+04  0.21075494190E+04 0.  0.
        1    1    3    3  502    0 -0.78208723197E+03  0.70346640784E+03 -0.56816522398E+03  0.11955488895E+04  0.50400001928E-02 0. -1.
       -1    1    3    3    0  502  0.78208723197E+03 -0.70346640784E+03 -0.42969485217E+03  0.11362935762E+04  0.50400001928E-02 0.  1.
</event>
<event>
 5   0  0.8858590E-05  0.2038535E+04  0.7818609E-02  0.8588813E-01
       -2   -1    0    0    0  501  0.00000000000E+00  0.00000000000E+00  0.64979503540E+03  0.64979503541E+03  0.25500000920E-02 0.  1.
        2   -1    0    0  501    0  0.00000000000E+00  0.00000000000E+00 -0.15988218140E+04  0.15988218140E+04  0.25500000920E-02 0. -1.
    10030    2    1    2    0    0  0.00000000000E+00  0.00000000000E+00 -0.94902677856E+03  0.22486168494E+04  0.20385352361E+04 0.  0.
        1    1    3    3  502    0 -0.65916116468E+03  0.49694277617E+03 -0.11340084061E+04  0.14026477209E+04  0.50400001928E-02 0. -1.
       -1    1    3    3    0  502  0.65916116468E+03 -0.49694277617E+03  0.18498162752E+03  0.84596912849E+03  0.50400001928E-02 0.  1.
</event>
<event>
 5   0  0.4200061E-05  0.2117116E+04  0.7818609E-02  0.8553741E-01
        1   -1    0    0  501    0  0.00000000000E+00  0.00000000000E+00  0.12553728301E+04  0.12553728301E+04  0.50400001928E-02 0. -1.
       -1   -1    0    0    0  501  0.00000000000E+00  0.00000000000E+00 -0.89259944002E+03  0.89259944003E+03  0.50400001928E-02 0.  1.
    10030    2    1    2    0    0  0.00000000000E+00  0.00000000000E+00  0.36277339009E+03  0.21479722701E+04  0.21171160433E+04 0.  0.
        4    1    3    3  502    0  0.72717081731E+03 -0.46869966058E+03  0.80026617377E+03  0.11785093683E+04  0.12699999809E+01 0. -1.
       -4    1    3    3    0  502 -0.72717081731E+03  0.46869966058E+03 -0.43749278369E+03  0.96946290185E+03  0.12699999809E+01 0.  1.
</event>
<event>
 5   0  0.8547605E-05  0.2100089E+04  0.7818609E-02  0.8561204E-01
       -2   -1    0    0    0  501  0.00000000000E+00  0.00000000000E+00  0.12851250356E+04  0.12851250356E+04  0.25500000920E-02 0. -1.
        2   -1    0    0  501    0  0.00000000000E+00  0.00000000000E+00 -0.85796607201E+03  0.85796607201E+03  0.25500000920E-02 0.  1.
    10030    2    1    2    0    0  0.00000000000E+00  0.00000000000E+00  0.42715896364E+03  0.21430911077E+04  0.21000892161E+04 0.  0.
        4    1    3    3  502    0 -0.10064423922E+04 -0.21014664943E+03 -0.41054930600E+01  0.10281567833E+04  0.12699999809E+01 0. -1.
       -4    1    3    3    0  502  0.10064423922E+04  0.21014664943E+03  0.43126445670E+03  0.11149343243E+04  0.12699999809E+01 0.  1.
</event>
<event>
 5   0  0.8547605E-05  0.2093655E+04  0.7818609E-02  0.8564043E-01
       -2   -1    0    0    0  501  0.00000000000E+00  0.00000000000E+00  0.94795660617E+03  0.94795660618E+03  0.25500000920E-02 0. -1.
        2   -1    0    0  501    0  0.00000000000E+00  0.00000000000E+00 -0.11560107157E+04  0.11560107157E+04  0.25500000920E-02 0.  1.
    10030    2    1    2    0    0  0.00000000000E+00  0.00000000000E+00 -0.20805410949E+03  0.21039673218E+04  0.20936551719E+04 0.  0.
        4    1    3    3  502    0 -0.84212393337E+03 -0.11930070444E+03  0.50925828130E+03  0.99133797829E+03  0.12699999809E+01 0. -1.
       -4    1    3    3    0  502  0.84212393337E+03  0.11930070444E+03 -0.71731239078E+03  0.11126293435E+04  0.12699999809E+01 0.  1.
</event>
<event>
 5   0  0.4050368E-05  0.2101596E+04  0.7818609E-02  0.8560541E-01
        1   -1    0    0  501    0  0.00000000000E+00  0.00000000000E+00  0.21114411908E+04  0.21114411908E+04  0.50400001928E-02 0.  1.
       -1   -1    0    0    0  501  0.00000000000E+00  0.00000000000E+00 -0.52294921107E+03  0.52294921109E+03  0.50400001928E-02 0. -1.
    10030    2    1    2    0    0  0.00000000000E+00  0.00000000000E+00  0.15884919797E+04  0.26343904019E+04  0.21015960649E+04 0.  0.
        2    1    3    3  502    0  0.33834772803E+03 -0.64420097244E+02 -0.45018162731E+03  0.56682680915E+03  0.25500000920E-02 0. -1.
       -2    1    3    3    0  502 -0.33834772803E+03  0.64420097244E+02  0.20386736070E+04  0.20675635927E+04  0.25500000920E-02 0.  1.
</event>
<event>
 5   0  0.8547605E-05  0.2104905E+04  0.7818609E-02  0.8559086E-01
        2   -1    0    0  501    0  0.00000000000E+00  0.00000000000E+00  0.17242943912E+04  0.17242943912E+04  0.25500000920E-02 0. -1.
       -2   -1    0    0    0  501  0.00000000000E+00  0.00000000000E+00 -0.64238212307E+03  0.64238212308E+03  0.25500000920E-02 0.  1.
    10030    2    1    2    0    0  0.00000000000E+00  0.00000000000E+00  0.10819122681E+04  0.23666765142E+04  0.21049046456E+04 0.  0.
        4    1    3    3  502    0 -0.24828669826E+03 -0.95703795184E+03  0.94648553284E+03  0.13687236399E+04  0.12699999809E+01 0. -1.
       -4    1    3    3    0  502  0.24828669826E+03  0.95703795184E+03  0.13542673526E+03  0.99795287429E+03  0.12699999809E+01 0.  1.
</event>
<event>
 5   0  0.4128678E-05  0.2103908E+04  0.7818609E-02  0.8559524E-01
       -1   -1    0    0    0  501  0.00000000000E+00  0.00000000000E+00  0.50431537105E+03  0.50431537108E+03  0.50400001928E-02 0. -1.
        1   -1    0    0  501    0  0.00000000000E+00  0.00000000000E+00 -0.21942771561E+04  0.21942771561E+04  0.50400001928E-02 0.  1.
    10030    2    1    2    0    0  0.00000000000E+00  0.00000000000E+00 -0.16899617850E+04  0.26985925272E+04  0.21039084564E+04 0.  0.
        5    1    3    3  502    0  0.31026433281E+03  0.73165851725E+03 -0.17289887406E+04  0.19028957662E+04  0.46999998093E+01 0.  1.
       -5    1    3    3    0  502 -0.31026433281E+03 -0.73165851725E+03  0.39026955575E+02  0.79569676092E+03  0.46999998093E+01 0. -1.
</event>
<event>
 5   0  0.4128678E-05  0.2094730E+04  0.7818609E-02  0.8563568E-01
        1   -1    0    0  501    0  0.00000000000E+00  0.00000000000E+00  0.15123471544E+04  0.15123471544E+04  0.50400001928E-02 0.  1.
       -1   -1    0    0    0  501  0.00000000000E+00  0.00000000000E+00 -0.72534502963E+03  0.72534502965E+03  0.50400001928E-02 0. -1.
    10030    2    1    2    0    0  0.00000000000E+00  0.00000000000E+00  0.78700212476E+03  0.22376921841E+04  0.20947300461E+04 0.  0.
        5    1    3    3  502    0  0.55186807914E+03  0.20399999261E+03  0.13191104927E+04  0.14443853210E+04  0.46999998093E+01 0.  1.
       -5    1    3    3    0  502 -0.55186807914E+03 -0.20399999261E+03 -0.53210836789E+03  0.79330686303E+03  0.46999998093E+01 0. -1.
</event>
<event>
 5   0  0.4128678E-05  0.2118142E+04  0.7818609E-02  0.8553294E-01
       -1   -1    0    0    0  501  0.00000000000E+00  0.00000000000E+00  0.52859345805E+03  0.52859345808E+03  0.50400001928E-02 0. -1.
        1   -1    0    0  501    0  0.00000000000E+00  0.00000000000E+00 -0.21219162487E+04  0.21219162488E+04  0.50400001928E-02 0.  1.
    10030    2    1    2    0    0  0.00000000000E+00  0.00000000000E+00 -0.15933227907E+04  0.26505097068E+04  0.21181416833E+04 0.  0.
        5    1    3    3  502    0  0.50902430242E+03 -0.44545553634E+03  0.22306149224E+03  0.71226041208E+03  0.46999998093E+01 0. -1.
       -5    1    3    3    0  502 -0.50902430242E+03  0.44545553634E+03 -0.18163842829E+04  0.19382492947E+04  0.46999998093E+01 0.  1.
</event>
<event>
 5   0  0.4050368E-05  0.2100801E+04  0.7818609E-02  0.8560891E-01
       -1   -1    0    0    0  501  0.00000000000E+00  0.00000000000E+00  0.99539176984E+03  0.99539176985E+03  0.50400001928E-02 0.  1.
        1   -1    0    0  501    0  0.00000000000E+00  0.00000000000E+00 -0.11084494540E+04  0.11084494540E+04  0.50400001928E-02 0. -1.
    10030    2    1    2    0    0  0.00000000000E+00  0.00000000000E+00 -0.11305768417E+03  0.21038412239E+04  0.21008012413E+04 0.  0.
        2    1    3    3  502    0  0.38376448449E+03  0.67710910216E+02 -0.10333795003E+04  0.11044152926E+04  0.25500000920E-02 0. -1.
       -2    1    3    3    0  502 -0.38376448449E+03 -0.67710910216E+02  0.92032181610E+03  0.99942593128E+03  0.25500000920E-02 0.  1.
</event>
<event>
 5   0  0.8872777E-05  0.2096905E+04  0.7818609E-02  0.8562608E-01
        2   -1    0    0  501    0  0.00000000000E+00  0.00000000000E+00  0.73675128506E+03  0.73675128507E+03  0.25500000920E-02 0. -1.
       -2   -1    0    0    0  501  0.00000000000E+00  0.00000000000E+00 -0.14920263005E+04  0.14920263005E+04  0.25500000920E-02 0.  1.
    10030    2    1    2    0    0  0.00000000000E+00  0.00000000000E+00 -0.75527501547E+03  0.22287775856E+04  0.20969046657E+04 0.  0.
        3    1    3    3  502    0  0.21896711312E+03  0.54640495211E+03  0.54453602463E+03  0.80188805992E+03  0.10100000352E+00 0. -1.
       -3    1    3    3    0  502 -0.21896711312E+03 -0.54640495211E+03 -0.12998110401E+04  0.14268895257E+04  0.10100000352E+00 0.  1.
</event>
<event>
 5   0  0.9086985E-05  0.2095378E+04  0.7818609E-02  0.8563282E-01
       -2   -1    0    0    0  501  0.00000000000E+00  0.00000000000E+00  0.10793356218E+04  0.10793356218E+04  0.25500000920E-02 0. -1.
        2   -1    0    0  501    0  0.00000000000E+00  0.00000000000E+00 -0.10169704886E+04  0.10169704886E+04  0.25500000920E-02 0.  1.
    10030    2    1    2    0    0  0.00000000000E+00  0.00000000000E+00  0.62365133259E+02  0.20963061104E+04  0.20953782233E+04 0.  0.
        5    1    3    3  502    0 -0.99650236406E+03  0.12303610833E+02  0.35453157573E+03  0.10577726923E+04  0.46999998093E+01 0.  1.
       -5    1    3    3    0  502  0.99650236406E+03 -0.12303610833E+02 -0.29216644247E+03  0.10385334181E+04  0.46999998093E+01 0. -1.
</event>
<event>
 5   0  0.9012466E-05  0.2177354E+04  0.7818609E-02  0.8527913E-01
       -2   -1    0    0    0  501  0.00000000000E+00  0.00000000000E+00  0.14124092296E+04  0.14124092296E+04  0.25500000920E-02 0. -1.
        2   -1    0    0  501    0  0.00000000000E+00  0.00000000000E+00 -0.83914611938E+03  0.83914611939E+03  0.25500000920E-02 0.  1.
    10030    2    1    2    0    0  0.00000000000E+00  0.00000000000E+00  0.57326311021E+03  0.22515553490E+04  0.21773541044E+04 0.  0.
        2    1    3    3  502    0 -0.44657195725E+03  0.15787196186E+03 -0.72701220257E+03  0.86769626715E+03  0.25500000920E-02 0.  1.
       -2    1    3    3    0  502  0.44657195725E+03 -0.15787196186E+03  0.13002753128E+04  0.13838590818E+04  0.25500000920E-02 0. -1.
</event>
<event>
 5   0  0.4050368E-05  0.2099778E+04  0.7818609E-02  0.8561341E-01
        1   -1    0    0  501    0  0.00000000000E+00  0.00000000000E+00  0.82245134082E+03  0.82245134083E+03  0.50400001928E-02 0. -1.
       -1   -1    0    0    0  501  0.00000000000E+00  0.00000000000E+00 -0.13402212907E+04  0.13402212907E+04  0.50400001928E-02 0.  1.
    10030    2    1    2    0    0  0.00000000000E+00  0.00000000000E+00 -0.51776994990E+03  0.21626726316E+04  0.20997778907E+04 0.  0.
        2    1    3    3  502    0  0.10040139692E+04  0.22746337237E+03 -0.46596782063E+02  0.10305119583E+04  0.25500000920E-02 0.  1.
       -2    1    3    3    0  502 -0.10040139692E+04 -0.22746337237E+03 -0.47117316784E+03  0.11321606733E+04  0.25500000920E-02 0. -1.
</event>
<event>
 5   0  0.8858590E-05  0.2141041E+04  0.7818609E-02  0.8543377E-01
       -2   -1    0    0    0  501  0.00000000000E+00  0.00000000000E+00  0.47707856672E+03  0.47707856672E+03  0.25500000920E-02 0.  1.
        2   -1    0    0  501    0  0.00000000000E+00  0.00000000000E+00 -0.24021500412E+04  0.24021500412E+04  0.25500000920E-02 0. -1.
    10030    2    1    2    0    0  0.00000000000E+00  0.00000000000E+00 -0.19250714745E+04  0.28792286079E+04  0.21410411474E+04 0.  0.
        1    1    3    3  502    0  0.48462263961E+03 -0.27516491760E+03  0.26662485539E+03  0.61778932351E+03  0.50400001928E-02 0.  1.
       -1    1    3    3    0  502 -0.48462263961E+03  0.27516491760E+03 -0.21916963298E+04  0.22614392844E+04  0.50400001928E-02 0. -1.
</event>
<event>
 5   0  0.3176125E-05  0.2109415E+04  0.7818609E-02  0.8557107E-01
        3   -1    0    0  501    0  0.00000000000E+00  0.00000000000E+00  0.17355842280E+04  0.17355842309E+04  0.10100000352E+00 0.  1.
       -3   -1    0    0    0  501  0.00000000000E+00  0.00000000000E+00 -0.64094166183E+03  0.64094166978E+03  0.10100000352E+00 0. -1.
    10030    2    1    2    0    0  0.00000000000E+00  0.00000000000E+00  0.10946425661E+04  0.23765259007E+04  0.21094153240E+04 0.  0.
        3    1    3    3  502    0 -0.49938952662E+03 -0.19842281492E+03  0.15697921540E+04  0.16592193736E+04  0.10100000352E+00 0.  1.
       -3    1    3    3    0  502  0.49938952662E+03  0.19842281492E+03 -0.47514958785E+03  0.71730652710E+03  0.10100000352E+00 0. -1.
</event>
<event>
 5   0  0.3176125E-05  0.2127738E+04  0.7818609E-02  0.8549122E-01
        4   -1    0    0  501    0  0.00000000000E+00  0.00000000000E+00  0.11470814063E+04  0.11470821093E+04  0.12699999809E+01 0. -1.
       -4   -1    0    0    0  501  0.00000000000E+00  0.00000000000E+00 -0.98669159137E+03  0.98669240870E+03  0.12699999809E+01 0.  1.
    10030    2    1    2    0    0  0.00000000000E+00  0.00000000000E+00  0.16038981491E+03  0.21337745180E+04  0.21277379540E+04 0.  0.
        3    1    3    3  502    0  0.56528465897E+03 -0.43163081021E+03 -0.71322941432E+03  0.10072477896E+04  0.10100000352E+00 0.  1.
       -3    1    3    3    0  502 -0.56528465897E+03  0.43163081021E+03  0.87361922923E+03  0.11265267284E+04  0.10100000352E+00 0. -1.
</event>
<event>
 5   0  0.4182977E-05  0.2127184E+04  0.7818609E-02  0.8549362E-01
       -1   -1    0    0    0  501  0.00000000000E+00  0.00000000000E+00  0.83577702387E+03  0.83577702388E+03  0.50400001928E-02 0. -1.
        1   -1    0    0  501    0  0.00000000000E+00  0.00000000000E+00 -0.13535045374E+04  0.13535045374E+04  0.50400001928E-02 0.  1.
    10030    2    1    2    0    0  0.00000000000E+00  0.00000000000E+00 -0.51772751350E+03  0.21892815613E+04  0.21271840485E+04 0.  0.
        1    1    3    3  502    0  0.41607980198E+03  0.33787809554E+03 -0.12043459692E+04  0.13182310961E+04  0.50400001928E-02 0.  1.
       -1    1    3    3    0  502 -0.41607980198E+03 -0.33787809554E+03  0.68661845574E+03  0.87105046516E+03  0.50400001928E-02 0. -1.
</event>
<event>
 5   0  0.4174093E-05  0.2111501E+04  0.7818609E-02  0.8556194E-01
       -1   -1    0    0    0  501  0.00000000000E+00  0.00000000000E+00  0.15610426439E+04  0.15610426439E+04  0.50400001928E-02 0. -1.
        1   -1    0    0  501    0  0.00000000000E+00  0.00000000000E+00 -0.71401555172E+03  0.71401555174E+03  0.50400001928E-02 0.  1.
    10030    2    1    2    0    0  0.00000000000E+00  0.00000000000E+00  0.84702709221E+03  0.22750581957E+04  0.21115006272E+04 0.  0.
        3    1    3    3  502    0 -0.36055080302E+03 -0.87554730912E+03 -0.79590917518E+02  0.95021823621E+03  0.10100000352E+00 0.  1.
       -3    1    3    3    0  502  0.36055080302E+03  0.87554730912E+03  0.92661800973E+03  0.13248399595E+04  0.10100000352E+00 0. -1.
</event>
<event>
 5   0  0.4050368E-05  0.2105760E+04  0.7818609E-02  0.8558710E-01
        1   -1    0    0  501    0  0.00000000000E+00  0.00000000000E+00  0.27647735854E+04  0.27647735854E+04  0.50400001928E-02 0.  1.
       -1   -1    0    0    0  501  0.00000000000E+00  0.00000000000E+00 -0.40095724326E+03  0.40095724330E+03  0.50400001928E-02 0. -1.
    10030    2    1    2    0    0  0.00000000000E+00  0.00000000000E+00  0.23638163421E+04  0.31657308287E+04  0.21057597157E+04 0.  0.
        2    1    3    3  502    0 -0.23466305034E+03 -0.39408243866E+03  0.26066916288E+04  0.26467355295E+04  0.25500000920E-02 0.  1.
       -2    1    3    3    0  502  0.23466305034E+03  0.39408243866E+03 -0.24287528668E+03  0.51899529915E+03  0.25500000920E-02 0. -1.
</event>
<event>
 5   0  0.4174093E-05  0.1939994E+04  0.7818609E-02  0.8635201E-01
        1   -1    0    0  501    0  0.00000000000E+00  0.00000000000E+00  0.10281585639E+04  0.10281585639E+04  0.50400001928E-02 0. -1.
       -1   -1    0    0    0  501  0.00000000000E+00  0.00000000000E+00 -0.91512535833E+03  0.91512535834E+03  0.50400001928E-02 0.  1.
    10030    2    1    2    0    0  0.00000000000E+00  0.00000000000E+00  0.11303320559E+03  0.19432839223E+04  0.19399937879E+04 0.  0.
        3    1    3    3  502    0  0.36887216349E+03 -0.75689985205E+03 -0.42589116623E+03  0.94358219287E+03  0.10100000352E+00 0.  1.
       -3    1    3    3    0  502 -0.36887216349E+03  0.75689985205E+03  0.53892437182E+03  0.99970172940E+03  0.10100000352E+00 0. -1.
</event>
<event>
 5   0  0.4200061E-05  0.2123845E+04  0.7818609E-02  0.8550812E-01
       -1   -1    0    0    0  501  0.00000000000E+00  0.00000000000E+00  0.78753764335E+03  0.78753764337E+03  0.50400001928E-02 0.  1.
        1   -1    0    0  501    0  0.00000000000E+00  0.00000000000E+00 -0.14319053830E+04  0.14319053830E+04  0.50400001928E-02 0. -1.
    10030    2    1    2    0    0  0.00000000000E+00  0.00000000000E+00 -0.64436773962E+03  0.22194430264E+04  0.21238449951E+04 0.  0.
        4    1    3    3  502    0  0.63817272861E+03  0.29454401618E+03 -0.11540402655E+04  0.13512331983E+04  0.12699999809E+01 0. -1.
       -4    1    3    3    0  502 -0.63817272861E+03 -0.29454401618E+03  0.50967252584E+03  0.86820982804E+03  0.12699999809E+01 0.  1.
</event>
<event>
 5   0  0.4050368E-05  0.2111119E+04  0.7818609E-02  0.8556361E-01
       -1   -1    0    0    0  501  0.00000000000E+00  0.00000000000E+00  0.10375642634E+04  0.10375642634E+04  0.50400001928E-02 0.  1.
        1   -1    0    0  501    0  0.00000000000E+00  0.00000000000E+00 -0.10738673219E+04  0.10738673220E+04  0.50400001928E-02 0. -1.
    10030    2    1    2    0    0  0.00000000000E+00  0.00000000000E+00 -0.36303058551E+02  0.21114315854E+04  0.21111194726E+04 0.  0.
        2    1    3    3  502    0  0.79002216883E+03  0.52959417228E+03 -0.47604160649E+03  0.10635885603E+04  0.25500000920E-02 0. -1.
       -2    1    3    3    0  502 -0.79002216883E+03 -0.52959417228E+03  0.43973854794E+03  0.10478430250E+04  0.25500000920E-02 0.  1.
</event>
<event>
 5   0  0.9012466E-05  0.2088073E+04  0.7818609E-02  0.8566515E-01
        2   -1    0    0  501    0  0.00000000000E+00  0.00000000000E+00  0.13298975374E+04  0.13298975374E+04  0.25500000920E-02 0. -1.
       -2   -1    0    0    0  501  0.00000000000E+00  0.00000000000E+00 -0.81962138559E+03  0.81962138559E+03  0.25500000920E-02 0.  1.
    10030    2    1    2    0    0  0.00000000000E+00  0.00000000000E+00  0.51027615176E+03  0.21495189229E+04  0.20880732384E+04 0.  0.
        2    1    3    3  502    0  0.32403673262E+03 -0.45837830224E+03  0.11613273836E+04  0.12898805231E+04  0.25500000920E-02 0. -1.
       -2    1    3    3    0  502 -0.32403673262E+03  0.45837830224E+03 -0.65105123180E+03  0.85963839984E+03  0.25500000920E-02 0.  1.
</event>
<event>
 5   0  0.4050368E-05  0.2062641E+04  0.7818609E-02  0.8577881E-01
       -1   -1    0    0    0  501  0.00000000000E+00  0.00000000000E+00  0.11529540688E+04  0.11529540688E+04  0.50400001928E-02 0. -1.
        1   -1    0    0  501    0  0.00000000000E+00  0.00000000000E+00 -0.92251899478E+03  0.92251899479E+03  0.50400001928E-02 0.  1.
    10030    2    1    2    0    0  0.00000000000E+00  0.00000000000E+00  0.23043507399E+03  0.20754730636E+04  0.20626410532E+04 0.  0.
        2    1    3    3  502    0  0.22867522068E+03 -0.30324898174E+03  0.10800203111E+04  0.11448563988E+04  0.25500000920E-02 0. -1.
       -2    1    3    3    0  502 -0.22867522068E+03  0.30324898174E+03 -0.84958523715E+03  0.93061666473E+03  0.25500000920E-02 0.  1.
</event>
<event>
 5   0  0.4128678E-05  0.2265363E+04  0.7818609E-02  0.8491704E-01
       -1   -1    0    0    0  501  0.00000000000E+00  0.00000000000E+00  0.10951674277E+04  0.10951674277E+04  0.50400001928E-02 0. -1.
        1   -1    0    0  501    0  0.00000000000E+00  0.00000000000E+00 -0.11714807936E+04  0.11714807936E+04  0.50400001928E-02 0.  1.
    10030    2    1    2    0    0  0.00000000000E+00  0.00000000000E+00 -0.76313365961E+02  0.22666482213E+04  0.22653632003E+04 0.  0.
        5    1    3    3  502    0  0.42665695991E+03 -0.55857625277E+03  0.85054865875E+03  0.11034032366E+04  0.46999998093E+01 0. -1.
       -5    1    3    3    0  502 -0.42665695991E+03  0.55857625277E+03 -0.92686202471E+03  0.11632449847E+04  0.46999998093E+01 0.  1.
</event>
<event>
 5   0  0.3176125E-05  0.2096914E+04  0.7818609E-02  0.8562604E-01
       -3   -1    0    0    0  501  0.00000000000E+00  0.00000000000E+00  0.50266989421E+03  0.50266990435E+03  0.10100000352E+00 0. -1.
        3   -1    0    0  501    0  0.00000000000E+00  0.00000000000E+00 -0.21868473928E+04  0.21868473951E+04  0.10100000352E+00 0.  1.
    10030    2    1    2    0    0  0.00000000000E+00  0.00000000000E+00 -0.16841774986E+04  0.26895172995E+04  0.20969142704E+04 0.  0.
        4    1    3    3  502    0  0.27029085312E+03  0.58635811810E+03 -0.19016090494E+04  0.20082309572E+04  0.12699999809E+01 0.  1.
       -4    1    3    3    0  502 -0.27029085312E+03 -0.58635811810E+03  0.21743155081E+03  0.68128634225E+03  0.12699999809E+01 0. -1.
</event>
<event>
 5   0  0.8872777E-05  0.2099874E+04  0.7818609E-02  0.8561299E-01
        2   -1    0    0  501    0  0.00000000000E+00  0.00000000000E+00  0.28827091050E+04  0.28827091050E+04  0.25500000920E-02 0.  1.
       -2   -1    0    0    0  501  0.00000000000E+00  0.00000000000E+00 -0.38240693461E+03  0.38240693462E+03  0.25500000920E-02 0. -1.
    10030    2    1    2    0    0  0.00000000000E+00  0.00000000000E+00  0.25003021704E+04  0.32651160396E+04  0.20998742364E+04 0.  0.
        3    1    3    3  502    0  0.68127318582E+03  0.77559524275E+02  0.24864947645E+04  0.25793031728E+04  0.10100000352E+00 0.  1.
       -3    1    3    3    0  502 -0.68127318582E+03 -0.77559524275E+02  0.13807405894E+02  0.68581286674E+03  0.10100000352E+00 0. -1.
</event>
<event>
 5   0  0.8872777E-05  0.2091897E+04  0.7818609E-02  0.8564821E-01
       -2   -1    0    0    0  501  0.00000000000E+00  0.00000000000E+00  0.51044544705E+03  0.51044544706E+03  0.25500000920E-02 0.  1.
        2   -1    0    0  501    0  0.00000000000E+00  0.00000000000E+00 -0.21432431666E+04  0.21432431666E+04  0.25500000920E-02 0. -1.
    10030    2    1    2    0    0  0.00000000000E+00  0.00000000000E+00 -0.16327977195E+04  0.26536886136E+04  0.20918974318E+04 0.  0.
        3    1    3    3  502    0  0.61448446438E+03  0.32390189025E+03 -0.18083941749E+04  0.19372127125E+04  0.10100000352E+00 0. -1.
       -3    1    3    3    0  502 -0.61448446438E+03 -0.32390189025E+03  0.17559645542E+03  0.71647590108E+03  0.10100000352E+00 0.  1.
</event>
<event>
 5   0  0.8547605E-05  0.2096978E+04  0.7818609E-02  0.8562576E-01
        2   -1    0    0  501    0  0.00000000000E+00  0.00000000000E+00  0.20603757520E+04  0.20603757520E+04  0.25500000920E-02 0.  1.
       -2   -1    0    0    0  501  0.00000000000E+00  0.00000000000E+00 -0.53355753882E+03  0.53355753883E+03  0.25500000920E-02 0. -1.
    10030    2    1    2    0    0  0.00000000000E+00  0.00000000000E+00  0.15268182132E+04  0.25939332908E+04  0.20969778399E+04 0.  0.
        4    1    3    3  502    0 -0.27091441194E+03 -0.19039042791E+03  0.19939988626E+04  0.20213055708E+04  0.12699999809E+01 0.  1.
       -4    1    3    3    0  502  0.27091441194E+03  0.19039042791E+03 -0.46718064943E+03  0.57262772002E+03  0.12699999809E+01 0. -1.
</event>
<event>
 5   0  0.8872777E-05  0.2096064E+04  0.7818609E-02  0.8562979E-01
        2   -1    0    0  501    0  0.00000000000E+00  0.00000000000E+00  0.19885680932E+04  0.19885680932E+04  0.25500000920E-02 0.  1.
       -2   -1    0    0    0  501  0.00000000000E+00  0.00000000000E+00 -0.55234247460E+03  0.55234247461E+03  0.25500000920E-02 0. -1.
    10030    2    1    2    0    0  0.00000000000E+00  0.00000000000E+00  0.14362256186E+04  0.25409105678E+04  0.20960635692E+04 0.  0.
        3    1    3    3  502    0  0.78062266051E+03 -0.51902943859E+03  0.15003433806E+03  0.94935431164E+03  0.10100000352E+00 0. -1.
       -3    1    3    3    0  502 -0.78062266051E+03  0.51902943859E+03  0.12861912805E+04  0.15915562562E+04  0.10100000352E+00 0.  1.
</event>
<event>
 5   0  0.8858590E-05  0.2135507E+04  0.7818609E-02  0.8545762E-01
       -2   -1    0    0    0  501  0.00000000000E+00  0.00000000000E+00  0.35725395347E+03  0.35725395348E+03  0.25500000920E-02 0.  1.
        2   -1    0    0  501    0  0.00000000000E+00  0.00000000000E+00 -0.31912806928E+04  0.31912806928E+04  0.25500000920E-02 0. -1.
    10030    2    1    2    0    0  0.00000000000E+00  0.00000000000E+00 -0.28340267393E+04  0.35485346463E+04  0.21355071006E+04 0.  0.
        1    1    3    3  502    0 -0.10216570706E+04  0.65327778181E+02 -0.19211546648E+04  0.21768982830E+04  0.50400001928E-02 0. -1.
       -1    1    3    3    0  502  0.10216570706E+04 -0.65327778181E+02 -0.91287207449E+03  0.13716363632E+04  0.50400001928E-02 0.  1.
</event>
<event>
 5   0  0.8872777E-05  0.2081589E+04  0.7818609E-02  0.8569397E-01
       -2   -1    0    0    0  501  0.00000000000E+00  0.00000000000E+00  0.47372599019E+03  0.47372599020E+03  0.25500000920E-02 0.  1.
        2   -1    0    0  501    0  0.00000000000E+00  0.00000000000E+00 -0.22866660236E+04  0.22866660236E+04  0.25500000920E-02 0. -1.
    10030    2    1    2    0    0  0.00000000000E+00  0.00000000000E+00 -0.18129400334E+04  0.27603920138E+04  0.20815889376E+04 0.  0.
        3    1    3    3  502    0  0.11973530974E+03  0.22888473129E+03 -0.22434827364E+04  0.22583045772E+04  0.10100000352E+00 0. -1.
       -3    1    3    3    0  502 -0.11973530974E+03 -0.22888473129E+03  0.43054270304E+03  0.50208743657E+03  0.10100000352E+00 0.  1.
</event>
<event>
 5   0  0.9086985E-05  0.2092677E+04  0.7818609E-02  0.8564476E-01
       -2   -1    0    0    0  501  0.00000000000E+00  0.00000000000E+00  0.12621728012E+04  0.12621728012E+04  0.25500000920E-02 0. -1.
        2   -1    0    0  501    0  0.00000000000E+00  0.00000000000E+00 -0.86741259533E+03  0.86741259533E+03  0.25500000920E-02 0.  1.
    10030    2    1    2    0    0  0.00000000000E+00  0.00000000000E+00  0.39476020583E+03  0.21295853965E+04  0.20926773141E+04 0.  0.
        5    1    3    3  502    0  0.30868847513E+03  0.28762836855E+03 -0.77699520306E+03  0.88417322322E+03  0.46999998093E+01 0.  1.
       -5    1    3    3    0  502 -0.30868847513E+03 -0.28762836855E+03  0.11717554089E+04  0.12454121733E+04  0.46999998093E+01 0. -1.
</event>
<event>
 5   0  0.4174093E-05  0.2098054E+04  0.7818609E-02  0.8562101E-01
        1   -1    0    0  501    0  0.00000000000E+00  0.00000000000E+00  0.27170369420E+04  0.27170369420E+04  0.50400001928E-02 0.  1.
       -1   -1    0    0    0  501  0.00000000000E+00  0.00000000000E+00 -0.40502108196E+03  0.40502108199E+03  0.50400001928E-02 0. -1.
    10030    2    1    2    0    0  0.00000000000E+00  0.00000000000E+00  0.23120158600E+04  0.31220580240E+04  0.20980536142E+04 0.  0.
        3    1    3    3  502    0  0.88155409933E+03 -0.54235653423E+03  0.90186086690E+03  0.13728223752E+04  0.10100000352E+00 0. -1.
       -3    1    3    3    0  502 -0.88155409933E+03  0.54235653423E+03  0.14101549931E+04  0.17492356488E+04  0.10100000352E+00 0.  1.
</event>
<event>
 5   0  0.4182977E-05  0.2107758E+04  0.7818609E-02  0.8557834E-01
        1   -1    0    0  501    0  0.00000000000E+00  0.00000000000E+00  0.15094974712E+04  0.15094974712E+04  0.50400001928E-02 0.  1.
       -1   -1    0    0    0  501  0.00000000000E+00  0.00000000000E+00 -0.73578160544E+03  0.73578160546E+03  0.50400001928E-02 0. -1.
    10030    2    1    2    0    0  0.00000000000E+00  0.00000000000E+00  0.77371586579E+03  0.22452790767E+04  0.21077575504E+04 0.  0.
        1    1    3    3  502    0 -0.44139784564E+03  0.87753574758E+03  0.79355215350E+03  0.12627850438E+04  0.50400001928E-02 0.  1.
       -1    1    3    3    0  502  0.44139784564E+03 -0.87753574758E+03 -0.19836287716E+02  0.98249403293E+03  0.50400001928E-02 0. -1.
</event>
<event>
 5   0  0.4174093E-05  0.2118306E+04  0.7818609E-02  0.8553222E-01
        1   -1    0    0  501    0  0.00000000000E+00  0.00000000000E+00  0.27300154361E+04  0.27300154361E+04  0.50400001928E-02 0. -1.
       -1   -1    0    0    0  501  0.00000000000E+00  0.00000000000E+00 -0.41091520686E+03  0.41091520690E+03  0.50400001928E-02 0.  1.
    10030    2    1    2    0    0  0.00000000000E+00  0.00000000000E+00  0.23191002292E+04  0.31409306430E+04  0.21183057926E+04 0.  0.
        3    1    3    3  502    0 -0.55665244527E+03 -0.29675822785E+03  0.24210935811E+04  0.25019235658E+04  0.10100000352E+00 0. -1.
       -3    1    3    3    0  502  0.55665244527E+03  0.29675822785E+03 -0.10199335188E+03  0.63900707715E+03  0.10100000352E+00 0.  1.
</event>
<event>
 5   0  0.4182977E-05  0.2116693E+04  0.7818609E-02  0.8553925E-01
       -1   -1    0    0    0  501  0.00000000000E+00  0.00000000000E+00  0.11471425822E+04  0.11471425822E+04  0.50400001928E-02 0. -1.
        1   -1    0    0  501    0  0.00000000000E+00  0.00000000000E+00 -0.97642410823E+03  0.97642410825E+03  0.50400001928E-02 0.  1.
    10030    2    1    2    0    0  0.00000000000E+00  0.00000000000E+00  0.17071847396E+03  0.21235666905E+04  0.21166933390E+04 0.  0.
        1    1    3    3  502    0 -0.81205806662E+03 -0.18452578799E+03  0.74063374785E+03  0.11144623899E+04  0.50400001928E-02 0. -1.
       -1    1    3    3    0  502  0.81205806662E+03  0.18452578799E+03 -0.56991527388E+03  0.10091043006E+04  0.50400001928E-02 0.  1.
</event>
<event>
 5   0  0.4200061E-05  0.2101298E+04  0.7818609E-02  0.8560672E-01
       -1   -1    0    0    0  501  0.00000000000E+00  0.00000000000E+00  0.74412206123E+03  0.74412206125E+03  0.50400001928E-02 0.  1.
        1   -1    0    0  501    0  0.00000000000E+00  0.00000000000E+00 -0.14834436836E+04  0.14834436836E+04  0.50400001928E-02 0. -1.
    10030    2    1    2    0    0  0.00000000000E+00  0.00000000000E+00 -0.73932162233E+03  0.22275657448E+04  0.21012978576E+04 0.  0.
        4    1    3    3  502    0  0.37195352381E+03 -0.90807662207E+02  0.66753141599E+03  0.76954224031E+03  0.12699999809E+01 0.  1.
       -4    1    3    3    0  502 -0.37195352381E+03  0.90807662207E+02 -0.14068530383E+04  0.14580235045E+04  0.12699999809E+01 0. -1.
</event>
<event>
 5   0  0.8547605E-05  0.2061077E+04  0.7818609E-02  0.8578586E-01
       -2   -1    0    0    0  501  0.00000000000E+00  0.00000000000E+00  0.11253567708E+04  0.11253567708E+04  0.25500000920E-02 0.  1.
        2   -1    0    0  501    0  0.00000000000E+00  0.00000000000E+00 -0.94370932605E+03  0.94370932605E+03  0.25500000920E-02 0. -1.
    10030    2    1    2    0    0  0.00000000000E+00  0.00000000000E+00  0.18164744477E+03  0.20690660969E+04  0.20610770774E+04 0.  0.
        4    1    3    3  502    0 -0.36829838952E+03 -0.29697894385E+03 -0.82824002510E+03  0.95384660658E+03  0.12699999809E+01 0. -1.
       -4    1    3    3    0  502  0.36829838952E+03  0.29697894385E+03  0.10098874699E+04  0.11152194903E+04  0.12699999809E+01 0.  1.
</event>
<event>
 5   0  0.9086985E-05  0.2093803E+04  0.7818609E-02  0.8563978E-01
        2   -1    0    0  501    0  0.00000000000E+00  0.00000000000E+00  0.95434551035E+03  0.95434551036E+03  0.25500000920E-02 0. -1.
       -2   -1    0    0    0  501  0.00000000000E+00  0.00000000000E+00 -0.11484342564E+04  0.11484342565E+04  0.25500000920E-02 0.  1.
    10030    2    1    2    0    0  0.00000000000E+00  0.00000000000E+00 -0.19408874609E+03  0.21027797668E+04  0.20938033113E+04 0.  0.
        5    1    3    3  502    0  0.53183640644E+03  0.89855702422E+03 -0.21047650306E+02  0.10443753073E+04  0.46999998093E+01 0. -1.
       -5    1    3    3    0  502 -0.53183640644E+03 -0.89855702422E+03 -0.17304109579E+03  0.10584044595E+04  0.46999998093E+01 0.  1.
</event>
<event>
 5   0  0.4182977E-05  0.2094406E+04  0.7818609E-02  0.8563711E-01
       -1   -1    0    0    0  501  0.00000000000E+00  0.00000000000E+00  0.90456327677E+03  0.90456327678E+03  0.50400001928E-02 0. -1.
        1   -1    0    0  501    0  0.00000000000E+00  0.00000000000E+00 -0.12123356993E+04  0.12123356994E+04  0.50400001928E-02 0.  1.
    10030    2    1    2    0    0  0.00000000000E+00  0.00000000000E+00 -0.30777242258E+03  0.21168989761E+04  0.20944062192E+04 0.  0.
        1    1    3    3  502    0  0.43501229936E+03 -0.27657948433E+03  0.76744170701E+03  0.92449915383E+03  0.50400001928E-02 0. -1.
       -1    1    3    3    0  502 -0.43501229936E+03  0.27657948433E+03 -0.10752141296E+04  0.11923998223E+04  0.50400001928E-02 0.  1.
</event>
<event>
 5   0  0.8872777E-05  0.2177522E+04  0.7818609E-02  0.8527843E-01
       -2   -1    0    0    0  501  0.00000000000E+00  0.00000000000E+00  0.51091892729E+03  0.51091892729E+03  0.25500000920E-02 0.  1.
        2   -1    0    0  501    0  0.00000000000E+00  0.00000000000E+00 -0.23201337465E+04  0.23201337465E+04  0.25500000920E-02 0. -1.
    10030    2    1    2    0    0  0.00000000000E+00  0.00000000000E+00 -0.18092148192E+04  0.28310526738E+04  0.21775217518E+04 0.  0.
        3    1    3    3  502    0 -0.78030166479E+03 -0.75796640748E+03 -0.84622506601E+03  0.13782164690E+04  0.10100000352E+00 0.  1.
       -3    1    3    3    0  502  0.78030166479E+03  0.75796640748E+03 -0.96298975321E+03  0.14528362048E+04  0.10100000352E+00 0. -1.
</event>
<event>
 5   0  0.8858590E-05  0.2120181E+04  0.7818609E-02  0.8552405E-01
       -2   -1    0    0    0  501  0.00000000000E+00  0.00000000000E+00  0.12514195027E+04  0.12514195027E+04  0.25500000920E-02 0.  1.
        2   -1    0    0  501    0  0.00000000000E+00  0.00000000000E+00 -0.89801331942E+03  0.89801331942E+03  0.25500000920E-02 0. -1.
    10030    2    1    2    0    0  0.00000000000E+00  0.00000000000E+00  0.35340618328E+03  0.21494328221E+04  0.21201805410E+04 0.  0.
        1    1    3    3  502    0 -0.54752280908E+03  0.34219618320E+03 -0.67567776360E+03  0.93456936313E+03  0.50400001928E-02 0. -1.
       -1    1    3    3    0  502  0.54752280908E+03 -0.34219618320E+03  0.10290839469E+04  0.12148634590E+04  0.50400001928E-02 0.  1.
</event>
<event>
 5   0  0.9012466E-05  0.1731166E+04  0.7818609E-02  0.8743786E-01
        2   -1    0    0  501    0  0.00000000000E+00  0.00000000000E+00  0.10479246410E+04  0.10479246410E+04  0.25500000920E-02 0.  1.
       -2   -1    0    0    0  501  0.00000000000E+00  0.00000000000E+00 -0.71496903438E+03  0.71496903439E+03  0.25500000920E-02 0. -1.
    10030    2    1    2    0    0  0.00000000000E+00  0.00000000000E+00  0.33295560661E+03  0.17628936754E+04  0.17311656982E+04 0.  0.
        2    1    3    3  502    0  0.48902078334E+03  0.70696607751E+03  0.26978313979E+03  0.90095799225E+03  0.25500000920E-02 0. -1.
       -2    1    3    3    0  502 -0.48902078334E+03 -0.70696607751E+03  0.63172466821E+02  0.86193568313E+03  0.25500000920E-02 0.  1.
</event>
<event>
 5   0  0.3176125E-05  0.2114485E+04  0.7818609E-02  0.8554889E-01
       -4   -1    0    0    0  501  0.00000000000E+00  0.00000000000E+00  0.67749837102E+03  0.67749956135E+03  0.12699999809E+01 0. -1.
        4   -1    0    0  501    0  0.00000000000E+00  0.00000000000E+00 -0.16498338087E+04  0.16498342975E+04  0.12699999809E+01 0.  1.
    10030    2    1    2    0    0  0.00000000000E+00  0.00000000000E+00 -0.97233543767E+03  0.23273338589E+04  0.21144849697E+04 0.  0.
        5    1    3    3  502    0 -0.63937367251E+03  0.77784523140E+03 -0.13138944183E+03  0.10154443227E+04  0.46999998093E+01 0. -1.
       -5    1    3    3    0  502  0.63937367251E+03 -0.77784523140E+03 -0.84094599584E+03  0.13118895361E+04  0.46999998093E+01 0.  1.
</event>
<event>
 5   0  0.4200061E-05  0.2129884E+04  0.7818609E-02  0.8548192E-01
        1   -1    0    0  501    0  0.00000000000E+00  0.00000000000E+00  0.86281175146E+03  0.86281175147E+03  0.50400001928E-02 0.  1.
       -1   -1    0    0    0  501  0.00000000000E+00  0.00000000000E+00 -0.13144250494E+04  0.13144250494E+04  0.50400001928E-02 0. -1.
    10030    2    1    2    0    0  0.00000000000E+00  0.00000000000E+00 -0.45161329798E+03  0.21772368009E+04  0.21298839209E+04 0.  0.
        4    1    3    3  502    0  0.10032817243E+04 -0.32527860608E+03 -0.75155167777E+02  0.10573695201E+04  0.12699999809E+01 0. -1.
       -4    1    3    3    0  502 -0.10032817243E+04  0.32527860608E+03 -0.37645813020E+03  0.11198672808E+04  0.12699999809E+01 0.  1.
</event>
<event>
 5   0  0.9086985E-05  0.2104106E+04  0.7818609E-02  0.8559437E-01
        2   -1    0    0  501    0  0.00000000000E+00  0.00000000000E+00  0.12554676856E+04  0.12554676856E+04  0.25500000920E-02 0.  1.
       -2   -1    0    0    0  501  0.00000000000E+00  0.00000000000E+00 -0.88159644141E+03  0.88159644141E+03  0.25500000920E-02 0. -1.
    10030    2    1    2    0    0  0.00000000000E+00  0.00000000000E+00  0.37387124423E+03  0.21370641270E+04  0.21041063129E+04 0.  0.
        5    1    3    3  502    0  0.72063905072E+03  0.10485071195E+03  0.95809081359E+03  0.12034427325E+04  0.46999998093E+01 0.  1.
       -5    1    3    3    0  502 -0.72063905072E+03 -0.10485071195E+03 -0.58421956936E+03  0.93362139459E+03  0.46999998093E+01 0. -1.
</event>
<event>
 5   0  0.3176125E-05  0.2112027E+04  0.7818609E-02  0.8555964E-01
        4   -1    0    0  501    0  0.00000000000E+00  0.00000000000E+00  0.14135906806E+04  0.14135912510E+04  0.12699999809E+01 0. -1.
       -4   -1    0    0    0  501  0.00000000000E+00  0.00000000000E+00 -0.78888686772E+03  0.78888788998E+03  0.12699999809E+01 0.  1.
    10030    2    1    2    0    0  0.00000000000E+00  0.00000000000E+00  0.62470381284E+03  0.22024791410E+04  0.21120273466E+04 0.  0.
        4    1    3    3  502    0  0.22123356011E+03 -0.11356455890E+03  0.13826206897E+04  0.14048070265E+04  0.12699999809E+01 0. -1.
       -4    1    3    3    0  502 -0.22123356011E+03  0.11356455890E+03 -0.75791687688E+03  0.79767211454E+03  0.12699999809E+01 0.  1.
</event>
<event>
 5   0  0.4128678E-05  0.2088405E+04  0.7818609E-02  0.8566368E-01
        1   -1    0    0  501    0  0.00000000000E+00  0.00000000000E+00  0.99077320611E+03  0.99077320612E+03  0.50400001928E-02 0. -1.
       -1   -1    0    0    0  501  0.00000000000E+00  0.00000000000E+00 -0.11005132569E+04  0.11005132569E+04  0.50400001928E-02 0.  1.
    10030    2    1    2    0    0  0.00000000000E+00  0.00000000000E+00 -0.10974005075E+03  0.20912864630E+04  0.20884051790E+04 0.  0.
        5    1    3    3  502    0 -0.24608437614E+03 -0.70147859648E+03 -0.78916692960E+03  0.10841753891E+04  0.46999998093E+01 0.  1.
       -5    1    3    3    0  502  0.24608437614E+03  0.70147859648E+03  0.67942687885E+03  0.10071110739E+04  0.46999998093E+01 0. -1.
</event>
<event>
 5   0  0.4200061E-05  0.2119032E+04  0.7818609E-02  0.8552906E-01
        1   -1    0    0  501    0  0.00000000000E+00  0.00000000000E+00  0.86541952860E+03  0.86541952862E+03  0.50400001928E-02 0.  1.
       -1   -1    0    0    0  501  0.00000000000E+00  0.00000000000E+00 -0.12971443219E+04  0.12971443219E+04  0.50400001928E-02 0. -1.
    10030    2    1    2    0    0  0.00000000000E+00  0.00000000000E+00 -0.43172479333E+03  0.21625638506E+04  0.21190318805E+04 0.  0.
        4    1    3    3  502    0 -0.75951566211E+03 -0.56708128479E+03  0.26728397417E+03  0.98482869591E+03  0.12699999809E+01 0. -1.
       -4    1    3    3    0  502  0.75951566211E+03  0.56708128479E+03 -0.69900876749E+03  0.11777351546E+04  0.12699999809E+01 0.  1.
</event>
<event>
 5   0  0.4174093E-05  0.2124867E+04  0.7818609E-02  0.8550368E-01
       -1   -1    0    0    0  501  0.00000000000E+00  0.00000000000E+00  0.10954965056E+04  0.10954965056E+04  0.50400001928E-02 0. -1.
        1   -1    0    0  501    0  0.00000000000E+00  0.00000000000E+00 -0.10303679564E+04  0.10303679564E+04  0.50400001928E-02 0.  1.
    10030    2    1    2    0    0  0.00000000000E+00  0.00000000000E+00  0.65128549209E+02  0.21258644620E+04  0.21248665801E+04 0.  0.
        3    1    3    3  502    0  0.64779074423E+03  0.61768985092E+03 -0.54006007407E+03  0.10453891591E+04  0.10100000352E+00 0.  1.
       -3    1    3    3    0  502 -0.64779074423E+03 -0.61768985092E+03  0.60518862328E+03  0.10804753029E+04  0.10100000352E+00 0. -1.
</event>
<event>
 5   0  0.4128678E-05  0.2105704E+04  0.7818609E-02  0.8558735E-01
        1   -1    0    0  501    0  0.00000000000E+00  0.00000000000E+00  0.20175531205E+04  0.20175531205E+04  0.50400001928E-02 0. -1.
       -1   -1    0    0    0  501  0.00000000000E+00  0.00000000000E+00 -0.54942683425E+03  0.54942683427E+03  0.50400001928E-02 0.  1.
    10030    2    1    2    0    0  0.00000000000E+00  0.00000000000E+00  0.14681262863E+04  0.25669799548E+04  0.21057044655E+04 0.  0.
        5    1    3    3  502    0 -0.66310265966E+03  0.81634320890E+03  0.79321408704E+03  0.13173200256E+04  0.46999998093E+01 0. -1.
       -5    1    3    3    0  502  0.66310265966E+03 -0.81634320890E+03  0.67491219922E+03  0.12496599292E+04  0.46999998093E+01 0.  1.
</event>
<event>
 5   0  0.4182977E-05  0.2086625E+04  0.7818609E-02  0.8567158E-01
       -1   -1    0    0    0  501  0.00000000000E+00  0.00000000000E+00  0.73134323758E+03  0.73134323760E+03  0.50400001928E-02 0. -1.
        1   -1    0    0  501    0  0.00000000000E+00  0.00000000000E+00 -0.14883580819E+04  0.14883580819E+04  0.50400001928E-02 0.  1.
    10030    2    1    2    0    0  0.00000000000E+00  0.00000000000E+00 -0.75701484428E+03  0.22197013195E+04  0.20866246604E+04 0.  0.
        1    1    3    3  502    0 -0.92235168639E+03 -0.47359855298E+03 -0.50198059731E+03  0.11519603912E+04  0.50400001928E-02 0. -1.
       -1    1    3    3    0  502  0.92235168639E+03  0.47359855298E+03 -0.25503424697E+03  0.10677409283E+04  0.50400001928E-02 0.  1.
</event>
<event>
 5   0  0.3176125E-05  0.2126170E+04  0.7818609E-02  0.8549802E-01
        3   -1    0    0  501    0  0.00000000000E+00  0.00000000000E+00  0.93447762257E+03  0.93447762803E+03  0.10100000352E+00 0.  1.
       -3   -1    0    0    0  501  0.00000000000E+00  0.00000000000E+00 -0.12093917743E+04  0.12093917786E+04  0.10100000352E+00 0. -1.
    10030    2    1    2    0    0  0.00000000000E+00  0.00000000000E+00 -0.27491415177E+03  0.21438694066E+04  0.21261698525E+04 0.  0.
        1    1    3    3  502    0  0.54284223375E+03 -0.84546286129E+03 -0.48771662598E+03  0.11168494294E+04  0.50400001928E-02 0. -1.
       -1    1    3    3    0  502 -0.54284223375E+03  0.84546286129E+03  0.21280247421E+03  0.10270199772E+04  0.50400001928E-02 0.  1.
</event>
<event>
 5   0  0.8858590E-05  0.2088303E+04  0.7818609E-02  0.8566414E-01
        2   -1    0    0  501    0  0.00000000000E+00  0.00000000000E+00  0.10006955323E+04  0.10006955323E+04  0.25500000920E-02 0.  1.
       -2   -1    0    0    0  501  0.00000000000E+00  0.00000000000E+00 -0.10894943579E+04  0.10894943579E+04  0.25500000920E-02 0. -1.
    10030    2    1    2    0    0  0.00000000000E+00  0.00000000000E+00 -0.88798825581E+02  0.20901898903E+04  0.20883027908E+04 0.  0.
        1    1    3    3  502    0 -0.30090104837E+03  0.49429559247E+03  0.82551344833E+03  0.10081379008E+04  0.50400001928E-02 0.  1.
       -1    1    3    3    0  502  0.30090104837E+03 -0.49429559247E+03 -0.91431227391E+03  0.10820519895E+04  0.50400001928E-02 0. -1.
</event>
<event>
 5   0  0.4182977E-05  0.2083097E+04  0.7818609E-02  0.8568726E-01
        1   -1    0    0  501    0  0.00000000000E+00  0.00000000000E+00  0.15290473706E+04  0.15290473706E+04  0.50400001928E-02 0. -1.
       -1   -1    0    0    0  501  0.00000000000E+00  0.00000000000E+00 -0.70947627216E+03  0.70947627217E+03  0.50400001928E-02 0.  1.
    10030    2    1    2    0    0  0.00000000000E+00  0.00000000000E+00  0.81957109846E+03  0.22385236428E+04  0.20830965686E+04 0.  0.
        1    1    3    3  502    0  0.82444026558E+03  0.53683411204E+03  0.42320826200E+02  0.98472517370E+03  0.50400001928E-02 0.  1.
       -1    1    3    3    0  502 -0.82444026558E+03 -0.53683411204E+03  0.77725027226E+03  0.12537984691E+04  0.50400001928E-02 0. -1.
</event>
<event>
 5   0  0.8547605E-05  0.2096282E+04  0.7818609E-02  0.8562883E-01
       -2   -1    0    0    0  501  0.00000000000E+00  0.00000000000E+00  0.54501017786E+03  0.54501017786E+03  0.25500000920E-02 0.  1.
        2   -1    0    0  501    0  0.00000000000E+00  0.00000000000E+00 -0.20157420893E+04  0.20157420893E+04  0.25500000920E-02 0. -1.
    10030    2    1    2    0    0  0.00000000000E+00  0.00000000000E+00 -0.14707319114E+04  0.25607522671E+04  0.20962823804E+04 0.  0.
        4    1    3    3  502    0  0.24424450711E+03  0.10105055943E+04 -0.57229043690E+03  0.11867160117E+04  0.12699999809E+01 0.  1.
       -4    1    3    3    0  502 -0.24424450711E+03 -0.10105055943E+04 -0.89844147450E+03  0.13740362555E+04  0.12699999809E+01 0. -1.
</event>
<event>
 5   0  0.9086985E-05  0.2090350E+04  0.7818609E-02  0.8565506E-01
        2   -1    0    0  501    0  0.00000000000E+00  0.00000000000E+00  0.18219375402E+04  0.18219375402E+04  0.25500000920E-02 0.  1.
       -2   -1    0    0    0  501  0.00000000000E+00  0.00000000000E+00 -0.59957662149E+03  0.59957662149E+03  0.25500000920E-02 0. -1.
    10030    2    1    2    0    0  0.00000000000E+00  0.00000000000E+00  0.12223609187E+04  0.24215141617E+04  0.20903503581E+04 0.  0.
        5    1    3    3  502    0 -0.80923694335E+03 -0.44608226923E+03  0.45428586724E+02  0.92517007511E+03  0.46999998093E+01 0. -1.
       -5    1    3    3    0  502  0.80923694335E+03  0.44608226923E+03  0.11769323320E+04  0.14963440866E+04  0.46999998093E+01 0.  1.
</event>
<event>
 5   0  0.4050368E-05  0.2115001E+04  0.7818609E-02  0.8554664E-01
        1   -1    0    0  501    0  0.00000000000E+00  0.00000000000E+00  0.17440178755E+04  0.17440178755E+04  0.50400001928E-02 0. -1.
       -1   -1    0    0    0  501  0.00000000000E+00  0.00000000000E+00 -0.64122445956E+03  0.64122445958E+03  0.50400001928E-02 0.  1.
    10030    2    1    2    0    0  0.00000000000E+00  0.00000000000E+00  0.11027934159E+04  0.23852423350E+04  0.21150006333E+04 0.  0.
        2    1    3    3  502    0  0.49489108588E+03 -0.93344849071E+03  0.60262853174E+03  0.12163076991E+04  0.25500000920E-02 0.  1.
       -2    1    3    3    0  502 -0.49489108588E+03  0.93344849071E+03  0.50016488415E+03  0.11689346359E+04  0.25500000920E-02 0. -1.
</event>
<event>
 5   0  0.4182977E-05  0.2103002E+04  0.7818609E-02  0.8559922E-01
        1   -1    0    0  501    0  0.00000000000E+00  0.00000000000E+00  0.78475399852E+03  0.78475399853E+03  0.50400001928E-02 0.  1.
       -1   -1    0    0    0  501  0.00000000000E+00  0.00000000000E+00 -0.14089183350E+04  0.14089183350E+04  0.50400001928E-02 0. -1.
    10030    2    1    2    0    0  0.00000000000E+00  0.00000000000E+00 -0.62416433645E+03  0.21936723335E+04  0.21030019467E+04 0.  0.
        1    1    3    3  502    0 -0.17872923302E+03  0.33836453558E+03 -0.13337062115E+04  0.13875182724E+04  0.50400001928E-02 0. -1.
       -1    1    3    3    0  502  0.17872923302E+03 -0.33836453558E+03  0.70954187507E+03  0.80615406107E+03  0.50400001928E-02 0.  1.
</event>
<event>
 5   0  0.9012466E-05  0.2109877E+04  0.7818609E-02  0.8556905E-01
       -2   -1    0    0    0  501  0.00000000000E+00  0.00000000000E+00  0.54160363878E+03  0.54160363879E+03  0.25500000920E-02 0.  1.
        2   -1    0    0  501    0  0.00000000000E+00  0.00000000000E+00 -0.20548148273E+04  0.20548148273E+04  0.25500000920E-02 0. -1.
    10030    2    1    2    0    0  0.00000000000E+00  0.00000000000E+00 -0.15132111885E+04  0.25964184661E+04  0.21098769514E+04 0.  0.
        2    1    3    3  502    0 -0.71773072654E+03  0.30353504631E+03 -0.16316528683E+04  0.18081930214E+04  0.25500000920E-02 0. -1.
       -2    1    3    3    0  502  0.71773072654E+03 -0.30353504631E+03  0.11844167973E+03  0.78822544469E+03  0.25500000920E-02 0.  1.
</event>
<event>
 5   0  0.4174093E-05  0.2107693E+04  0.7818609E-02  0.8557862E-01
        1   -1    0    0  501    0  0.00000000000E+00  0.00000000000E+00  0.11249560631E+04  0.11249560631E+04  0.50400001928E-02 0. -1.
       -1   -1    0    0    0  501  0.00000000000E+00  0.00000000000E+00 -0.98723142344E+03  0.98723142345E+03  0.50400001928E-02 0.  1.
    10030    2    1    2    0    0  0.00000000000E+00  0.00000000000E+00  0.13772463962E+03  0.21121874865E+04  0.21076925539E+04 0.  0.
        3    1    3    3  502    0 -0.27972743190E+03  0.17962317594E+03  0.10710350583E+04  0.11214401579E+04  0.10100000352E+00 0. -1.
       -3    1    3    3    0  502  0.27972743190E+03 -0.17962317594E+03 -0.93331041864E+03  0.99074732865E+03  0.10100000352E+00 0.  1.
</event>
<event>
 5   0  0.4174093E-05  0.2149540E+04  0.7818609E-02  0.8539729E-01
       -1   -1    0    0    0  501  0.00000000000E+00  0.00000000000E+00  0.63804557047E+03  0.63804557049E+03  0.50400001928E-02 0.  1.
        1   -1    0    0  501    0  0.00000000000E+00  0.00000000000E+00 -0.18104195905E+04  0.18104195905E+04  0.50400001928E-02 0. -1.
    10030    2    1    2    0    0  0.00000000000E+00  0.00000000000E+00 -0.11723740200E+04  0.24484651610E+04  0.21495396721E+04 0.  0.
        3    1    3    3  502    0 -0.32764464999E+03  0.20212642338E+03 -0.17291885827E+04  0.17715245616E+04  0.10100000352E+00 0. -1.
       -3    1    3    3    0  502  0.32764464999E+03 -0.20212642338E+03  0.55681456266E+03  0.67694059938E+03  0.10100000352E+00 0.  1.
</event>
<event>
 5   0  0.9012466E-05  0.2089884E+04  0.7818609E-02  0.8565713E-01
       -2   -1    0    0    0  501  0.00000000000E+00  0.00000000000E+00  0.49083994258E+03  0.49083994259E+03  0.25500000920E-02 0.  1.
        2   -1    0    0  501    0  0.00000000000E+00  0.00000000000E+00 -0.22245625766E+04  0.22245625766E+04  0.25500000920E-02 0. -1.
    10030    2    1    2    0    0  0.00000000000E+00  0.00000000000E+00 -0.17337226340E+04  0.27154025192E+04  0.20898843675E+04 0.  0.
        2    1    3    3  502    0  0.68680880557E+03 -0.76745801880E+03 -0.10963869321E+04  0.15042481348E+04  0.25500000920E-02 0.  1.
       -2    1    3    3    0  502 -0.68680880557E+03  0.76745801880E+03 -0.63733570192E+03  0.12111543845E+04  0.25500000920E-02 0. -1.
</event>
<event>
 5   0  0.4128678E-05  0.2061742E+04  0.7818609E-02  0.8578286E-01
       -1   -1    0    0    0  501  0.00000000000E+00  0.00000000000E+00  0.88033819369E+03  0.88033819371E+03  0.50400001928E-02 0. -1.
        1   -1    0    0  501    0  0.00000000000E+00  0.00000000000E+00 -0.12071442792E+04  0.12071442792E+04  0.50400001928E-02 0.  1.
    10030    2    1    2    0    0  0.00000000000E+00  0.00000000000E+00 -0.32680608548E+03  0.20874824729E+04  0.20617421898E+04 0.  0.
        5    1    3    3  502    0  0.54188060736E+03  0.43590444441E+03  0.60703453103E+03  0.92312528356E+03  0.46999998093E+01 0. -1.
       -5    1    3    3    0  502 -0.54188060736E+03 -0.43590444441E+03 -0.93384061652E+03  0.11643571893E+04  0.46999998093E+01 0.  1.
</event>
<event>
 5   0  0.8872777E-05  0.2093673E+04  0.7818609E-02  0.8564035E-01
       -2   -1    0    0    0  501  0.00000000000E+00  0.00000000000E+00  0.66219043890E+03  0.66219043891E+03  0.25500000920E-02 0. -1.
        2   -1    0    0  501    0  0.00000000000E+00  0.00000000000E+00 -0.16549120751E+04  0.16549120751E+04  0.25500000920E-02 0.  1.
    10030    2    1    2    0    0  0.00000000000E+00  0.00000000000E+00 -0.99272163620E+03  0.23171025140E+04  0.20936732824E+04 0.  0.
        3    1    3    3  502    0  0.47456951552E+02 -0.70398029096E+03 -0.13522086664E+04  0.15252241475E+04  0.10100000352E+00 0.  1.
       -3    1    3    3    0  502 -0.47456951552E+02  0.70398029096E+03  0.35948703020E+03  0.79187836655E+03  0.10100000352E+00 0. -1.
</event>
<event>
 5   0  0.8872777E-05  0.2106813E+04  0.7818609E-02  0.8558248E-01
        2   -1    0    0  501    0  0.00000000000E+00  0.00000000000E+00  0.13319602199E+04  0.13319602199E+04  0.25500000920E-02 0. -1.
       -2   -1    0    0    0  501  0.00000000000E+00  0.00000000000E+00 -0.83310676966E+03  0.83310676966E+03  0.25500000920E-02 0.  1.
    10030    2    1    2    0    0  0.00000000000E+00  0.00000000000E+00  0.49885345026E+03  0.21650669896E+04  0.21068128309E+04 0.  0.
        3    1    3    3  502    0  0.33570803283E+03 -0.56523998474E+03  0.10952703473E+04  0.12774244664E+04  0.10100000352E+00 0. -1.
       -3    1    3    3    0  502 -0.33570803283E+03  0.56523998474E+03 -0.59641689701E+03  0.88764252314E+03  0.10100000352E+00 0.  1.
</event>
<event>
 5   0  0.9012466E-05  0.2117622E+04  0.7818609E-02  0.8553520E-01
       -2   -1    0    0    0  501  0.00000000000E+00  0.00000000000E+00  0.64467429399E+03  0.64467429399E+03  0.25500000920E-02 0.  1.
        2   -1    0    0  501    0  0.00000000000E+00  0.00000000000E+00 -0.17389882642E+04  0.17389882642E+04  0.25500000920E-02 0. -1.
    10030    2    1    2    0    0  0.00000000000E+00  0.00000000000E+00 -0.10943139702E+04  0.23836625582E+04  0.21176222812E+04 0.  0.
        2    1    3    3  502    0 -0.77256544474E+03 -0.15536410747E+03 -0.13431668999E+04  0.15572709119E+04  0.25500000920E-02 0. -1.
       -2    1    3    3    0  502  0.77256544474E+03  0.15536410747E+03  0.24885292970E+03  0.82639164621E+03  0.25500000920E-02 0.  1.
</event>
<event>
 5   0  0.4200061E-05  0.2096113E+04  0.7818609E-02  0.8562958E-01
       -1   -1    0    0    0  501  0.00000000000E+00  0.00000000000E+00  0.13591801429E+04  0.13591801429E+04  0.50400001928E-02 0.  1.
        1   -1    0    0  501    0  0.00000000000E+00  0.00000000000E+00 -0.80815036331E+03  0.80815036333E+03  0.50400001928E-02 0. -1.
    10030    2    1    2    0    0  0.00000000000E+00  0.00000000000E+00  0.55102977961E+03  0.21673305063E+04  0.20961125221E+04 0.  0.
        4    1    3    3  502    0  0.65844163151E+03 -0.51808068639E+03 -0.37553498029E+03  0.91814002964E+03  0.12699999809E+01 0. -1.
       -4    1    3    3    0  502 -0.65844163151E+03  0.51808068639E+03  0.92656475989E+03  0.12491904766E+04  0.12699999809E+01 0.  1.
</event>
<event>
 5   0  0.8858590E-05  0.2082619E+04  0.7818609E-02  0.8568939E-01
       -2   -1    0    0    0  501  0.00000000000E+00  0.00000000000E+00  0.10546081591E+04  0.10546081591E+04  0.25500000920E-02 0. -1.
        2   -1    0    0  501    0  0.00000000000E+00  0.00000000000E+00 -0.10281785624E+04  0.10281785624E+04  0.25500000920E-02 0.  1.
    10030    2    1    2    0    0  0.00000000000E+00  0.00000000000E+00  0.26429596710E+02  0.20827867216E+04  0.20826190252E+04 0.  0.
        1    1    3    3  502    0 -0.11429824806E+02  0.32305578136E+03 -0.97672844448E+03  0.10288314405E+04  0.50400001928E-02 0.  1.
       -1    1    3    3    0  502  0.11429824806E+02 -0.32305578136E+03  0.10031580412E+04  0.10539552810E+04  0.50400001928E-02 0. -1.
</event>
<event>
 5   0  0.9012466E-05  0.2115147E+04  0.7818609E-02  0.8554600E-01
       -2   -1    0    0    0  501  0.00000000000E+00  0.00000000000E+00  0.98281060829E+03  0.98281060829E+03  0.25500000920E-02 0. -1.
        2   -1    0    0  501    0  0.00000000000E+00  0.00000000000E+00 -0.11380232385E+04  0.11380232385E+04  0.25500000920E-02 0.  1.
    10030    2    1    2    0    0  0.00000000000E+00  0.00000000000E+00 -0.15521263025E+03  0.21208338468E+04  0.21151466250E+04 0.  0.
        2    1    3    3  502    0 -0.60248024662E+03  0.69966143005E+02 -0.94629807778E+03  0.11239918864E+04  0.25500000920E-02 0.  1.
       -2    1    3    3    0  502  0.60248024662E+03 -0.69966143005E+02  0.79108544753E+03  0.99684196041E+03  0.25500000920E-02 0. -1.
</event>
<event>
 5   0  0.8547605E-05  0.2103272E+04  0.7818609E-02  0.8559803E-01
        2   -1    0    0  501    0  0.00000000000E+00  0.00000000000E+00  0.12654486915E+04  0.12654486915E+04  0.25500000920E-02 0. -1.
       -2   -1    0    0    0  501  0.00000000000E+00  0.00000000000E+00 -0.87394950722E+03  0.87394950722E+03  0.25500000920E-02 0.  1.
    10030    2    1    2    0    0  0.00000000000E+00  0.00000000000E+00  0.39149918433E+03  0.21393981988E+04  0.21032719847E+04 0.  0.
        4    1    3    3  502    0 -0.21254353862E+03  0.52041667180E+03 -0.70829540476E+03  0.90426338055E+03  0.12699999809E+01 0.  1.
       -4    1    3    3    0  502  0.21254353862E+03 -0.52041667180E+03  0.10997945891E+04  0.12351348182E+04  0.12699999809E+01 0. -1.
</event>
<event>
 5   0  0.8872777E-05  0.2072874E+04  0.7818609E-02  0.8573287E-01
       -2   -1    0    0    0  501  0.00000000000E+00  0.00000000000E+00  0.50403601952E+03  0.50403601953E+03  0.25500000920E-02 0.  1.
        2   -1    0    0  501    0  0.00000000000E+00  0.00000000000E+00 -0.21312009401E+04  0.21312009401E+04  0.25500000920E-02 0. -1.
    10030    2    1    2    0    0  0.00000000000E+00  0.00000000000E+00 -0.16271649206E+04  0.26352369596E+04  0.20728743702E+04 0.  0.
        3    1    3    3  502    0  0.60486401573E+03  0.78941517520E+03 -0.11845858335E+04  0.15466998427E+04  0.10100000352E+00 0. -1.
       -3    1    3    3    0  502 -0.60486401573E+03 -0.78941517520E+03 -0.44257908709E+03  0.10885371169E+04  0.10100000352E+00 0.  1.
</event>
<event>
 5   0  0.4050368E-05  0.2114548E+04  0.7818609E-02  0.8554862E-01
        1   -1    0    0  501    0  0.00000000000E+00  0.00000000000E+00  0.13398239627E+04  0.13398239628E+04  0.50400001928E-02 0.  1.
       -1   -1    0    0    0  501  0.00000000000E+00  0.00000000000E+00 -0.83430966277E+03  0.83430966279E+03  0.50400001928E-02 0. -1.
    10030    2    1    2    0    0  0.00000000000E+00  0.00000000000E+00  0.50551429998E+03  0.21741336255E+04  0.21145477801E+04 0.  0.
        2    1    3    3  502    0 -0.27252920637E+03  0.46290718861E+03  0.11890623865E+04  0.13047699386E+04  0.25500000920E-02 0.  1.
       -2    1    3    3    0  502  0.27252920637E+03 -0.46290718861E+03 -0.68354808654E+03  0.86936368697E+03  0.25500000920E-02 0. -1.
</event>
<event>
 5   0  0.8858590E-05  0.2080857E+04  0.7818609E-02  0.8569723E-01
       -2   -1    0    0    0  501  0.00000000000E+00  0.00000000000E+00  0.16620310137E+04  0.16620310137E+04  0.25500000920E-02 0. -1.
        2   -1    0    0  501    0  0.00000000000E+00  0.00000000000E+00 -0.65130657622E+03  0.65130657623E+03  0.25500000920E-02 0.  1.
    10030    2    1    2    0    0  0.00000000000E+00  0.00000000000E+00  0.10107244375E+04  0.23133375900E+04  0.20808572552E+04 0.  0.
        1    1    3    3  502    0 -0.72601349165E+03 -0.10419378982E+03 -0.31501111816E+03  0.79823802245E+03  0.50400001928E-02 0.  1.
       -1    1    3    3    0  502  0.72601349165E+03  0.10419378982E+03  0.13257355557E+04  0.15150995675E+04  0.50400001928E-02 0. -1.
</event>
<event>
 5   0  0.8547605E-05  0.2077753E+04  0.7818609E-02  0.8571107E-01
       -2   -1    0    0    0  501  0.00000000000E+00  0.00000000000E+00  0.58239444342E+03  0.58239444342E+03  0.25500000920E-02 0.  1.
        2   -1    0    0  501    0  0.00000000000E+00  0.00000000000E+00 -0.18531508456E+04  0.18531508456E+04  0.25500000920E-02 0. -1.
    10030    2    1    2    0    0  0.00000000000E+00  0.00000000000E+00 -0.12707564021E+04  0.24355452890E+04  0.20777533591E+04 0.  0.
        4    1    3    3  502    0  0.38124022715E+03  0.58255849752E+03  0.26846781166E+03  0.74618703596E+03  0.12699999809E+01 0.  1.
       -4    1    3    3    0  502 -0.38124022715E+03 -0.58255849752E+03 -0.15392242138E+04  0.16893582530E+04  0.12699999809E+01 0. -1.
</event>
<event>
 5   0  0.4182977E-05  0.2108151E+04  0.7818609E-02  0.8557661E-01
       -1   -1    0    0    0  501  0.00000000000E+00  0.00000000000E+00  0.62982822648E+03  0.62982822650E+03  0.50400001928E-02 0.  1.
        1   -1    0    0  501    0  0.00000000000E+00  0.00000000000E+00 -0.17640930137E+04  0.17640930137E+04  0.50400001928E-02 0. -1.
    10030    2    1    2    0    0  0.00000000000E+00  0.00000000000E+00 -0.11342647873E+04  0.23939212402E+04  0.21081513933E+04 0.  0.
        1    1    3    3  502    0 -0.45163882964E+03  0.94943349441E+03 -0.65266900052E+03  0.12374887543E+04  0.50400001928E-02 0. -1.
       -1    1    3    3    0  502  0.45163882964E+03 -0.94943349441E+03 -0.48159578673E+03  0.11564324860E+04  0.50400001928E-02 0.  1.
</event>
<event>
 5   0  0.4050368E-05  0.2154801E+04  0.7818609E-02  0.8537480E-01
        1   -1    0    0  501    0  0.00000000000E+00  0.00000000000E+00  0.22618069626E+04  0.22618069627E+04  0.50400001928E-02 0.  1.
       -1   -1    0    0    0  501  0.00000000000E+00  0.00000000000E+00 -0.51321457178E+03  0.51321457180E+03  0.50400001928E-02 0. -1.
    10030    2    1    2    0    0  0.00000000000E+00  0.00000000000E+00  0.17485923909E+04  0.27750215345E+04  0.21548014218E+04 0.  0.
        2    1    3    3  502    0  0.27112763705E+03 -0.19735591947E+03 -0.44429046628E+03  0.55664492538E+03  0.25500000920E-02 0. -1.
       -2    1    3    3    0  502 -0.27112763705E+03  0.19735591947E+03  0.21928828571E+04  0.22183766091E+04  0.25500000920E-02 0.  1.
</event>
<event>
 5   0  0.4128678E-05  0.1801877E+04  0.7818609E-02  0.8705302E-01
        1   -1    0    0  501    0  0.00000000000E+00  0.00000000000E+00  0.95195348578E+03  0.95195348579E+03  0.50400001928E-02 0.  1.
       -1   -1    0    0    0  501  0.00000000000E+00  0.00000000000E+00 -0.85265723576E+03  0.85265723578E+03  0.50400001928E-02 0. -1.
    10030    2    1    2    0    0  0.00000000000E+00  0.00000000000E+00  0.99296250017E+02  0.18046107216E+04  0.18018768302E+04 0.  0.
        5    1    3    3  502    0 -0.51558815587E+03 -0.67486811699E+03  0.35075327497E+03  0.91887326205E+03  0.46999998093E+01 0.  1.
       -5    1    3    3    0  502  0.51558815587E+03  0.67486811699E+03 -0.25145702496E+03  0.88573745952E+03  0.46999998093E+01 0. -1.
</event>
<event>
 5   0  0.3176125E-05  0.2084969E+04  0.7818609E-02  0.8567894E-01
        3   -1    0    0  501    0  0.00000000000E+00  0.00000000000E+00  0.11530208286E+04  0.11530208331E+04  0.10100000352E+00 0.  1.
       -3   -1    0    0    0  501  0.00000000000E+00  0.00000000000E+00 -0.94254474650E+03  0.94254475191E+03  0.10100000352E+00 0. -1.
    10030    2    1    2    0    0  0.00000000000E+00  0.00000000000E+00  0.21047608214E+03  0.20955655850E+04  0.20849688103E+04 0.  0.
        4    1    3    3  502    0 -0.45003801380E+03  0.12237827579E+03  0.10423185588E+04  0.11419020305E+04  0.12699999809E+01 0.  1.
       -4    1    3    3    0  502  0.45003801380E+03 -0.12237827579E+03 -0.83184247669E+03  0.95366355450E+03  0.12699999809E+01 0. -1.
</event>
<event>
 5   0  0.4174093E-05  0.2084610E+04  0.7818609E-02  0.8568053E-01
        1   -1    0    0  501    0  0.00000000000E+00  0.00000000000E+00  0.11959811369E+04  0.11959811369E+04  0.50400001928E-02 0. -1.
       -1   -1    0    0    0  501  0.00000000000E+00  0.00000000000E+00 -0.90837556544E+03  0.90837556545E+03  0.50400001928E-02 0.  1.
    10030    2    1    2    0    0  0.00000000000E+00  0.00000000000E+00  0.28760557147E+03  0.21043567024E+04  0.20846103152E+04 0.  0.
        3    1    3    3  502    0  0.51798826325E+03 -0.56486040108E+03  0.85690839132E+03  0.11496395587E+04  0.10100000352E+00 0. -1.
       -3    1    3    3    0  502 -0.51798826325E+03  0.56486040108E+03 -0.56930281985E+03  0.95471714369E+03  0.10100000352E+00 0.  1.
</event>
<event>
 5   0  0.8547605E-05  0.2104997E+04  0.7818609E-02  0.8559046E-01
        2   -1    0    0  501    0  0.00000000000E+00  0.00000000000E+00  0.20316786356E+04  0.20316786357E+04  0.25500000920E-02 0.  1.
       -2   -1    0    0    0  501  0.00000000000E+00  0.00000000000E+00 -0.54524011444E+03  0.54524011444E+03  0.25500000920E-02 0. -1.
    10030    2    1    2    0    0  0.00000000000E+00  0.00000000000E+00  0.14864385212E+04  0.25769187501E+04  0.21049966193E+04 0.  0.
        4    1    3    3  502    0  0.66479030181E+03 -0.45068385380E+03 -0.89490986465E+02  0.80812890742E+03  0.12699999809E+01 0. -1.
       -4    1    3    3    0  502 -0.66479030181E+03  0.45068385380E+03  0.15759295077E+04  0.17687898427E+04  0.12699999809E+01 0.  1.
</event>
<event>
 5   0  0.4182977E-05  0.2085282E+04  0.7818609E-02  0.8567755E-01
       -1   -1    0    0    0  501  0.00000000000E+00  0.00000000000E+00  0.10817882398E+04  0.10817882398E+04  0.50400001928E-02 0. -1.
        1   -1    0    0  501    0  0.00000000000E+00  0.00000000000E+00 -0.10049101961E+04  0.10049101961E+04  0.50400001928E-02 0.  1.
    10030    2    1    2    0    0  0.00000000000E+00  0.00000000000E+00  0.76878043662E+02  0.20866984359E+04  0.20852817865E+04 0.  0.
        1    1    3    3  502    0 -0.11605105911E+03  0.70086937621E+03 -0.72524016731E+03  0.10152137859E+04  0.50400001928E-02 0.  1.
       -1    1    3    3    0  502  0.11605105911E+03 -0.70086937621E+03  0.80211821097E+03  0.10714846500E+04  0.50400001928E-02 0. -1.
</event>
<event>
 5   0  0.9086985E-05  0.2090612E+04  0.7818609E-02  0.8565390E-01
       -2   -1    0    0    0  501  0.00000000000E+00  0.00000000000E+00  0.12978567842E+04  0.12978567842E+04  0.25500000920E-02 0. -1.
        2   -1    0    0  501    0  0.00000000000E+00  0.00000000000E+00 -0.84189886091E+03  0.84189886092E+03  0.25500000920E-02 0.  1.
    10030    2    1    2    0    0  0.00000000000E+00  0.00000000000E+00  0.45595792328E+03  0.21397556451E+04  0.20906115356E+04 0.  0.
        5    1    3    3  502    0 -0.30413474457E+03 -0.10868265118E+03 -0.78953952911E+03  0.85305604713E+03  0.46999998093E+01 0.  1.
       -5    1    3    3    0  502  0.30413474457E+03  0.10868265118E+03  0.12454974524E+04  0.12866995980E+04  0.46999998093E+01 0. -1.
</event>
<event>
 5   0  0.9086985E-05  0.2066355E+04  0.7818609E-02  0.8576211E-01
        2   -1    0    0  501    0  0.00000000000E+00  0.00000000000E+00  0.14963177374E+04  0.14963177374E+04  0.25500000920E-02 0.  1.
       -2   -1    0    0    0  501  0.00000000000E+00  0.00000000000E+00 -0.71338853383E+03  0.71338853384E+03  0.25500000920E-02 0. -1.
    10030    2    1    2    0    0  0.00000000000E+00  0.00000000000E+00  0.78292920356E+03  0.22097062712E+04  0.20663551649E+04 0.  0.
        5    1    3    3  502    0  0.59137886167E+02 -0.43889253837E+03 -0.60673156257E+03  0.75117855989E+03  0.46999998093E+01 0. -1.
       -5    1    3    3    0  502 -0.59137886167E+02  0.43889253837E+03  0.13896607661E+04  0.14585277113E+04  0.46999998093E+01 0.  1.
</event>
<event>
 5   0  0.9086985E-05  0.2119596E+04  0.7818609E-02  0.8552660E-01
       -2   -1    0    0    0  501  0.00000000000E+00  0.00000000000E+00  0.96063793121E+03  0.96063793122E+03  0.25500000920E-02 0. -1.
        2   -1    0    0  501    0  0.00000000000E+00  0.00000000000E+00 -0.11691933690E+04  0.11691933690E+04  0.25500000920E-02 0.  1.
    10030    2    1    2    0    0  0.00000000000E+00  0.00000000000E+00 -0.20855543776E+03  0.21298313002E+04  0.21195957154E+04 0.  0.
        5    1    3    3  502    0  0.18525525204E+03 -0.91976206371E+03  0.39091814065E+03  0.10164255236E+04  0.46999998093E+01 0. -1.
       -5    1    3    3    0  502 -0.18525525204E+03  0.91976206371E+03 -0.59947357841E+03  0.11134057766E+04  0.46999998093E+01 0.  1.
</event>
<event>
 5   0  0.9012466E-05  0.2102023E+04  0.7818609E-02  0.8560353E-01
        2   -1    0    0  501    0  0.00000000000E+00  0.00000000000E+00  0.14125865597E+04  0.14125865597E+04  0.25500000920E-02 0.  1.
       -2   -1    0    0    0  501  0.00000000000E+00  0.00000000000E+00 -0.78198764522E+03  0.78198764522E+03  0.25500000920E-02 0. -1.
    10030    2    1    2    0    0  0.00000000000E+00  0.00000000000E+00  0.63059891447E+03  0.21945742049E+04  0.21020230612E+04 0.  0.
        2    1    3    3  502    0  0.76253774670E+03  0.69116626955E+03  0.92721243451E+02  0.10333304681E+04  0.25500000920E-02 0. -1.
       -2    1    3    3    0  502 -0.76253774670E+03 -0.69116626955E+03  0.53787767102E+03  0.11612437368E+04  0.25500000920E-02 0.  1.
</event>
<event>
 5   0  0.4200061E-05  0.2110831E+04  0.7818609E-02  0.8556487E-01
        1   -1    0    0  501    0  0.00000000000E+00  0.00000000000E+00  0.95012817957E+03  0.95012817958E+03  0.50400001928E-02 0. -1.
       -1   -1    0    0    0  501  0.00000000000E+00  0.00000000000E+00 -0.11723705393E+04  0.11723705393E+04  0.50400001928E-02 0.  1.
    10030    2    1    2    0    0  0.00000000000E+00  0.00000000000E+00 -0.22224235972E+03  0.21224987189E+04  0.21108313872E+04 0.  0.
        4    1    3    3  502    0  0.39720335712E+02  0.80825248042E+03  0.57015673925E+03  0.98991418688E+03  0.12699999809E+01 0. -1.
       -4    1    3    3    0  502 -0.39720335712E+02 -0.80825248042E+03 -0.79239909896E+03  0.11325845320E+04  0.12699999809E+01 0.  1.
</event>
<event>
 5   0  0.8858590E-05  0.2039628E+04  0.7818609E-02  0.8588314E-01
       -2   -1    0    0    0  501  0.00000000000E+00  0.00000000000E+00  0.95613157306E+03  0.95613157307E+03  0.25500000920E-02 0.  1.
        2   -1    0    0  501    0  0.00000000000E+00  0.00000000000E+00 -0.10877374945E+04  0.10877374945E+04  0.25500000920E-02 0. -1.
    10030    2    1    2    0    0  0.00000000000E+00  0.00000000000E+00 -0.13160592139E+03  0.20438690675E+04  0.20396275755E+04 0.  0.
        1    1    3    3  502    0 -0.46832305149E+02  0.10180804149E+04 -0.29132249121E+02  0.10195732853E+04  0.50400001928E-02 0. -1.
       -1    1    3    3    0  502  0.46832305149E+02 -0.10180804149E+04 -0.10247367227E+03  0.10242957823E+04  0.50400001928E-02 0.  1.
</event>
<event>
 5   0  0.9086985E-05  0.2077924E+04  0.7818609E-02  0.8571031E-01
       -2   -1    0    0    0  501  0.00000000000E+00  0.00000000000E+00  0.68780018418E+03  0.68780018419E+03  0.25500000920E-02 0. -1.
        2   -1    0    0  501    0  0.00000000000E+00  0.00000000000E+00 -0.15694122853E+04  0.15694122853E+04  0.25500000920E-02 0.  1.
    10030    2    1    2    0    0  0.00000000000E+00  0.00000000000E+00 -0.88161210108E+03  0.22572124695E+04  0.20779240206E+04 0.  0.
        5    1    3    3  502    0  0.25139950285E+03  0.18892644175E+03  0.63484678342E+03  0.70848249015E+03  0.46999998093E+01 0. -1.
       -5    1    3    3    0  502 -0.25139950285E+03 -0.18892644175E+03 -0.15164588845E+04  0.15487299793E+04  0.46999998093E+01 0.  1.
</event>
<event>
 5   0  0.8547605E-05  0.2089793E+04  0.7818609E-02  0.8565753E-01
        2   -1    0    0  501    0  0.00000000000E+00  0.00000000000E+00  0.19755629874E+04  0.19755629874E+04  0.25500000920E-02 0. -1.
       -2   -1    0    0    0  501  0.00000000000E+00  0.00000000000E+00 -0.55265696659E+03  0.55265696659E+03  0.25500000920E-02 0.  1.
    10030    2    1    2    0    0  0.00000000000E+00  0.00000000000E+00  0.14229060208E+04  0.25282199540E+04  0.20897929543E+04 0.  0.
        4    1    3    3  502    0 -0.13914210137E+03  0.87062573319E+03  0.33042661076E+02  0.88229423778E+03  0.12699999809E+01 0.  1.
       -4    1    3    3    0  502  0.13914210137E+03 -0.87062573319E+03  0.13898633597E+04  0.16459257162E+04  0.12699999809E+01 0. -1.
</event>
<event>
 5   0  0.8872777E-05  0.2107702E+04  0.7818609E-02  0.8557858E-01
       -2   -1    0    0    0  501  0.00000000000E+00  0.00000000000E+00  0.10410712909E+04  0.10410712910E+04  0.25500000920E-02 0.  1.
        2   -1    0    0  501    0  0.00000000000E+00  0.00000000000E+00 -0.10667875566E+04  0.10667875566E+04  0.25500000920E-02 0. -1.
    10030    2    1    2    0    0  0.00000000000E+00  0.00000000000E+00 -0.25716265606E+02  0.21078588475E+04  0.21077019701E+04 0.  0.
        3    1    3    3  502    0 -0.67309075832E+03  0.45426334106E+03  0.65890276549E+03  0.10457338172E+04  0.10100000352E+00 0.  1.
       -3    1    3    3    0  502  0.67309075832E+03 -0.45426334106E+03 -0.68461903110E+03  0.10621250303E+04  0.10100000352E+00 0. -1.
</event>
<event>
 5   0  0.9086985E-05  0.2085707E+04  0.7818609E-02  0.8567566E-01
       -2   -1    0    0    0  501  0.00000000000E+00  0.00000000000E+00  0.96896853163E+03  0.96896853163E+03  0.25500000920E-02 0. -1.
        2   -1    0    0  501    0  0.00000000000E+00  0.00000000000E+00 -0.11223718108E+04  0.11223718108E+04  0.25500000920E-02 0.  1.
    10030    2    1    2    0    0  0.00000000000E+00  0.00000000000E+00 -0.15340327918E+03  0.20913403424E+04  0.20857065618E+04 0.  0.
        5    1    3    3  502    0 -0.42497355740E+03  0.72985884296E+03 -0.69009288024E+03  0.10906634350E+04  0.46999998093E+01 0.  1.
       -5    1    3    3    0  502  0.42497355740E+03 -0.72985884296E+03  0.53668960107E+03  0.10006769074E+04  0.46999998093E+01 0. -1.
</event>
<event>
 5   0  0.4200061E-05  0.2053127E+04  0.7818609E-02  0.8582177E-01
       -1   -1    0    0    0  501  0.00000000000E+00  0.00000000000E+00  0.97976427320E+03  0.97976427321E+03  0.50400001928E-02 0.  1.
        1   -1    0    0  501    0  0.00000000000E+00  0.00000000000E+00 -0.10755980147E+04  0.10755980147E+04  0.50400001928E-02 0. -1.
    10030    2    1    2    0    0  0.00000000000E+00  0.00000000000E+00 -0.95833741514E+02  0.20553622879E+04  0.20531268905E+04 0.  0.
        4    1    3    3  502    0 -0.88602589696E+03 -0.49657338232E+03 -0.19708877370E+03  0.10346364636E+04  0.12699999809E+01 0. -1.
       -4    1    3    3    0  502  0.88602589696E+03  0.49657338232E+03  0.10125503219E+03  0.10207258244E+04  0.12699999809E+01 0.  1.
</event>
<event>
 5   0  0.4174093E-05  0.2106134E+04  0.7818609E-02  0.8558546E-01
        1   -1    0    0  501    0  0.00000000000E+00  0.00000000000E+00  0.11341633629E+04  0.11341633629E+04  0.50400001928E-02 0.  1.
       -1   -1    0    0    0  501  0.00000000000E+00  0.00000000000E+00 -0.97776932975E+03  0.97776932977E+03  0.50400001928E-02 0. -1.
    10030    2    1    2    0    0  0.00000000000E+00  0.00000000000E+00  0.15639403318E+03  0.21119326927E+04  0.21061340425E+04 0.  0.
        3    1    3    3  502    0  0.10201107959E+04  0.24482619661E+03  0.17001460404E+03  0.10627656742E+04  0.10100000352E+00 0. -1.
       -3    1    3    3    0  502 -0.10201107959E+04 -0.24482619661E+03 -0.13620570864E+02  0.10491670185E+04  0.10100000352E+00 0.  1.
</event>
<event>
 5   0  0.4128678E-05  0.2090975E+04  0.7818609E-02  0.8565229E-01
       -1   -1    0    0    0  501  0.00000000000E+00  0.00000000000E+00  0.65899893493E+03  0.65899893495E+03  0.50400001928E-02 0. -1.
        1   -1    0    0  501    0  0.00000000000E+00  0.00000000000E+00 -0.16586434507E+04  0.16586434507E+04  0.50400001928E-02 0.  1.
    10030    2    1    2    0    0  0.00000000000E+00  0.00000000000E+00 -0.99964451574E+03  0.23176423856E+04  0.20909751481E+04 0.  0.
        5    1    3    3  502    0 -0.43127648895E+03 -0.24684134175E+03 -0.15193672098E+04  0.15985708824E+04  0.46999998093E+01 0.  1.
       -5    1    3    3    0  502  0.43127648895E+03  0.24684134175E+03  0.51972269409E+03  0.71907150317E+03  0.46999998093E+01 0. -1.
</event>
<event>
 5   0  0.8858590E-05  0.2090775E+04  0.7818609E-02  0.8565318E-01
        2   -1    0    0  501    0  0.00000000000E+00  0.00000000000E+00  0.10282693913E+04  0.10282693913E+04  0.25500000920E-02 0.  1.
       -2   -1    0    0    0  501  0.00000000000E+00  0.00000000000E+00 -0.10627902496E+04  0.10627902496E+04  0.25500000920E-02 0. -1.
    10030    2    1    2    0    0  0.00000000000E+00  0.00000000000E+00 -0.34520858318E+02  0.20910596409E+04  0.20907746727E+04 0.  0.
        1    1    3    3  502    0  0.33911249004E+03 -0.93709938112E+03 -0.33302826604E+03  0.10507427644E+04  0.50400001928E-02 0.  1.
       -1    1    3    3    0  502 -0.33911249004E+03  0.93709938112E+03  0.29850740772E+03  0.10403168765E+04  0.50400001928E-02 0. -1.
</event>
<event>
 5   0  0.9086985E-05  0.2118371E+04  0.7818609E-02  0.8553194E-01
        2   -1    0    0  501    0  0.00000000000E+00  0.00000000000E+00  0.19505103402E+04  0.19505103402E+04  0.25500000920E-02 0.  1.
       -2   -1    0    0    0  501  0.00000000000E+00  0.00000000000E+00 -0.57516937175E+03  0.57516937175E+03  0.25500000920E-02 0. -1.
    10030    2    1    2    0    0  0.00000000000E+00  0.00000000000E+00  0.13753409684E+04  0.25256797119E+04  0.21183708901E+04 0.  0.
        5    1    3    3  502    0 -0.55419889374E+03 -0.85693588831E+03  0.10256885982E+04  0.14469052218E+04  0.46999998093E+01 0.  1.
       -5    1    3    3    0  502  0.55419889374E+03  0.85693588831E+03  0.34965237025E+03  0.10787744901E+04  0.46999998093E+01 0. -1.
</event>
<event>
 5   0  0.4128678E-05  0.2084979E+04  0.7818609E-02  0.8567889E-01
        1   -1    0    0  501    0  0.00000000000E+00  0.00000000000E+00  0.81673539724E+03  0.81673539726E+03  0.50400001928E-02 0.  1.
       -1   -1    0    0    0  501  0.00000000000E+00  0.00000000000E+00 -0.13306440927E+04  0.13306440927E+04  0.50400001928E-02 0. -1.
    10030    2    1    2    0    0  0.00000000000E+00  0.00000000000E+00 -0.51390869545E+03  0.21473794900E+04  0.20849787833E+04 0.  0.
        5    1    3    3  502    0 -0.41407130721E+03 -0.48098784959E+03  0.59481454831E+03  0.86984527118E+03  0.46999998093E+01 0.  1.
       -5    1    3    3    0  502  0.41407130721E+03  0.48098784959E+03 -0.11087232438E+04  0.12775342188E+04  0.46999998093E+01 0. -1.
</event>
<event>
 5   0  0.4182977E-05  0.2101286E+04  0.7818609E-02  0.8560677E-01
        1   -1    0    0  501    0  0.00000000000E+00  0.00000000000E+00  0.82589194142E+03  0.82589194144E+03  0.50400001928E-02 0. -1.
       -1   -1    0    0    0  501  0.00000000000E+00  0.00000000000E+00 -0.13365555266E+04  0.13365555266E+04  0.50400001928E-02 0.  1.
    10030    2    1    2    0    0  0.00000000000E+00  0.00000000000E+00 -0.51066358516E+03  0.21624474680E+04  0.21012857385E+04 0.  0.
        1    1    3    3  502    0 -0.35545471632E+03  0.45066596388E+03  0.65028370631E+03  0.86736195736E+03  0.50400001928E-02 0. -1.
       -1    1    3    3    0  502  0.35545471632E+03 -0.45066596388E+03 -0.11609472915E+04  0.12950855107E+04  0.50400001928E-02 0.  1.
</event>
<event>
 5   0  0.8547605E-05  0.2114327E+04  0.7818609E-02  0.8554959E-01
        2   -1    0    0  501    0  0.00000000000E+00  0.00000000000E+00  0.84426566122E+03  0.84426566122E+03  0.25500000920E-02 0.  1.
       -2   -1    0    0    0  501  0.00000000000E+00  0.00000000000E+00 -0.13237470125E+04  0.13237470125E+04  0.25500000920E-02 0. -1.
    10030    2    1    2    0    0  0.00000000000E+00  0.00000000000E+00 -0.47948135133E+03  0.21680126738E+04  0.21143265092E+04 0.  0.
        4    1    3    3  502    0 -0.32743500566E+03 -0.57199684615E+02  0.78928824135E+03  0.85642456042E+03  0.12699999809E+01 0.  1.
       -4    1    3    3    0  502  0.32743500566E+03  0.57199684615E+02 -0.12687695927E+04  0.13115881133E+04  0.12699999809E+01 0. -1.
</event>
<event>
 5   0  0.4182977E-05  0.2119403E+04  0.7818609E-02  0.8552744E-01
        1   -1    0    0  501    0  0.00000000000E+00  0.00000000000E+00  0.14129883144E+04  0.14129883144E+04  0.50400001928E-02 0.  1.
       -1   -1    0    0    0  501  0.00000000000E+00  0.00000000000E+00 -0.79474611100E+03  0.79474611101E+03  0.50400001928E-02 0. -1.
    10030    2    1    2    0    0  0.00000000000E+00  0.00000000000E+00  0.61824220344E+03  0.22077344255E+04  0.21194027157E+04 0.  0.
        1    1    3    3  502    0  0.31599253020E+03  0.66887927225E+03  0.10995040665E+04  0.13252018534E+04  0.50400001928E-02 0.  1.
       -1    1    3    3    0  502 -0.31599253020E+03 -0.66887927225E+03 -0.48126186302E+03  0.88253257209E+03  0.50400001928E-02 0. -1.
</event>
<event>
 5   0  0.8547605E-05  0.2096550E+04  0.7818609E-02  0.8562765E-01
        2   -1    0    0  501    0  0.00000000000E+00  0.00000000000E+00  0.10524698295E+04  0.10524698295E+04  0.25500000920E-02 0. -1.
       -2   -1    0    0    0  501  0.00000000000E+00  0.00000000000E+00 -0.10440972028E+04  0.10440972028E+04  0.25500000920E-02 0.  1.
    10030    2    1    2    0    0  0.00000000000E+00  0.00000000000E+00  0.83726267736E+01  0.20965670323E+04  0.20965503142E+04 0.  0.
        4    1    3    3  502    0 -0.39819631318E+03 -0.48866189530E+03 -0.83339331178E+03  0.10449386474E+04  0.12699999809E+01 0.  1.
       -4    1    3    3    0  502  0.39819631318E+03  0.48866189530E+03  0.84176593856E+03  0.10516283849E+04  0.12699999809E+01 0. -1.
</event>
<event>
 5   0  0.8858590E-05  0.2121015E+04  0.7818609E-02  0.8552042E-01
        2   -1    0    0  501    0  0.00000000000E+00  0.00000000000E+00  0.14471302507E+04  0.14471302507E+04  0.25500000920E-02 0.  1.
       -2   -1    0    0    0  501  0.00000000000E+00  0.00000000000E+00 -0.77717696363E+03  0.77717696363E+03  0.25500000920E-02 0. -1.
    10030    2    1    2    0    0  0.00000000000E+00  0.00000000000E+00  0.66995328704E+03  0.22243072143E+04  0.21210151288E+04 0.  0.
        1    1    3    3  502    0  0.96885605282E+03 -0.38396486931E+03  0.12903274804E+03  0.10501240508E+04  0.50400001928E-02 0. -1.
       -1    1    3    3    0  502 -0.96885605282E+03  0.38396486931E+03  0.54092053899E+03  0.11741831635E+04  0.50400001928E-02 0.  1.
</event>
<event>
 5   0  0.9086985E-05  0.2098794E+04  0.7818609E-02  0.8561775E-01
        2   -1    0    0  501    0  0.00000000000E+00  0.00000000000E+00  0.73637432114E+03  0.73637432114E+03  0.25500000920E-02 0. -1.
       -2   -1    0    0    0  501  0.00000000000E+00  0.00000000000E+00 -0.14954813413E+04  0.14954813413E+04  0.25500000920E-02 0.  1.
    10030    2    1    2    0    0  0.00000000000E+00  0.00000000000E+00 -0.75910702014E+03  0.22318556624E+04  0.20987939941E+04 0.  0.
        5    1    3    3  502    0 -0.19846926274E+03  0.40368646297E+03  0.62863586416E+03  0.77301872445E+03  0.46999998093E+01 0. -1.
       -5    1    3    3    0  502  0.19846926274E+03 -0.40368646297E+03 -0.13877428843E+04  0.14588369380E+04  0.46999998093E+01 0.  1.
</event>
<event>
 5   0  0.4182977E-05  0.2113279E+04  0.7818609E-02  0.8555416E-01
       -1   -1    0    0    0  501  0.00000000000E+00  0.00000000000E+00  0.10152211114E+04  0.10152211114E+04  0.50400001928E-02 0.  1.
        1   -1    0    0  501    0  0.00000000000E+00  0.00000000000E+00 -0.10997481074E+04  0.10997481074E+04  0.50400001928E-02 0. -1.
    10030    2    1    2    0    0  0.00000000000E+00  0.00000000000E+00 -0.84526995926E+02  0.21149692188E+04  0.21132794381E+04 0.  0.
        1    1    3    3  502    0  0.96522774704E+03  0.25844326620E+03  0.30156611045E+03  0.10437430932E+04  0.50400001928E-02 0. -1.
       -1    1    3    3    0  502 -0.96522774704E+03 -0.25844326620E+03 -0.38609310637E+03  0.10712261257E+04  0.50400001928E-02 0.  1.
</event>
<event>
 5   0  0.3176125E-05  0.2120813E+04  0.7818609E-02  0.8552130E-01
       -3   -1    0    0    0  501  0.00000000000E+00  0.00000000000E+00  0.13002252443E+04  0.13002252482E+04  0.10100000352E+00 0. -1.
        3   -1    0    0  501    0  0.00000000000E+00  0.00000000000E+00 -0.86482119232E+03  0.86482119822E+03  0.10100000352E+00 0.  1.
    10030    2    1    2    0    0  0.00000000000E+00  0.00000000000E+00  0.43540405194E+03  0.21650464464E+04  0.21208133880E+04 0.  0.
        2    1    3    3  502    0 -0.20744363630E+03 -0.10107815411E+04 -0.31834621312E+02  0.10323398807E+04  0.25500000920E-02 0. -1.
       -2    1    3    3    0  502  0.20744363630E+03  0.10107815411E+04  0.46723867325E+03  0.11327065657E+04  0.25500000920E-02 0.  1.
</event>
<event>
 5   0  0.8547605E-05  0.2087330E+04  0.7818609E-02  0.8566845E-01
       -2   -1    0    0    0  501  0.00000000000E+00  0.00000000000E+00  0.81815506185E+03  0.81815506186E+03  0.25500000920E-02 0.  1.
        2   -1    0    0  501    0  0.00000000000E+00  0.00000000000E+00 -0.13313331048E+04  0.13313331048E+04  0.25500000920E-02 0. -1.
    10030    2    1    2    0    0  0.00000000000E+00  0.00000000000E+00 -0.51317804295E+03  0.21494881667E+04  0.20873302745E+04 0.  0.
        4    1    3    3  502    0  0.77253781786E+03  0.47663383415E+03 -0.78694084009E+03  0.12013625558E+04  0.12699999809E+01 0. -1.
       -4    1    3    3    0  502 -0.77253781786E+03 -0.47663383415E+03  0.27376279715E+03  0.94812561081E+03  0.12699999809E+01 0.  1.
</event>
<event>
 5   0  0.4200061E-05  0.2173289E+04  0.7818609E-02  0.8529629E-01
       -1   -1    0    0    0  501  0.00000000000E+00  0.00000000000E+00  0.76727326313E+03  0.76727326315E+03  0.50400001928E-02 0.  1.
        1   -1    0    0  501    0  0.00000000000E+00  0.00000000000E+00 -0.15389516131E+04  0.15389516131E+04  0.50400001928E-02 0. -1.
    10030    2    1    2    0    0  0.00000000000E+00  0.00000000000E+00 -0.77167835000E+03  0.23062248763E+04  0.21732891442E+04 0.  0.
        4    1    3    3  502    0 -0.76783408871E+03  0.37725581387E+03 -0.10968246407E+04  0.13910129554E+04  0.12699999809E+01 0. -1.
       -4    1    3    3    0  502  0.76783408871E+03 -0.37725581387E+03  0.32514629066E+03  0.91521192087E+03  0.12699999809E+01 0.  1.
</event>
<event>
 5   0  0.8547605E-05  0.2100255E+04  0.7818609E-02  0.8561131E-01
       -2   -1    0    0    0  501  0.00000000000E+00  0.00000000000E+00  0.91753731555E+03  0.91753731555E+03  0.25500000920E-02 0.  1.
        2   -1    0    0  501    0  0.00000000000E+00  0.00000000000E+00 -0.12018781804E+04  0.12018781804E+04  0.25500000920E-02 0. -1.
    10030    2    1    2    0    0  0.00000000000E+00  0.00000000000E+00 -0.28434086488E+03  0.21194154960E+04  0.21002552981E+04 0.  0.
        4    1    3    3  502    0 -0.89803815510E+03  0.53500546411E+03 -0.40940316864E+02  0.10461267118E+04  0.12699999809E+01 0.  1.
       -4    1    3    3    0  502  0.89803815510E+03 -0.53500546411E+03 -0.24340054801E+03  0.10732887842E+04  0.12699999809E+01 0. -1.
</event>
<event>
 5   0  0.4050368E-05  0.2101353E+04  0.7818609E-02  0.8560647E-01
       -1   -1    0    0    0  501  0.00000000000E+00  0.00000000000E+00  0.14160056176E+04  0.14160056176E+04  0.50400001928E-02 0. -1.
        1   -1    0    0  501    0  0.00000000000E+00  0.00000000000E+00 -0.77960241114E+03  0.77960241116E+03  0.50400001928E-02 0.  1.
    10030    2    1    2    0    0  0.00000000000E+00  0.00000000000E+00  0.63640320649E+03  0.21956080288E+04  0.21013532723E+04 0.  0.
        2    1    3    3  502    0 -0.70648299161E+03 -0.75925538400E+03  0.49408022038E+03  0.11487829298E+04  0.25500000920E-02 0. -1.
       -2    1    3    3    0  502  0.70648299161E+03  0.75925538400E+03  0.14232298612E+03  0.10468250990E+04  0.25500000920E-02 0.  1.
</event>
<event>
 5   0  0.8858590E-05  0.2191326E+04  0.7818609E-02  0.8522047E-01
       -2   -1    0    0    0  501  0.00000000000E+00  0.00000000000E+00  0.83910979836E+03  0.83910979836E+03  0.25500000920E-02 0.  1.
        2   -1    0    0  501    0  0.00000000000E+00  0.00000000000E+00 -0.14306556777E+04  0.14306556777E+04  0.25500000920E-02 0. -1.
    10030    2    1    2    0    0  0.00000000000E+00  0.00000000000E+00 -0.59154587939E+03  0.22697654761E+04  0.21913258062E+04 0.  0.
        1    1    3    3  502    0 -0.24466977007E+03 -0.34704969859E+03  0.75041664844E+03  0.86222499150E+03  0.50400001928E-02 0.  1.
       -1    1    3    3    0  502  0.24466977007E+03  0.34704969859E+03 -0.13419625278E+04  0.14075404846E+04  0.50400001928E-02 0. -1.
</event>
<event>
 5   0  0.4174093E-05  0.1817502E+04  0.7818609E-02  0.8697047E-01
       -1   -1    0    0    0  501  0.00000000000E+00  0.00000000000E+00  0.42538414874E+03  0.42538414877E+03  0.50400001928E-02 0.  1.
        1   -1    0    0  501    0  0.00000000000E+00  0.00000000000E+00 -0.19413699624E+04  0.19413699624E+04  0.50400001928E-02 0. -1.
    10030    2    1    2    0    0  0.00000000000E+00  0.00000000000E+00 -0.15159858137E+04  0.23667541112E+04  0.18175015917E+04 0.  0.
        3    1    3    3  502    0 -0.55727050641E+03  0.32289153127E+03  0.76858338821E+02  0.64862668210E+03  0.10100000352E+00 0.  1.
       -3    1    3    3    0  502  0.55727050641E+03 -0.32289153127E+03 -0.15928441525E+04  0.17181274291E+04  0.10100000352E+00 0. -1.
</event>
<event>
 5   0  0.4182977E-05  0.2114073E+04  0.7818609E-02  0.8555069E-01
       -1   -1    0    0    0  501  0.00000000000E+00  0.00000000000E+00  0.89961501251E+03  0.89961501252E+03  0.50400001928E-02 0.  1.
        1   -1    0    0  501    0  0.00000000000E+00  0.00000000000E+00 -0.12420045805E+04  0.12420045806E+04  0.50400001928E-02 0. -1.
    10030    2    1    2    0    0  0.00000000000E+00  0.00000000000E+00 -0.34238956804E+03  0.21416195931E+04  0.21140728145E+04 0.  0.
        1    1    3    3  502    0  0.40176612280E+02 -0.50788230167E+03  0.76703054119E+03  0.92081183945E+03  0.50400001928E-02 0.  1.
       -1    1    3    3    0  502 -0.40176612280E+02  0.50788230167E+03 -0.11094201092E+04  0.12208077536E+04  0.50400001928E-02 0. -1.
</event>
<event>
 5   0  0.4174093E-05  0.2101952E+04  0.7818609E-02  0.8560384E-01
       -1   -1    0    0    0  501  0.00000000000E+00  0.00000000000E+00  0.82726856538E+03  0.82726856539E+03  0.50400001928E-02 0. -1.
        1   -1    0    0  501    0  0.00000000000E+00  0.00000000000E+00 -0.13351771566E+04  0.13351771566E+04  0.50400001928E-02 0.  1.
    10030    2    1    2    0    0  0.00000000000E+00  0.00000000000E+00 -0.50790859122E+03  0.21624457220E+04  0.21019515607E+04 0.  0.
        3    1    3    3  502    0 -0.31324559077E+02 -0.70766952232E+03 -0.10526830126E+04  0.12688258021E+04  0.10100000352E+00 0.  1.
       -3    1    3    3    0  502  0.31324559077E+02  0.70766952232E+03  0.54477442140E+03  0.89361991990E+03  0.10100000352E+00 0. -1.
</event>
<event>
 5   0  0.8872777E-05  0.2261366E+04  0.7818609E-02  0.8493311E-01
        2   -1    0    0  501    0  0.00000000000E+00  0.00000000000E+00  0.12334143722E+04  0.12334143722E+04  0.25500000920E-02 0. -1.
       -2   -1    0    0    0  501  0.00000000000E+00  0.00000000000E+00 -0.10365084473E+04  0.10365084473E+04  0.25500000920E-02 0.  1.
    10030    2    1    2    0    0  0.00000000000E+00  0.00000000000E+00  0.19690592492E+03  0.22699228194E+04  0.22613663266E+04 0.  0.
        3    1    3    3  502    0  0.93135645969E+03  0.20777304104E+03 -0.51034823685E+03  0.10821505554E+04  0.10100000352E+00 0.  1.
       -3    1    3    3    0  502 -0.93135645969E+03 -0.20777304104E+03  0.70725416177E+03  0.11877722640E+04  0.10100000352E+00 0. -1.
</event>
<event>
 5   0  0.9012466E-05  0.2095130E+04  0.7818609E-02  0.8563392E-01
       -2   -1    0    0    0  501  0.00000000000E+00  0.00000000000E+00  0.85051396567E+03  0.85051396568E+03  0.25500000920E-02 0.  1.
        2   -1    0    0  501    0  0.00000000000E+00  0.00000000000E+00 -0.12902693897E+04  0.12902693897E+04  0.25500000920E-02 0. -1.
    10030    2    1    2    0    0  0.00000000000E+00  0.00000000000E+00 -0.43975542405E+03  0.21407833554E+04  0.20951297196E+04 0.  0.
        2    1    3    3  502    0 -0.48189563149E+03 -0.65195458345E+03 -0.89775222663E+03  0.12096393012E+04  0.25500000920E-02 0. -1.
       -2    1    3    3    0  502  0.48189563149E+03  0.65195458345E+03  0.45799680258E+03  0.93114405422E+03  0.25500000920E-02 0.  1.
</event>
<event>
 5   0  0.4200061E-05  0.2125900E+04  0.7818609E-02  0.8549919E-01
       -1   -1    0    0    0  501  0.00000000000E+00  0.00000000000E+00  0.12432983523E+04  0.12432983523E+04  0.50400001928E-02 0.  1.
        1   -1    0    0  501    0  0.00000000000E+00  0.00000000000E+00 -0.90876212216E+03  0.90876212218E+03  0.50400001928E-02 0. -1.
    10030    2    1    2    0    0  0.00000000000E+00  0.00000000000E+00  0.33453623014E+03  0.21520604745E+04  0.21258997617E+04 0.  0.
        4    1    3    3  502    0 -0.70808921831E+02  0.96765547324E+03 -0.27222860207E+03  0.10077107933E+04  0.12699999809E+01 0. -1.
       -4    1    3    3    0  502  0.70808921831E+02 -0.96765547324E+03  0.60676483221E+03  0.11443496812E+04  0.12699999809E+01 0.  1.
</event>
<event>
 5   0  0.8547605E-05  0.2015310E+04  0.7818609E-02  0.8599496E-01
       -2   -1    0    0    0  501  0.00000000000E+00  0.00000000000E+00  0.48801284228E+03  0.48801284229E+03  0.25500000920E-02 0.  1.
        2   -1    0    0  501    0  0.00000000000E+00  0.00000000000E+00 -0.20806184430E+04  0.20806184430E+04  0.25500000920E-02 0. -1.
    10030    2    1    2    0    0  0.00000000000E+00  0.00000000000E+00 -0.15926056008E+04  0.25686312853E+04  0.20153099217E+04 0.  0.
        4    1    3    3  502    0 -0.14768463688E+03  0.21669598004E+03  0.44375790871E+03  0.51545183498E+03  0.12699999809E+01 0.  1.
       -4    1    3    3    0  502  0.14768463688E+03 -0.21669598004E+03 -0.20363635095E+04  0.20531794503E+04  0.12699999809E+01 0. -1.
</event>
<event>
 5   0  0.9086985E-05  0.2100824E+04  0.7818609E-02  0.8560880E-01
       -2   -1    0    0    0  501  0.00000000000E+00  0.00000000000E+00  0.59063272839E+03  0.59063272840E+03  0.25500000920E-02 0. -1.
        2   -1    0    0  501    0  0.00000000000E+00  0.00000000000E+00 -0.18681078361E+04  0.18681078361E+04  0.25500000920E-02 0.  1.
    10030    2    1    2    0    0  0.00000000000E+00  0.00000000000E+00 -0.12774751078E+04  0.24587405645E+04  0.21008242461E+04 0.  0.
        5    1    3    3  502    0  0.33094002239E+03 -0.13635410716E+02 -0.18053771518E+04  0.18355151792E+04  0.46999998093E+01 0.  1.
       -5    1    3    3    0  502 -0.33094002239E+03  0.13635410716E+02  0.52790204404E+03  0.62322538535E+03  0.46999998093E+01 0. -1.
</event>
<event>
 5   0  0.4200061E-05  0.1918252E+04  0.7818609E-02  0.8645824E-01
       -1   -1    0    0    0  501  0.00000000000E+00  0.00000000000E+00  0.62616745537E+03  0.62616745539E+03  0.50400001928E-02 0.  1.
        1   -1    0    0  501    0  0.00000000000E+00  0.00000000000E+00 -0.14691318925E+04  0.14691318926E+04  0.50400001928E-02 0. -1.
    10030    2    1    2    0    0  0.00000000000E+00  0.00000000000E+00 -0.84296443717E+03  0.20952993479E+04  0.19182518904E+04 0.  0.
        4    1    3    3  502    0  0.95811782808E+03 -0.21418268283E+02 -0.46339639116E+03  0.10645122559E+04  0.12699999809E+01 0.  1.
       -4    1    3    3    0  502 -0.95811782808E+03  0.21418268283E+02 -0.37956804601E+03  0.10307870921E+04  0.12699999809E+01 0. -1.
</event>
<event>
 5   0  0.8858590E-05  0.1987364E+04  0.7818609E-02  0.8612551E-01
        2   -1    0    0  501    0  0.00000000000E+00  0.00000000000E+00  0.97321104111E+03  0.97321104111E+03  0.25500000920E-02 0. -1.
       -2   -1    0    0    0  501  0.00000000000E+00  0.00000000000E+00 -0.10145840469E+04  0.10145840469E+04  0.25500000920E-02 0.  1.
    10030    2    1    2    0    0  0.00000000000E+00  0.00000000000E+00 -0.41373005807E+02  0.19877950880E+04  0.19873644825E+04 0.  0.
        1    1    3    3  502    0 -0.63443858472E+03  0.26139017472E+03 -0.73956836422E+03  0.10088600035E+04  0.50400001928E-02 0.  1.
       -1    1    3    3    0  502  0.63443858472E+03 -0.26139017472E+03  0.69819535842E+03  0.97893508455E+03  0.50400001928E-02 0. -1.
</event>
<event>
 5   0  0.4182977E-05  0.2088571E+04  0.7818609E-02  0.8566295E-01
       -1   -1    0    0    0  501  0.00000000000E+00  0.00000000000E+00  0.47351021224E+03  0.47351021226E+03  0.50400001928E-02 0. -1.
        1   -1    0    0  501    0  0.00000000000E+00  0.00000000000E+00 -0.23030811880E+04  0.23030811880E+04  0.50400001928E-02 0.  1.
    10030    2    1    2    0    0  0.00000000000E+00  0.00000000000E+00 -0.18295709757E+04  0.27765914002E+04  0.20885712458E+04 0.  0.
        1    1    3    3  502    0 -0.80413983661E+03  0.46507884512E+03 -0.28056192742E+03  0.97038868715E+03  0.50400001928E-02 0. -1.
       -1    1    3    3    0  502  0.80413983661E+03 -0.46507884512E+03 -0.15490090483E+04  0.18062027131E+04  0.50400001928E-02 0.  1.
</event>
<event>
 5   0  0.8858590E-05  0.2116017E+04  0.7818609E-02  0.8554220E-01
        2   -1    0    0  501    0  0.00000000000E+00  0.00000000000E+00  0.25291186215E+04  0.25291186215E+04  0.25500000920E-02 0. -1.
       -2   -1    0    0    0  501  0.00000000000E+00  0.00000000000E+00 -0.44259771070E+03  0.44259771071E+03  0.25500000920E-02 0.  1.
    10030    2    1    2    0    0  0.00000000000E+00  0.00000000000E+00  0.20865209108E+04  0.29717163322E+04  0.21160171190E+04 0.  0.
        1    1    3    3  502    0  0.28054680278E+03 -0.97008982824E+03  0.60003903633E+03  0.11746606440E+04  0.50400001928E-02 0.  1.
       -1    1    3    3    0  502 -0.28054680278E+03  0.97008982824E+03  0.14864818745E+04  0.17970556882E+04  0.50400001928E-02 0. -1.
</event>
<event>
 5   0  0.4200061E-05  0.2096241E+04  0.7818609E-02  0.8562901E-01
       -1   -1    0    0    0  501  0.00000000000E+00  0.00000000000E+00  0.57517812110E+03  0.57517812112E+03  0.50400001928E-02 0.  1.
        1   -1    0    0  501    0  0.00000000000E+00  0.00000000000E+00 -0.19099422366E+04  0.19099422366E+04  0.50400001928E-02 0. -1.
    10030    2    1    2    0    0  0.00000000000E+00  0.00000000000E+00 -0.13347641155E+04  0.24851203578E+04  0.20962413860E+04 0.  0.
        4    1    3    3  502    0 -0.10092056233E+04 -0.28265884267E+03 -0.68253450192E+03  0.12506985930E+04  0.12699999809E+01 0. -1.
       -4    1    3    3    0  502  0.10092056233E+04  0.28265884267E+03 -0.65222961362E+03  0.12344217647E+04  0.12699999809E+01 0.  1.
</event>
<event>
 5   0  0.9012466E-05  0.2074547E+04  0.7818609E-02  0.8572539E-01
        2   -1    0    0  501    0  0.00000000000E+00  0.00000000000E+00  0.81890842921E+03  0.81890842922E+03  0.25500000920E-02 0. -1.
       -2   -1    0    0    0  501  0.00000000000E+00  0.00000000000E+00 -0.13138670520E+04  0.13138670520E+04  0.25500000920E-02 0.  1.
    10030    2    1    2    0    0  0.00000000000E+00  0.00000000000E+00 -0.49495862281E+03  0.21327754812E+04  0.20745474724E+04 0.  0.
        2    1    3    3  502    0  0.59359609748E+03  0.42689707007E+03 -0.10038881031E+04  0.12419294501E+04  0.25500000920E-02 0.  1.
       -2    1    3    3    0  502 -0.59359609748E+03 -0.42689707007E+03  0.50892948028E+03  0.89084603119E+03  0.25500000920E-02 0. -1.
</event>
<event>
 5   0  0.9012466E-05  0.2093934E+04  0.7818609E-02  0.8563920E-01
       -2   -1    0    0    0  501  0.00000000000E+00  0.00000000000E+00  0.61789240301E+03  0.61789240302E+03  0.25500000920E-02 0.  1.
        2   -1    0    0  501    0  0.00000000000E+00  0.00000000000E+00 -0.17739984712E+04  0.17739984712E+04  0.25500000920E-02 0. -1.
    10030    2    1    2    0    0  0.00000000000E+00  0.00000000000E+00 -0.11561060682E+04  0.23918908743E+04  0.20939342667E+04 0.  0.
        2    1    3    3  502    0 -0.10041186368E+04  0.28181099854E+03 -0.68317213357E+03  0.12467541216E+04  0.25500000920E-02 0. -1.
       -2    1    3    3    0  502  0.10041186368E+04 -0.28181099854E+03 -0.47293393467E+03  0.11451367526E+04  0.25500000920E-02 0.  1.
</event>
<event>
 5   0  0.4200061E-05  0.2105941E+04  0.7818609E-02  0.8558631E-01
        1   -1    0    0  501    0  0.00000000000E+00  0.00000000000E+00  0.11658599683E+04  0.11658599684E+04  0.50400001928E-02 0. -1.
       -1   -1    0    0    0  501  0.00000000000E+00  0.00000000000E+00 -0.95101181221E+03  0.95101181222E+03  0.50400001928E-02 0.  1.
    10030    2    1    2    0    0  0.00000000000E+00  0.00000000000E+00  0.21484815614E+03  0.21168717806E+04  0.21059407411E+04 0.  0.
        4    1    3    3  502    0  0.20450966925E+03 -0.32437855440E+03  0.10931769825E+04  0.11584831373E+04  0.12699999809E+01 0. -1.
       -4    1    3    3    0  502 -0.20450966925E+03  0.32437855440E+03 -0.87832882640E+03  0.95838864327E+03  0.12699999809E+01 0.  1.
</event>
<event>
 5   0  0.4128678E-05  0.2097199E+04  0.7818609E-02  0.8562478E-01
        1   -1    0    0  501    0  0.00000000000E+00  0.00000000000E+00  0.97352982612E+03  0.97352982613E+03  0.50400001928E-02 0. -1.
       -1   -1    0    0    0  501  0.00000000000E+00  0.00000000000E+00 -0.11294577249E+04  0.11294577249E+04  0.50400001928E-02 0.  1.
    10030    2    1    2    0    0  0.00000000000E+00  0.00000000000E+00 -0.15592789874E+03  0.21029875510E+04  0.20971988771E+04 0.  0.
        5    1    3    3  502    0 -0.22055888495E+03  0.35805539428E+03 -0.10411822183E+04  0.11229124582E+04  0.46999998093E+01 0.  1.
       -5    1    3    3    0  502  0.22055888495E+03 -0.35805539428E+03  0.88525431959E+03  0.98007509276E+03  0.46999998093E+01 0. -1.
</event>
<event>
 5   0  0.4050368E-05  0.2126223E+04  0.7818609E-02  0.8549779E-01
        1   -1    0    0  501    0  0.00000000000E+00  0.00000000000E+00  0.12567460645E+04  0.12567460645E+04  0.50400001928E-02 0. -1.
       -1   -1    0    0    0  501  0.00000000000E+00  0.00000000000E+00 -0.89931161769E+03  0.89931161771E+03  0.50400001928E-02 0.  1.
    10030    2    1    2    0    0  0.00000000000E+00  0.00000000000E+00  0.35743444683E+03  0.21560576822E+04  0.21262232586E+04 0.  0.
        2    1    3    3  502    0 -0.26254792722E+02  0.59780257667E+03  0.10697672680E+04  0.12257484418E+04  0.25500000920E-02 0. -1.
       -2    1    3    3    0  502  0.26254792722E+02 -0.59780257667E+03 -0.71233282116E+03  0.93030924048E+03  0.25500000920E-02 0.  1.
</event>
<event>
 5   0  0.8872777E-05  0.2081584E+04  0.7818609E-02  0.8569400E-01
        2   -1    0    0  501    0  0.00000000000E+00  0.00000000000E+00  0.11038309363E+04  0.11038309363E+04  0.25500000920E-02 0. -1.
       -2   -1    0    0    0  501  0.00000000000E+00  0.00000000000E+00 -0.98135270592E+03  0.98135270592E+03  0.25500000920E-02 0.  1.
    10030    2    1    2    0    0  0.00000000000E+00  0.00000000000E+00  0.12247823035E+03  0.20851836422E+04  0.20815835090E+04 0.  0.
        3    1    3    3  502    0  0.10024814920E+04  0.11826133675E+03 -0.19275923693E+03  0.10276726226E+04  0.10100000352E+00 0.  1.
       -3    1    3    3    0  502 -0.10024814920E+04 -0.11826133675E+03  0.31523746729E+03  0.10575110196E+04  0.10100000352E+00 0. -1.
</event>
<event>
 5   0  0.4050368E-05  0.2101382E+04  0.7818609E-02  0.8560635E-01
       -1   -1    0    0    0  501  0.00000000000E+00  0.00000000000E+00  0.73304036482E+03  0.73304036483E+03  0.50400001928E-02 0. -1.
        1   -1    0    0  501    0  0.00000000000E+00  0.00000000000E+00 -0.15059907090E+04  0.15059907090E+04  0.50400001928E-02 0.  1.
    10030    2    1    2    0    0  0.00000000000E+00  0.00000000000E+00 -0.77295034418E+03  0.22390310738E+04  0.21013823819E+04 0.  0.
        2    1    3    3  502    0 -0.41086449768E+03  0.60074361015E+03  0.42095566373E+03  0.84077713541E+03  0.25500000920E-02 0. -1.
       -2    1    3    3    0  502  0.41086449768E+03 -0.60074361015E+03 -0.11939060079E+04  0.13982539384E+04  0.25500000920E-02 0.  1.
</event>
<event>
 5   0  0.4182977E-05  0.2106482E+04  0.7818609E-02  0.8558393E-01
        1   -1    0    0  501    0  0.00000000000E+00  0.00000000000E+00  0.75727881063E+03  0.75727881065E+03  0.50400001928E-02 0.  1.
       -1   -1    0    0    0  501  0.00000000000E+00  0.00000000000E+00 -0.14648726550E+04  0.14648726550E+04  0.50400001928E-02 0. -1.
    10030    2    1    2    0    0  0.00000000000E+00  0.00000000000E+00 -0.70759384440E+03  0.22221514657E+04  0.21064823968E+04 0.  0.
        1    1    3    3  502    0 -0.71182366842E+03 -0.27903731011E+02  0.46458932254E+03  0.85047915423E+03  0.50400001928E-02 0.  1.
       -1    1    3    3    0  502  0.71182366842E+03  0.27903731011E+02 -0.11721831669E+04  0.13716723115E+04  0.50400001928E-02 0. -1.
</event>
<event>
 5   0  0.8858590E-05  0.2136472E+04  0.7818609E-02  0.8545345E-01
        2   -1    0    0  501    0  0.00000000000E+00  0.00000000000E+00  0.15809838250E+04  0.15809838250E+04  0.25500000920E-02 0. -1.
       -2   -1    0    0    0  501  0.00000000000E+00  0.00000000000E+00 -0.72178333519E+03  0.72178333520E+03  0.25500000920E-02 0.  1.
    10030    2    1    2    0    0  0.00000000000E+00  0.00000000000E+00  0.85920048976E+03  0.23027671602E+04  0.21364716502E+04 0.  0.
        1    1    3    3  502    0 -0.43095073585E+03  0.72271396387E+03 -0.27972245771E+03  0.88672355539E+03  0.50400001928E-02 0.  1.
       -1    1    3    3    0  502  0.43095073585E+03 -0.72271396387E+03  0.11389229475E+04  0.14160436048E+04  0.50400001928E-02 0. -1.
</event>
<event>
 5   0  0.4128678E-05  0.2074106E+04  0.7818609E-02  0.8572736E-01
       -1   -1    0    0    0  501  0.00000000000E+00  0.00000000000E+00  0.71764979137E+03  0.71764979139E+03  0.50400001928E-02 0. -1.
        1   -1    0    0  501    0  0.00000000000E+00  0.00000000000E+00 -0.14986128487E+04  0.14986128487E+04  0.50400001928E-02 0.  1.
    10030    2    1    2    0    0  0.00000000000E+00  0.00000000000E+00 -0.78096305736E+03  0.22162626401E+04  0.20741062637E+04 0.  0.
        5    1    3    3  502    0 -0.59065646004E+03 -0.28643051068E+03  0.46737573097E+03  0.80584096144E+03  0.46999998093E+01 0. -1.
       -5    1    3    3    0  502  0.59065646004E+03  0.28643051068E+03 -0.12483387883E+04  0.14104216787E+04  0.46999998093E+01 0.  1.
</event>
<event>
 5   0  0.4128678E-05  0.2096130E+04  0.7818609E-02  0.8562950E-01
        1   -1    0    0  501    0  0.00000000000E+00  0.00000000000E+00  0.11442949759E+04  0.11442949759E+04  0.50400001928E-02 0. -1.
       -1   -1    0    0    0  501  0.00000000000E+00  0.00000000000E+00 -0.95992744749E+03  0.95992744750E+03  0.50400001928E-02 0.  1.
    10030    2    1    2    0    0  0.00000000000E+00  0.00000000000E+00  0.18436752843E+03  0.21042224234E+04  0.20961299153E+04 0.  0.
        5    1    3    3  502    0  0.40002200966E+03  0.58285031177E+03  0.86891896798E+03  0.11201671112E+04  0.46999998093E+01 0. -1.
       -5    1    3    3    0  502 -0.40002200966E+03 -0.58285031177E+03 -0.68455143954E+03  0.98405531222E+03  0.46999998093E+01 0.  1.
</event>
<event>
 5   0  0.9012466E-05  0.2112341E+04  0.7818609E-02  0.8555827E-01
       -2   -1    0    0    0  501  0.00000000000E+00  0.00000000000E+00  0.79433368776E+03  0.79433368777E+03  0.25500000920E-02 0.  1.
        2   -1    0    0  501    0  0.00000000000E+00  0.00000000000E+00 -0.14043166142E+04  0.14043166142E+04  0.25500000920E-02 0. -1.
    10030    2    1    2    0    0  0.00000000000E+00  0.00000000000E+00 -0.60998292643E+03  0.21986503020E+04  0.21123408768E+04 0.  0.
        2    1    3    3  502    0 -0.97524962255E+03  0.32655426387E+03 -0.54867719708E+02  0.10299320270E+04  0.25500000920E-02 0.  1.
       -2    1    3    3    0  502  0.97524962255E+03 -0.32655426387E+03 -0.55511520672E+03  0.11687182750E+04  0.25500000920E-02 0. -1.
</event>
<event>
 5   0  0.9012466E-05  0.2088429E+04  0.7818609E-02  0.8566358E-01
        2   -1    0    0  501    0  0.00000000000E+00  0.00000000000E+00  0.17308214589E+04  0.17308214589E+04  0.25500000920E-02 0. -1.
       -2   -1    0    0    0  501  0.00000000000E+00  0.00000000000E+00 -0.62998037541E+03  0.62998037541E+03  0.25500000920E-02 0.  1.
    10030    2    1    2    0    0  0.00000000000E+00  0.00000000000E+00  0.11008410835E+04  0.23608018343E+04  0.20884286461E+04 0.  0.
        2    1    3    3  502    0  0.63000024703E+03  0.26619604094E+03 -0.34155396152E+03  0.76447351302E+03  0.25500000920E-02 0.  1.
       -2    1    3    3    0  502 -0.63000024703E+03 -0.26619604094E+03  0.14423950450E+04  0.15963283213E+04  0.25500000920E-02 0. -1.
</event>
<event>
 5   0  0.4174093E-05  0.2151370E+04  0.7818609E-02  0.8538946E-01
       -1   -1    0    0    0  501  0.00000000000E+00  0.00000000000E+00  0.98395239628E+03  0.98395239630E+03  0.50400001928E-02 0. -1.
        1   -1    0    0  501    0  0.00000000000E+00  0.00000000000E+00 -0.11759696164E+04  0.11759696164E+04  0.50400001928E-02 0.  1.
    10030    2    1    2    0    0  0.00000000000E+00  0.00000000000E+00 -0.19201722013E+03  0.21599220127E+04  0.21513699097E+04 0.  0.
        3    1    3    3  502    0 -0.91124466951E+03  0.18130166702E+03 -0.64025296638E+03  0.11283443682E+04  0.10100000352E+00 0.  1.
       -3    1    3    3    0  502  0.91124466951E+03 -0.18130166702E+03  0.44823574626E+03  0.10315776445E+04  0.10100000352E+00 0. -1.
</event>
<event>
 5   0  0.9086985E-05  0.1988790E+04  0.7818609E-02  0.8611880E-01
        2   -1    0    0  501    0  0.00000000000E+00  0.00000000000E+00  0.51339223607E+03  0.51339223608E+03  0.25500000920E-02 0. -1.
       -2   -1    0    0    0  501  0.00000000000E+00  0.00000000000E+00 -0.19260551853E+04  0.19260551853E+04  0.25500000920E-02 0.  1.
    10030    2    1    2    0    0  0.00000000000E+00  0.00000000000E+00 -0.14126629493E+04  0.24394474214E+04  0.19887903644E+04 0.  0.
        5    1    3    3  502    0  0.75938176812E+03  0.21677675548E+03 -0.14475328870E+04  0.16489470520E+04  0.46999998093E+01 0.  1.
       -5    1    3    3    0  502 -0.75938176812E+03 -0.21677675548E+03  0.34869937716E+02  0.79050036940E+03  0.46999998093E+01 0. -1.
</event>
<event>
 5   0  0.4200061E-05  0.2064704E+04  0.7818609E-02  0.8576953E-01
        1   -1    0    0  501    0  0.00000000000E+00  0.00000000000E+00  0.16836947263E+04  0.16836947263E+04  0.50400001928E-02 0. -1.
       -1   -1    0    0    0  501  0.00000000000E+00  0.00000000000E+00 -0.63298313225E+03  0.63298313227E+03  0.50400001928E-02 0.  1.
    10030    2    1    2    0    0  0.00000000000E+00  0.00000000000E+00  0.10507115940E+04  0.23166778586E+04  0.20647037188E+04 0.  0.
        4    1    3    3  502    0 -0.55257508509E+03 -0.43532677842E+03 -0.32243358909E+03  0.77383051177E+03  0.12699999809E+01 0.  1.
       -4    1    3    3    0  502  0.55257508509E+03  0.43532677842E+03  0.13731451831E+04  0.15428473468E+04  0.12699999809E+01 0. -1.
</event>
<event>
 5   0  0.9012466E-05  0.2115446E+04  0.7818609E-02  0.8554470E-01
        2   -1    0    0  501    0  0.00000000000E+00  0.00000000000E+00  0.22562425505E+04  0.22562425505E+04  0.25500000920E-02 0. -1.
       -2   -1    0    0    0  501  0.00000000000E+00  0.00000000000E+00 -0.49585892938E+03  0.49585892939E+03  0.25500000920E-02 0.  1.
    10030    2    1    2    0    0  0.00000000000E+00  0.00000000000E+00  0.17603836211E+04  0.27521014799E+04  0.21154460669E+04 0.  0.
        2    1    3    3  502    0 -0.45938595655E+03  0.76679394925E+03  0.16158584658E+04  0.18466204264E+04  0.25500000920E-02 0. -1.
       -2    1    3    3    0  502  0.45938595655E+03 -0.76679394925E+03  0.14452515529E+03  0.90548105347E+03  0.25500000920E-02 0.  1.
</event>
<event>
 5   0  0.4174093E-05  0.2098141E+04  0.7818609E-02  0.8562063E-01
        1   -1    0    0  501    0  0.00000000000E+00  0.00000000000E+00  0.22477923875E+04  0.22477923875E+04  0.50400001928E-02 0. -1.
       -1   -1    0    0    0  501  0.00000000000E+00  0.00000000000E+00 -0.48961328138E+03  0.48961328141E+03  0.50400001928E-02 0.  1.
    10030    2    1    2    0    0  0.00000000000E+00  0.00000000000E+00  0.17581791061E+04  0.27374056689E+04  0.20981410884E+04 0.  0.
        3    1    3    3  502    0 -0.83839356382E+03 -0.55439058361E+03  0.12711377617E+04  0.16205072991E+04  0.10100000352E+00 0. -1.
       -3    1    3    3    0  502  0.83839356382E+03  0.55439058361E+03  0.48704134437E+03  0.11168983698E+04  0.10100000352E+00 0.  1.
</event>
<event>
 5   0  0.4128678E-05  0.2178831E+04  0.7818609E-02  0.8527291E-01
        1   -1    0    0  501    0  0.00000000000E+00  0.00000000000E+00  0.63768751743E+03  0.63768751745E+03  0.50400001928E-02 0. -1.
       -1   -1    0    0    0  501  0.00000000000E+00  0.00000000000E+00 -0.18611408121E+04  0.18611408121E+04  0.50400001928E-02 0.  1.
    10030    2    1    2    0    0  0.00000000000E+00  0.00000000000E+00 -0.12234532947E+04  0.24988283296E+04  0.21788311216E+04 0.  0.
        5    1    3    3  502    0 -0.76018004318E+03 -0.26439563432E+03  0.23028379243E+03  0.83715677418E+03  0.46999998093E+01 0. -1.
       -5    1    3    3    0  502  0.76018004318E+03  0.26439563432E+03 -0.14537370871E+04  0.16616715554E+04  0.46999998093E+01 0.  1.
</event>
<event>
 5   0  0.4050368E-05  0.2050805E+04  0.7818609E-02  0.8583229E-01
       -1   -1    0    0    0  501  0.00000000000E+00  0.00000000000E+00  0.41941262200E+03  0.41941262203E+03  0.50400001928E-02 0.  1.
        1   -1    0    0  501    0  0.00000000000E+00  0.00000000000E+00 -0.25069592430E+04  0.25069592430E+04  0.50400001928E-02 0. -1.
    10030    2    1    2    0    0  0.00000000000E+00  0.00000000000E+00 -0.20875466210E+04  0.29263718650E+04  0.20508050608E+04 0.  0.
        2    1    3    3  502    0 -0.14358459959E+03  0.64719676256E+03  0.72499267927E+02  0.66688554532E+03  0.25500000920E-02 0.  1.
       -2    1    3    3    0  502  0.14358459959E+03 -0.64719676256E+03 -0.21600458889E+04  0.22594863197E+04  0.25500000920E-02 0. -1.
</event>
<event>
 5   0  0.4128678E-05  0.2083879E+04  0.7818609E-02  0.8568378E-01
       -1   -1    0    0    0  501  0.00000000000E+00  0.00000000000E+00  0.13870253528E+04  0.13870253528E+04  0.50400001928E-02 0. -1.
        1   -1    0    0  501    0  0.00000000000E+00  0.00000000000E+00 -0.78270948589E+03  0.78270948591E+03  0.50400001928E-02 0.  1.
    10030    2    1    2    0    0  0.00000000000E+00  0.00000000000E+00  0.60431586692E+03  0.21697348387E+04  0.20838789800E+04 0.  0.
        5    1    3    3  502    0 -0.76084105415E+03 -0.63933415363E+03 -0.23770173678E+02  0.99408972474E+03  0.46999998093E+01 0.  1.
       -5    1    3    3    0  502  0.76084105415E+03  0.63933415363E+03  0.62808604060E+03  0.11756451140E+04  0.46999998093E+01 0. -1.
</event>
<event>
 5   0  0.9012466E-05  0.2131203E+04  0.7818609E-02  0.8547621E-01
       -2   -1    0    0    0  501  0.00000000000E+00  0.00000000000E+00  0.76548602668E+03  0.76548602668E+03  0.25500000920E-02 0. -1.
        2   -1    0    0  501    0  0.00000000000E+00  0.00000000000E+00 -0.14833798842E+04  0.14833798842E+04  0.25500000920E-02 0.  1.
    10030    2    1    2    0    0  0.00000000000E+00  0.00000000000E+00 -0.71789385748E+03  0.22488659108E+04  0.21312030158E+04 0.  0.
        2    1    3    3  502    0 -0.45287206266E+03  0.94181174361E+03 -0.13910822371E+03  0.10542549803E+04  0.25500000920E-02 0. -1.
       -2    1    3    3    0  502  0.45287206266E+03 -0.94181174361E+03 -0.57878563377E+03  0.11946109306E+04  0.25500000920E-02 0.  1.
</event>
<event>
 5   0  0.9012466E-05  0.2104141E+04  0.7818609E-02  0.8559421E-01
        2   -1    0    0  501    0  0.00000000000E+00  0.00000000000E+00  0.16336472981E+04  0.16336472981E+04  0.25500000920E-02 0. -1.
       -2   -1    0    0    0  501  0.00000000000E+00  0.00000000000E+00 -0.67753475500E+03  0.67753475501E+03  0.25500000920E-02 0.  1.
    10030    2    1    2    0    0  0.00000000000E+00  0.00000000000E+00  0.95611254310E+03  0.23111820531E+04  0.21041414609E+04 0.  0.
        2    1    3    3  502    0  0.74645110242E+03  0.67244671042E+02 -0.33293080881E+03  0.82009390776E+03  0.25500000920E-02 0.  1.
       -2    1    3    3    0  502 -0.74645110242E+03 -0.67244671042E+02  0.12890433519E+04  0.14910881453E+04  0.25500000920E-02 0. -1.
</event>
<event>
 5   0  0.4200061E-05  0.2095025E+04  0.7818609E-02  0.8563438E-01
        1   -1    0    0  501    0  0.00000000000E+00  0.00000000000E+00  0.14543218081E+04  0.14543218081E+04  0.50400001928E-02 0. -1.
       -1   -1    0    0    0  501  0.00000000000E+00  0.00000000000E+00 -0.75449791130E+03  0.75449791131E+03  0.50400001928E-02 0.  1.
    10030    2    1    2    0    0  0.00000000000E+00  0.00000000000E+00  0.69982389682E+03  0.22088197194E+04  0.20950253140E+04 0.  0.
        4    1    3    3  502    0  0.95210107888E+02  0.83854975430E+03  0.10041410235E+04  0.13116903076E+04  0.12699999809E+01 0.  1.
       -4    1    3    3    0  502 -0.95210107888E+02 -0.83854975430E+03 -0.30431712668E+03  0.89712941183E+03  0.12699999809E+01 0. -1.
</event>
<event>
 5   0  0.8547605E-05  0.2122268E+04  0.7818609E-02  0.8551497E-01
       -2   -1    0    0    0  501  0.00000000000E+00  0.00000000000E+00  0.65513731439E+03  0.65513731439E+03  0.25500000920E-02 0. -1.
        2   -1    0    0  501    0  0.00000000000E+00  0.00000000000E+00 -0.17187325601E+04  0.17187325601E+04  0.25500000920E-02 0.  1.
    10030    2    1    2    0    0  0.00000000000E+00  0.00000000000E+00 -0.10635952457E+04  0.23738698745E+04  0.21222684407E+04 0.  0.
        4    1    3    3  502    0 -0.62788685956E+03  0.62615381662E+03 -0.11837266912E+04  0.14790270460E+04  0.12699999809E+01 0.  1.
       -4    1    3    3    0  502  0.62788685956E+03 -0.62615381662E+03  0.12013144555E+03  0.89484282843E+03  0.12699999809E+01 0. -1.
</event>
<event>
 5   0  0.3176125E-05  0.2052594E+04  0.7818609E-02  0.8582418E-01
        3   -1    0    0  501    0  0.00000000000E+00  0.00000000000E+00  0.59318278094E+03  0.59318278954E+03  0.10100000352E+00 0. -1.
       -3   -1    0    0    0  501  0.00000000000E+00  0.00000000000E+00 -0.17756512596E+04  0.17756512624E+04  0.10100000352E+00 0.  1.
    10030    2    1    2    0    0  0.00000000000E+00  0.00000000000E+00 -0.11824684786E+04  0.23688340520E+04  0.20525942275E+04 0.  0.
        2    1    3    3  502    0 -0.98888324699E+02  0.14123004963E+03 -0.17588189141E+04  0.17672489356E+04  0.25500000920E-02 0.  1.
       -2    1    3    3    0  502  0.98888324699E+02 -0.14123004963E+03  0.57635043553E+03  0.60158511636E+03  0.25500000920E-02 0. -1.
</event>
<event>
 5   0  0.4128678E-05  0.2081572E+04  0.7818609E-02  0.8569405E-01
       -1   -1    0    0    0  501  0.00000000000E+00  0.00000000000E+00  0.72211168581E+03  0.72211168582E+03  0.50400001928E-02 0.  1.
        1   -1    0    0  501    0  0.00000000000E+00  0.00000000000E+00 -0.15000935558E+04  0.15000935558E+04  0.50400001928E-02 0. -1.
    10030    2    1    2    0    0  0.00000000000E+00  0.00000000000E+00 -0.77798187001E+03  0.22222052417E+04  0.20815716048E+04 0.  0.
        5    1    3    3  502    0 -0.22338517837E+03  0.11371580564E+03 -0.14673762030E+04  0.14886393900E+04  0.46999998093E+01 0. -1.
       -5    1    3    3    0  502  0.22338517837E+03 -0.11371580564E+03  0.68939433298E+03  0.73356585165E+03  0.46999998093E+01 0.  1.
</event>
<event>
 5   0  0.4174093E-05  0.2099597E+04  0.7818609E-02  0.8561421E-01
        1   -1    0    0  501    0  0.00000000000E+00  0.00000000000E+00  0.10985141926E+04  0.10985141926E+04  0.50400001928E-02 0. -1.
       -1   -1    0    0    0  501  0.00000000000E+00  0.00000000000E+00 -0.10032432681E+04  0.10032432681E+04  0.50400001928E-02 0.  1.
    10030    2    1    2    0    0  0.00000000000E+00  0.00000000000E+00  0.95270924527E+02  0.21017574607E+04  0.20995970743E+04 0.  0.
        3    1    3    3  502    0  0.84202871089E+03  0.59126272205E+03  0.25635180400E+03  0.10603396692E+04  0.10100000352E+00 0. -1.
       -3    1    3    3    0  502 -0.84202871089E+03 -0.59126272205E+03 -0.16108087947E+03  0.10414177915E+04  0.10100000352E+00 0.  1.
</event>
<event>
 5   0  0.9012466E-05  0.1994639E+04  0.7818609E-02  0.8609131E-01
        2   -1    0    0  501    0  0.00000000000E+00  0.00000000000E+00  0.14089608432E+04  0.14089608432E+04  0.25500000920E-02 0. -1.
       -2   -1    0    0    0  501  0.00000000000E+00  0.00000000000E+00 -0.70594295935E+03  0.70594295936E+03  0.25500000920E-02 0.  1.
    10030    2    1    2    0    0  0.00000000000E+00  0.00000000000E+00  0.70301788384E+03  0.21149038026E+04  0.19946388017E+04 0.  0.
        2    1    3    3  502    0 -0.40915703179E+03  0.28032216216E+03  0.12689274736E+04  0.13624121713E+04  0.25500000920E-02 0. -1.
       -2    1    3    3    0  502  0.40915703179E+03 -0.28032216216E+03 -0.56590958978E+03  0.75249163123E+03  0.25500000920E-02 0.  1.
</event>
<event>
 5   0  0.4182977E-05  0.2081746E+04  0.7818609E-02  0.8569327E-01
       -1   -1    0    0    0  501  0.00000000000E+00  0.00000000000E+00  0.68678805811E+03  0.68678805813E+03  0.50400001928E-02 0.  1.
        1   -1    0    0  501    0  0.00000000000E+00  0.00000000000E+00 -0.15775122833E+04  0.15775122833E+04  0.50400001928E-02 0. -1.
    10030    2    1    2    0    0  0.00000000000E+00  0.00000000000E+00 -0.89072422518E+03  0.22643003414E+04  0.20817459958E+04 0.  0.
        1    1    3    3  502    0 -0.44917594470E+03 -0.28570211604E+03  0.52751937115E+03  0.74944073506E+03  0.50400001928E-02 0.  1.
       -1    1    3    3    0  502  0.44917594470E+03  0.28570211604E+03 -0.14182435963E+04  0.15148596064E+04  0.50400001928E-02 0. -1.
</event>
<event>
 5   0  0.9012466E-05  0.2093256E+04  0.7818609E-02  0.8564220E-01
        2   -1    0    0  501    0  0.00000000000E+00  0.00000000000E+00  0.12142062344E+04  0.12142062344E+04  0.25500000920E-02 0.  1.
       -2   -1    0    0    0  501  0.00000000000E+00  0.00000000000E+00 -0.90217762518E+03  0.90217762519E+03  0.25500000920E-02 0. -1.
    10030    2    1    2    0    0  0.00000000000E+00  0.00000000000E+00  0.31202860923E+03  0.21163838596E+04  0.20932555478E+04 0.  0.
        2    1    3    3  502    0 -0.15006494820E+03 -0.10358088327E+04  0.15277413769E+03  0.10577142165E+04  0.25500000920E-02 0.  1.
       -2    1    3    3    0  502  0.15006494820E+03  0.10358088327E+04  0.15925447154E+03  0.10586696431E+04  0.25500000920E-02 0. -1.
</event>
<event>
 5   0  0.9012466E-05  0.2118128E+04  0.7818609E-02  0.8553299E-01
        2   -1    0    0  501    0  0.00000000000E+00  0.00000000000E+00  0.12985740617E+04  0.12985740617E+04  0.25500000920E-02 0. -1.
       -2   -1    0    0    0  501  0.00000000000E+00  0.00000000000E+00 -0.86372970361E+03  0.86372970361E+03  0.25500000920E-02 0.  1.
    10030    2    1    2    0    0  0.00000000000E+00  0.00000000000E+00  0.43484435807E+03  0.21623037653E+04  0.21181284092E+04 0.  0.
        2    1    3    3  502    0 -0.34553776506E+03  0.92507949942E+03 -0.17324504388E+03  0.10025877880E+04  0.25500000920E-02 0.  1.
       -2    1    3    3    0  502  0.34553776506E+03 -0.92507949942E+03  0.60808940194E+03  0.11597159773E+04  0.25500000920E-02 0. -1.
</event>
<event>
 5   0  0.4174093E-05  0.2154953E+04  0.7818609E-02  0.8537415E-01
       -1   -1    0    0    0  501  0.00000000000E+00  0.00000000000E+00  0.99060458362E+03  0.99060458363E+03  0.50400001928E-02 0.  1.
        1   -1    0    0  501    0  0.00000000000E+00  0.00000000000E+00 -0.11719663602E+04  0.11719663602E+04  0.50400001928E-02 0. -1.
    10030    2    1    2    0    0  0.00000000000E+00  0.00000000000E+00 -0.18136177659E+03  0.21625709439E+04  0.21549526661E+04 0.  0.
        3    1    3    3  502    0  0.53056417153E+03  0.93635421138E+03 -0.38557990396E+02  0.10769142390E+04  0.10100000352E+00 0. -1.
       -3    1    3    3    0  502 -0.53056417153E+03 -0.93635421138E+03 -0.14280378619E+03  0.10856567049E+04  0.10100000352E+00 0.  1.
</event>
<event>
 5   0  0.4182977E-05  0.2131381E+04  0.7818609E-02  0.8547545E-01
        1   -1    0    0  501    0  0.00000000000E+00  0.00000000000E+00  0.74220690088E+03  0.74220690090E+03  0.50400001928E-02 0.  1.
       -1   -1    0    0    0  501  0.00000000000E+00  0.00000000000E+00 -0.15301606443E+04  0.15301606443E+04  0.50400001928E-02 0. -1.
    10030    2    1    2    0    0  0.00000000000E+00  0.00000000000E+00 -0.78795374342E+03  0.22723675452E+04  0.21313805758E+04 0.  0.
        1    1    3    3  502    0  0.34590522355E+03 -0.65263352071E+03 -0.12129805410E+04  0.14201770062E+04  0.50400001928E-02 0. -1.
       -1    1    3    3    0  502 -0.34590522355E+03  0.65263352071E+03  0.42502679761E+03  0.85219053899E+03  0.50400001928E-02 0.  1.
</event>
<event>
 5   0  0.4174093E-05  0.2091544E+04  0.7818609E-02  0.8564977E-01
        1   -1    0    0  501    0  0.00000000000E+00  0.00000000000E+00  0.12604307882E+04  0.12604307882E+04  0.50400001928E-02 0. -1.
       -1   -1    0    0    0  501  0.00000000000E+00  0.00000000000E+00 -0.86767119358E+03  0.86767119359E+03  0.50400001928E-02 0.  1.
    10030    2    1    2    0    0  0.00000000000E+00  0.00000000000E+00  0.39275959461E+03  0.21281019818E+04  0.20915443925E+04 0.  0.
        3    1    3    3  502    0 -0.10112420793E+04  0.17695824468E+02  0.46695223301E+03  0.11139874700E+04  0.10100000352E+00 0. -1.
       -3    1    3    3    0  502  0.10112420793E+04 -0.17695824468E+02 -0.74192638395E+02  0.10141145118E+04  0.10100000352E+00 0.  1.
</event>
<event>
 5   0  0.3176125E-05  0.1888691E+04  0.7818609E-02  0.8660506E-01
       -3   -1    0    0    0  501  0.00000000000E+00  0.00000000000E+00  0.56262840096E+03  0.56262841003E+03  0.10100000352E+00 0. -1.
        3   -1    0    0  501    0  0.00000000000E+00  0.00000000000E+00 -0.15850399048E+04  0.15850399080E+04  0.10100000352E+00 0.  1.
    10030    2    1    2    0    0  0.00000000000E+00  0.00000000000E+00 -0.10224115038E+04  0.21476683181E+04  0.18886910603E+04 0.  0.
        2    1    3    3  502    0 -0.23823422193E+03  0.43553631551E+03  0.40227822255E+03  0.63896415781E+03  0.25500000920E-02 0. -1.
       -2    1    3    3    0  502  0.23823422193E+03 -0.43553631551E+03 -0.14246897264E+04  0.15087041602E+04  0.25500000920E-02 0.  1.
</event>
<event>
 5   0  0.4200061E-05  0.2088263E+04  0.7818609E-02  0.8566431E-01
        1   -1    0    0  501    0  0.00000000000E+00  0.00000000000E+00  0.18276606354E+04  0.18276606354E+04  0.50400001928E-02 0.  1.
       -1   -1    0    0    0  501  0.00000000000E+00  0.00000000000E+00 -0.59650594459E+03  0.59650594461E+03  0.50400001928E-02 0. -1.
    10030    2    1    2    0    0  0.00000000000E+00  0.00000000000E+00  0.12311546909E+04  0.24241665801E+04  0.20882628510E+04 0.  0.
        4    1    3    3  502    0  0.94025308062E+03 -0.28179182699E+03  0.20232937580E+03  0.10022082012E+04  0.12699999809E+01 0. -1.
       -4    1    3    3    0  502 -0.94025308062E+03  0.28179182699E+03  0.10288253151E+04  0.14219583788E+04  0.12699999809E+01 0.  1.
</event>
<event>
 5   0  0.4200061E-05  0.2083855E+04  0.7818609E-02  0.8568389E-01
        1   -1    0    0  501    0  0.00000000000E+00  0.00000000000E+00  0.14579431482E+04  0.14579431482E+04  0.50400001928E-02 0.  1.
       -1   -1    0    0    0  501  0.00000000000E+00  0.00000000000E+00 -0.74461970576E+03  0.74461970577E+03  0.50400001928E-02 0. -1.
    10030    2    1    2    0    0  0.00000000000E+00  0.00000000000E+00  0.71332344244E+03  0.22025628540E+04  0.20838552714E+04 0.  0.
        4    1    3    3  502    0 -0.60030141203E+03  0.84943347169E+03  0.42106359374E+03  0.11221386594E+04  0.12699999809E+01 0. -1.
       -4    1    3    3    0  502  0.60030141203E+03 -0.84943347169E+03  0.29225984870E+03  0.10804241946E+04  0.12699999809E+01 0.  1.
</event>
<event>
 5   0  0.8858590E-05  0.2162066E+04  0.7818609E-02  0.8534385E-01
        2   -1    0    0  501    0  0.00000000000E+00  0.00000000000E+00  0.17303698439E+04  0.17303698439E+04  0.25500000920E-02 0. -1.
       -2   -1    0    0    0  501  0.00000000000E+00  0.00000000000E+00 -0.67536556054E+03  0.67536556054E+03  0.25500000920E-02 0.  1.
    10030    2    1    2    0    0  0.00000000000E+00  0.00000000000E+00  0.10550042834E+04  0.24057354044E+04  0.21620658635E+04 0.  0.
        1    1    3    3  502    0  0.76289703956E+02 -0.11198822506E+03 -0.66587845391E+03  0.67952600899E+03  0.50400001928E-02 0.  1.
       -1    1    3    3    0  502 -0.76289703956E+02  0.11198822506E+03  0.17208827373E+04  0.17262093955E+04  0.50400001928E-02 0. -1.
</event>
<event>
 5   0  0.8872777E-05  0.2108470E+04  0.7818609E-02  0.8557521E-01
       -2   -1    0    0    0  501  0.00000000000E+00  0.00000000000E+00  0.83876227027E+03  0.83876227027E+03  0.25500000920E-02 0.  1.
        2   -1    0    0  501    0  0.00000000000E+00  0.00000000000E+00 -0.13250616925E+04  0.13250616925E+04  0.25500000920E-02 0. -1.
    10030    2    1    2    0    0  0.00000000000E+00  0.00000000000E+00 -0.48629942220E+03  0.21638239627E+04  0.21084703018E+04 0.  0.
        3    1    3    3  502    0 -0.46129758727E+03  0.11236727208E+03 -0.12091312291E+04  0.12990073931E+04  0.10100000352E+00 0. -1.
       -3    1    3    3    0  502  0.46129758727E+03 -0.11236727208E+03  0.72283180692E+03  0.86481656966E+03  0.10100000352E+00 0.  1.
</event>
<event>
 5   0  0.4128678E-05  0.2111697E+04  0.7818609E-02  0.8556108E-01
        1   -1    0    0  501    0  0.00000000000E+00  0.00000000000E+00  0.18700186607E+04  0.18700186607E+04  0.50400001928E-02 0.  1.
       -1   -1    0    0    0  501  0.00000000000E+00  0.00000000000E+00 -0.59615238741E+03  0.59615238743E+03  0.50400001928E-02 0. -1.
    10030    2    1    2    0    0  0.00000000000E+00  0.00000000000E+00  0.12738662732E+04  0.24661710481E+04  0.21116970323E+04 0.  0.
        5    1    3    3  502    0 -0.18625450398E+03  0.10390025820E+04  0.60888271526E+03  0.12185964700E+04  0.46999998093E+01 0. -1.
       -5    1    3    3    0  502  0.18625450398E+03 -0.10390025820E+04  0.66498355798E+03  0.12475745781E+04  0.46999998093E+01 0.  1.
</event>
<event>
 5   0  0.9012466E-05  0.2104853E+04  0.7818609E-02  0.8559109E-01
        2   -1    0    0  501    0  0.00000000000E+00  0.00000000000E+00  0.49792673621E+03  0.49792673622E+03  0.25500000920E-02 0. -1.
       -2   -1    0    0    0  501  0.00000000000E+00  0.00000000000E+00 -0.22244259099E+04  0.22244259099E+04  0.25500000920E-02 0.  1.
    10030    2    1    2    0    0  0.00000000000E+00  0.00000000000E+00 -0.17264991737E+04  0.27223526461E+04  0.21048526155E+04 0.  0.
        2    1    3    3  502    0  0.42495523597E+02 -0.96724444082E+03 -0.13968856208E+04  0.16996049880E+04  0.25500000920E-02 0.  1.
       -2    1    3    3    0  502 -0.42495523597E+02  0.96724444082E+03 -0.32961355289E+03  0.10227476581E+04  0.25500000920E-02 0. -1.
</event>
<event>
 5   0  0.8547605E-05  0.2087415E+04  0.7818609E-02  0.8566808E-01
        2   -1    0    0  501    0  0.00000000000E+00  0.00000000000E+00  0.11285030794E+04  0.11285030794E+04  0.25500000920E-02 0.  1.
       -2   -1    0    0    0  501  0.00000000000E+00  0.00000000000E+00 -0.96528309881E+03  0.96528309881E+03  0.25500000920E-02 0. -1.
    10030    2    1    2    0    0  0.00000000000E+00  0.00000000000E+00  0.16321998056E+03  0.20937861782E+04  0.20874146205E+04 0.  0.
        4    1    3    3  502    0 -0.80250118704E+03 -0.38542647296E+03  0.62803110222E+03  0.10894890543E+04  0.12699999809E+01 0.  1.
       -4    1    3    3    0  502  0.80250118704E+03  0.38542647296E+03 -0.46481112166E+03  0.10042971238E+04  0.12699999809E+01 0. -1.
</event>
<event>
 5   0  0.4200061E-05  0.2094286E+04  0.7818609E-02  0.8563765E-01
        1   -1    0    0  501    0  0.00000000000E+00  0.00000000000E+00  0.31659033126E+04  0.31659033126E+04  0.50400001928E-02 0. -1.
       -1   -1    0    0    0  501  0.00000000000E+00  0.00000000000E+00 -0.34634937682E+03  0.34634937686E+03  0.50400001928E-02 0.  1.
    10030    2    1    2    0    0  0.00000000000E+00  0.00000000000E+00  0.28195539358E+04  0.35122526895E+04  0.20942861691E+04 0.  0.
        4    1    3    3  502    0 -0.12900335680E+03 -0.29059631166E+03 -0.26344161784E+03  0.41290577778E+03  0.12699999809E+01 0.  1.
       -4    1    3    3    0  502  0.12900335680E+03  0.29059631166E+03  0.30829955537E+04  0.30993469117E+04  0.12699999809E+01 0. -1.
</event>
<event>
 5   0  0.9086985E-05  0.2179727E+04  0.7818609E-02  0.8526914E-01
       -2   -1    0    0    0  501  0.00000000000E+00  0.00000000000E+00  0.14445443870E+04  0.14445443870E+04  0.25500000920E-02 0. -1.
        2   -1    0    0  501    0  0.00000000000E+00  0.00000000000E+00 -0.82226760196E+03  0.82226760196E+03  0.25500000920E-02 0.  1.
    10030    2    1    2    0    0  0.00000000000E+00  0.00000000000E+00  0.62227678501E+03  0.22668119889E+04  0.21797266333E+04 0.  0.
        5    1    3    3  502    0 -0.10241071720E+04  0.26945791834E+03  0.57906874682E+03  0.12069572375E+04  0.46999998093E+01 0.  1.
       -5    1    3    3    0  502  0.10241071720E+04 -0.26945791834E+03  0.43208038190E+02  0.10598547514E+04  0.46999998093E+01 0. -1.
</event>
<event>
 5   0  0.8858590E-05  0.2152778E+04  0.7818609E-02  0.8538344E-01
        2   -1    0    0  501    0  0.00000000000E+00  0.00000000000E+00  0.10762056480E+04  0.10762056480E+04  0.25500000920E-02 0.  1.
       -2   -1    0    0    0  501  0.00000000000E+00  0.00000000000E+00 -0.10765727070E+04  0.10765727070E+04  0.25500000920E-02 0. -1.
    10030    2    1    2    0    0  0.00000000000E+00  0.00000000000E+00 -0.36705894368E+00  0.21527783550E+04  0.21527783237E+04 0.  0.
        1    1    3    3  502    0  0.94495720476E+03  0.51532785361E+03  0.10146628442E+02  0.10763874161E+04  0.50400001928E-02 0.  1.
       -1    1    3    3    0  502 -0.94495720476E+03 -0.51532785361E+03 -0.10513687385E+02  0.10763909388E+04  0.50400001928E-02 0. -1.
</event>
<event>
 5   0  0.4200061E-05  0.2096611E+04  0.7818609E-02  0.8562738E-01
       -1   -1    0    0    0  501  0.00000000000E+00  0.00000000000E+00  0.20096551503E+04  0.20096551503E+04  0.50400001928E-02 0. -1.
        1   -1    0    0  501    0  0.00000000000E+00  0.00000000000E+00 -0.54683252950E+03  0.54683252952E+03  0.50400001928E-02 0.  1.
    10030    2    1    2    0    0  0.00000000000E+00  0.00000000000E+00  0.14628226208E+04  0.25564876799E+04  0.20966113701E+04 0.  0.
        4    1    3    3  502    0  0.12784452766E+03  0.39500599003E+03  0.19051318563E+04  0.19498469063E+04  0.12699999809E+01 0. -1.
       -4    1    3    3    0  502 -0.12784452766E+03 -0.39500599003E+03 -0.44230923547E+03  0.60664077351E+03  0.12699999809E+01 0.  1.
</event>
<event>
 5   0  0.4174093E-05  0.2090802E+04  0.7818609E-02  0.8565306E-01
       -1   -1    0    0    0  501  0.00000000000E+00  0.00000000000E+00  0.13619156350E+04  0.13619156351E+04  0.50400001928E-02 0.  1.
        1   -1    0    0  501    0  0.00000000000E+00  0.00000000000E+00 -0.80244561457E+03  0.80244561458E+03  0.50400001928E-02 0. -1.
    10030    2    1    2    0    0  0.00000000000E+00  0.00000000000E+00  0.55947002048E+03  0.21643612496E+04  0.20908019789E+04 0.  0.
        3    1    3    3  502    0  0.24396519796E+03 -0.66160235368E+03  0.10786560578E+04  0.12886953066E+04  0.10100000352E+00 0.  1.
       -3    1    3    3    0  502 -0.24396519796E+03  0.66160235368E+03 -0.51918603729E+03  0.87566594300E+03  0.10100000352E+00 0. -1.
</event>
<event>
 5   0  0.8547605E-05  0.2114795E+04  0.7818609E-02  0.8554754E-01
       -2   -1    0    0    0  501  0.00000000000E+00  0.00000000000E+00  0.99359271647E+03  0.99359271647E+03  0.25500000920E-02 0.  1.
        2   -1    0    0  501    0  0.00000000000E+00  0.00000000000E+00 -0.11253001109E+04  0.11253001109E+04  0.25500000920E-02 0. -1.
    10030    2    1    2    0    0  0.00000000000E+00  0.00000000000E+00 -0.13170739446E+03  0.21188928274E+04  0.21147954928E+04 0.  0.
        4    1    3    3  502    0 -0.68313685838E+03 -0.44355338178E+03 -0.74145442264E+03  0.11014408035E+04  0.12699999809E+01 0. -1.
       -4    1    3    3    0  502  0.68313685838E+03  0.44355338178E+03  0.60974702818E+03  0.10174520240E+04  0.12699999809E+01 0.  1.
</event>
<event>
 5   0  0.8872777E-05  0.2061526E+04  0.7818609E-02  0.8578383E-01
       -2   -1    0    0    0  501  0.00000000000E+00  0.00000000000E+00  0.10708899748E+04  0.10708899748E+04  0.25500000920E-02 0. -1.
        2   -1    0    0  501    0  0.00000000000E+00  0.00000000000E+00 -0.99213973570E+03  0.99213973571E+03  0.25500000920E-02 0.  1.
    10030    2    1    2    0    0  0.00000000000E+00  0.00000000000E+00  0.78750239127E+02  0.20630297105E+04  0.20615261304E+04 0.  0.
        3    1    3    3  502    0  0.23485421277E+03  0.98668691464E+03 -0.14451122758E+03  0.10244955216E+04  0.10100000352E+00 0.  1.
       -3    1    3    3    0  502 -0.23485421277E+03 -0.98668691464E+03  0.22326146671E+03  0.10385341889E+04  0.10100000352E+00 0. -1.
</event>
<event>
 5   0  0.9012466E-05  0.2101650E+04  0.7818609E-02  0.8560517E-01
       -2   -1    0    0    0  501  0.00000000000E+00  0.00000000000E+00  0.78947655950E+03  0.78947655950E+03  0.25500000920E-02 0.  1.
        2   -1    0    0  501    0  0.00000000000E+00  0.00000000000E+00 -0.13986900878E+04  0.13986900878E+04  0.25500000920E-02 0. -1.
    10030    2    1    2    0    0  0.00000000000E+00  0.00000000000E+00 -0.60921352831E+03  0.21881666473E+04  0.21016498646E+04 0.  0.
        2    1    3    3  502    0  0.32493991507E+03 -0.98149649800E+03 -0.10895695381E+03  0.10396119188E+04  0.25500000920E-02 0. -1.
       -2    1    3    3    0  502 -0.32493991507E+03  0.98149649800E+03 -0.50025657450E+03  0.11485547285E+04  0.25500000920E-02 0.  1.
</event>
<event>
 5   0  0.9012466E-05  0.2100482E+04  0.7818609E-02  0.8561031E-01
        2   -1    0    0  501    0  0.00000000000E+00  0.00000000000E+00  0.10971938097E+04  0.10971938097E+04  0.25500000920E-02 0. -1.
       -2   -1    0    0    0  501  0.00000000000E+00  0.00000000000E+00 -0.10052974929E+04  0.10052974929E+04  0.25500000920E-02 0.  1.
    10030    2    1    2    0    0  0.00000000000E+00  0.00000000000E+00  0.91896316706E+02  0.21024913026E+04  0.21004820267E+04 0.  0.
        2    1    3    3  502    0 -0.82080740533E+03  0.52236606419E+01 -0.60985343215E+03  0.10225816799E+04  0.25500000920E-02 0.  1.
       -2    1    3    3    0  502  0.82080740533E+03 -0.52236606419E+01  0.70174974885E+03  0.10799096227E+04  0.25500000920E-02 0. -1.
</event>
<event>
 5   0  0.8547605E-05  0.2099288E+04  0.7818609E-02  0.8561557E-01
        2   -1    0    0  501    0  0.00000000000E+00  0.00000000000E+00  0.18596069052E+04  0.18596069052E+04  0.25500000920E-02 0. -1.
       -2   -1    0    0    0  501  0.00000000000E+00  0.00000000000E+00 -0.59246512277E+03  0.59246512278E+03  0.25500000920E-02 0.  1.
    10030    2    1    2    0    0  0.00000000000E+00  0.00000000000E+00  0.12671417824E+04  0.24520720280E+04  0.20992877205E+04 0.  0.
        4    1    3    3  502    0  0.95712572808E+03  0.15664014378E+03  0.16471164059E+03  0.98374657887E+03  0.12699999809E+01 0.  1.
       -4    1    3    3    0  502 -0.95712572808E+03 -0.15664014378E+03  0.11024301418E+04  0.14683254491E+04  0.12699999809E+01 0. -1.
</event>
<event>
 5   0  0.9086985E-05  0.2122679E+04  0.7818609E-02  0.8551319E-01
        2   -1    0    0  501    0  0.00000000000E+00  0.00000000000E+00  0.90806999356E+03  0.90806999356E+03  0.25500000920E-02 0.  1.
       -2   -1    0    0    0  501  0.00000000000E+00  0.00000000000E+00 -0.12404784209E+04  0.12404784209E+04  0.25500000920E-02 0. -1.
    10030    2    1    2    0    0  0.00000000000E+00  0.00000000000E+00 -0.33240842732E+03  0.21485484144E+04  0.21226787149E+04 0.  0.
        5    1    3    3  502    0 -0.73626593161E+03  0.15783279958E+03  0.59085533146E+03  0.95714723392E+03  0.46999998093E+01 0.  1.
       -5    1    3    3    0  502  0.73626593161E+03 -0.15783279958E+03 -0.92326375878E+03  0.11914011805E+04  0.46999998093E+01 0. -1.
</event>
<event>
 5   0  0.9086985E-05  0.2107136E+04  0.7818609E-02  0.8558106E-01
        2   -1    0    0  501    0  0.00000000000E+00  0.00000000000E+00  0.76457885346E+03  0.76457885347E+03  0.25500000920E-02 0. -1.
       -2   -1    0    0    0  501  0.00000000000E+00  0.00000000000E+00 -0.14517867751E+04  0.14517867751E+04  0.25500000920E-02 0.  1.
    10030    2    1    2    0    0  0.00000000000E+00  0.00000000000E+00 -0.68720792165E+03  0.22163656286E+04  0.21071359406E+04 0.  0.
        5    1    3    3  502    0  0.75878007933E+03 -0.23661211077E+03 -0.10710097278E+04  0.13337227698E+04  0.46999998093E+01 0.  1.
       -5    1    3    3    0  502 -0.75878007933E+03  0.23661211077E+03  0.38380180613E+03  0.88264285877E+03  0.46999998093E+01 0. -1.
</event>
<event>
 5   0  0.8872777E-05  0.2083638E+04  0.7818609E-02  0.8568485E-01
       -2   -1    0    0    0  501  0.00000000000E+00  0.00000000000E+00  0.11655057755E+04  0.11655057755E+04  0.25500000920E-02 0.  1.
        2   -1    0    0  501    0  0.00000000000E+00  0.00000000000E+00 -0.93125809026E+03  0.93125809026E+03  0.25500000920E-02 0. -1.
    10030    2    1    2    0    0  0.00000000000E+00  0.00000000000E+00  0.23424768524E+03  0.20967638658E+04  0.20836378598E+04 0.  0.
        3    1    3    3  502    0  0.13393335329E+03 -0.10255882445E+04 -0.86325330138E+01  0.10343325970E+04  0.10100000352E+00 0.  1.
       -3    1    3    3    0  502 -0.13393335329E+03  0.10255882445E+04  0.24288021826E+03  0.10624312688E+04  0.10100000352E+00 0. -1.
</event>
<event>
 5   0  0.4182977E-05  0.2108976E+04  0.7818609E-02  0.8557300E-01
       -1   -1    0    0    0  501  0.00000000000E+00  0.00000000000E+00  0.60632195894E+03  0.60632195896E+03  0.50400001928E-02 0.  1.
        1   -1    0    0  501    0  0.00000000000E+00  0.00000000000E+00 -0.18339182558E+04  0.18339182558E+04  0.50400001928E-02 0. -1.
    10030    2    1    2    0    0  0.00000000000E+00  0.00000000000E+00 -0.12275962969E+04  0.24402402148E+04  0.21089759690E+04 0.  0.
        1    1    3    3  502    0  0.22615115177E+03 -0.66019264174E+03 -0.15285057309E+04  0.16802762978E+04  0.50400001928E-02 0. -1.
       -1    1    3    3    0  502 -0.22615115177E+03  0.66019264174E+03  0.30090943396E+03  0.75996391699E+03  0.50400001928E-02 0.  1.
</event>
<event>
 5   0  0.4182977E-05  0.2100549E+04  0.7818609E-02  0.8561002E-01
        1   -1    0    0  501    0  0.00000000000E+00  0.00000000000E+00  0.11493158219E+04  0.11493158219E+04  0.50400001928E-02 0. -1.
       -1   -1    0    0    0  501  0.00000000000E+00  0.00000000000E+00 -0.95976761982E+03  0.95976761983E+03  0.50400001928E-02 0.  1.
    10030    2    1    2    0    0  0.00000000000E+00  0.00000000000E+00  0.18954820205E+03  0.21090834417E+04  0.21005486053E+04 0.  0.
        1    1    3    3  502    0  0.69842566735E+03  0.33002274033E+03  0.80925706084E+03  0.11187539553E+04  0.50400001928E-02 0. -1.
       -1    1    3    3    0  502 -0.69842566735E+03 -0.33002274033E+03 -0.61970885880E+03  0.99032948640E+03  0.50400001928E-02 0.  1.
</event>
<event>
 5   0  0.9012466E-05  0.2102239E+04  0.7818609E-02  0.8560258E-01
       -2   -1    0    0    0  501  0.00000000000E+00  0.00000000000E+00  0.15939516923E+04  0.15939516924E+04  0.25500000920E-02 0. -1.
        2   -1    0    0  501    0  0.00000000000E+00  0.00000000000E+00 -0.69315280228E+03  0.69315280228E+03  0.25500000920E-02 0.  1.
    10030    2    1    2    0    0  0.00000000000E+00  0.00000000000E+00  0.90079889007E+03  0.22871044946E+04  0.21022388849E+04 0.  0.
        2    1    3    3  502    0 -0.56431974277E+03 -0.22314130050E+03  0.13841282651E+04  0.15113106452E+04  0.25500000920E-02 0. -1.
       -2    1    3    3    0  502  0.56431974277E+03  0.22314130050E+03 -0.48332937501E+03  0.77579384944E+03  0.25500000920E-02 0.  1.
</event>
<event>
 5   0  0.8547605E-05  0.2129621E+04  0.7818609E-02  0.8548306E-01
       -2   -1    0    0    0  501  0.00000000000E+00  0.00000000000E+00  0.89105269904E+03  0.89105269904E+03  0.25500000920E-02 0. -1.
        2   -1    0    0  501    0  0.00000000000E+00  0.00000000000E+00 -0.12724511064E+04  0.12724511064E+04  0.25500000920E-02 0.  1.
    10030    2    1    2    0    0  0.00000000000E+00  0.00000000000E+00 -0.38139840733E+03  0.21635038054E+04  0.21296206167E+04 0.  0.
        4    1    3    3  502    0  0.69146467136E+03 -0.78057214804E+03  0.28141934195E+02  0.10431729729E+04  0.12699999809E+01 0.  1.
       -4    1    3    3    0  502 -0.69146467136E+03  0.78057214804E+03 -0.40954034153E+03  0.11203308325E+04  0.12699999809E+01 0. -1.
</event>
<event>
 5   0  0.4128678E-05  0.2087012E+04  0.7818609E-02  0.8566986E-01
        1   -1    0    0  501    0  0.00000000000E+00  0.00000000000E+00  0.20779873680E+04  0.20779873680E+04  0.50400001928E-02 0.  1.
       -1   -1    0    0    0  501  0.00000000000E+00  0.00000000000E+00 -0.52401887980E+03  0.52401887983E+03  0.50400001928E-02 0. -1.
    10030    2    1    2    0    0  0.00000000000E+00  0.00000000000E+00  0.15539684882E+04  0.26020062478E+04  0.20870118475E+04 0.  0.
        5    1    3    3  502    0  0.18590786035E+03  0.33186160227E+03  0.19884546577E+04  0.20245167007E+04  0.46999998093E+01 0.  1.
       -5    1    3    3    0  502 -0.18590786035E+03 -0.33186160227E+03 -0.43448616949E+03  0.57748954716E+03  0.46999998093E+01 0. -1.
</event>
<event>
 5   0  0.3176125E-05  0.2111151E+04  0.7818609E-02  0.8556347E-01
       -3   -1    0    0    0  501  0.00000000000E+00  0.00000000000E+00  0.17186207510E+04  0.17186207539E+04  0.10100000352E+00 0. -1.
        3   -1    0    0  501    0  0.00000000000E+00  0.00000000000E+00 -0.64833389197E+03  0.64833389984E+03  0.10100000352E+00 0.  1.
    10030    2    1    2    0    0  0.00000000000E+00  0.00000000000E+00  0.10702868590E+04  0.23669546538E+04  0.21111514329E+04 0.  0.
        5    1    3    3  502    0 -0.33287446480E+03  0.99856477891E+03  0.44628796886E+03  0.11432987659E+04  0.46999998093E+01 0. -1.
       -5    1    3    3    0  502  0.33287446480E+03 -0.99856477891E+03  0.62399889015E+03  0.12236558879E+04  0.46999998093E+01 0.  1.
</event>
<event>
 5   0  0.8547605E-05  0.2067035E+04  0.7818609E-02  0.8575906E-01
       -2   -1    0    0    0  501  0.00000000000E+00  0.00000000000E+00  0.81364756848E+03  0.81364756848E+03  0.25500000920E-02 0. -1.
        2   -1    0    0  501    0  0.00000000000E+00  0.00000000000E+00 -0.13128019173E+04  0.13128019174E+04  0.25500000920E-02 0.  1.
    10030    2    1    2    0    0  0.00000000000E+00  0.00000000000E+00 -0.49915434887E+03  0.21264494858E+04  0.20670346760E+04 0.  0.
        4    1    3    3  502    0  0.90641531730E+03  0.48634985678E+03 -0.14654054549E+03  0.10390383318E+04  0.12699999809E+01 0. -1.
       -4    1    3    3    0  502 -0.90641531730E+03 -0.48634985678E+03 -0.35261380339E+03  0.10874111540E+04  0.12699999809E+01 0.  1.
</event>
<event>
 5   0  0.4128678E-05  0.2405109E+04  0.7818609E-02  0.8437593E-01
       -1   -1    0    0    0  501  0.00000000000E+00  0.00000000000E+00  0.15583592403E+04  0.15583592403E+04  0.50400001928E-02 0. -1.
        1   -1    0    0  501    0  0.00000000000E+00  0.00000000000E+00 -0.92798705732E+03  0.92798705733E+03  0.50400001928E-02 0.  1.
    10030    2    1    2    0    0  0.00000000000E+00  0.00000000000E+00  0.63037218294E+03  0.24863462976E+04  0.24051089004E+04 0.  0.
        5    1    3    3  502    0  0.10993760793E+03 -0.88217071382E+03 -0.52198417016E+03  0.10309224073E+04  0.46999998093E+01 0.  1.
       -5    1    3    3    0  502 -0.10993760793E+03  0.88217071382E+03  0.11523563531E+04  0.14554238903E+04  0.46999998093E+01 0. -1.
</event>
<event>
 5   0  0.4200061E-05  0.2098349E+04  0.7818609E-02  0.8561971E-01
        1   -1    0    0  501    0  0.00000000000E+00  0.00000000000E+00  0.92389426913E+03  0.92389426914E+03  0.50400001928E-02 0.  1.
       -1   -1    0    0    0  501  0.00000000000E+00  0.00000000000E+00 -0.11914430391E+04  0.11914430392E+04  0.50400001928E-02 0. -1.
    10030    2    1    2    0    0  0.00000000000E+00  0.00000000000E+00 -0.26754877002E+03  0.21153373083E+04  0.20983492520E+04 0.  0.
        4    1    3    3  502    0 -0.91680086740E+03  0.68463016535E+02  0.37584254668E+03  0.99321208605E+03  0.12699999809E+01 0.  1.
       -4    1    3    3    0  502  0.91680086740E+03 -0.68463016535E+02 -0.64339131670E+03  0.11221252222E+04  0.12699999809E+01 0. -1.
</event>
<event>
 5   0  0.4182977E-05  0.2138324E+04  0.7818609E-02  0.8544547E-01
       -1   -1    0    0    0  501  0.00000000000E+00  0.00000000000E+00  0.76554208423E+03  0.76554208424E+03  0.50400001928E-02 0.  1.
        1   -1    0    0  501    0  0.00000000000E+00  0.00000000000E+00 -0.14932001047E+04  0.14932001047E+04  0.50400001928E-02 0. -1.
    10030    2    1    2    0    0  0.00000000000E+00  0.00000000000E+00 -0.72765802049E+03  0.22587421890E+04  0.21383241292E+04 0.  0.
        1    1    3    3  502    0 -0.73917802460E+03 -0.76044012473E+03 -0.22033275684E+03  0.10831435081E+04  0.50400001928E-02 0. -1.
       -1    1    3    3    0  502  0.73917802460E+03  0.76044012473E+03 -0.50732526365E+03  0.11755986809E+04  0.50400001928E-02 0.  1.
</event>
<event>
 5   0  0.4182977E-05  0.2117089E+04  0.7818609E-02  0.8553753E-01
       -1   -1    0    0    0  501  0.00000000000E+00  0.00000000000E+00  0.94231769359E+03  0.94231769361E+03  0.50400001928E-02 0.  1.
        1   -1    0    0  501    0  0.00000000000E+00  0.00000000000E+00 -0.11891070411E+04  0.11891070411E+04  0.50400001928E-02 0. -1.
    10030    2    1    2    0    0  0.00000000000E+00  0.00000000000E+00 -0.24678934755E+03  0.21314247348E+04  0.21170891379E+04 0.  0.
        1    1    3    3  502    0  0.57153854542E+03 -0.26214864529E+03  0.73392206734E+03  0.96644700945E+03  0.50400001928E-02 0.  1.
       -1    1    3    3    0  502 -0.57153854542E+03  0.26214864529E+03 -0.98071141489E+03  0.11649777253E+04  0.50400001928E-02 0. -1.
</event>
<event>
 5   0  0.4182977E-05  0.2103799E+04  0.7818609E-02  0.8559572E-01
       -1   -1    0    0    0  501  0.00000000000E+00  0.00000000000E+00  0.97008064856E+03  0.97008064858E+03  0.50400001928E-02 0. -1.
        1   -1    0    0  501    0  0.00000000000E+00  0.00000000000E+00 -0.11406186828E+04  0.11406186828E+04  0.50400001928E-02 0.  1.
    10030    2    1    2    0    0  0.00000000000E+00  0.00000000000E+00 -0.17053803425E+03  0.21106993314E+04  0.21037985755E+04 0.  0.
        1    1    3    3  502    0 -0.10146305760E+04  0.25113923377E+03 -0.20374952556E+03  0.10649225275E+04  0.50400001928E-02 0. -1.
       -1    1    3    3    0  502  0.10146305760E+04 -0.25113923377E+03  0.33211491312E+02  0.10457768039E+04  0.50400001928E-02 0.  1.
</event>
<event>
 5   0  0.4050368E-05  0.2100452E+04  0.7818609E-02  0.8561044E-01
        1   -1    0    0  501    0  0.00000000000E+00  0.00000000000E+00  0.11521076677E+04  0.11521076677E+04  0.50400001928E-02 0. -1.
       -1   -1    0    0    0  501  0.00000000000E+00  0.00000000000E+00 -0.95735359318E+03  0.95735359319E+03  0.50400001928E-02 0.  1.
    10030    2    1    2    0    0  0.00000000000E+00  0.00000000000E+00  0.19475407450E+03  0.21094612609E+04  0.21004517756E+04 0.  0.
        2    1    3    3  502    0 -0.81847994683E+02  0.27015008027E+03 -0.91854202014E+03  0.96093683605E+03  0.25500000920E-02 0.  1.
       -2    1    3    3    0  502  0.81847994683E+02 -0.27015008027E+03  0.11132960946E+04  0.11485244248E+04  0.25500000920E-02 0. -1.
</event>
<event>
 5   0  0.4128678E-05  0.2127778E+04  0.7818609E-02  0.8549105E-01
        1   -1    0    0  501    0  0.00000000000E+00  0.00000000000E+00  0.94367341911E+03  0.94367341913E+03  0.50400001928E-02 0.  1.
       -1   -1    0    0    0  501  0.00000000000E+00  0.00000000000E+00 -0.11994193328E+04  0.11994193328E+04  0.50400001928E-02 0. -1.
    10030    2    1    2    0    0  0.00000000000E+00  0.00000000000E+00 -0.25574591367E+03  0.21430927519E+04  0.21277783181E+04 0.  0.
        5    1    3    3  502    0 -0.75645297628E+03 -0.62342229706E+03 -0.54432390824E+03  0.11212435386E+04  0.46999998093E+01 0. -1.
       -5    1    3    3    0  502  0.75645297628E+03  0.62342229706E+03  0.28857799457E+03  0.10218492133E+04  0.46999998093E+01 0.  1.
</event>
<event>
 5   0  0.8872777E-05  0.2132963E+04  0.7818609E-02  0.8546860E-01
       -2   -1    0    0    0  501  0.00000000000E+00  0.00000000000E+00  0.57841024840E+03  0.57841024840E+03  0.25500000920E-02 0. -1.
        2   -1    0    0  501    0  0.00000000000E+00  0.00000000000E+00 -0.19663948803E+04  0.19663948803E+04  0.25500000920E-02 0.  1.
    10030    2    1    2    0    0  0.00000000000E+00  0.00000000000E+00 -0.13879846319E+04  0.25448051287E+04  0.21329631513E+04 0.  0.
        3    1    3    3  502    0  0.15949968212E+03  0.37179190073E+03  0.48330672710E+03  0.63028149957E+03  0.10100000352E+00 0. -1.
       -3    1    3    3    0  502 -0.15949968212E+03 -0.37179190073E+03 -0.18712913590E+04  0.19145236291E+04  0.10100000352E+00 0.  1.
</event>
<event>
 5   0  0.4174093E-05  0.2111672E+04  0.7818609E-02  0.8556119E-01
       -1   -1    0    0    0  501  0.00000000000E+00  0.00000000000E+00  0.90706755558E+03  0.90706755560E+03  0.50400001928E-02 0.  1.
        1   -1    0    0  501    0  0.00000000000E+00  0.00000000000E+00 -0.12290040369E+04  0.12290040369E+04  0.50400001928E-02 0. -1.
    10030    2    1    2    0    0  0.00000000000E+00  0.00000000000E+00 -0.32193648135E+03  0.21360715925E+04  0.21116720272E+04 0.  0.
        3    1    3    3  502    0 -0.21270864697E+02  0.50766324599E+03  0.77526108377E+03  0.92693267243E+03  0.10100000352E+00 0.  1.
       -3    1    3    3    0  502  0.21270864697E+02 -0.50766324599E+03 -0.10971975651E+04  0.12091389201E+04  0.10100000352E+00 0. -1.
</event>
<event>
 5   0  0.4050368E-05  0.2086889E+04  0.7818609E-02  0.8567041E-01
       -1   -1    0    0    0  501  0.00000000000E+00  0.00000000000E+00  0.79151973371E+03  0.79151973372E+03  0.50400001928E-02 0.  1.
        1   -1    0    0  501    0  0.00000000000E+00  0.00000000000E+00 -0.13755520383E+04  0.13755520383E+04  0.50400001928E-02 0. -1.
    10030    2    1    2    0    0  0.00000000000E+00  0.00000000000E+00 -0.58403230462E+03  0.21670717721E+04  0.20868891519E+04 0.  0.
        2    1    3    3  502    0 -0.16311403736E+01  0.10275863464E+04 -0.10383463606E+03  0.10328204063E+04  0.25500000920E-02 0.  1.
       -2    1    3    3    0  502  0.16311403736E+01 -0.10275863464E+04 -0.48019766856E+03  0.11342513658E+04  0.25500000920E-02 0. -1.
</event>
<event>
 5   0  0.9086985E-05  0.2102029E+04  0.7818609E-02  0.8560350E-01
        2   -1    0    0  501    0  0.00000000000E+00  0.00000000000E+00  0.14061858300E+04  0.14061858300E+04  0.25500000920E-02 0. -1.
       -2   -1    0    0    0  501  0.00000000000E+00  0.00000000000E+00 -0.78555153791E+03  0.78555153791E+03  0.25500000920E-02 0.  1.
    10030    2    1    2    0    0  0.00000000000E+00  0.00000000000E+00  0.62063429206E+03  0.21917373679E+04  0.21020289640E+04 0.  0.
        5    1    3    3  502    0  0.13598301798E+03  0.10151299899E+04  0.64393250024E+02  0.10262304119E+04  0.46999998093E+01 0.  1.
       -5    1    3    3    0  502 -0.13598301798E+03 -0.10151299899E+04  0.55624104204E+03  0.11655069560E+04  0.46999998093E+01 0. -1.
</event>
<event>
 5   0  0.8872777E-05  0.2103213E+04  0.7818609E-02  0.8559829E-01
        2   -1    0    0  501    0  0.00000000000E+00  0.00000000000E+00  0.22203426735E+04  0.22203426735E+04  0.25500000920E-02 0. -1.
       -2   -1    0    0    0  501  0.00000000000E+00  0.00000000000E+00 -0.49806575515E+03  0.49806575516E+03  0.25500000920E-02 0.  1.
    10030    2    1    2    0    0  0.00000000000E+00  0.00000000000E+00  0.17222769184E+04  0.27184084287E+04  0.21032133990E+04 0.  0.
        3    1    3    3  502    0  0.38694748414E+03  0.27248119564E+03  0.20749229992E+04  0.21282104737E+04  0.10100000352E+00 0. -1.
       -3    1    3    3    0  502 -0.38694748414E+03 -0.27248119564E+03 -0.35264608089E+03  0.59019795494E+03  0.10100000352E+00 0.  1.
</event>
<event>
 5   0  0.4182977E-05  0.1755169E+04  0.7818609E-02  0.8730510E-01
        1   -1    0    0  501    0  0.00000000000E+00  0.00000000000E+00  0.60660027346E+03  0.60660027349E+03  0.50400001928E-02 0. -1.
       -1   -1    0    0    0  501  0.00000000000E+00  0.00000000000E+00 -0.12696246637E+04  0.12696246637E+04  0.50400001928E-02 0.  1.
    10030    2    1    2    0    0  0.00000000000E+00  0.00000000000E+00 -0.66302439026E+03  0.18762249372E+04  0.17551691294E+04 0.  0.
        1    1    3    3  502    0 -0.68934746245E+03  0.50660570442E+03 -0.54072870766E+03  0.10120458483E+04  0.50400001928E-02 0.  1.
       -1    1    3    3    0  502  0.68934746245E+03 -0.50660570442E+03 -0.12229568260E+03  0.86417908893E+03  0.50400001928E-02 0. -1.
</event>
<event>
 5   0  0.8547605E-05  0.2102635E+04  0.7818609E-02  0.8560084E-01
        2   -1    0    0  501    0  0.00000000000E+00  0.00000000000E+00  0.78767411243E+03  0.78767411243E+03  0.25500000920E-02 0. -1.
       -2   -1    0    0    0  501  0.00000000000E+00  0.00000000000E+00 -0.14032051795E+04  0.14032051795E+04  0.25500000920E-02 0.  1.
    10030    2    1    2    0    0  0.00000000000E+00  0.00000000000E+00 -0.61553106704E+03  0.21908792919E+04  0.21026349130E+04 0.  0.
        4    1    3    3  502    0  0.60671383545E+03  0.27391625487E+03  0.54010169205E+03  0.85722998283E+03  0.12699999809E+01 0. -1.
       -4    1    3    3    0  502 -0.60671383545E+03 -0.27391625487E+03 -0.11556327591E+04  0.13336493091E+04  0.12699999809E+01 0.  1.
</event>
<event>
 5   0  0.8858590E-05  0.2072953E+04  0.7818609E-02  0.8573252E-01
       -2   -1    0    0    0  501  0.00000000000E+00  0.00000000000E+00  0.66158898609E+03  0.66158898610E+03  0.25500000920E-02 0. -1.
        2   -1    0    0  501    0  0.00000000000E+00  0.00000000000E+00 -0.16237923701E+04  0.16237923701E+04  0.25500000920E-02 0.  1.
    10030    2    1    2    0    0  0.00000000000E+00  0.00000000000E+00 -0.96220338399E+03  0.22853813562E+04  0.20729526263E+04 0.  0.
        1    1    3    3  502    0  0.63345295759E+03 -0.65409242672E+03  0.64800713191E+02  0.91285195110E+03  0.50400001928E-02 0. -1.
       -1    1    3    3    0  502 -0.63345295759E+03  0.65409242672E+03 -0.10270040972E+04  0.13725294051E+04  0.50400001928E-02 0.  1.
</event>
<event>
 5   0  0.8872777E-05  0.1992226E+04  0.7818609E-02  0.8610264E-01
       -2   -1    0    0    0  501  0.00000000000E+00  0.00000000000E+00  0.10141600863E+04  0.10141600863E+04  0.25500000920E-02 0.  1.
        2   -1    0    0  501    0  0.00000000000E+00  0.00000000000E+00 -0.97838751304E+03  0.97838751304E+03  0.25500000920E-02 0. -1.
    10030    2    1    2    0    0  0.00000000000E+00  0.00000000000E+00  0.35772573229E+02  0.19925475993E+04  0.19922264576E+04 0.  0.
        3    1    3    3  502    0 -0.65961565680E+03  0.73764846040E+03  0.13202518296E+03  0.99832295624E+03  0.10100000352E+00 0. -1.
       -3    1    3    3    0  502  0.65961565680E+03 -0.73764846040E+03 -0.96252609732E+02  0.99422464307E+03  0.10100000352E+00 0.  1.
</event>
<event>
 5   0  0.4128678E-05  0.2104112E+04  0.7818609E-02  0.8559434E-01
        1   -1    0    0  501    0  0.00000000000E+00  0.00000000000E+00  0.10668407190E+04  0.10668407190E+04  0.50400001928E-02 0.  1.
       -1   -1    0    0    0  501  0.00000000000E+00  0.00000000000E+00 -0.10374766648E+04  0.10374766648E+04  0.50400001928E-02 0. -1.
    10030    2    1    2    0    0  0.00000000000E+00  0.00000000000E+00  0.29364054198E+02  0.21043173838E+04  0.21041124980E+04 0.  0.
        5    1    3    3  502    0  0.85942500202E+03  0.54248354992E+03  0.28655500795E+03  0.10559524604E+04  0.46999998093E+01 0.  1.
       -5    1    3    3    0  502 -0.85942500202E+03 -0.54248354992E+03 -0.25719095376E+03  0.10483649234E+04  0.46999998093E+01 0. -1.
</event>
<event>
 5   0  0.4050368E-05  0.2094999E+04  0.7818609E-02  0.8563450E-01
       -1   -1    0    0    0  501  0.00000000000E+00  0.00000000000E+00  0.12810139256E+04  0.12810139256E+04  0.50400001928E-02 0. -1.
        1   -1    0    0  501    0  0.00000000000E+00  0.00000000000E+00 -0.85655199976E+03  0.85655199977E+03  0.50400001928E-02 0.  1.
    10030    2    1    2    0    0  0.00000000000E+00  0.00000000000E+00  0.42446192584E+03  0.21375659254E+04  0.20949988446E+04 0.  0.
        2    1    3    3  502    0 -0.95626235553E+03  0.42723430864E+03  0.22955212989E+03  0.10722224711E+04  0.25500000920E-02 0. -1.
       -2    1    3    3    0  502  0.95626235553E+03 -0.42723430864E+03  0.19490979595E+03  0.10653434543E+04  0.25500000920E-02 0.  1.
</event>
<event>
 5   0  0.4182977E-05  0.2110174E+04  0.7818609E-02  0.8556775E-01
       -1   -1    0    0    0  501  0.00000000000E+00  0.00000000000E+00  0.13000968352E+04  0.13000968352E+04  0.50400001928E-02 0.  1.
        1   -1    0    0  501    0  0.00000000000E+00  0.00000000000E+00 -0.85625090486E+03  0.85625090487E+03  0.50400001928E-02 0. -1.
    10030    2    1    2    0    0  0.00000000000E+00  0.00000000000E+00  0.44384593036E+03  0.21563477401E+04  0.21101744872E+04 0.  0.
        1    1    3    3  502    0 -0.98490460584E+03  0.48205288304E+02 -0.16158657490E+03  0.99923523439E+03  0.50400001928E-02 0. -1.
       -1    1    3    3    0  502  0.98490460584E+03 -0.48205288304E+02  0.60543250526E+03  0.11571125057E+04  0.50400001928E-02 0.  1.
</event>
<event>
 5   0  0.9012466E-05  0.2084418E+04  0.7818609E-02  0.8568139E-01
       -2   -1    0    0    0  501  0.00000000000E+00  0.00000000000E+00  0.12914367151E+04  0.12914367151E+04  0.25500000920E-02 0. -1.
        2   -1    0    0  501    0  0.00000000000E+00  0.00000000000E+00 -0.84107851592E+03  0.84107851593E+03  0.25500000920E-02 0.  1.
    10030    2    1    2    0    0  0.00000000000E+00  0.00000000000E+00  0.45035819913E+03  0.21325152310E+04  0.20844180729E+04 0.  0.
        2    1    3    3  502    0  0.51272187458E+03  0.81350951967E+03 -0.18598772582E+03  0.97942477681E+03  0.25500000920E-02 0.  1.
       -2    1    3    3    0  502 -0.51272187458E+03 -0.81350951967E+03  0.63634592495E+03  0.11530904542E+04  0.25500000920E-02 0. -1.
</event>
<event>
 5   0  0.8547605E-05  0.2035741E+04  0.7818609E-02  0.8590091E-01
        2   -1    0    0  501    0  0.00000000000E+00  0.00000000000E+00  0.13594077030E+04  0.13594077030E+04  0.25500000920E-02 0. -1.
       -2   -1    0    0    0  501  0.00000000000E+00  0.00000000000E+00 -0.76214070755E+03  0.76214070755E+03  0.25500000920E-02 0.  1.
    10030    2    1    2    0    0  0.00000000000E+00  0.00000000000E+00  0.59726699547E+03  0.21215484106E+04  0.20357406010E+04 0.  0.
        4    1    3    3  502    0 -0.44750681617E+03  0.49156622376E+03 -0.50467380234E+03  0.83462384493E+03  0.12699999809E+01 0.  1.
       -4    1    3    3    0  502  0.44750681617E+03 -0.49156622376E+03  0.11019407978E+04  0.12869245656E+04  0.12699999809E+01 0. -1.
</event>
<event>
 5   0  0.4050368E-05  0.1762023E+04  0.7818609E-02  0.8726760E-01
        1   -1    0    0  501    0  0.00000000000E+00  0.00000000000E+00  0.17378317859E+04  0.17378317859E+04  0.50400001928E-02 0. -1.
       -1   -1    0    0    0  501  0.00000000000E+00  0.00000000000E+00 -0.44663751389E+03  0.44663751392E+03  0.50400001928E-02 0.  1.
    10030    2    1    2    0    0  0.00000000000E+00  0.00000000000E+00  0.12911942720E+04  0.21844692999E+04  0.17620225520E+04 0.  0.
        2    1    3    3  502    0 -0.95476662223E+02  0.55026515332E+02  0.17292538428E+04  0.17327615426E+04  0.25500000920E-02 0. -1.
       -2    1    3    3    0  502  0.95476662223E+02 -0.55026515332E+02 -0.43805957080E+03  0.45170775729E+03  0.25500000920E-02 0.  1.
</event>
<event>
 5   0  0.4128678E-05  0.2120226E+04  0.7818609E-02  0.8552386E-01
        1   -1    0    0  501    0  0.00000000000E+00  0.00000000000E+00  0.16190626442E+04  0.16190626442E+04  0.50400001928E-02 0. -1.
       -1   -1    0    0    0  501  0.00000000000E+00  0.00000000000E+00 -0.69412945495E+03  0.69412945496E+03  0.50400001928E-02 0.  1.
    10030    2    1    2    0    0  0.00000000000E+00  0.00000000000E+00  0.92493318925E+03  0.23131920992E+04  0.21202255265E+04 0.  0.
        5    1    3    3  502    0 -0.58857954855E+02 -0.81364149840E+03  0.12010909644E+04  0.14519360666E+04  0.46999998093E+01 0. -1.
       -5    1    3    3    0  502  0.58857954855E+02  0.81364149840E+03 -0.27615777519E+03  0.86125603253E+03  0.46999998093E+01 0.  1.
</event>
<event>
 5   0  0.4050368E-05  0.2133940E+04  0.7818609E-02  0.8546438E-01
        1   -1    0    0  501    0  0.00000000000E+00  0.00000000000E+00  0.98816156585E+03  0.98816156587E+03  0.50400001928E-02 0. -1.
       -1   -1    0    0    0  501  0.00000000000E+00  0.00000000000E+00 -0.11520636844E+04  0.11520636844E+04  0.50400001928E-02 0.  1.
    10030    2    1    2    0    0  0.00000000000E+00  0.00000000000E+00 -0.16390211856E+03  0.21402252503E+04  0.21339400689E+04 0.  0.
        2    1    3    3  502    0  0.12756338778E+03 -0.92766327015E+03 -0.59491960331E+03  0.11093966356E+04  0.25500000920E-02 0. -1.
       -2    1    3    3    0  502 -0.12756338778E+03  0.92766327015E+03  0.43101748475E+03  0.10308286147E+04  0.25500000920E-02 0.  1.
</event>
<event>
 5   0  0.3176125E-05  0.2101978E+04  0.7818609E-02  0.8560373E-01
        3   -1    0    0  501    0  0.00000000000E+00  0.00000000000E+00  0.16610641279E+04  0.16610641310E+04  0.10100000352E+00 0. -1.
       -3   -1    0    0    0  501  0.00000000000E+00  0.00000000000E+00 -0.66498181566E+03  0.66498182333E+03  0.10100000352E+00 0.  1.
    10030    2    1    2    0    0  0.00000000000E+00  0.00000000000E+00  0.99608231229E+03  0.23260459543E+04  0.21019775948E+04 0.  0.
        3    1    3    3  502    0  0.59273608012E+03  0.12641736277E+01  0.14584515089E+04  0.15742993594E+04  0.10100000352E+00 0. -1.
       -3    1    3    3    0  502 -0.59273608012E+03 -0.12641736277E+01 -0.46236919666E+03  0.75174659496E+03  0.10100000352E+00 0.  1.
</event>
<event>
 5   0  0.9012466E-05  0.2075340E+04  0.7818609E-02  0.8572185E-01
       -2   -1    0    0    0  501  0.00000000000E+00  0.00000000000E+00  0.81826022719E+03  0.81826022719E+03  0.25500000920E-02 0.  1.
        2   -1    0    0  501    0  0.00000000000E+00  0.00000000000E+00 -0.13159121677E+04  0.13159121677E+04  0.25500000920E-02 0. -1.
    10030    2    1    2    0    0  0.00000000000E+00  0.00000000000E+00 -0.49765194048E+03  0.21341723949E+04  0.20753395763E+04 0.  0.
        2    1    3    3  502    0 -0.50566326693E+03  0.21372588755E+03 -0.11543477200E+04  0.12782381442E+04  0.25500000920E-02 0. -1.
       -2    1    3    3    0  502  0.50566326693E+03 -0.21372588755E+03  0.65669577956E+03  0.85593425065E+03  0.25500000920E-02 0.  1.
</event>
<event>
 5   0  0.8872777E-05  0.2094039E+04  0.7818609E-02  0.8563874E-01
        2   -1    0    0  501    0  0.00000000000E+00  0.00000000000E+00  0.19539262903E+04  0.19539262903E+04  0.25500000920E-02 0.  1.
       -2   -1    0    0    0  501  0.00000000000E+00  0.00000000000E+00 -0.56104972776E+03  0.56104972776E+03  0.25500000920E-02 0. -1.
    10030    2    1    2    0    0  0.00000000000E+00  0.00000000000E+00  0.13928765625E+04  0.25149760180E+04  0.20940389807E+04 0.  0.
        3    1    3    3  502    0 -0.30504425292E+03 -0.66863079318E+03 -0.19921002564E+03  0.76144847386E+03  0.10100000352E+00 0. -1.
       -3    1    3    3    0  502  0.30504425292E+03  0.66863079318E+03  0.15920865881E+04  0.17535275442E+04  0.10100000352E+00 0.  1.
</event>
<event>
 5   0  0.9012466E-05  0.2425783E+04  0.7818609E-02  0.8429913E-01
        2   -1    0    0  501    0  0.00000000000E+00  0.00000000000E+00  0.15907029274E+04  0.15907029274E+04  0.25500000920E-02 0.  1.
       -2   -1    0    0    0  501  0.00000000000E+00  0.00000000000E+00 -0.92481511942E+03  0.92481511942E+03  0.25500000920E-02 0. -1.
    10030    2    1    2    0    0  0.00000000000E+00  0.00000000000E+00  0.66588780801E+03  0.25155180469E+04  0.24257832696E+04 0.  0.
        2    1    3    3  502    0  0.84069626377E+02 -0.58663775719E+03  0.14303415089E+04  0.15482533359E+04  0.25500000920E-02 0.  1.
       -2    1    3    3    0  502 -0.84069626377E+02  0.58663775719E+03 -0.76445370085E+03  0.96726471092E+03  0.25500000920E-02 0. -1.
</event>
<event>
 5   0  0.4174093E-05  0.2112867E+04  0.7818609E-02  0.8555596E-01
       -1   -1    0    0    0  501  0.00000000000E+00  0.00000000000E+00  0.46804236468E+03  0.46804236471E+03  0.50400001928E-02 0.  1.
        1   -1    0    0  501    0  0.00000000000E+00  0.00000000000E+00 -0.23845106059E+04  0.23845106059E+04  0.50400001928E-02 0. -1.
    10030    2    1    2    0    0  0.00000000000E+00  0.00000000000E+00 -0.19164682412E+04  0.28525529706E+04  0.21128672298E+04 0.  0.
        3    1    3    3  502    0 -0.10099139729E+04 -0.26044522437E+03 -0.73113843869E+03  0.12737038016E+04  0.10100000352E+00 0. -1.
       -3    1    3    3    0  502  0.10099139729E+04  0.26044522437E+03 -0.11853298025E+04  0.15788491690E+04  0.10100000352E+00 0.  1.
</event>
<event>
 5   0  0.4128678E-05  0.2117929E+04  0.7818609E-02  0.8553386E-01
        1   -1    0    0  501    0  0.00000000000E+00  0.00000000000E+00  0.10264725114E+04  0.10264725114E+04  0.50400001928E-02 0.  1.
       -1   -1    0    0    0  501  0.00000000000E+00  0.00000000000E+00 -0.10924850201E+04  0.10924850201E+04  0.50400001928E-02 0. -1.
    10030    2    1    2    0    0  0.00000000000E+00  0.00000000000E+00 -0.66012508748E+02  0.21189575315E+04  0.21179290283E+04 0.  0.
        5    1    3    3  502    0  0.51314490646E+03 -0.27381304381E+03 -0.91836111293E+03  0.10870604867E+04  0.46999998093E+01 0. -1.
       -5    1    3    3    0  502 -0.51314490646E+03  0.27381304381E+03  0.85234860418E+03  0.10318970448E+04  0.46999998093E+01 0.  1.
</event>
<event>
 5   0  0.9086985E-05  0.2094599E+04  0.7818609E-02  0.8563626E-01
        2   -1    0    0  501    0  0.00000000000E+00  0.00000000000E+00  0.19598714583E+04  0.19598714583E+04  0.25500000920E-02 0.  1.
       -2   -1    0    0    0  501  0.00000000000E+00  0.00000000000E+00 -0.55964719819E+03  0.55964719819E+03  0.25500000920E-02 0. -1.
    10030    2    1    2    0    0  0.00000000000E+00  0.00000000000E+00  0.14002242601E+04  0.25195186565E+04  0.20945993130E+04 0.  0.
        5    1    3    3  502    0 -0.97009474913E+03  0.19070063030E+03  0.28453353321E+03  0.10288012316E+04  0.46999998093E+01 0.  1.
       -5    1    3    3    0  502  0.97009474913E+03 -0.19070063030E+03  0.11156907269E+04  0.14907174249E+04  0.46999998093E+01 0. -1.
</event>
<event>
 5   0  0.4128678E-05  0.2109676E+04  0.7818609E-02  0.8556993E-01
       -1   -1    0    0    0  501  0.00000000000E+00  0.00000000000E+00  0.66160463222E+03  0.66160463223E+03  0.50400001928E-02 0. -1.
        1   -1    0    0  501    0  0.00000000000E+00  0.00000000000E+00 -0.16817943502E+04  0.16817943502E+04  0.50400001928E-02 0.  1.
    10030    2    1    2    0    0  0.00000000000E+00  0.00000000000E+00 -0.10201897180E+04  0.23433989824E+04  0.21096757405E+04 0.  0.
        5    1    3    3  502    0  0.66545651313E+03 -0.80586494211E+03 -0.66878640996E+03  0.12407852465E+04  0.46999998093E+01 0. -1.
       -5    1    3    3    0  502 -0.66545651313E+03  0.80586494211E+03 -0.35140330803E+03  0.11026137359E+04  0.46999998093E+01 0.  1.
</event>
<event>
 5   0  0.4050368E-05  0.2109089E+04  0.7818609E-02  0.8557250E-01
        1   -1    0    0  501    0  0.00000000000E+00  0.00000000000E+00  0.90663152679E+03  0.90663152680E+03  0.50400001928E-02 0. -1.
       -1   -1    0    0    0  501  0.00000000000E+00  0.00000000000E+00 -0.12265883229E+04  0.12265883229E+04  0.50400001928E-02 0.  1.
    10030    2    1    2    0    0  0.00000000000E+00  0.00000000000E+00 -0.31995679608E+03  0.21332198497E+04  0.21090885652E+04 0.  0.
        2    1    3    3  502    0 -0.10176058577E+04 -0.26695191127E+03 -0.23346392175E+03  0.10776318515E+04  0.25500000920E-02 0.  1.
       -2    1    3    3    0  502  0.10176058577E+04  0.26695191127E+03 -0.86492874330E+02  0.10555879982E+04  0.25500000920E-02 0. -1.
</event>
<event>
 5   0  0.9086985E-05  0.2071262E+04  0.7818609E-02  0.8574009E-01
       -2   -1    0    0    0  501  0.00000000000E+00  0.00000000000E+00  0.14491963239E+04  0.14491963239E+04  0.25500000920E-02 0.  1.
        2   -1    0    0  501    0  0.00000000000E+00  0.00000000000E+00 -0.74008706964E+03  0.74008706965E+03  0.25500000920E-02 0. -1.
    10030    2    1    2    0    0  0.00000000000E+00  0.00000000000E+00  0.70910925422E+03  0.21892833935E+04  0.20712618962E+04 0.  0.
        5    1    3    3  502    0 -0.73151014352E+02 -0.60837069624E+03 -0.52790912489E+03  0.80881154114E+03  0.46999998093E+01 0. -1.
       -5    1    3    3    0  502  0.73151014352E+02  0.60837069624E+03  0.12370183791E+04  0.13804718524E+04  0.46999998093E+01 0.  1.
</event>
<event>
 5   0  0.4182977E-05  0.1833465E+04  0.7818609E-02  0.8688703E-01
       -1   -1    0    0    0  501  0.00000000000E+00  0.00000000000E+00  0.81325939006E+03  0.81325939008E+03  0.50400001928E-02 0. -1.
        1   -1    0    0  501    0  0.00000000000E+00  0.00000000000E+00 -0.10333705978E+04  0.10333705978E+04  0.50400001928E-02 0.  1.
    10030    2    1    2    0    0  0.00000000000E+00  0.00000000000E+00 -0.22011120770E+03  0.18466299879E+04  0.18334648533E+04 0.  0.
        1    1    3    3  502    0  0.44316110986E+03  0.73430187711E+03  0.21600859375E+03  0.88444939292E+03  0.50400001928E-02 0. -1.
       -1    1    3    3    0  502 -0.44316110986E+03 -0.73430187711E+03 -0.43611980145E+03  0.96218059493E+03  0.50400001928E-02 0.  1.
</event>
<event>
 5   0  0.8872777E-05  0.2079770E+04  0.7818609E-02  0.8570208E-01
        2   -1    0    0  501    0  0.00000000000E+00  0.00000000000E+00  0.23654735457E+04  0.23654735457E+04  0.25500000920E-02 0.  1.
       -2   -1    0    0    0  501  0.00000000000E+00  0.00000000000E+00 -0.45714354491E+03  0.45714354492E+03  0.25500000920E-02 0. -1.
    10030    2    1    2    0    0  0.00000000000E+00  0.00000000000E+00  0.19083300008E+04  0.28226170906E+04  0.20797701432E+04 0.  0.
        3    1    3    3  502    0  0.33385570499E+03  0.18415539581E+03  0.22671863676E+04  0.22990230267E+04  0.10100000352E+00 0.  1.
       -3    1    3    3    0  502 -0.33385570499E+03 -0.18415539581E+03 -0.35885636683E+03  0.52359406393E+03  0.10100000352E+00 0. -1.
</event>
<event>
 5   0  0.8858590E-05  0.2103872E+04  0.7818609E-02  0.8559540E-01
       -2   -1    0    0    0  501  0.00000000000E+00  0.00000000000E+00  0.90405316441E+03  0.90405316442E+03  0.25500000920E-02 0.  1.
        2   -1    0    0  501    0  0.00000000000E+00  0.00000000000E+00 -0.12240091280E+04  0.12240091280E+04  0.25500000920E-02 0. -1.
    10030    2    1    2    0    0  0.00000000000E+00  0.00000000000E+00 -0.31995596360E+03  0.21280622924E+04  0.21038719785E+04 0.  0.
        1    1    3    3  502    0 -0.32482863786E+03  0.85280031385E+03 -0.68924116136E+03  0.11436063124E+04  0.50400001928E-02 0. -1.
       -1    1    3    3    0  502  0.32482863786E+03 -0.85280031385E+03  0.36928519776E+03  0.98445598001E+03  0.50400001928E-02 0.  1.
</event>
<event>
 5   0  0.8872777E-05  0.2095349E+04  0.7818609E-02  0.8563295E-01
        2   -1    0    0  501    0  0.00000000000E+00  0.00000000000E+00  0.10887766065E+04  0.10887766065E+04  0.25500000920E-02 0.  1.
       -2   -1    0    0    0  501  0.00000000000E+00  0.00000000000E+00 -0.10081240182E+04  0.10081240182E+04  0.25500000920E-02 0. -1.
    10030    2    1    2    0    0  0.00000000000E+00  0.00000000000E+00  0.80652588223E+02  0.20969006247E+04  0.20953489900E+04 0.  0.
        3    1    3    3  502    0 -0.50663667155E+03 -0.57009553373E+03 -0.67848981272E+03  0.10208026600E+04  0.10100000352E+00 0. -1.
       -3    1    3    3    0  502  0.50663667155E+03  0.57009553373E+03  0.75914240095E+03  0.10760979647E+04  0.10100000352E+00 0.  1.
</event>
<event>
 5   0  0.4050368E-05  0.2124200E+04  0.7818609E-02  0.8550657E-01
       -1   -1    0    0    0  501  0.00000000000E+00  0.00000000000E+00  0.92673054150E+03  0.92673054152E+03  0.50400001928E-02 0.  1.
        1   -1    0    0  501    0  0.00000000000E+00  0.00000000000E+00 -0.12172428621E+04  0.12172428622E+04  0.50400001928E-02 0. -1.
    10030    2    1    2    0    0  0.00000000000E+00  0.00000000000E+00 -0.29051232064E+03  0.21439734037E+04  0.21241997428E+04 0.  0.
        2    1    3    3  502    0  0.26991142170E+03 -0.98070204864E+03 -0.45376051336E+03  0.11137896064E+04  0.25500000920E-02 0. -1.
       -2    1    3    3    0  502 -0.26991142170E+03  0.98070204864E+03  0.16324819272E+03  0.10301837973E+04  0.25500000920E-02 0.  1.
</event>
<event>
 5   0  0.8547605E-05  0.2043019E+04  0.7818609E-02  0.8586768E-01
       -2   -1    0    0    0  501  0.00000000000E+00  0.00000000000E+00  0.81828813315E+03  0.81828813315E+03  0.25500000920E-02 0.  1.
        2   -1    0    0  501    0  0.00000000000E+00  0.00000000000E+00 -0.12752003090E+04  0.12752003090E+04  0.25500000920E-02 0. -1.
    10030    2    1    2    0    0  0.00000000000E+00  0.00000000000E+00 -0.45691217581E+03  0.20934884421E+04  0.20430186296E+04 0.  0.
        4    1    3    3  502    0 -0.83546641923E+03 -0.50832253637E+03 -0.53084561702E+03  0.11127419380E+04  0.12699999809E+01 0. -1.
       -4    1    3    3    0  502  0.83546641923E+03  0.50832253637E+03  0.73933441215E+02  0.98074650408E+03  0.12699999809E+01 0.  1.
</event>
<event>
 5   0  0.4128678E-05  0.2052374E+04  0.7818609E-02  0.8582518E-01
        1   -1    0    0  501    0  0.00000000000E+00  0.00000000000E+00  0.13895222258E+04  0.13895222258E+04  0.50400001928E-02 0.  1.
       -1   -1    0    0    0  501  0.00000000000E+00  0.00000000000E+00 -0.75785710071E+03  0.75785710073E+03  0.50400001928E-02 0. -1.
    10030    2    1    2    0    0  0.00000000000E+00  0.00000000000E+00  0.63166512509E+03  0.21473793265E+04  0.20523735386E+04 0.  0.
        5    1    3    3  502    0 -0.65960945168E+03 -0.63209132700E+03 -0.17314814372E+03  0.92985291530E+03  0.46999998093E+01 0. -1.
       -5    1    3    3    0  502  0.65960945168E+03  0.63209132700E+03  0.80481326880E+03  0.12175264112E+04  0.46999998093E+01 0.  1.
</event>
<event>
 5   0  0.3176125E-05  0.2087832E+04  0.7818609E-02  0.8566623E-01
       -4   -1    0    0    0  501  0.00000000000E+00  0.00000000000E+00  0.16669175808E+04  0.16669180646E+04  0.12699999809E+01 0.  1.
        4   -1    0    0  501    0  0.00000000000E+00  0.00000000000E+00 -0.65375664157E+03  0.65375787513E+03  0.12699999809E+01 0. -1.
    10030    2    1    2    0    0  0.00000000000E+00  0.00000000000E+00  0.10131609392E+04  0.23206759397E+04  0.20878318247E+04 0.  0.
        4    1    3    3  502    0 -0.84110996163E+03  0.44613239907E+03  0.98240993025E+03  0.13680756445E+04  0.12699999809E+01 0.  1.
       -4    1    3    3    0  502  0.84110996163E+03 -0.44613239907E+03  0.30751008977E+02  0.95260029524E+03  0.12699999809E+01 0. -1.
</event>
<event>
 5   0  0.3176125E-05  0.2124429E+04  0.7818609E-02  0.8550558E-01
        3   -1    0    0  501    0  0.00000000000E+00  0.00000000000E+00  0.17347458143E+04  0.17347458172E+04  0.10100000352E+00 0. -1.
       -3   -1    0    0    0  501  0.00000000000E+00  0.00000000000E+00 -0.65041224433E+03  0.65041225217E+03  0.10100000352E+00 0.  1.
    10030    2    1    2    0    0  0.00000000000E+00  0.00000000000E+00  0.10843335699E+04  0.23851580694E+04  0.21244292704E+04 0.  0.
        4    1    3    3  502    0 -0.88577188115E+03 -0.31280385761E+03 -0.14530418510E+02  0.93949498388E+03  0.12699999809E+01 0.  1.
       -4    1    3    3    0  502  0.88577188115E+03  0.31280385761E+03  0.10988639884E+04  0.14456630855E+04  0.12699999809E+01 0. -1.
</event>
<event>
 5   0  0.4050368E-05  0.2123962E+04  0.7818609E-02  0.8550761E-01
        1   -1    0    0  501    0  0.00000000000E+00  0.00000000000E+00  0.16266218695E+04  0.16266218695E+04  0.50400001928E-02 0. -1.
       -1   -1    0    0    0  501  0.00000000000E+00  0.00000000000E+00 -0.69334089167E+03  0.69334089169E+03  0.50400001928E-02 0.  1.
    10030    2    1    2    0    0  0.00000000000E+00  0.00000000000E+00  0.93328097781E+03  0.23199627612E+04  0.21239618240E+04 0.  0.
        2    1    3    3  502    0  0.57204586726E+03 -0.69762790204E+03 -0.14531201485E+03  0.91380345022E+03  0.25500000920E-02 0.  1.
       -2    1    3    3    0  502 -0.57204586726E+03  0.69762790204E+03  0.10785929927E+04  0.14061593110E+04  0.25500000920E-02 0. -1.
</event>
<event>
 5   0  0.4174093E-05  0.2082044E+04  0.7818609E-02  0.8569195E-01
       -1   -1    0    0    0  501  0.00000000000E+00  0.00000000000E+00  0.10777816331E+04  0.10777816331E+04  0.50400001928E-02 0. -1.
        1   -1    0    0  501    0  0.00000000000E+00  0.00000000000E+00 -0.10055162713E+04  0.10055162714E+04  0.50400001928E-02 0.  1.
    10030    2    1    2    0    0  0.00000000000E+00  0.00000000000E+00  0.72265361718E+02  0.20832979044E+04  0.20820441580E+04 0.  0.
        3    1    3    3  502    0  0.69174489002E+03  0.60812197073E+03 -0.44934360739E+03  0.10248087684E+04  0.10100000352E+00 0.  1.
       -3    1    3    3    0  502 -0.69174489002E+03 -0.60812197073E+03  0.52160896910E+03  0.10584891360E+04  0.10100000352E+00 0. -1.
</event>
<event>
 5   0  0.4128678E-05  0.1983435E+04  0.7818609E-02  0.8614405E-01
        1   -1    0    0  501    0  0.00000000000E+00  0.00000000000E+00  0.95425852555E+03  0.95425852556E+03  0.50400001928E-02 0. -1.
       -1   -1    0    0    0  501  0.00000000000E+00  0.00000000000E+00 -0.10306468188E+04  0.10306468188E+04  0.50400001928E-02 0.  1.
    10030    2    1    2    0    0  0.00000000000E+00  0.00000000000E+00 -0.76388293277E+02  0.19849053444E+04  0.19834349132E+04 0.  0.
        5    1    3    3  502    0  0.29045925589E+03  0.79668332733E+03  0.47639570002E+03  0.97264888648E+03  0.46999998093E+01 0. -1.
       -5    1    3    3    0  502 -0.29045925589E+03 -0.79668332733E+03 -0.55278399330E+03  0.10122564579E+04  0.46999998093E+01 0.  1.
</event>
<event>
 5   0  0.9086985E-05  0.2217092E+04  0.7818609E-02  0.8511348E-01
       -2   -1    0    0    0  501  0.00000000000E+00  0.00000000000E+00  0.62999602382E+03  0.62999602383E+03  0.25500000920E-02 0.  1.
        2   -1    0    0  501    0  0.00000000000E+00  0.00000000000E+00 -0.19506057503E+04  0.19506057503E+04  0.25500000920E-02 0. -1.
    10030    2    1    2    0    0  0.00000000000E+00  0.00000000000E+00 -0.13206097265E+04  0.25806017742E+04  0.22170916686E+04 0.  0.
        5    1    3    3  502    0 -0.61152436252E+03 -0.87830539213E+03 -0.99658476098E+03  0.14623904005E+04  0.46999998093E+01 0. -1.
       -5    1    3    3    0  502  0.61152436252E+03  0.87830539213E+03 -0.32402496554E+03  0.11182113736E+04  0.46999998093E+01 0.  1.
</event>
<event>
 5   0  0.4182977E-05  0.2089243E+04  0.7818609E-02  0.8565997E-01
       -1   -1    0    0    0  501  0.00000000000E+00  0.00000000000E+00  0.93733545299E+03  0.93733545300E+03  0.50400001928E-02 0. -1.
        1   -1    0    0  501    0  0.00000000000E+00  0.00000000000E+00 -0.11641873453E+04  0.11641873454E+04  0.50400001928E-02 0.  1.
    10030    2    1    2    0    0  0.00000000000E+00  0.00000000000E+00 -0.22685189236E+03  0.21015227984E+04  0.20892429947E+04 0.  0.
        1    1    3    3  502    0  0.14660576254E+03 -0.36845596340E+03  0.85868129453E+03  0.94582588894E+03  0.50400001928E-02 0. -1.
       -1    1    3    3    0  502 -0.14660576254E+03  0.36845596340E+03 -0.10855331869E+04  0.11556969094E+04  0.50400001928E-02 0.  1.
</event>
<event>
 5   0  0.4128678E-05  0.1956329E+04  0.7818609E-02  0.8627315E-01
        1   -1    0    0  501    0  0.00000000000E+00  0.00000000000E+00  0.14813274461E+04  0.14813274461E+04  0.50400001928E-02 0.  1.
       -1   -1    0    0    0  501  0.00000000000E+00  0.00000000000E+00 -0.64591122602E+03  0.64591122604E+03  0.50400001928E-02 0. -1.
    10030    2    1    2    0    0  0.00000000000E+00  0.00000000000E+00  0.83541622008E+03  0.21272386722E+04  0.19563292431E+04 0.  0.
        5    1    3    3  502    0  0.84545078509E+03 -0.37835612269E+03  0.75847988146E+02  0.92936289623E+03  0.46999998093E+01 0. -1.
       -5    1    3    3    0  502 -0.84545078509E+03  0.37835612269E+03  0.75956823194E+03  0.11978757759E+04  0.46999998093E+01 0.  1.
</event>
<event>
 5   0  0.4200061E-05  0.2106189E+04  0.7818609E-02  0.8558522E-01
       -1   -1    0    0    0  501  0.00000000000E+00  0.00000000000E+00  0.11877234098E+04  0.11877234098E+04  0.50400001928E-02 0. -1.
        1   -1    0    0  501    0  0.00000000000E+00  0.00000000000E+00 -0.93372588702E+03  0.93372588704E+03  0.50400001928E-02 0.  1.
    10030    2    1    2    0    0  0.00000000000E+00  0.00000000000E+00  0.25399752279E+03  0.21214492969E+04  0.21061890650E+04 0.  0.
        4    1    3    3  502    0  0.85690270077E+03  0.49233351257E+03 -0.23941153370E+03  0.10168549658E+04  0.12699999809E+01 0.  1.
       -4    1    3    3    0  502 -0.85690270077E+03 -0.49233351257E+03  0.49340905649E+03  0.11045943310E+04  0.12699999809E+01 0. -1.
</event>
<event>
 5   0  0.4050368E-05  0.2105358E+04  0.7818609E-02  0.8558887E-01
       -1   -1    0    0    0  501  0.00000000000E+00  0.00000000000E+00  0.10106411216E+04  0.10106411216E+04  0.50400001928E-02 0. -1.
        1   -1    0    0  501    0  0.00000000000E+00  0.00000000000E+00 -0.10964651120E+04  0.10964651121E+04  0.50400001928E-02 0.  1.
    10030    2    1    2    0    0  0.00000000000E+00  0.00000000000E+00 -0.85823990427E+02  0.21071062337E+04  0.21053576710E+04 0.  0.
        2    1    3    3  502    0 -0.60725440059E+03  0.83813967687E+03  0.14933268945E+03  0.10457228491E+04  0.25500000920E-02 0. -1.
       -2    1    3    3    0  502  0.60725440059E+03 -0.83813967687E+03 -0.23515667987E+03  0.10613833846E+04  0.25500000920E-02 0.  1.
</event>
<event>
 5   0  0.9012466E-05  0.2093191E+04  0.7818609E-02  0.8564249E-01
       -2   -1    0    0    0  501  0.00000000000E+00  0.00000000000E+00  0.10893799718E+04  0.10893799718E+04  0.25500000920E-02 0.  1.
        2   -1    0    0  501    0  0.00000000000E+00  0.00000000000E+00 -0.10054913672E+04  0.10054913672E+04  0.25500000920E-02 0. -1.
    10030    2    1    2    0    0  0.00000000000E+00  0.00000000000E+00  0.83888604511E+02  0.20948713390E+04  0.20931910159E+04 0.  0.
        2    1    3    3  502    0 -0.82252697803E+03 -0.41051554093E+03  0.54263434727E+03  0.10674856785E+04  0.25500000920E-02 0.  1.
       -2    1    3    3    0  502  0.82252697803E+03  0.41051554093E+03 -0.45874574276E+03  0.10273856605E+04  0.25500000920E-02 0. -1.
</event>
<event>
 5   0  0.8872777E-05  0.2072578E+04  0.7818609E-02  0.8573420E-01
        2   -1    0    0  501    0  0.00000000000E+00  0.00000000000E+00  0.27254885818E+04  0.27254885818E+04  0.25500000920E-02 0. -1.
       -2   -1    0    0    0  501  0.00000000000E+00  0.00000000000E+00 -0.39401940955E+03  0.39401940956E+03  0.25500000920E-02 0.  1.
    10030    2    1    2    0    0  0.00000000000E+00  0.00000000000E+00  0.23314691723E+04  0.31195079914E+04  0.20725784924E+04 0.  0.
        3    1    3    3  502    0  0.70122720620E+03  0.22483962351E+03  0.68304222385E+02  0.73955251877E+03  0.10100000352E+00 0.  1.
       -3    1    3    3    0  502 -0.70122720620E+03 -0.22483962351E+03  0.22631649499E+04  0.23799554726E+04  0.10100000352E+00 0. -1.
</event>
<event>
 5   0  0.8547605E-05  0.2081345E+04  0.7818609E-02  0.8569506E-01
       -2   -1    0    0    0  501  0.00000000000E+00  0.00000000000E+00  0.55173932363E+03  0.55173932364E+03  0.25500000920E-02 0. -1.
        2   -1    0    0  501    0  0.00000000000E+00  0.00000000000E+00 -0.19628813478E+04  0.19628813478E+04  0.25500000920E-02 0.  1.
    10030    2    1    2    0    0  0.00000000000E+00  0.00000000000E+00 -0.14111420242E+04  0.25146206714E+04  0.20813445916E+04 0.  0.
        4    1    3    3  502    0  0.86264198180E+03  0.55628489329E+03 -0.91270506678E+03  0.13735487698E+04  0.12699999809E+01 0. -1.
       -4    1    3    3    0  502 -0.86264198180E+03 -0.55628489329E+03 -0.49843695740E+03  0.11410719016E+04  0.12699999809E+01 0.  1.
</event>
<event>
 5   0  0.4128678E-05  0.2021800E+04  0.7818609E-02  0.8596496E-01
        1   -1    0    0  501    0  0.00000000000E+00  0.00000000000E+00  0.14101370046E+04  0.14101370047E+04  0.50400001928E-02 0.  1.
       -1   -1    0    0    0  501  0.00000000000E+00  0.00000000000E+00 -0.72469501204E+03  0.72469501206E+03  0.50400001928E-02 0. -1.
    10030    2    1    2    0    0  0.00000000000E+00  0.00000000000E+00  0.68544199261E+03  0.21348320167E+04  0.20218004388E+04 0.  0.
        5    1    3    3  502    0  0.51932322889E+03 -0.18558070671E+03 -0.55185069834E+03  0.78019106508E+03  0.46999998093E+01 0. -1.
       -5    1    3    3    0  502 -0.51932322889E+03  0.18558070671E+03  0.12372926909E+04  0.13546409516E+04  0.46999998093E+01 0.  1.
</event>
<event>
 5   0  0.8858590E-05  0.2109389E+04  0.7818609E-02  0.8557119E-01
       -2   -1    0    0    0  501  0.00000000000E+00  0.00000000000E+00  0.73333487351E+03  0.73333487351E+03  0.25500000920E-02 0.  1.
        2   -1    0    0  501    0  0.00000000000E+00  0.00000000000E+00 -0.15168789924E+04  0.15168789924E+04  0.25500000920E-02 0. -1.
    10030    2    1    2    0    0  0.00000000000E+00  0.00000000000E+00 -0.78354411890E+03  0.22502138659E+04  0.21093887873E+04 0.  0.
        1    1    3    3  502    0 -0.58526701198E+02  0.15636804635E+03 -0.15026919101E+04  0.15119389265E+04  0.50400001928E-02 0. -1.
       -1    1    3    3    0  502  0.58526701198E+02 -0.15636804635E+03  0.71914779118E+03  0.73827493947E+03  0.50400001928E-02 0.  1.
</event>
<event>
 5   0  0.9086985E-05  0.2092342E+04  0.7818609E-02  0.8564624E-01
        2   -1    0    0  501    0  0.00000000000E+00  0.00000000000E+00  0.11444579677E+04  0.11444579677E+04  0.25500000920E-02 0.  1.
       -2   -1    0    0    0  501  0.00000000000E+00  0.00000000000E+00 -0.95632504200E+03  0.95632504200E+03  0.25500000920E-02 0. -1.
    10030    2    1    2    0    0  0.00000000000E+00  0.00000000000E+00  0.18813292574E+03  0.21007830097E+04  0.20923420505E+04 0.  0.
        5    1    3    3  502    0  0.69128754099E+02 -0.11592420555E+03 -0.94753593636E+03  0.95711213907E+03  0.46999998093E+01 0. -1.
       -5    1    3    3    0  502 -0.69128754099E+02  0.11592420555E+03  0.11356688621E+04  0.11436708707E+04  0.46999998093E+01 0.  1.
</event>
<event>
 5   0  0.4200061E-05  0.2075766E+04  0.7818609E-02  0.8571994E-01
        1   -1    0    0  501    0  0.00000000000E+00  0.00000000000E+00  0.77866430465E+03  0.77866430467E+03  0.50400001928E-02 0. -1.
       -1   -1    0    0    0  501  0.00000000000E+00  0.00000000000E+00 -0.13833962628E+04  0.13833962628E+04  0.50400001928E-02 0.  1.
    10030    2    1    2    0    0  0.00000000000E+00  0.00000000000E+00 -0.60473195815E+03  0.21620605675E+04  0.20757661613E+04 0.  0.
        4    1    3    3  502    0 -0.30156418698E+03 -0.19431816755E+03  0.71203090157E+03  0.79730177900E+03  0.12699999809E+01 0. -1.
       -4    1    3    3    0  502  0.30156418698E+03  0.19431816755E+03 -0.13167628597E+04  0.13647587885E+04  0.12699999809E+01 0.  1.
</event>
<event>
 5   0  0.4050368E-05  0.2103195E+04  0.7818609E-02  0.8559837E-01
       -1   -1    0    0    0  501  0.00000000000E+00  0.00000000000E+00  0.51672506700E+03  0.51672506703E+03  0.50400001928E-02 0. -1.
        1   -1    0    0  501    0  0.00000000000E+00  0.00000000000E+00 -0.21401261922E+04  0.21401261922E+04  0.50400001928E-02 0.  1.
    10030    2    1    2    0    0  0.00000000000E+00  0.00000000000E+00 -0.16234011252E+04  0.26568512593E+04  0.21031945703E+04 0.  0.
        2    1    3    3  502    0 -0.86960026100E+03  0.22238246498E+03 -0.11956384946E+03  0.90551316322E+03  0.25500000920E-02 0. -1.
       -2    1    3    3    0  502  0.86960026100E+03 -0.22238246498E+03 -0.15038372758E+04  0.17513380961E+04  0.25500000920E-02 0.  1.
</event>
<event>
 5   0  0.4050368E-05  0.2127082E+04  0.7818609E-02  0.8549407E-01
        1   -1    0    0  501    0  0.00000000000E+00  0.00000000000E+00  0.11284924199E+04  0.11284924199E+04  0.50400001928E-02 0.  1.
       -1   -1    0    0    0  501  0.00000000000E+00  0.00000000000E+00 -0.10023276209E+04  0.10023276209E+04  0.50400001928E-02 0. -1.
    10030    2    1    2    0    0  0.00000000000E+00  0.00000000000E+00  0.12616479899E+03  0.21308200408E+04  0.21270816839E+04 0.  0.
        2    1    3    3  502    0  0.49476570586E+03  0.13035617446E+03  0.99710150377E+03  0.11207128288E+04  0.25500000920E-02 0.  1.
       -2    1    3    3    0  502 -0.49476570586E+03 -0.13035617446E+03 -0.87093670478E+03  0.10101072120E+04  0.25500000920E-02 0. -1.
</event>
<event>
 5   0  0.4174093E-05  0.2103726E+04  0.7818609E-02  0.8559604E-01
        1   -1    0    0  501    0  0.00000000000E+00  0.00000000000E+00  0.14949535870E+04  0.14949535870E+04  0.50400001928E-02 0.  1.
       -1   -1    0    0    0  501  0.00000000000E+00  0.00000000000E+00 -0.74010073418E+03  0.74010073420E+03  0.50400001928E-02 0. -1.
    10030    2    1    2    0    0  0.00000000000E+00  0.00000000000E+00  0.75485285281E+03  0.22350543212E+04  0.21037264531E+04 0.  0.
        3    1    3    3  502    0 -0.13804102491E+03  0.94746679444E+03  0.84012203022E+03  0.12737949941E+04  0.10100000352E+00 0.  1.
       -3    1    3    3    0  502  0.13804102491E+03 -0.94746679444E+03 -0.85269177409E+02  0.96125932711E+03  0.10100000352E+00 0. -1.
</event>
<event>
 5   0  0.4050368E-05  0.2095944E+04  0.7818609E-02  0.8563032E-01
        1   -1    0    0  501    0  0.00000000000E+00  0.00000000000E+00  0.17079094314E+04  0.17079094314E+04  0.50400001928E-02 0.  1.
       -1   -1    0    0    0  501  0.00000000000E+00  0.00000000000E+00 -0.64303478582E+03  0.64303478583E+03  0.50400001928E-02 0. -1.
    10030    2    1    2    0    0  0.00000000000E+00  0.00000000000E+00  0.10648746456E+04  0.23509442173E+04  0.20959438690E+04 0.  0.
        2    1    3    3  502    0  0.34842656285E+03  0.90905280695E+03  0.96753168104E+03  0.13725507748E+04  0.25500000920E-02 0. -1.
       -2    1    3    3    0  502 -0.34842656285E+03 -0.90905280695E+03  0.97342964559E+02  0.97839344248E+03  0.25500000920E-02 0.  1.
</event>
<event>
 5   0  0.9012466E-05  0.2091164E+04  0.7818609E-02  0.8565146E-01
        2   -1    0    0  501    0  0.00000000000E+00  0.00000000000E+00  0.11476014485E+04  0.11476014485E+04  0.25500000920E-02 0.  1.
       -2   -1    0    0    0  501  0.00000000000E+00  0.00000000000E+00 -0.95263173666E+03  0.95263173666E+03  0.25500000920E-02 0. -1.
    10030    2    1    2    0    0  0.00000000000E+00  0.00000000000E+00  0.19496971182E+03  0.21002331851E+04  0.20911638490E+04 0.  0.
        2    1    3    3  502    0  0.10493891286E+03  0.10121818297E+04  0.33877110170E+03  0.10725157767E+04  0.25500000920E-02 0. -1.
       -2    1    3    3    0  502 -0.10493891286E+03 -0.10121818297E+04 -0.14380138988E+03  0.10277174085E+04  0.25500000920E-02 0.  1.
</event>
<event>
 5   0  0.9012466E-05  0.1934799E+04  0.7818609E-02  0.8637726E-01
        2   -1    0    0  501    0  0.00000000000E+00  0.00000000000E+00  0.19163941139E+04  0.19163941139E+04  0.25500000920E-02 0.  1.
       -2   -1    0    0    0  501  0.00000000000E+00  0.00000000000E+00 -0.48834534756E+03  0.48834534756E+03  0.25500000920E-02 0. -1.
    10030    2    1    2    0    0  0.00000000000E+00  0.00000000000E+00  0.14280487663E+04  0.24047394615E+04  0.19347993690E+04 0.  0.
        2    1    3    3  502    0  0.55272581909E+03 -0.19079640824E+03 -0.24384910068E+03  0.63353885784E+03  0.25500000920E-02 0. -1.
       -2    1    3    3    0  502 -0.55272581909E+03  0.19079640824E+03  0.16718978670E+04  0.17712006036E+04  0.25500000920E-02 0.  1.
</event>
<event>
 5   0  0.8872777E-05  0.1871672E+04  0.7818609E-02  0.8669087E-01
        2   -1    0    0  501    0  0.00000000000E+00  0.00000000000E+00  0.94048774981E+03  0.94048774981E+03  0.25500000920E-02 0.  1.
       -2   -1    0    0    0  501  0.00000000000E+00  0.00000000000E+00 -0.93120715196E+03  0.93120715196E+03  0.25500000920E-02 0. -1.
    10030    2    1    2    0    0  0.00000000000E+00  0.00000000000E+00  0.92805978531E+01  0.18716949018E+04  0.18716718932E+04 0.  0.
        3    1    3    3  502    0 -0.20570796819E+03  0.29756138452E+03  0.86774439351E+03  0.94012705971E+03  0.10100000352E+00 0.  1.
       -3    1    3    3    0  502  0.20570796819E+03 -0.29756138452E+03 -0.85846379565E+03  0.93156784207E+03  0.10100000352E+00 0. -1.
</event>
<event>
 5   0  0.4182977E-05  0.2097973E+04  0.7818609E-02  0.8562137E-01
        1   -1    0    0  501    0  0.00000000000E+00  0.00000000000E+00  0.97770528419E+03  0.97770528420E+03  0.50400001928E-02 0. -1.
       -1   -1    0    0    0  501  0.00000000000E+00  0.00000000000E+00 -0.11254641970E+04  0.11254641970E+04  0.50400001928E-02 0.  1.
    10030    2    1    2    0    0  0.00000000000E+00  0.00000000000E+00 -0.14775891283E+03  0.21031694812E+04  0.20979726334E+04 0.  0.
        1    1    3    3  502    0  0.56108172057E+02 -0.99021310357E+03 -0.41634267000E+03  0.10756446143E+04  0.50400001928E-02 0.  1.
       -1    1    3    3    0  502 -0.56108172057E+02  0.99021310357E+03  0.26858375717E+03  0.10275248669E+04  0.50400001928E-02 0. -1.
</event>
<event>
 5   0  0.4050368E-05  0.2117432E+04  0.7818609E-02  0.8553603E-01
       -1   -1    0    0    0  501  0.00000000000E+00  0.00000000000E+00  0.90228796928E+03  0.90228796929E+03  0.50400001928E-02 0. -1.
        1   -1    0    0  501    0  0.00000000000E+00  0.00000000000E+00 -0.12422635061E+04  0.12422635061E+04  0.50400001928E-02 0.  1.
    10030    2    1    2    0    0  0.00000000000E+00  0.00000000000E+00 -0.33997553679E+03  0.21445514754E+04  0.21174318560E+04 0.  0.
        2    1    3    3  502    0  0.45350094915E+03  0.62817656747E+03 -0.90076245635E+03  0.11881253779E+04  0.25500000920E-02 0.  1.
       -2    1    3    3    0  502 -0.45350094915E+03 -0.62817656747E+03  0.56078691956E+03  0.95642609749E+03  0.25500000920E-02 0. -1.
</event>
<event>
 5   0  0.4050368E-05  0.2131865E+04  0.7818609E-02  0.8547335E-01
       -1   -1    0    0    0  501  0.00000000000E+00  0.00000000000E+00  0.18703897176E+04  0.18703897176E+04  0.50400001928E-02 0.  1.
        1   -1    0    0  501    0  0.00000000000E+00  0.00000000000E+00 -0.60747330062E+03  0.60747330064E+03  0.50400001928E-02 0. -1.
    10030    2    1    2    0    0  0.00000000000E+00  0.00000000000E+00  0.12629164170E+04  0.24778630183E+04  0.21318647380E+04 0.  0.
        2    1    3    3  502    0 -0.67475581259E+03 -0.48264125312E+03  0.14093943874E+04  0.16354297677E+04  0.25500000920E-02 0.  1.
       -2    1    3    3    0  502  0.67475581259E+03  0.48264125312E+03 -0.14647797040E+03  0.84243325056E+03  0.25500000920E-02 0. -1.
</event>
<event>
 5   0  0.8872777E-05  0.2104313E+04  0.7818609E-02  0.8559346E-01
        2   -1    0    0  501    0  0.00000000000E+00  0.00000000000E+00  0.10078296466E+04  0.10078296466E+04  0.25500000920E-02 0.  1.
       -2   -1    0    0    0  501  0.00000000000E+00  0.00000000000E+00 -0.10984329317E+04  0.10984329317E+04  0.25500000920E-02 0. -1.
    10030    2    1    2    0    0  0.00000000000E+00  0.00000000000E+00 -0.90603285098E+02  0.21062625784E+04  0.21043129743E+04 0.  0.
        3    1    3    3  502    0 -0.60005809691E+03  0.81803085996E+03 -0.32446693863E+03  0.10651399025E+04  0.10100000352E+00 0.  1.
       -3    1    3    3    0  502  0.60005809691E+03 -0.81803085996E+03  0.23386365353E+03  0.10411226758E+04  0.10100000352E+00 0. -1.
</event>
<event>
 5   0  0.9012466E-05  0.2148953E+04  0.7818609E-02  0.8539981E-01
       -2   -1    0    0    0  501  0.00000000000E+00  0.00000000000E+00  0.12446045543E+04  0.12446045543E+04  0.25500000920E-02 0. -1.
        2   -1    0    0  501    0  0.00000000000E+00  0.00000000000E+00 -0.92760371681E+03  0.92760371681E+03  0.25500000920E-02 0.  1.
    10030    2    1    2    0    0  0.00000000000E+00  0.00000000000E+00  0.31700083752E+03  0.21722082711E+04  0.21489530572E+04 0.  0.
        2    1    3    3  502    0  0.10737258856E+04 -0.40143461593E+02  0.15952914045E+03  0.10862542619E+04  0.25500000920E-02 0.  1.
       -2    1    3    3    0  502 -0.10737258856E+04  0.40143461593E+02  0.15747169707E+03  0.10859540093E+04  0.25500000920E-02 0. -1.
</event>
<event>
 5   0  0.9012466E-05  0.2110981E+04  0.7818609E-02  0.8556422E-01
        2   -1    0    0  501    0  0.00000000000E+00  0.00000000000E+00  0.15019987103E+04  0.15019987103E+04  0.25500000920E-02 0. -1.
       -2   -1    0    0    0  501  0.00000000000E+00  0.00000000000E+00 -0.74171828223E+03  0.74171828224E+03  0.25500000920E-02 0.  1.
    10030    2    1    2    0    0  0.00000000000E+00  0.00000000000E+00  0.76028042811E+03  0.22437169926E+04  0.21109807231E+04 0.  0.
        2    1    3    3  502    0 -0.74609020623E+03 -0.16026476594E+03 -0.39490519908E+03  0.85923542018E+03  0.25500000920E-02 0.  1.
       -2    1    3    3    0  502  0.74609020623E+03  0.16026476594E+03  0.11551856272E+04  0.13844815724E+04  0.25500000920E-02 0. -1.
</event>
<event>
 5   0  0.4200061E-05  0.2049271E+04  0.7818609E-02  0.8583925E-01
       -1   -1    0    0    0  501  0.00000000000E+00  0.00000000000E+00  0.63599670241E+03  0.63599670243E+03  0.50400001928E-02 0. -1.
        1   -1    0    0  501    0  0.00000000000E+00  0.00000000000E+00 -0.16507604450E+04  0.16507604450E+04  0.50400001928E-02 0.  1.
    10030    2    1    2    0    0  0.00000000000E+00  0.00000000000E+00 -0.10147637426E+04  0.22867571474E+04  0.20492712846E+04 0.  0.
        4    1    3    3  502    0  0.31324677086E+03  0.94928355988E+03 -0.25633492985E+03  0.10319748183E+04  0.12699999809E+01 0. -1.
       -4    1    3    3    0  502 -0.31324677086E+03 -0.94928355988E+03 -0.75842881274E+03  0.12547823291E+04  0.12699999809E+01 0.  1.
</event>
<event>
 5   0  0.3176125E-05  0.2165704E+04  0.7818609E-02  0.8532840E-01
        3   -1    0    0  501    0  0.00000000000E+00  0.00000000000E+00  0.76596088881E+03  0.76596089547E+03  0.10100000352E+00 0.  1.
       -3   -1    0    0    0  501  0.00000000000E+00  0.00000000000E+00 -0.15308466089E+04  0.15308466122E+04  0.10100000352E+00 0. -1.
    10030    2    1    2    0    0  0.00000000000E+00  0.00000000000E+00 -0.76488572008E+03  0.22968075077E+04  0.21657041725E+04 0.  0.
        2    1    3    3  502    0 -0.33945064644E+03  0.76535543877E+01 -0.14729315275E+04  0.15115596591E+04  0.25500000920E-02 0. -1.
       -2    1    3    3    0  502  0.33945064644E+03 -0.76535543877E+01  0.70804580744E+03  0.78524784859E+03  0.25500000920E-02 0.  1.
</event>
<event>
 5   0  0.8858590E-05  0.2097261E+04  0.7818609E-02  0.8562451E-01
        2   -1    0    0  501    0  0.00000000000E+00  0.00000000000E+00  0.66845101289E+03  0.66845101290E+03  0.25500000920E-02 0. -1.
       -2   -1    0    0    0  501  0.00000000000E+00  0.00000000000E+00 -0.16450364469E+04  0.16450364469E+04  0.25500000920E-02 0.  1.
    10030    2    1    2    0    0  0.00000000000E+00  0.00000000000E+00 -0.97658543404E+03  0.23134874598E+04  0.20972613373E+04 0.  0.
        1    1    3    3  502    0 -0.11194063788E+02 -0.65288544187E+03 -0.13934000046E+04  0.15388139199E+04  0.50400001928E-02 0.  1.
       -1    1    3    3    0  502  0.11194063788E+02  0.65288544187E+03  0.41681457052E+03  0.77467353995E+03  0.50400001928E-02 0. -1.
</event>
<event>
 5   0  0.8872777E-05  0.1947313E+04  0.7818609E-02  0.8631657E-01
        2   -1    0    0  501    0  0.00000000000E+00  0.00000000000E+00  0.31054384117E+04  0.31054384117E+04  0.25500000920E-02 0.  1.
       -2   -1    0    0    0  501  0.00000000000E+00  0.00000000000E+00 -0.30527321322E+03  0.30527321323E+03  0.25500000920E-02 0. -1.
    10030    2    1    2    0    0  0.00000000000E+00  0.00000000000E+00  0.28001651985E+04  0.34107116249E+04  0.19473131873E+04 0.  0.
        3    1    3    3  502    0  0.43449035805E+03 -0.10668528105E+03 -0.11457534615E+03  0.46183453810E+03  0.10100000352E+00 0. -1.
       -3    1    3    3    0  502 -0.43449035805E+03  0.10668528105E+03  0.29147405447E+04  0.29488770868E+04  0.10100000352E+00 0.  1.
</event>
<event>
 5   0  0.4050368E-05  0.2084549E+04  0.7818609E-02  0.8568081E-01
        1   -1    0    0  501    0  0.00000000000E+00  0.00000000000E+00  0.16868416117E+04  0.16868416117E+04  0.50400001928E-02 0. -1.
       -1   -1    0    0    0  501  0.00000000000E+00  0.00000000000E+00 -0.64400574384E+03  0.64400574386E+03  0.50400001928E-02 0.  1.
    10030    2    1    2    0    0  0.00000000000E+00  0.00000000000E+00  0.10428358678E+04  0.23308473555E+04  0.20845485717E+04 0.  0.
        2    1    3    3  502    0  0.71926239628E+03  0.16206215043E+03 -0.30233123445E+03  0.79687308314E+03  0.25500000920E-02 0.  1.
       -2    1    3    3    0  502 -0.71926239628E+03 -0.16206215043E+03  0.13451671023E+04  0.15339742724E+04  0.25500000920E-02 0. -1.
</event>
<event>
 5   0  0.8872777E-05  0.2146323E+04  0.7818609E-02  0.8541108E-01
        2   -1    0    0  501    0  0.00000000000E+00  0.00000000000E+00  0.10038312051E+04  0.10038312051E+04  0.25500000920E-02 0.  1.
       -2   -1    0    0    0  501  0.00000000000E+00  0.00000000000E+00 -0.11472802146E+04  0.11472802146E+04  0.25500000920E-02 0. -1.
    10030    2    1    2    0    0  0.00000000000E+00  0.00000000000E+00 -0.14344900947E+03  0.21511114198E+04  0.21463230703E+04 0.  0.
        3    1    3    3  502    0  0.66516192448E+03  0.63648456593E+03  0.48097899927E+03  0.10386981257E+04  0.10100000352E+00 0.  1.
       -3    1    3    3    0  502 -0.66516192448E+03 -0.63648456593E+03 -0.62442800873E+03  0.11124132940E+04  0.10100000352E+00 0. -1.
</event>
<event>
 5   0  0.9012466E-05  0.2083803E+04  0.7818609E-02  0.8568412E-01
       -2   -1    0    0    0  501  0.00000000000E+00  0.00000000000E+00  0.57878280258E+03  0.57878280258E+03  0.25500000920E-02 0.  1.
        2   -1    0    0  501    0  0.00000000000E+00  0.00000000000E+00 -0.18755886362E+04  0.18755886362E+04  0.25500000920E-02 0. -1.
    10030    2    1    2    0    0  0.00000000000E+00  0.00000000000E+00 -0.12968058337E+04  0.24543714388E+04  0.20838027233E+04 0.  0.
        2    1    3    3  502    0  0.11914785430E+03  0.48762451672E+03  0.42696857700E+03  0.65899624145E+03  0.25500000920E-02 0.  1.
       -2    1    3    3    0  502 -0.11914785430E+03 -0.48762451672E+03 -0.17237744107E+04  0.17953751974E+04  0.25500000920E-02 0. -1.
</event>
<event>
 5   0  0.8872777E-05  0.2089054E+04  0.7818609E-02  0.8566081E-01
       -2   -1    0    0    0  501  0.00000000000E+00  0.00000000000E+00  0.60581672330E+03  0.60581672331E+03  0.25500000920E-02 0.  1.
        2   -1    0    0  501    0  0.00000000000E+00  0.00000000000E+00 -0.18009350109E+04  0.18009350109E+04  0.25500000920E-02 0. -1.
    10030    2    1    2    0    0  0.00000000000E+00  0.00000000000E+00 -0.11951182876E+04  0.24067517342E+04  0.20890538980E+04 0.  0.
        3    1    3    3  502    0  0.78627104080E+03  0.33463012438E+03 -0.12896087416E+04  0.15470262397E+04  0.10100000352E+00 0. -1.
       -3    1    3    3    0  502 -0.78627104080E+03 -0.33463012438E+03  0.94490454043E+02  0.85972549447E+03  0.10100000352E+00 0.  1.
</event>
<event>
 5   0  0.4174093E-05  0.1820864E+04  0.7818609E-02  0.8695282E-01
        1   -1    0    0  501    0  0.00000000000E+00  0.00000000000E+00  0.65004697704E+03  0.65004697706E+03  0.50400001928E-02 0.  1.
       -1   -1    0    0    0  501  0.00000000000E+00  0.00000000000E+00 -0.12751182596E+04  0.12751182596E+04  0.50400001928E-02 0. -1.
    10030    2    1    2    0    0  0.00000000000E+00  0.00000000000E+00 -0.62507128254E+03  0.19251652366E+04  0.18208643772E+04 0.  0.
        3    1    3    3  502    0 -0.42591215031E+03 -0.34320397549E+03 -0.10820274777E+04  0.12124246786E+04  0.10100000352E+00 0. -1.
       -3    1    3    3    0  502  0.42591215031E+03  0.34320397549E+03  0.45695619517E+03  0.71274055804E+03  0.10100000352E+00 0.  1.
</event>
<event>
 5   0  0.4128678E-05  0.2076792E+04  0.7818609E-02  0.8571536E-01
        1   -1    0    0  501    0  0.00000000000E+00  0.00000000000E+00  0.79218746012E+03  0.79218746014E+03  0.50400001928E-02 0.  1.
       -1   -1    0    0    0  501  0.00000000000E+00  0.00000000000E+00 -0.13611255192E+04  0.13611255192E+04  0.50400001928E-02 0. -1.
    10030    2    1    2    0    0  0.00000000000E+00  0.00000000000E+00 -0.56893805906E+03  0.21533129793E+04  0.20767923035E+04 0.  0.
        5    1    3    3  502    0 -0.74881428726E+03 -0.12185752684E+03  0.45064820696E+03  0.88242732850E+03  0.46999998093E+01 0.  1.
       -5    1    3    3    0  502  0.74881428726E+03  0.12185752684E+03 -0.10195862660E+04  0.12708856508E+04  0.46999998093E+01 0. -1.
</event>
<event>
 5   0  0.8858590E-05  0.2098964E+04  0.7818609E-02  0.8561700E-01
        2   -1    0    0  501    0  0.00000000000E+00  0.00000000000E+00  0.20794177239E+04  0.20794177239E+04  0.25500000920E-02 0.  1.
       -2   -1    0    0    0  501  0.00000000000E+00  0.00000000000E+00 -0.52967334725E+03  0.52967334726E+03  0.25500000920E-02 0. -1.
    10030    2    1    2    0    0  0.00000000000E+00  0.00000000000E+00  0.15497443767E+04  0.26090910712E+04  0.20989636930E+04 0.  0.
        1    1    3    3  502    0 -0.19209220649E+03  0.69444473309E+03  0.17233834855E+04  0.18679409897E+04  0.50400001928E-02 0. -1.
       -1    1    3    3    0  502  0.19209220649E+03 -0.69444473309E+03 -0.17363910880E+03  0.74115008146E+03  0.50400001928E-02 0.  1.
</event>
<event>
 5   0  0.4050368E-05  0.2109341E+04  0.7818609E-02  0.8557140E-01
       -1   -1    0    0    0  501  0.00000000000E+00  0.00000000000E+00  0.55628813855E+03  0.55628813857E+03  0.50400001928E-02 0. -1.
        1   -1    0    0  501    0  0.00000000000E+00  0.00000000000E+00 -0.19995569514E+04  0.19995569514E+04  0.50400001928E-02 0.  1.
    10030    2    1    2    0    0  0.00000000000E+00  0.00000000000E+00 -0.14432688129E+04  0.25558450900E+04  0.21093409534E+04 0.  0.
        2    1    3    3  502    0  0.49546435791E+03  0.78196873266E+03 -0.13339460232E+04  0.16236908639E+04  0.25500000920E-02 0.  1.
       -2    1    3    3    0  502 -0.49546435791E+03 -0.78196873266E+03 -0.10932278968E+03  0.93215422606E+03  0.25500000920E-02 0. -1.
</event>
<event>
 5   0  0.9012466E-05  0.2107602E+04  0.7818609E-02  0.8557902E-01
       -2   -1    0    0    0  501  0.00000000000E+00  0.00000000000E+00  0.70944377398E+03  0.70944377398E+03  0.25500000920E-02 0. -1.
        2   -1    0    0  501    0  0.00000000000E+00  0.00000000000E+00 -0.15653058741E+04  0.15653058741E+04  0.25500000920E-02 0.  1.
    10030    2    1    2    0    0  0.00000000000E+00  0.00000000000E+00 -0.85586210015E+03  0.22747496481E+04  0.21076019613E+04 0.  0.
        2    1    3    3  502    0 -0.73476025593E+03  0.70614665543E+03 -0.13836124825E+03  0.10284257716E+04  0.25500000920E-02 0.  1.
       -2    1    3    3    0  502  0.73476025593E+03 -0.70614665543E+03 -0.71750085190E+03  0.12463238765E+04  0.25500000920E-02 0. -1.
</event>
<event>
 5   0  0.4182977E-05  0.2086984E+04  0.7818609E-02  0.8566999E-01
        1   -1    0    0  501    0  0.00000000000E+00  0.00000000000E+00  0.11714852356E+04  0.11714852356E+04  0.50400001928E-02 0.  1.
       -1   -1    0    0    0  501  0.00000000000E+00  0.00000000000E+00 -0.92948266904E+03  0.92948266906E+03  0.50400001928E-02 0. -1.
    10030    2    1    2    0    0  0.00000000000E+00  0.00000000000E+00  0.24200256658E+03  0.21009679047E+04  0.20869836833E+04 0.  0.
        1    1    3    3  502    0  0.86596164250E+03  0.27005390483E+03  0.64026423593E+03  0.11102958928E+04  0.50400001928E-02 0.  1.
       -1    1    3    3    0  502 -0.86596164250E+03 -0.27005390483E+03 -0.39826166935E+03  0.99067201186E+03  0.50400001928E-02 0. -1.
</event>
<event>
 5   0  0.8547605E-05  0.2092254E+04  0.7818609E-02  0.8564663E-01
       -2   -1    0    0    0  501  0.00000000000E+00  0.00000000000E+00  0.14979059879E+04  0.14979059879E+04  0.25500000920E-02 0.  1.
        2   -1    0    0  501    0  0.00000000000E+00  0.00000000000E+00 -0.73060775948E+03  0.73060775949E+03  0.25500000920E-02 0. -1.
    10030    2    1    2    0    0  0.00000000000E+00  0.00000000000E+00  0.76729822844E+03  0.22285137474E+04  0.20922540360E+04 0.  0.
        4    1    3    3  502    0 -0.40555809165E+02  0.85251455999E+03 -0.26068973392E+03  0.89240495232E+03  0.12699999809E+01 0. -1.
       -4    1    3    3    0  502  0.40555809165E+02 -0.85251455999E+03  0.10279879624E+04  0.13361087951E+04  0.12699999809E+01 0.  1.
</event>
<event>
 5   0  0.4200061E-05  0.1980531E+04  0.7818609E-02  0.8615778E-01
       -1   -1    0    0    0  501  0.00000000000E+00  0.00000000000E+00  0.11411002293E+04  0.11411002293E+04  0.50400001928E-02 0. -1.
        1   -1    0    0  501    0  0.00000000000E+00  0.00000000000E+00 -0.85936838891E+03  0.85936838893E+03  0.50400001928E-02 0.  1.
    10030    2    1    2    0    0  0.00000000000E+00  0.00000000000E+00  0.28173184042E+03  0.20004686183E+04  0.19805307023E+04 0.  0.
        4    1    3    3  502    0  0.27020951375E+03 -0.54921390551E+03 -0.64541444449E+03  0.88950014805E+03  0.12699999809E+01 0.  1.
       -4    1    3    3    0  502 -0.27020951375E+03  0.54921390551E+03  0.92714628490E+03  0.11109684702E+04  0.12699999809E+01 0. -1.
</event>
<event>
 5   0  0.9086985E-05  0.2187315E+04  0.7818609E-02  0.8523727E-01
       -2   -1    0    0    0  501  0.00000000000E+00  0.00000000000E+00  0.61492586869E+03  0.61492586870E+03  0.25500000920E-02 0. -1.
        2   -1    0    0  501    0  0.00000000000E+00  0.00000000000E+00 -0.19450903551E+04  0.19450903551E+04  0.25500000920E-02 0.  1.
    10030    2    1    2    0    0  0.00000000000E+00  0.00000000000E+00 -0.13301644864E+04  0.25600162238E+04  0.21873146790E+04 0.  0.
        5    1    3    3  502    0  0.22649349224E+02 -0.60212615684E+03  0.40311818477E+03  0.72497949120E+03  0.46999998093E+01 0. -1.
       -5    1    3    3    0  502 -0.22649349224E+02  0.60212615684E+03 -0.17332826712E+04  0.18350367326E+04  0.46999998093E+01 0.  1.
</event>
<event>
 5   0  0.4050368E-05  0.1876399E+04  0.7818609E-02  0.8666694E-01
       -1   -1    0    0    0  501  0.00000000000E+00  0.00000000000E+00  0.63988337604E+03  0.63988337606E+03  0.50400001928E-02 0. -1.
        1   -1    0    0  501    0  0.00000000000E+00  0.00000000000E+00 -0.13755915395E+04  0.13755915395E+04  0.50400001928E-02 0.  1.
    10030    2    1    2    0    0  0.00000000000E+00  0.00000000000E+00 -0.73570816349E+03  0.20154749156E+04  0.18763988471E+04 0.  0.
        2    1    3    3  502    0 -0.31827026726E+03 -0.74955930474E+03 -0.86830926462E+03  0.11904184531E+04  0.25500000920E-02 0.  1.
       -2    1    3    3    0  502  0.31827026726E+03  0.74955930474E+03  0.13260110113E+03  0.82505646254E+03  0.25500000920E-02 0. -1.
</event>
<event>
 5   0  0.4128678E-05  0.2084972E+04  0.7818609E-02  0.8567892E-01
        1   -1    0    0  501    0  0.00000000000E+00  0.00000000000E+00  0.68899372610E+03  0.68899372612E+03  0.50400001928E-02 0.  1.
       -1   -1    0    0    0  501  0.00000000000E+00  0.00000000000E+00 -0.15773398641E+04  0.15773398641E+04  0.50400001928E-02 0. -1.
    10030    2    1    2    0    0  0.00000000000E+00  0.00000000000E+00 -0.88834613802E+03  0.22663335902E+04  0.20849722016E+04 0.  0.
        5    1    3    3  502    0 -0.17447765753E+03  0.57624372596E+03  0.48088625787E+03  0.77056665364E+03  0.46999998093E+01 0.  1.
       -5    1    3    3    0  502  0.17447765753E+03 -0.57624372596E+03 -0.13692323959E+04  0.14957669366E+04  0.46999998093E+01 0. -1.
</event>
<event>
 5   0  0.8858590E-05  0.2077231E+04  0.7818609E-02  0.8571340E-01
        2   -1    0    0  501    0  0.00000000000E+00  0.00000000000E+00  0.79744200547E+03  0.79744200547E+03  0.25500000920E-02 0.  1.
       -2   -1    0    0    0  501  0.00000000000E+00  0.00000000000E+00 -0.13527277663E+04  0.13527277663E+04  0.25500000920E-02 0. -1.
    10030    2    1    2    0    0  0.00000000000E+00  0.00000000000E+00 -0.55528576083E+03  0.21501697718E+04  0.20772307939E+04 0.  0.
        1    1    3    3  502    0  0.10013108398E+04  0.26770758744E+03 -0.20873826596E+03  0.10572901276E+04  0.50400001928E-02 0. -1.
       -1    1    3    3    0  502 -0.10013108398E+04 -0.26770758744E+03 -0.34654749487E+03  0.10928796441E+04  0.50400001928E-02 0.  1.
</event>
<event>
 5   0  0.4174093E-05  0.2103531E+04  0.7818609E-02  0.8559690E-01
       -1   -1    0    0    0  501  0.00000000000E+00  0.00000000000E+00  0.12166215528E+04  0.12166215528E+04  0.50400001928E-02 0. -1.
        1   -1    0    0  501    0  0.00000000000E+00  0.00000000000E+00 -0.90924792029E+03  0.90924792031E+03  0.50400001928E-02 0.  1.
    10030    2    1    2    0    0  0.00000000000E+00  0.00000000000E+00  0.30737363253E+03  0.21258694731E+04  0.21035309522E+04 0.  0.
        3    1    3    3  502    0 -0.10610494196E+03  0.35364142191E+03 -0.84160160190E+03  0.91902871583E+03  0.10100000352E+00 0.  1.
       -3    1    3    3    0  502  0.10610494196E+03 -0.35364142191E+03  0.11489752344E+04  0.12068407573E+04  0.10100000352E+00 0. -1.
</event>
<event>
 5   0  0.8858590E-05  0.2113366E+04  0.7818609E-02  0.8555378E-01
        2   -1    0    0  501    0  0.00000000000E+00  0.00000000000E+00  0.15447761491E+04  0.15447761491E+04  0.25500000920E-02 0. -1.
       -2   -1    0    0    0  501  0.00000000000E+00  0.00000000000E+00 -0.72280975413E+03  0.72280975413E+03  0.25500000920E-02 0.  1.
    10030    2    1    2    0    0  0.00000000000E+00  0.00000000000E+00  0.82196639497E+03  0.22675859032E+04  0.21133662896E+04 0.  0.
        1    1    3    3  502    0 -0.35083137342E+03  0.62655956969E+03  0.12427416088E+04  0.14352930897E+04  0.50400001928E-02 0. -1.
       -1    1    3    3    0  502  0.35083137342E+03 -0.62655956969E+03 -0.42077521382E+03  0.83229281358E+03  0.50400001928E-02 0.  1.
</event>
<event>
 5   0  0.4174093E-05  0.2128213E+04  0.7818609E-02  0.8548916E-01
        1   -1    0    0  501    0  0.00000000000E+00  0.00000000000E+00  0.22704172955E+04  0.22704172955E+04  0.50400001928E-02 0.  1.
       -1   -1    0    0    0  501  0.00000000000E+00  0.00000000000E+00 -0.49872882097E+03  0.49872882099E+03  0.50400001928E-02 0. -1.
    10030    2    1    2    0    0  0.00000000000E+00  0.00000000000E+00  0.17716884745E+04  0.27691461165E+04  0.21282129038E+04 0.  0.
        3    1    3    3  502    0  0.42986715193E+03  0.20584775021E+03  0.21237691660E+04  0.21765924159E+04  0.10100000352E+00 0.  1.
       -3    1    3    3    0  502 -0.42986715193E+03 -0.20584775021E+03 -0.35208069144E+03  0.59255370057E+03  0.10100000352E+00 0. -1.
</event>
<event>
 5   0  0.4128678E-05  0.2142438E+04  0.7818609E-02  0.8542776E-01
       -1   -1    0    0    0  501  0.00000000000E+00  0.00000000000E+00  0.15726204098E+04  0.15726204098E+04  0.50400001928E-02 0. -1.
        1   -1    0    0  501    0  0.00000000000E+00  0.00000000000E+00 -0.72968005802E+03  0.72968005803E+03  0.50400001928E-02 0.  1.
    10030    2    1    2    0    0  0.00000000000E+00  0.00000000000E+00  0.84294035182E+03  0.23023004679E+04  0.21424376321E+04 0.  0.
        5    1    3    3  502    0  0.10570830066E+04  0.12285260210E+03  0.55295352729E+03  0.11992901809E+04  0.46999998093E+01 0. -1.
       -5    1    3    3    0  502 -0.10570830066E+04 -0.12285260210E+03  0.28998682452E+03  0.11030102869E+04  0.46999998093E+01 0.  1.
</event>
<event>
 5   0  0.8547605E-05  0.2102379E+04  0.7818609E-02  0.8560196E-01
        2   -1    0    0  501    0  0.00000000000E+00  0.00000000000E+00  0.18699916325E+04  0.18699916325E+04  0.25500000920E-02 0. -1.
       -2   -1    0    0    0  501  0.00000000000E+00  0.00000000000E+00 -0.59091132267E+03  0.59091132268E+03  0.25500000920E-02 0.  1.
    10030    2    1    2    0    0  0.00000000000E+00  0.00000000000E+00  0.12790803098E+04  0.24609029551E+04  0.21023788706E+04 0.  0.
        4    1    3    3  502    0 -0.80841654938E+03  0.20521730260E+03  0.13884488340E+04  0.16197046755E+04  0.12699999809E+01 0. -1.
       -4    1    3    3    0  502  0.80841654938E+03 -0.20521730260E+03 -0.10936852418E+03  0.84119827958E+03  0.12699999809E+01 0.  1.
</event>
<event>
 5   0  0.9012466E-05  0.2114980E+04  0.7818609E-02  0.8554673E-01
        2   -1    0    0  501    0  0.00000000000E+00  0.00000000000E+00  0.10813852769E+04  0.10813852769E+04  0.25500000920E-02 0.  1.
       -2   -1    0    0    0  501  0.00000000000E+00  0.00000000000E+00 -0.10341231540E+04  0.10341231540E+04  0.25500000920E-02 0. -1.
    10030    2    1    2    0    0  0.00000000000E+00  0.00000000000E+00  0.47262122898E+02  0.21155084309E+04  0.21149804285E+04 0.  0.
        2    1    3    3  502    0  0.32436400967E+03  0.78380861407E+00  0.10303975767E+04  0.10802461716E+04  0.25500000920E-02 0.  1.
       -2    1    3    3    0  502 -0.32436400967E+03 -0.78380861407E+00 -0.98313545379E+03  0.10352622594E+04  0.25500000920E-02 0. -1.
</event>
<event>
 5   0  0.4200061E-05  0.2065605E+04  0.7818609E-02  0.8576548E-01
        1   -1    0    0  501    0  0.00000000000E+00  0.00000000000E+00  0.86171325733E+03  0.86171325735E+03  0.50400001928E-02 0.  1.
       -1   -1    0    0    0  501  0.00000000000E+00  0.00000000000E+00 -0.12378606012E+04  0.12378606012E+04  0.50400001928E-02 0. -1.
    10030    2    1    2    0    0  0.00000000000E+00  0.00000000000E+00 -0.37614734387E+03  0.20995738586E+04  0.20656048904E+04 0.  0.
        4    1    3    3  502    0 -0.76521637435E+03 -0.66251646736E+03 -0.39686620312E+03  0.10871929751E+04  0.12699999809E+01 0.  1.
       -4    1    3    3    0  502  0.76521637435E+03  0.66251646736E+03  0.20718859254E+02  0.10123808834E+04  0.12699999809E+01 0. -1.
</event>
<event>
 5   0  0.9086985E-05  0.2046012E+04  0.7818609E-02  0.8585406E-01
       -2   -1    0    0    0  501  0.00000000000E+00  0.00000000000E+00  0.81349758691E+03  0.81349758691E+03  0.25500000920E-02 0.  1.
        2   -1    0    0  501    0  0.00000000000E+00  0.00000000000E+00 -0.12864713285E+04  0.12864713285E+04  0.25500000920E-02 0. -1.
    10030    2    1    2    0    0  0.00000000000E+00  0.00000000000E+00 -0.47297374162E+03  0.20999689154E+04  0.20460120443E+04 0.  0.
        5    1    3    3  502    0  0.37625380935E+03  0.48723991180E+03 -0.10750706175E+04  0.12388577736E+04  0.46999998093E+01 0. -1.
       -5    1    3    3    0  502 -0.37625380935E+03 -0.48723991180E+03  0.60209687584E+03  0.86111114184E+03  0.46999998093E+01 0.  1.
</event>
<event>
 5   0  0.4182977E-05  0.1904373E+04  0.7818609E-02  0.8652683E-01
        1   -1    0    0  501    0  0.00000000000E+00  0.00000000000E+00  0.11613841798E+04  0.11613841798E+04  0.50400001928E-02 0. -1.
       -1   -1    0    0    0  501  0.00000000000E+00  0.00000000000E+00 -0.78067136092E+03  0.78067136093E+03  0.50400001928E-02 0.  1.
    10030    2    1    2    0    0  0.00000000000E+00  0.00000000000E+00  0.38071281885E+03  0.19420555407E+04  0.19043732493E+04 0.  0.
        1    1    3    3  502    0 -0.11572636141E+03  0.80143275778E+03  0.70124061900E+03  0.10711794722E+04  0.50400001928E-02 0. -1.
       -1    1    3    3    0  502  0.11572636141E+03 -0.80143275778E+03 -0.32052780015E+03  0.87087606848E+03  0.50400001928E-02 0.  1.
</event>
<event>
 5   0  0.8547605E-05  0.2082468E+04  0.7818609E-02  0.8569006E-01
        2   -1    0    0  501    0  0.00000000000E+00  0.00000000000E+00  0.85678627636E+03  0.85678627636E+03  0.25500000920E-02 0. -1.
       -2   -1    0    0    0  501  0.00000000000E+00  0.00000000000E+00 -0.12653897684E+04  0.12653897684E+04  0.25500000920E-02 0.  1.
    10030    2    1    2    0    0  0.00000000000E+00  0.00000000000E+00 -0.40860349207E+03  0.21221760448E+04  0.20824683314E+04 0.  0.
        4    1    3    3  502    0 -0.17672178263E+03  0.63022523396E+03 -0.10295279182E+04  0.12199769593E+04  0.12699999809E+01 0.  1.
       -4    1    3    3    0  502  0.17672178263E+03 -0.63022523396E+03  0.62092442614E+03  0.90219908549E+03  0.12699999809E+01 0. -1.
</event>
<event>
 5   0  0.4050368E-05  0.2114452E+04  0.7818609E-02  0.8554904E-01
       -1   -1    0    0    0  501  0.00000000000E+00  0.00000000000E+00  0.11070181681E+04  0.11070181681E+04  0.50400001928E-02 0.  1.
        1   -1    0    0  501    0  0.00000000000E+00  0.00000000000E+00 -0.10096729524E+04  0.10096729525E+04  0.50400001928E-02 0. -1.
    10030    2    1    2    0    0  0.00000000000E+00  0.00000000000E+00  0.97345215668E+02  0.21166911206E+04  0.21144515149E+04 0.  0.
        2    1    3    3  502    0  0.35970625993E+03 -0.80369674111E+03  0.63444986424E+03  0.10852850664E+04  0.25500000920E-02 0.  1.
       -2    1    3    3    0  502 -0.35970625993E+03  0.80369674111E+03 -0.53710464857E+03  0.10314060542E+04  0.25500000920E-02 0. -1.
</event>
<event>
 5   0  0.4050368E-05  0.2120425E+04  0.7818609E-02  0.8552299E-01
        1   -1    0    0  501    0  0.00000000000E+00  0.00000000000E+00  0.21844254517E+04  0.21844254517E+04  0.50400001928E-02 0.  1.
       -1   -1    0    0    0  501  0.00000000000E+00  0.00000000000E+00 -0.51457473710E+03  0.51457473712E+03  0.50400001928E-02 0. -1.
    10030    2    1    2    0    0  0.00000000000E+00  0.00000000000E+00  0.16698507146E+04  0.26990001888E+04  0.21204246297E+04 0.  0.
        2    1    3    3  502    0  0.98808003718E+03 -0.53422507515E+02  0.35041248652E+03  0.10497356976E+04  0.25500000920E-02 0. -1.
       -2    1    3    3    0  502 -0.98808003718E+03  0.53422507515E+02  0.13194382281E+04  0.16492644912E+04  0.25500000920E-02 0.  1.
</event>
<event>
 5   0  0.9012466E-05  0.2081813E+04  0.7818609E-02  0.8569297E-01
        2   -1    0    0  501    0  0.00000000000E+00  0.00000000000E+00  0.13875360254E+04  0.13875360254E+04  0.25500000920E-02 0. -1.
       -2   -1    0    0    0  501  0.00000000000E+00  0.00000000000E+00 -0.78087073257E+03  0.78087073258E+03  0.25500000920E-02 0.  1.
    10030    2    1    2    0    0  0.00000000000E+00  0.00000000000E+00  0.60666529282E+03  0.21684067580E+04  0.20818129336E+04 0.  0.
        2    1    3    3  502    0 -0.37799887786E+03 -0.33740231010E+03 -0.64375356556E+03  0.81923264322E+03  0.25500000920E-02 0.  1.
       -2    1    3    3    0  502  0.37799887786E+03  0.33740231010E+03  0.12504188584E+04  0.13491741148E+04  0.25500000920E-02 0. -1.
</event>
<event>
 5   0  0.4128678E-05  0.2090979E+04  0.7818609E-02  0.8565228E-01
       -1   -1    0    0    0  501  0.00000000000E+00  0.00000000000E+00  0.82429709944E+03  0.82429709945E+03  0.50400001928E-02 0.  1.
        1   -1    0    0  501    0  0.00000000000E+00  0.00000000000E+00 -0.13260362420E+04  0.13260362420E+04  0.50400001928E-02 0. -1.
    10030    2    1    2    0    0  0.00000000000E+00  0.00000000000E+00 -0.50173914259E+03  0.21503333415E+04  0.20909785538E+04 0.  0.
        5    1    3    3  502    0 -0.77879722800E+03  0.45622969429E+03  0.29170044201E+03  0.94856833921E+03  0.46999998093E+01 0.  1.
       -5    1    3    3    0  502  0.77879722800E+03 -0.45622969429E+03 -0.79343958460E+03  0.12017650023E+04  0.46999998093E+01 0. -1.
</event>
<event>
 5   0  0.4200061E-05  0.2120515E+04  0.7818609E-02  0.8552260E-01
       -1   -1    0    0    0  501  0.00000000000E+00  0.00000000000E+00  0.63595427253E+03  0.63595427255E+03  0.50400001928E-02 0. -1.
        1   -1    0    0  501    0  0.00000000000E+00  0.00000000000E+00 -0.17676521509E+04  0.17676521509E+04  0.50400001928E-02 0.  1.
    10030    2    1    2    0    0  0.00000000000E+00  0.00000000000E+00 -0.11316978784E+04  0.24036064235E+04  0.21205149731E+04 0.  0.
        4    1    3    3  502    0 -0.89422609251E+03 -0.56953073277E+03 -0.55249646927E+03  0.11955164246E+04  0.12699999809E+01 0. -1.
       -4    1    3    3    0  502  0.89422609251E+03  0.56953073277E+03 -0.57920140912E+03  0.12080899989E+04  0.12699999809E+01 0.  1.
</event>
<event>
 5   0  0.4128678E-05  0.2095462E+04  0.7818609E-02  0.8563245E-01
        1   -1    0    0  501    0  0.00000000000E+00  0.00000000000E+00  0.71435580378E+03  0.71435580380E+03  0.50400001928E-02 0.  1.
       -1   -1    0    0    0  501  0.00000000000E+00  0.00000000000E+00 -0.15366849971E+04  0.15366849971E+04  0.50400001928E-02 0. -1.
    10030    2    1    2    0    0  0.00000000000E+00  0.00000000000E+00 -0.82232919335E+03  0.22510408009E+04  0.20954616163E+04 0.  0.
        5    1    3    3  502    0 -0.82342900466E+03 -0.60580117292E+03 -0.65774406672E+03  0.12155985086E+04  0.46999998093E+01 0. -1.
       -5    1    3    3    0  502  0.82342900466E+03  0.60580117292E+03 -0.16458512662E+03  0.10354422923E+04  0.46999998093E+01 0.  1.
</event>
<event>
 5   0  0.9012466E-05  0.2104596E+04  0.7818609E-02  0.8559222E-01
       -2   -1    0    0    0  501  0.00000000000E+00  0.00000000000E+00  0.59606615550E+03  0.59606615550E+03  0.25500000920E-02 0.  1.
        2   -1    0    0  501    0  0.00000000000E+00  0.00000000000E+00 -0.18577310923E+04  0.18577310923E+04  0.25500000920E-02 0. -1.
    10030    2    1    2    0    0  0.00000000000E+00  0.00000000000E+00 -0.12616649368E+04  0.24537972478E+04  0.21045955717E+04 0.  0.
        2    1    3    3  502    0  0.79855542145E+03  0.91540087229E+02 -0.14226827082E+04  0.16340429727E+04  0.25500000920E-02 0. -1.
       -2    1    3    3    0  502 -0.79855542145E+03 -0.91540087229E+02  0.16101777140E+03  0.81975427502E+03  0.25500000920E-02 0.  1.
</event>
<event>
 5   0  0.9012466E-05  0.2085192E+04  0.7818609E-02  0.8567794E-01
        2   -1    0    0  501    0  0.00000000000E+00  0.00000000000E+00  0.76610984573E+03  0.76610984573E+03  0.25500000920E-02 0. -1.
       -2   -1    0    0    0  501  0.00000000000E+00  0.00000000000E+00 -0.14188654873E+04  0.14188654873E+04  0.25500000920E-02 0.  1.
    10030    2    1    2    0    0  0.00000000000E+00  0.00000000000E+00 -0.65275564156E+03  0.21849753330E+04  0.20851923840E+04 0.  0.
        2    1    3    3  502    0  0.71851511772E+02 -0.10149687555E+04 -0.88160899868E+02  0.10213209871E+04  0.25500000920E-02 0. -1.
       -2    1    3    3    0  502 -0.71851511772E+02  0.10149687555E+04 -0.56459474169E+03  0.11636543459E+04  0.25500000920E-02 0.  1.
</event>
<event>
 5   0  0.4182977E-05  0.2098435E+04  0.7818609E-02  0.8561933E-01
       -1   -1    0    0    0  501  0.00000000000E+00  0.00000000000E+00  0.64185773413E+03  0.64185773415E+03  0.50400001928E-02 0.  1.
        1   -1    0    0  501    0  0.00000000000E+00  0.00000000000E+00 -0.17151104485E+04  0.17151104485E+04  0.50400001928E-02 0. -1.
    10030    2    1    2    0    0  0.00000000000E+00  0.00000000000E+00 -0.10732527143E+04  0.23569681826E+04  0.20984345653E+04 0.  0.
        1    1    3    3  502    0 -0.24133070722E+03 -0.72113134608E+03  0.27533837265E+03  0.80875345318E+03  0.50400001928E-02 0.  1.
       -1    1    3    3    0  502  0.24133070722E+03  0.72113134608E+03 -0.13485910870E+04  0.15482147294E+04  0.50400001928E-02 0. -1.
</event>
<event>
 5   0  0.8872777E-05  0.2094612E+04  0.7818609E-02  0.8563621E-01
        2   -1    0    0  501    0  0.00000000000E+00  0.00000000000E+00  0.12392573850E+04  0.12392573850E+04  0.25500000920E-02 0.  1.
       -2   -1    0    0    0  501  0.00000000000E+00  0.00000000000E+00 -0.88508619516E+03  0.88508619516E+03  0.25500000920E-02 0. -1.
    10030    2    1    2    0    0  0.00000000000E+00  0.00000000000E+00  0.35417118981E+03  0.21243435801E+04  0.20946117575E+04 0.  0.
        3    1    3    3  502    0 -0.28294623382E+03 -0.45004772028E+02 -0.84456898984E+03  0.89184123561E+03  0.10100000352E+00 0. -1.
       -3    1    3    3    0  502  0.28294623382E+03  0.45004772028E+02  0.11987401796E+04  0.12325023445E+04  0.10100000352E+00 0.  1.
</event>
<event>
 5   0  0.8872777E-05  0.2096743E+04  0.7818609E-02  0.8562680E-01
       -2   -1    0    0    0  501  0.00000000000E+00  0.00000000000E+00  0.58888716717E+03  0.58888716717E+03  0.25500000920E-02 0.  1.
        2   -1    0    0  501    0  0.00000000000E+00  0.00000000000E+00 -0.18663716489E+04  0.18663716489E+04  0.25500000920E-02 0. -1.
    10030    2    1    2    0    0  0.00000000000E+00  0.00000000000E+00 -0.12774844817E+04  0.24552588161E+04  0.20967425337E+04 0.  0.
        3    1    3    3  502    0 -0.69043411308E+03 -0.26575645548E+03 -0.15085552937E+04  0.16801978581E+04  0.10100000352E+00 0. -1.
       -3    1    3    3    0  502  0.69043411308E+03  0.26575645548E+03  0.23107081200E+03  0.77506095792E+03  0.10100000352E+00 0.  1.
</event>
<event>
 5   0  0.8547605E-05  0.2134129E+04  0.7818609E-02  0.8546356E-01
        2   -1    0    0  501    0  0.00000000000E+00  0.00000000000E+00  0.11984807949E+04  0.11984807949E+04  0.25500000920E-02 0. -1.
       -2   -1    0    0    0  501  0.00000000000E+00  0.00000000000E+00 -0.95005856370E+03  0.95005856371E+03  0.25500000920E-02 0.  1.
    10030    2    1    2    0    0  0.00000000000E+00  0.00000000000E+00  0.24842223123E+03  0.21485393586E+04  0.21341292769E+04 0.  0.
        4    1    3    3  502    0 -0.86857299415E+03 -0.57118425222E+03  0.36657473072E+03  0.11022926754E+04  0.12699999809E+01 0.  1.
       -4    1    3    3    0  502  0.86857299415E+03  0.57118425222E+03 -0.11815249949E+03  0.10462466832E+04  0.12699999809E+01 0. -1.
</event>
<event>
 5   0  0.4200061E-05  0.2087682E+04  0.7818609E-02  0.8566689E-01
        1   -1    0    0  501    0  0.00000000000E+00  0.00000000000E+00  0.78141204585E+03  0.78141204586E+03  0.50400001928E-02 0.  1.
       -1   -1    0    0    0  501  0.00000000000E+00  0.00000000000E+00 -0.13944034763E+04  0.13944034763E+04  0.50400001928E-02 0. -1.
    10030    2    1    2    0    0  0.00000000000E+00  0.00000000000E+00 -0.61299143047E+03  0.21758155222E+04  0.20876816550E+04 0.  0.
        4    1    3    3  502    0  0.91219422628E+03 -0.65287631820E+02 -0.83097102096E+03  0.12356679295E+04  0.12699999809E+01 0. -1.
       -4    1    3    3    0  502 -0.91219422628E+03  0.65287631820E+02  0.21797959049E+03  0.94014759272E+03  0.12699999809E+01 0.  1.
</event>
<event>
 5   0  0.4200061E-05  0.2205532E+04  0.7818609E-02  0.8516129E-01
        1   -1    0    0  501    0  0.00000000000E+00  0.00000000000E+00  0.71172980965E+03  0.71172980967E+03  0.50400001928E-02 0.  1.
       -1   -1    0    0    0  501  0.00000000000E+00  0.00000000000E+00 -0.17086440621E+04  0.17086440621E+04  0.50400001928E-02 0. -1.
    10030    2    1    2    0    0  0.00000000000E+00  0.00000000000E+00 -0.99691425243E+03  0.24203738717E+04  0.22055320565E+04 0.  0.
        4    1    3    3  502    0 -0.35444161313E+03  0.22034031006E+03  0.62171490449E+03  0.74880554533E+03  0.12699999809E+01 0.  1.
       -4    1    3    3    0  502  0.35444161313E+03 -0.22034031006E+03 -0.16186291569E+04  0.16715683264E+04  0.12699999809E+01 0. -1.
</event>
<event>
 5   0  0.9086985E-05  0.2092215E+04  0.7818609E-02  0.8564681E-01
        2   -1    0    0  501    0  0.00000000000E+00  0.00000000000E+00  0.65929515952E+03  0.65929515953E+03  0.25500000920E-02 0. -1.
       -2   -1    0    0    0  501  0.00000000000E+00  0.00000000000E+00 -0.16598646087E+04  0.16598646087E+04  0.25500000920E-02 0.  1.
    10030    2    1    2    0    0  0.00000000000E+00  0.00000000000E+00 -0.10005694492E+04  0.23191597683E+04  0.20922148093E+04 0.  0.
        5    1    3    3  502    0  0.28746166565E+03 -0.94842715672E+03 -0.12903734430E+03  0.99941032966E+03  0.46999998093E+01 0.  1.
       -5    1    3    3    0  502 -0.28746166565E+03  0.94842715672E+03 -0.87153210492E+03  0.13197494386E+04  0.46999998093E+01 0. -1.
</event>
<event>
 5   0  0.4200061E-05  0.2136745E+04  0.7818609E-02  0.8545228E-01
       -1   -1    0    0    0  501  0.00000000000E+00  0.00000000000E+00  0.14778831926E+04  0.14778831926E+04  0.50400001928E-02 0.  1.
        1   -1    0    0  501    0  0.00000000000E+00  0.00000000000E+00 -0.77233404946E+03  0.77233404947E+03  0.50400001928E-02 0. -1.
    10030    2    1    2    0    0  0.00000000000E+00  0.00000000000E+00  0.70554914313E+03  0.22502172421E+04  0.21367447305E+04 0.  0.
        4    1    3    3  502    0  0.56842024266E+03 -0.81783116172E+03 -0.54368143650E+02  0.99745019389E+03  0.12699999809E+01 0. -1.
       -4    1    3    3    0  502 -0.56842024266E+03  0.81783116172E+03  0.75991728678E+03  0.12527670482E+04  0.12699999809E+01 0.  1.
</event>
<event>
 5   0  0.8872777E-05  0.2087337E+04  0.7818609E-02  0.8566842E-01
        2   -1    0    0  501    0  0.00000000000E+00  0.00000000000E+00  0.10063769067E+04  0.10063769067E+04  0.25500000920E-02 0.  1.
       -2   -1    0    0    0  501  0.00000000000E+00  0.00000000000E+00 -0.10823418478E+04  0.10823418478E+04  0.25500000920E-02 0. -1.
    10030    2    1    2    0    0  0.00000000000E+00  0.00000000000E+00 -0.75964941138E+02  0.20887187546E+04  0.20873369070E+04 0.  0.
        3    1    3    3  502    0 -0.14591981170E+03 -0.99663369187E+03 -0.31142611148E+03  0.10543042921E+04  0.10100000352E+00 0. -1.
       -3    1    3    3    0  502  0.14591981170E+03  0.99663369187E+03  0.23546117035E+03  0.10344144625E+04  0.10100000352E+00 0.  1.
</event>
<event>
 5   0  0.8872777E-05  0.2040503E+04  0.7818609E-02  0.8587915E-01
        2   -1    0    0  501    0  0.00000000000E+00  0.00000000000E+00  0.10612105947E+04  0.10612105947E+04  0.25500000920E-02 0. -1.
       -2   -1    0    0    0  501  0.00000000000E+00  0.00000000000E+00 -0.98087344250E+03  0.98087344250E+03  0.25500000920E-02 0.  1.
    10030    2    1    2    0    0  0.00000000000E+00  0.00000000000E+00  0.80337152182E+02  0.20420840372E+04  0.20405031627E+04 0.  0.
        3    1    3    3  502    0 -0.48452394798E+01  0.79620949188E+03  0.67858148617E+03  0.10461576721E+04  0.10100000352E+00 0. -1.
       -3    1    3    3    0  502  0.48452394798E+01 -0.79620949188E+03 -0.59824433399E+03  0.99592636508E+03  0.10100000352E+00 0.  1.
</event>
<event>
 5   0  0.4200061E-05  0.2088279E+04  0.7818609E-02  0.8566424E-01
       -1   -1    0    0    0  501  0.00000000000E+00  0.00000000000E+00  0.61613307145E+03  0.61613307147E+03  0.50400001928E-02 0.  1.
        1   -1    0    0  501    0  0.00000000000E+00  0.00000000000E+00 -0.17694680459E+04  0.17694680459E+04  0.50400001928E-02 0. -1.
    10030    2    1    2    0    0  0.00000000000E+00  0.00000000000E+00 -0.11533349745E+04  0.23856011174E+04  0.20882794660E+04 0.  0.
        4    1    3    3  502    0 -0.24442389886E+03  0.93088147283E+03 -0.11412098711E+03  0.96917932881E+03  0.12699999809E+01 0.  1.
       -4    1    3    3    0  502  0.24442389886E+03 -0.93088147283E+03 -0.10392139874E+04  0.14164217886E+04  0.12699999809E+01 0. -1.
</event>
<event>
 5   0  0.4174093E-05  0.2118528E+04  0.7818609E-02  0.8553125E-01
        1   -1    0    0  501    0  0.00000000000E+00  0.00000000000E+00  0.13485667862E+04  0.13485667862E+04  0.50400001928E-02 0. -1.
       -1   -1    0    0    0  501  0.00000000000E+00  0.00000000000E+00 -0.83202383906E+03  0.83202383907E+03  0.50400001928E-02 0.  1.
    10030    2    1    2    0    0  0.00000000000E+00  0.00000000000E+00  0.51654294718E+03  0.21805906253E+04  0.21185275214E+04 0.  0.
        3    1    3    3  502    0 -0.10000573236E+04 -0.59464198560E+02 -0.95885519980E+02  0.10064018505E+04  0.10100000352E+00 0. -1.
       -3    1    3    3    0  502  0.10000573236E+04  0.59464198560E+02  0.61242846716E+03  0.11741887749E+04  0.10100000352E+00 0.  1.
</event>
<event>
 5   0  0.4200061E-05  0.2109054E+04  0.7818609E-02  0.8557265E-01
        1   -1    0    0  501    0  0.00000000000E+00  0.00000000000E+00  0.17557469799E+04  0.17557469799E+04  0.50400001928E-02 0.  1.
       -1   -1    0    0    0  501  0.00000000000E+00  0.00000000000E+00 -0.63336414998E+03  0.63336415000E+03  0.50400001928E-02 0. -1.
    10030    2    1    2    0    0  0.00000000000E+00  0.00000000000E+00  0.11223828299E+04  0.23891111299E+04  0.21090539998E+04 0.  0.
        4    1    3    3  502    0  0.51098413262E+03 -0.23865809614E+03  0.15705577461E+04  0.16687467505E+04  0.12699999809E+01 0.  1.
       -4    1    3    3    0  502 -0.51098413262E+03  0.23865809614E+03 -0.44817491620E+03  0.72036437936E+03  0.12699999809E+01 0. -1.
</event>
<event>
 5   0  0.9086985E-05  0.2083339E+04  0.7818609E-02  0.8568618E-01
        2   -1    0    0  501    0  0.00000000000E+00  0.00000000000E+00  0.22726719136E+04  0.22726719136E+04  0.25500000920E-02 0. -1.
       -2   -1    0    0    0  501  0.00000000000E+00  0.00000000000E+00 -0.47744476293E+03  0.47744476294E+03  0.25500000920E-02 0.  1.
    10030    2    1    2    0    0  0.00000000000E+00  0.00000000000E+00  0.17952271507E+04  0.27501166766E+04  0.20833389576E+04 0.  0.
        5    1    3    3  502    0 -0.34518337529E+03  0.38780622914E+03  0.20896932738E+04  0.21532267188E+04  0.46999998093E+01 0. -1.
       -5    1    3    3    0  502  0.34518337529E+03 -0.38780622914E+03 -0.29446612316E+03  0.59688995772E+03  0.46999998093E+01 0.  1.
</event>
<event>
 5   0  0.4200061E-05  0.2089070E+04  0.7818609E-02  0.8566073E-01
       -1   -1    0    0    0  501  0.00000000000E+00  0.00000000000E+00  0.18265502061E+04  0.18265502061E+04  0.50400001928E-02 0. -1.
        1   -1    0    0  501    0  0.00000000000E+00  0.00000000000E+00 -0.59733029885E+03  0.59733029887E+03  0.50400001928E-02 0.  1.
    10030    2    1    2    0    0  0.00000000000E+00  0.00000000000E+00  0.12292199072E+04  0.24238805049E+04  0.20890703966E+04 0.  0.
        4    1    3    3  502    0 -0.82944387970E+03 -0.61162754853E+03  0.41706862639E+03  0.11117613322E+04  0.12699999809E+01 0. -1.
       -4    1    3    3    0  502  0.82944387970E+03  0.61162754853E+03  0.81215128082E+03  0.13121191728E+04  0.12699999809E+01 0.  1.
</event>
<event>
 5   0  0.3176125E-05  0.2114017E+04  0.7818609E-02  0.8555094E-01
        3   -1    0    0  501    0  0.00000000000E+00  0.00000000000E+00  0.64046903277E+03  0.64046904074E+03  0.10100000352E+00 0. -1.
       -3   -1    0    0    0  501  0.00000000000E+00  0.00000000000E+00 -0.17444503961E+04  0.17444503991E+04  0.10100000352E+00 0.  1.
    10030    2    1    2    0    0  0.00000000000E+00  0.00000000000E+00 -0.11039813634E+04  0.23849194398E+04  0.21140165287E+04 0.  0.
        5    1    3    3  502    0  0.60434857879E+03  0.30362465459E+02  0.42571911134E+03  0.73987697339E+03  0.46999998093E+01 0. -1.
       -5    1    3    3    0  502 -0.60434857879E+03 -0.30362465459E+02 -0.15297004747E+04  0.16450424664E+04  0.46999998093E+01 0.  1.
</event>
<event>
 5   0  0.4050368E-05  0.2099016E+04  0.7818609E-02  0.8561677E-01
       -1   -1    0    0    0  501  0.00000000000E+00  0.00000000000E+00  0.14129531497E+04  0.14129531497E+04  0.50400001928E-02 0.  1.
        1   -1    0    0  501    0  0.00000000000E+00  0.00000000000E+00 -0.77954933452E+03  0.77954933454E+03  0.50400001928E-02 0. -1.
    10030    2    1    2    0    0  0.00000000000E+00  0.00000000000E+00  0.63340381513E+03  0.21925024842E+04  0.20990156622E+04 0.  0.
        2    1    3    3  502    0 -0.69363254057E+02  0.33816116958E+03 -0.71855235787E+03  0.79717107865E+03  0.25500000920E-02 0. -1.
       -2    1    3    3    0  502  0.69363254057E+02 -0.33816116958E+03  0.13519561730E+04  0.13953314056E+04  0.25500000920E-02 0.  1.
</event>
<event>
 5   0  0.4128678E-05  0.2094924E+04  0.7818609E-02  0.8563483E-01
        1   -1    0    0  501    0  0.00000000000E+00  0.00000000000E+00  0.12315927570E+04  0.12315927570E+04  0.50400001928E-02 0. -1.
       -1   -1    0    0    0  501  0.00000000000E+00  0.00000000000E+00 -0.89085954237E+03  0.89085954239E+03  0.50400001928E-02 0.  1.
    10030    2    1    2    0    0  0.00000000000E+00  0.00000000000E+00  0.34073321465E+03  0.21224522994E+04  0.20949235403E+04 0.  0.
        5    1    3    3  502    0  0.16885790357E+03 -0.36103788412E+03 -0.81101730893E+03  0.90367721602E+03  0.46999998093E+01 0.  1.
       -5    1    3    3    0  502 -0.16885790357E+03  0.36103788412E+03  0.11517505236E+04  0.12187750834E+04  0.46999998093E+01 0. -1.
</event>
<event>
 5   0  0.9012466E-05  0.2114681E+04  0.7818609E-02  0.8554804E-01
        2   -1    0    0  501    0  0.00000000000E+00  0.00000000000E+00  0.11474733652E+04  0.11474733652E+04  0.25500000920E-02 0. -1.
       -2   -1    0    0    0  501  0.00000000000E+00  0.00000000000E+00 -0.97428706636E+03  0.97428706637E+03  0.25500000920E-02 0.  1.
    10030    2    1    2    0    0  0.00000000000E+00  0.00000000000E+00  0.17318629880E+03  0.21217604315E+04  0.21146805515E+04 0.  0.
        2    1    3    3  502    0 -0.28767309852E+02 -0.56510443843E+03  0.98277885453E+03  0.11340303617E+04  0.25500000920E-02 0. -1.
       -2    1    3    3    0  502  0.28767309852E+02  0.56510443843E+03 -0.80959255573E+03  0.98773006978E+03  0.25500000920E-02 0.  1.
</event>
<event>
 5   0  0.8547605E-05  0.2405610E+04  0.7818609E-02  0.8437406E-01
        2   -1    0    0  501    0  0.00000000000E+00  0.00000000000E+00  0.13967004475E+04  0.13967004475E+04  0.25500000920E-02 0. -1.
       -2   -1    0    0    0  501  0.00000000000E+00  0.00000000000E+00 -0.10358269893E+04  0.10358269894E+04  0.25500000920E-02 0.  1.
    10030    2    1    2    0    0  0.00000000000E+00  0.00000000000E+00  0.36087345820E+03  0.24325274369E+04  0.24056101260E+04 0.  0.
        4    1    3    3  502    0 -0.17395809271E+03 -0.83543782009E+03  0.10375774491E+04  0.13434233677E+04  0.12699999809E+01 0. -1.
       -4    1    3    3    0  502  0.17395809271E+03  0.83543782009E+03 -0.67670399089E+03  0.10891040692E+04  0.12699999809E+01 0.  1.
</event>
<event>
 5   0  0.8872777E-05  0.2008693E+04  0.7818609E-02  0.8602567E-01
        2   -1    0    0  501    0  0.00000000000E+00  0.00000000000E+00  0.19622413629E+04  0.19622413629E+04  0.25500000920E-02 0.  1.
       -2   -1    0    0    0  501  0.00000000000E+00  0.00000000000E+00 -0.51406086842E+03  0.51406086842E+03  0.25500000920E-02 0. -1.
    10030    2    1    2    0    0  0.00000000000E+00  0.00000000000E+00  0.14481804944E+04  0.24763022313E+04  0.20086926087E+04 0.  0.
        3    1    3    3  502    0 -0.51812229775E+02 -0.69776926193E+02 -0.50941645535E+03  0.51677699423E+03  0.10100000352E+00 0. -1.
       -3    1    3    3    0  502  0.51812229775E+02  0.69776926193E+02  0.19575969498E+04  0.19595252371E+04  0.10100000352E+00 0.  1.
</event>
<event>
 5   0  0.4200061E-05  0.2094380E+04  0.7818609E-02  0.8563723E-01
        1   -1    0    0  501    0  0.00000000000E+00  0.00000000000E+00  0.74938101325E+03  0.74938101327E+03  0.50400001928E-02 0. -1.
       -1   -1    0    0    0  501  0.00000000000E+00  0.00000000000E+00 -0.14633500356E+04  0.14633500356E+04  0.50400001928E-02 0.  1.
    10030    2    1    2    0    0  0.00000000000E+00  0.00000000000E+00 -0.71396902233E+03  0.22127310489E+04  0.20943798437E+04 0.  0.
        4    1    3    3  502    0  0.56869544039E+03  0.79381201752E+03  0.42612113989E+02  0.97743001194E+03  0.12699999809E+01 0. -1.
       -4    1    3    3    0  502 -0.56869544039E+03 -0.79381201752E+03 -0.75658113632E+03  0.12353010369E+04  0.12699999809E+01 0.  1.
</event>
<event>
 5   0  0.4174093E-05  0.2119351E+04  0.7818609E-02  0.8552767E-01
       -1   -1    0    0    0  501  0.00000000000E+00  0.00000000000E+00  0.10545536270E+04  0.10545536270E+04  0.50400001928E-02 0. -1.
        1   -1    0    0  501    0  0.00000000000E+00  0.00000000000E+00 -0.10648225905E+04  0.10648225905E+04  0.50400001928E-02 0.  1.
    10030    2    1    2    0    0  0.00000000000E+00  0.00000000000E+00 -0.10268963465E+02  0.21193762175E+04  0.21193513394E+04 0.  0.
        3    1    3    3  502    0  0.22031188281E+03 -0.83101386735E+03  0.61438158076E+03  0.10566863822E+04  0.10100000352E+00 0. -1.
       -3    1    3    3    0  502 -0.22031188281E+03  0.83101386735E+03 -0.62465054422E+03  0.10626898353E+04  0.10100000352E+00 0.  1.
</event>
<event>
 5   0  0.4128678E-05  0.2095148E+04  0.7818609E-02  0.8563384E-01
        1   -1    0    0  501    0  0.00000000000E+00  0.00000000000E+00  0.21767700966E+04  0.21767700966E+04  0.50400001928E-02 0.  1.
       -1   -1    0    0    0  501  0.00000000000E+00  0.00000000000E+00 -0.50414662922E+03  0.50414662925E+03  0.50400001928E-02 0. -1.
    10030    2    1    2    0    0  0.00000000000E+00  0.00000000000E+00  0.16726234674E+04  0.26809167259E+04  0.20951480204E+04 0.  0.
        5    1    3    3  502    0  0.59552891097E+03  0.65316334541E+03  0.11688060305E+03  0.89160540877E+03  0.46999998093E+01 0. -1.
       -5    1    3    3    0  502 -0.59552891097E+03 -0.65316334541E+03  0.15557428644E+04  0.17893113171E+04  0.46999998093E+01 0.  1.
</event>
<event>
 5   0  0.4128678E-05  0.2100025E+04  0.7818609E-02  0.8561232E-01
        1   -1    0    0  501    0  0.00000000000E+00  0.00000000000E+00  0.71734577507E+03  0.71734577509E+03  0.50400001928E-02 0. -1.
       -1   -1    0    0    0  501  0.00000000000E+00  0.00000000000E+00 -0.15369523573E+04  0.15369523573E+04  0.50400001928E-02 0.  1.
    10030    2    1    2    0    0  0.00000000000E+00  0.00000000000E+00 -0.81960658225E+03  0.22542981324E+04  0.21000250285E+04 0.  0.
        5    1    3    3  502    0 -0.38769118990E+03  0.56754601284E+03  0.44229286546E+03  0.81734815363E+03  0.46999998093E+01 0. -1.
       -5    1    3    3    0  502  0.38769118990E+03 -0.56754601284E+03 -0.12618994477E+04  0.14369499788E+04  0.46999998093E+01 0.  1.
</event>
<event>
 5   0  0.9012466E-05  0.2055763E+04  0.7818609E-02  0.8580984E-01
        2   -1    0    0  501    0  0.00000000000E+00  0.00000000000E+00  0.84010295574E+03  0.84010295574E+03  0.25500000920E-02 0. -1.
       -2   -1    0    0    0  501  0.00000000000E+00  0.00000000000E+00 -0.12576319201E+04  0.12576319201E+04  0.25500000920E-02 0.  1.
    10030    2    1    2    0    0  0.00000000000E+00  0.00000000000E+00 -0.41752896436E+03  0.20977348758E+04  0.20557629176E+04 0.  0.
        2    1    3    3  502    0  0.91852429993E+03  0.21162348438E+03  0.20956768026E+03  0.96560343895E+03  0.25500000920E-02 0. -1.
       -2    1    3    3    0  502 -0.91852429993E+03 -0.21162348438E+03 -0.62709664461E+03  0.11321314369E+04  0.25500000920E-02 0.  1.
</event>
<event>
 5   0  0.9012466E-05  0.2086988E+04  0.7818609E-02  0.8566997E-01
        2   -1    0    0  501    0  0.00000000000E+00  0.00000000000E+00  0.16349350887E+04  0.16349350887E+04  0.25500000920E-02 0. -1.
       -2   -1    0    0    0  501  0.00000000000E+00  0.00000000000E+00 -0.66600821328E+03  0.66600821329E+03  0.25500000920E-02 0.  1.
    10030    2    1    2    0    0  0.00000000000E+00  0.00000000000E+00  0.96892687539E+03  0.23009433020E+04  0.20869884497E+04 0.  0.
        2    1    3    3  502    0  0.12294020318E+02  0.57515629855E+03 -0.47537642743E+03  0.74628322939E+03  0.25500000920E-02 0.  1.
       -2    1    3    3    0  502 -0.12294020318E+02 -0.57515629855E+03  0.14443033028E+04  0.15546600726E+04  0.25500000920E-02 0. -1.
</event>
<event>
 5   0  0.4174093E-05  0.2114255E+04  0.7818609E-02  0.8554990E-01
        1   -1    0    0  501    0  0.00000000000E+00  0.00000000000E+00  0.15216039968E+04  0.15216039968E+04  0.50400001928E-02 0. -1.
       -1   -1    0    0    0  501  0.00000000000E+00  0.00000000000E+00 -0.73443442104E+03  0.73443442105E+03  0.50400001928E-02 0.  1.
    10030    2    1    2    0    0  0.00000000000E+00  0.00000000000E+00  0.78716957576E+03  0.22560384179E+04  0.21142548101E+04 0.  0.
        3    1    3    3  502    0  0.52424531187E+03 -0.14188217552E+03 -0.57418384624E+03  0.79034852960E+03  0.10100000352E+00 0.  1.
       -3    1    3    3    0  502 -0.52424531187E+03  0.14188217552E+03  0.13613534220E+04  0.14656898883E+04  0.10100000352E+00 0. -1.
</event>
<event>
 5   0  0.4182977E-05  0.2151158E+04  0.7818609E-02  0.8539037E-01
        1   -1    0    0  501    0  0.00000000000E+00  0.00000000000E+00  0.14532100328E+04  0.14532100328E+04  0.50400001928E-02 0. -1.
       -1   -1    0    0    0  501  0.00000000000E+00  0.00000000000E+00 -0.79607945960E+03  0.79607945961E+03  0.50400001928E-02 0.  1.
    10030    2    1    2    0    0  0.00000000000E+00  0.00000000000E+00  0.65713057316E+03  0.22492894924E+04  0.21511584392E+04 0.  0.
        1    1    3    3  502    0 -0.99424634688E+03  0.41024528693E+03  0.32165598952E+03  0.11226261931E+04  0.50400001928E-02 0.  1.
       -1    1    3    3    0  502  0.99424634688E+03 -0.41024528693E+03  0.33547458364E+03  0.11266632993E+04  0.50400001928E-02 0. -1.
</event>
<event>
 5   0  0.8858590E-05  0.2086307E+04  0.7818609E-02  0.8567299E-01
       -2   -1    0    0    0  501  0.00000000000E+00  0.00000000000E+00  0.13739019007E+04  0.13739019007E+04  0.25500000920E-02 0.  1.
        2   -1    0    0  501    0  0.00000000000E+00  0.00000000000E+00 -0.79202846327E+03  0.79202846327E+03  0.25500000920E-02 0. -1.
    10030    2    1    2    0    0  0.00000000000E+00  0.00000000000E+00  0.58187343745E+03  0.21659303640E+04  0.20863071788E+04 0.  0.
        1    1    3    3  502    0 -0.19309818306E+03 -0.54962013937E+03  0.11892942533E+04  0.13243073763E+04  0.50400001928E-02 0.  1.
       -1    1    3    3    0  502  0.19309818306E+03  0.54962013937E+03 -0.60742081585E+03  0.84162298771E+03  0.50400001928E-02 0. -1.
</event>
<event>
 5   0  0.9086985E-05  0.2087338E+04  0.7818609E-02  0.8566842E-01
        2   -1    0    0  501    0  0.00000000000E+00  0.00000000000E+00  0.16314854818E+04  0.16314854818E+04  0.25500000920E-02 0.  1.
       -2   -1    0    0    0  501  0.00000000000E+00  0.00000000000E+00 -0.66763974454E+03  0.66763974454E+03  0.25500000920E-02 0. -1.
    10030    2    1    2    0    0  0.00000000000E+00  0.00000000000E+00  0.96384573727E+03  0.22991252264E+04  0.20873375868E+04 0.  0.
        5    1    3    3  502    0  0.92611425239E+02 -0.10139702970E+04  0.73432336369E+03  0.12553746579E+04  0.46999998093E+01 0.  1.
       -5    1    3    3    0  502 -0.92611425239E+02  0.10139702970E+04  0.22952237359E+03  0.10437505685E+04  0.46999998093E+01 0. -1.
</event>
<event>
 5   0  0.4050368E-05  0.2154611E+04  0.7818609E-02  0.8537561E-01
       -1   -1    0    0    0  501  0.00000000000E+00  0.00000000000E+00  0.64743915292E+03  0.64743915294E+03  0.50400001928E-02 0. -1.
        1   -1    0    0  501    0  0.00000000000E+00  0.00000000000E+00 -0.17925802796E+04  0.17925802796E+04  0.50400001928E-02 0.  1.
    10030    2    1    2    0    0  0.00000000000E+00  0.00000000000E+00 -0.11451411267E+04  0.24400194326E+04  0.21546105521E+04 0.  0.
        2    1    3    3  502    0 -0.64214196780E+01 -0.33882943419E+03 -0.17306447215E+04  0.17635129067E+04  0.25500000920E-02 0.  1.
       -2    1    3    3    0  502  0.64214196780E+01  0.33882943419E+03  0.58550359475E+03  0.67650652590E+03  0.25500000920E-02 0. -1.
</event>
<event>
 5   0  0.4050368E-05  0.2094809E+04  0.7818609E-02  0.8563533E-01
       -1   -1    0    0    0  501  0.00000000000E+00  0.00000000000E+00  0.12876043905E+04  0.12876043905E+04  0.50400001928E-02 0. -1.
        1   -1    0    0  501    0  0.00000000000E+00  0.00000000000E+00 -0.85201351839E+03  0.85201351841E+03  0.50400001928E-02 0.  1.
    10030    2    1    2    0    0  0.00000000000E+00  0.00000000000E+00  0.43559087213E+03  0.21396179089E+04  0.20948091532E+04 0.  0.
        2    1    3    3  502    0 -0.81532135884E+03  0.41984885942E+03 -0.29902644322E+03  0.96459255476E+03  0.25500000920E-02 0.  1.
       -2    1    3    3    0  502  0.81532135884E+03 -0.41984885942E+03  0.73461731535E+03  0.11750253542E+04  0.25500000920E-02 0. -1.
</event>
<event>
 5   0  0.4174093E-05  0.2105956E+04  0.7818609E-02  0.8558624E-01
       -1   -1    0    0    0  501  0.00000000000E+00  0.00000000000E+00  0.94693033434E+03  0.94693033436E+03  0.50400001928E-02 0.  1.
        1   -1    0    0  501    0  0.00000000000E+00  0.00000000000E+00 -0.11709016634E+04  0.11709016634E+04  0.50400001928E-02 0. -1.
    10030    2    1    2    0    0  0.00000000000E+00  0.00000000000E+00 -0.22397132904E+03  0.21178319977E+04  0.21059556535E+04 0.  0.
        3    1    3    3  502    0 -0.26646941439E+03 -0.64953809873E+03 -0.90117659383E+03  0.11423768879E+04  0.10100000352E+00 0. -1.
       -3    1    3    3    0  502  0.26646941439E+03  0.64953809873E+03  0.67720526479E+03  0.97545510987E+03  0.10100000352E+00 0.  1.
</event>
<event>
 5   0  0.8872777E-05  0.2074076E+04  0.7818609E-02  0.8572750E-01
        2   -1    0    0  501    0  0.00000000000E+00  0.00000000000E+00  0.81507759861E+03  0.81507759862E+03  0.25500000920E-02 0. -1.
       -2   -1    0    0    0  501  0.00000000000E+00  0.00000000000E+00 -0.13194419185E+04  0.13194419185E+04  0.25500000920E-02 0.  1.
    10030    2    1    2    0    0  0.00000000000E+00  0.00000000000E+00 -0.50436431990E+03  0.21345195171E+04  0.20740757464E+04 0.  0.
        3    1    3    3  502    0  0.14834375477E+03 -0.43322426748E+03  0.70539521288E+03  0.84099438290E+03  0.10100000352E+00 0. -1.
       -3    1    3    3    0  502 -0.14834375477E+03  0.43322426748E+03 -0.12097595328E+04  0.12935251342E+04  0.10100000352E+00 0.  1.
</event>
<event>
 5   0  0.4128678E-05  0.2103618E+04  0.7818609E-02  0.8559651E-01
       -1   -1    0    0    0  501  0.00000000000E+00  0.00000000000E+00  0.78184175114E+03  0.78184175116E+03  0.50400001928E-02 0.  1.
        1   -1    0    0  501    0  0.00000000000E+00  0.00000000000E+00 -0.14149946546E+04  0.14149946546E+04  0.50400001928E-02 0. -1.
    10030    2    1    2    0    0  0.00000000000E+00  0.00000000000E+00 -0.63315290347E+03  0.21968364058E+04  0.21036177397E+04 0.  0.
        5    1    3    3  502    0  0.74316429283E+03 -0.10539611383E+03 -0.10860295175E+04  0.13201832107E+04  0.46999998093E+01 0. -1.
       -5    1    3    3    0  502 -0.74316429283E+03  0.10539611383E+03  0.45287661401E+03  0.87665319509E+03  0.46999998093E+01 0.  1.
</event>
<event>
 5   0  0.4050368E-05  0.2109900E+04  0.7818609E-02  0.8556895E-01
        1   -1    0    0  501    0  0.00000000000E+00  0.00000000000E+00  0.20329043509E+04  0.20329043509E+04  0.50400001928E-02 0. -1.
       -1   -1    0    0    0  501  0.00000000000E+00  0.00000000000E+00 -0.54745297299E+03  0.54745297301E+03  0.50400001928E-02 0.  1.
    10030    2    1    2    0    0  0.00000000000E+00  0.00000000000E+00  0.14854513779E+04  0.25803573239E+04  0.21099000267E+04 0.  0.
        2    1    3    3  502    0 -0.71048750442E+03  0.23771237665E+03 -0.16559231155E+03  0.76728122719E+03  0.25500000920E-02 0.  1.
       -2    1    3    3    0  502  0.71048750442E+03 -0.23771237665E+03  0.16510436894E+04  0.18130760967E+04  0.25500000920E-02 0. -1.
</event>
<event>
 5   0  0.8872777E-05  0.2154348E+04  0.7818609E-02  0.8537673E-01
       -2   -1    0    0    0  501  0.00000000000E+00  0.00000000000E+00  0.15667942888E+04  0.15667942888E+04  0.25500000920E-02 0. -1.
        2   -1    0    0  501    0  0.00000000000E+00  0.00000000000E+00 -0.74055903837E+03  0.74055903837E+03  0.25500000920E-02 0.  1.
    10030    2    1    2    0    0  0.00000000000E+00  0.00000000000E+00  0.82623525042E+03  0.23073533272E+04  0.21543478566E+04 0.  0.
        3    1    3    3  502    0  0.30750275635E+03 -0.28858912721E+03 -0.64847077022E+03  0.77353473066E+03  0.10100000352E+00 0.  1.
       -3    1    3    3    0  502 -0.30750275635E+03  0.28858912721E+03  0.14747060206E+04  0.15338185965E+04  0.10100000352E+00 0. -1.
</event>
<event>
 5   0  0.9086985E-05  0.2112741E+04  0.7818609E-02  0.8555652E-01
        2   -1    0    0  501    0  0.00000000000E+00  0.00000000000E+00  0.10618120140E+04  0.10618120140E+04  0.25500000920E-02 0. -1.
       -2   -1    0    0    0  501  0.00000000000E+00  0.00000000000E+00 -0.10509567929E+04  0.10509567929E+04  0.25500000920E-02 0.  1.
    10030    2    1    2    0    0  0.00000000000E+00  0.00000000000E+00  0.10855221118E+02  0.21127688070E+04  0.21127409202E+04 0.  0.
        5    1    3    3  502    0 -0.41058144197E+03  0.51986062006E+03  0.82827762598E+03  0.10606121348E+04  0.46999998093E+01 0. -1.
       -5    1    3    3    0  502  0.41058144197E+03 -0.51986062006E+03 -0.81742240486E+03  0.10521566722E+04  0.46999998093E+01 0.  1.
</event>
<event>
 5   0  0.9086985E-05  0.2093867E+04  0.7818609E-02  0.8563950E-01
        2   -1    0    0  501    0  0.00000000000E+00  0.00000000000E+00  0.73328049804E+03  0.73328049805E+03  0.25500000920E-02 0.  1.
       -2   -1    0    0    0  501  0.00000000000E+00  0.00000000000E+00 -0.14947475663E+04  0.14947475663E+04  0.25500000920E-02 0. -1.
    10030    2    1    2    0    0  0.00000000000E+00  0.00000000000E+00 -0.76146706829E+03  0.22280280644E+04  0.20938665095E+04 0.  0.
        5    1    3    3  502    0 -0.39557112695E+03  0.15601405763E+03  0.63724084739E+03  0.76610370723E+03  0.46999998093E+01 0.  1.
       -5    1    3    3    0  502  0.39557112695E+03 -0.15601405763E+03 -0.13987079157E+04  0.14619243571E+04  0.46999998093E+01 0. -1.
</event>
<event>
 5   0  0.9086985E-05  0.2087515E+04  0.7818609E-02  0.8566763E-01
       -2   -1    0    0    0  501  0.00000000000E+00  0.00000000000E+00  0.44772254259E+03  0.44772254259E+03  0.25500000920E-02 0.  1.
        2   -1    0    0  501    0  0.00000000000E+00  0.00000000000E+00 -0.24332700356E+04  0.24332700356E+04  0.25500000920E-02 0. -1.
    10030    2    1    2    0    0  0.00000000000E+00  0.00000000000E+00 -0.19855474931E+04  0.28809925782E+04  0.20875151230E+04 0.  0.
        5    1    3    3  502    0 -0.18448135370E+03  0.32679111312E+03  0.35138306946E+03  0.51411861761E+03  0.46999998093E+01 0.  1.
       -5    1    3    3    0  502  0.18448135370E+03 -0.32679111312E+03 -0.23369305625E+04  0.23668739606E+04  0.46999998093E+01 0. -1.
</event>
<event>
 5   0  0.9012466E-05  0.2109889E+04  0.7818609E-02  0.8556900E-01
       -2   -1    0    0    0  501  0.00000000000E+00  0.00000000000E+00  0.55442572787E+03  0.55442572788E+03  0.25500000920E-02 0. -1.
        2   -1    0    0  501    0  0.00000000000E+00  0.00000000000E+00 -0.20073168924E+04  0.20073168924E+04  0.25500000920E-02 0.  1.
    10030    2    1    2    0    0  0.00000000000E+00  0.00000000000E+00 -0.14528911646E+04  0.25617426203E+04  0.21098892191E+04 0.  0.
        2    1    3    3  502    0  0.19179312351E+03 -0.62387717515E+03 -0.17327348735E+04  0.18515878250E+04  0.25500000920E-02 0.  1.
       -2    1    3    3    0  502 -0.19179312351E+03  0.62387717515E+03  0.27984370892E+03  0.71015479532E+03  0.25500000920E-02 0. -1.
</event>
<event>
 5   0  0.8547605E-05  0.1818756E+04  0.7818609E-02  0.8696389E-01
       -2   -1    0    0    0  501  0.00000000000E+00  0.00000000000E+00  0.60394109924E+03  0.60394109925E+03  0.25500000920E-02 0.  1.
        2   -1    0    0  501    0  0.00000000000E+00  0.00000000000E+00 -0.13692857600E+04  0.13692857600E+04  0.25500000920E-02 0. -1.
    10030    2    1    2    0    0  0.00000000000E+00  0.00000000000E+00 -0.76534466074E+03  0.19732268592E+04  0.18187555603E+04 0.  0.
        4    1    3    3  502    0 -0.66532904810E+03 -0.34155640984E+03 -0.94395350397E+03  0.12043144747E+04  0.12699999809E+01 0. -1.
       -4    1    3    3    0  502  0.66532904810E+03  0.34155640984E+03  0.17860884323E+03  0.76891238456E+03  0.12699999809E+01 0.  1.
</event>
<event>
 5   0  0.8872777E-05  0.2104279E+04  0.7818609E-02  0.8559361E-01
       -2   -1    0    0    0  501  0.00000000000E+00  0.00000000000E+00  0.76110263849E+03  0.76110263850E+03  0.25500000920E-02 0.  1.
        2   -1    0    0  501    0  0.00000000000E+00  0.00000000000E+00 -0.14544659116E+04  0.14544659116E+04  0.25500000920E-02 0. -1.
    10030    2    1    2    0    0  0.00000000000E+00  0.00000000000E+00 -0.69336327314E+03  0.22155685501E+04  0.21042792999E+04 0.  0.
        3    1    3    3  502    0 -0.35696199305E+03 -0.69558610109E+03 -0.10880038494E+04  0.13397814281E+04  0.10100000352E+00 0. -1.
       -3    1    3    3    0  502  0.35696199305E+03  0.69558610109E+03  0.39464057627E+03  0.87578712205E+03  0.10100000352E+00 0.  1.
</event>
<event>
 5   0  0.9086985E-05  0.2119942E+04  0.7818609E-02  0.8552509E-01
       -2   -1    0    0    0  501  0.00000000000E+00  0.00000000000E+00  0.75550110310E+03  0.75550110310E+03  0.25500000920E-02 0. -1.
        2   -1    0    0  501    0  0.00000000000E+00  0.00000000000E+00 -0.14871439679E+04  0.14871439679E+04  0.25500000920E-02 0.  1.
    10030    2    1    2    0    0  0.00000000000E+00  0.00000000000E+00 -0.73164286479E+03  0.22426450710E+04  0.21199423655E+04 0.  0.
        5    1    3    3  502    0 -0.54611255013E+03 -0.70970920033E+03  0.23409155983E+03  0.92560629581E+03  0.46999998093E+01 0. -1.
       -5    1    3    3    0  502  0.54611255013E+03  0.70970920033E+03 -0.96573442463E+03  0.13170387752E+04  0.46999998093E+01 0.  1.
</event>
<event>
 5   0  0.8547605E-05  0.2043346E+04  0.7818609E-02  0.8586619E-01
       -2   -1    0    0    0  501  0.00000000000E+00  0.00000000000E+00  0.14666361316E+04  0.14666361316E+04  0.25500000920E-02 0. -1.
        2   -1    0    0  501    0  0.00000000000E+00  0.00000000000E+00 -0.71170705456E+03  0.71170705457E+03  0.25500000920E-02 0.  1.
    10030    2    1    2    0    0  0.00000000000E+00  0.00000000000E+00  0.75492907704E+03  0.21783431862E+04  0.20433455717E+04 0.  0.
        4    1    3    3  502    0 -0.63779779061E+03 -0.72837851125E+03  0.72535600008E+03  0.12097372513E+04  0.12699999809E+01 0. -1.
       -4    1    3    3    0  502  0.63779779061E+03  0.72837851125E+03  0.29573076962E+02  0.96860593491E+03  0.12699999809E+01 0.  1.
</event>
<event>
 5   0  0.3176125E-05  0.2092705E+04  0.7818609E-02  0.8564464E-01
        3   -1    0    0  501    0  0.00000000000E+00  0.00000000000E+00  0.15952145028E+04  0.15952145060E+04  0.10100000352E+00 0.  1.
       -3   -1    0    0    0  501  0.00000000000E+00  0.00000000000E+00 -0.68633613311E+03  0.68633614055E+03  0.10100000352E+00 0. -1.
    10030    2    1    2    0    0  0.00000000000E+00  0.00000000000E+00  0.90887836970E+03  0.22815506466E+04  0.20927048196E+04 0.  0.
        4    1    3    3  502    0 -0.45001160944E+02  0.49004583523E+03 -0.55229685830E+03  0.73973201749E+03  0.12699999809E+01 0. -1.
       -4    1    3    3    0  502  0.45001160944E+02 -0.49004583523E+03  0.14611752280E+04  0.15418186291E+04  0.12699999809E+01 0.  1.
</event>
<event>
 5   0  0.8858590E-05  0.2112517E+04  0.7818609E-02  0.8555749E-01
       -2   -1    0    0    0  501  0.00000000000E+00  0.00000000000E+00  0.12852581976E+04  0.12852581976E+04  0.25500000920E-02 0.  1.
        2   -1    0    0  501    0  0.00000000000E+00  0.00000000000E+00 -0.86806061591E+03  0.86806061592E+03  0.25500000920E-02 0. -1.
    10030    2    1    2    0    0  0.00000000000E+00  0.00000000000E+00  0.41719758165E+03  0.21533188135E+04  0.21125170036E+04 0.  0.
        1    1    3    3  502    0 -0.37952453650E+03  0.92789199581E+03  0.54767916646E+03  0.11423549795E+04  0.50400001928E-02 0. -1.
       -1    1    3    3    0  502  0.37952453650E+03 -0.92789199581E+03 -0.13048158482E+03  0.10109638340E+04  0.50400001928E-02 0.  1.
</event>
<event>
 5   0  0.4050368E-05  0.2098087E+04  0.7818609E-02  0.8562087E-01
       -1   -1    0    0    0  501  0.00000000000E+00  0.00000000000E+00  0.67766576242E+03  0.67766576244E+03  0.50400001928E-02 0. -1.
        1   -1    0    0  501    0  0.00000000000E+00  0.00000000000E+00 -0.16239452293E+04  0.16239452293E+04  0.50400001928E-02 0.  1.
    10030    2    1    2    0    0  0.00000000000E+00  0.00000000000E+00 -0.94627946688E+03  0.23016109917E+04  0.20980868256E+04 0.  0.
        2    1    3    3  502    0 -0.74165880331E+03 -0.71250546284E+03 -0.70001097418E+03  0.12440808571E+04  0.25500000920E-02 0.  1.
       -2    1    3    3    0  502  0.74165880331E+03  0.71250546284E+03 -0.24626849270E+03  0.10575301346E+04  0.25500000920E-02 0. -1.
</event>
<event>
 5   0  0.8872777E-05  0.1931424E+04  0.7818609E-02  0.8639371E-01
       -2   -1    0    0    0  501  0.00000000000E+00  0.00000000000E+00  0.55997754553E+03  0.55997754553E+03  0.25500000920E-02 0. -1.
        2   -1    0    0  501    0  0.00000000000E+00  0.00000000000E+00 -0.16654237522E+04  0.16654237522E+04  0.25500000920E-02 0.  1.
    10030    2    1    2    0    0  0.00000000000E+00  0.00000000000E+00 -0.11054462067E+04  0.22254012978E+04  0.19314242466E+04 0.  0.
        3    1    3    3  502    0 -0.88515759930E+03  0.30822221960E+03 -0.28473892728E+03  0.97958214518E+03  0.10100000352E+00 0.  1.
       -3    1    3    3    0  502  0.88515759930E+03 -0.30822221960E+03 -0.82070727942E+03  0.12458191526E+04  0.10100000352E+00 0. -1.
</event>
<event>
 5   0  0.4200061E-05  0.2083021E+04  0.7818609E-02  0.8568760E-01
        1   -1    0    0  501    0  0.00000000000E+00  0.00000000000E+00  0.23909107474E+04  0.23909107474E+04  0.50400001928E-02 0. -1.
       -1   -1    0    0    0  501  0.00000000000E+00  0.00000000000E+00 -0.45369483538E+03  0.45369483541E+03  0.50400001928E-02 0.  1.
    10030    2    1    2    0    0  0.00000000000E+00  0.00000000000E+00  0.19372159121E+04  0.28446055829E+04  0.20830207469E+04 0.  0.
        4    1    3    3  502    0 -0.58584985027E+03 -0.84501503579E+03  0.74226242691E+03  0.12681583423E+04  0.12699999809E+01 0. -1.
       -4    1    3    3    0  502  0.58584985027E+03  0.84501503579E+03  0.11949534852E+04  0.15764472406E+04  0.12699999809E+01 0.  1.
</event>
<event>
 5   0  0.4182977E-05  0.2110780E+04  0.7818609E-02  0.8556509E-01
       -1   -1    0    0    0  501  0.00000000000E+00  0.00000000000E+00  0.68719635626E+03  0.68719635628E+03  0.50400001928E-02 0. -1.
        1   -1    0    0  501    0  0.00000000000E+00  0.00000000000E+00 -0.16208592559E+04  0.16208592559E+04  0.50400001928E-02 0.  1.
    10030    2    1    2    0    0  0.00000000000E+00  0.00000000000E+00 -0.93366289965E+03  0.23080556122E+04  0.21107804952E+04 0.  0.
        1    1    3    3  502    0 -0.21323509483E+02 -0.96570022492E+03 -0.18637591749E+01  0.96593741520E+03  0.50400001928E-02 0. -1.
       -1    1    3    3    0  502  0.21323509483E+02  0.96570022492E+03 -0.93179914047E+03  0.13421181970E+04  0.50400001928E-02 0.  1.
</event>
<event>
 5   0  0.4128678E-05  0.2101996E+04  0.7818609E-02  0.8560365E-01
        1   -1    0    0  501    0  0.00000000000E+00  0.00000000000E+00  0.16228784217E+04  0.16228784217E+04  0.50400001928E-02 0. -1.
       -1   -1    0    0    0  501  0.00000000000E+00  0.00000000000E+00 -0.68064064502E+03  0.68064064504E+03  0.50400001928E-02 0.  1.
    10030    2    1    2    0    0  0.00000000000E+00  0.00000000000E+00  0.94223777670E+03  0.23035190668E+04  0.21019962091E+04 0.  0.
        5    1    3    3  502    0  0.54150547426E+03  0.85614844770E+03  0.16435966728E+03  0.10262818976E+04  0.46999998093E+01 0.  1.
       -5    1    3    3    0  502 -0.54150547426E+03 -0.85614844770E+03  0.77787810943E+03  0.12772371692E+04  0.46999998093E+01 0. -1.
</event>
<event>
 5   0  0.8547605E-05  0.1984191E+04  0.7818609E-02  0.8614048E-01
       -2   -1    0    0    0  501  0.00000000000E+00  0.00000000000E+00  0.15184376960E+04  0.15184376960E+04  0.25500000920E-02 0. -1.
        2   -1    0    0  501    0  0.00000000000E+00  0.00000000000E+00 -0.64820129517E+03  0.64820129518E+03  0.25500000920E-02 0.  1.
    10030    2    1    2    0    0  0.00000000000E+00  0.00000000000E+00  0.87023640086E+03  0.21666389912E+04  0.19841907985E+04 0.  0.
        4    1    3    3  502    0  0.20377565133E+03 -0.95925759987E+02  0.14901515622E+04  0.15070764940E+04  0.12699999809E+01 0. -1.
       -4    1    3    3    0  502 -0.20377565133E+03  0.95925759987E+02 -0.61991516137E+03  0.65956249719E+03  0.12699999809E+01 0.  1.
</event>
<event>
 5   0  0.4050368E-05  0.1940295E+04  0.7818609E-02  0.8635055E-01
       -1   -1    0    0    0  501  0.00000000000E+00  0.00000000000E+00  0.10743826287E+04  0.10743826287E+04  0.50400001928E-02 0.  1.
        1   -1    0    0  501    0  0.00000000000E+00  0.00000000000E+00 -0.87602505264E+03  0.87602505265E+03  0.50400001928E-02 0. -1.
    10030    2    1    2    0    0  0.00000000000E+00  0.00000000000E+00  0.19835757602E+03  0.19504076813E+04  0.19402949249E+04 0.  0.
        2    1    3    3  502    0 -0.38352185924E+03 -0.61087984884E+03 -0.55298836903E+03  0.90887806802E+03  0.25500000920E-02 0. -1.
       -2    1    3    3    0  502  0.38352185924E+03  0.61087984884E+03  0.75134594505E+03  0.10415296133E+04  0.25500000920E-02 0.  1.
</event>
<event>
 5   0  0.9012466E-05  0.2121340E+04  0.7818609E-02  0.8551901E-01
        2   -1    0    0  501    0  0.00000000000E+00  0.00000000000E+00  0.12413472804E+04  0.12413472804E+04  0.25500000920E-02 0.  1.
       -2   -1    0    0    0  501  0.00000000000E+00  0.00000000000E+00 -0.90629057762E+03  0.90629057762E+03  0.25500000920E-02 0. -1.
    10030    2    1    2    0    0  0.00000000000E+00  0.00000000000E+00  0.33505670282E+03  0.21476378581E+04  0.21213404666E+04 0.  0.
        2    1    3    3  502    0  0.60418136360E+03  0.87143463864E+03  0.14298124614E+03  0.10699892926E+04  0.25500000920E-02 0.  1.
       -2    1    3    3    0  502 -0.60418136360E+03 -0.87143463864E+03  0.19207545667E+03  0.10776485654E+04  0.25500000920E-02 0. -1.
</event>
<event>
 5   0  0.8858590E-05  0.2094542E+04  0.7818609E-02  0.8563652E-01
       -2   -1    0    0    0  501  0.00000000000E+00  0.00000000000E+00  0.64515536581E+03  0.64515536582E+03  0.25500000920E-02 0. -1.
        2   -1    0    0  501    0  0.00000000000E+00  0.00000000000E+00 -0.17000187593E+04  0.17000187593E+04  0.25500000920E-02 0.  1.
    10030    2    1    2    0    0  0.00000000000E+00  0.00000000000E+00 -0.10548633935E+04  0.23451741251E+04  0.20945416917E+04 0.  0.
        1    1    3    3  502    0  0.82729226966E+03  0.62901229266E+03 -0.38270831239E+03  0.11074902330E+04  0.50400001928E-02 0. -1.
       -1    1    3    3    0  502 -0.82729226966E+03 -0.62901229266E+03 -0.67215508107E+03  0.12376838921E+04  0.50400001928E-02 0.  1.
</event>
<event>
 5   0  0.9086985E-05  0.2232452E+04  0.7818609E-02  0.8505041E-01
       -2   -1    0    0    0  501  0.00000000000E+00  0.00000000000E+00  0.87704097341E+03  0.87704097341E+03  0.25500000920E-02 0.  1.
        2   -1    0    0  501    0  0.00000000000E+00  0.00000000000E+00 -0.14206413424E+04  0.14206413424E+04  0.25500000920E-02 0. -1.
    10030    2    1    2    0    0  0.00000000000E+00  0.00000000000E+00 -0.54360036899E+03  0.22976823158E+04  0.22324521637E+04 0.  0.
        5    1    3    3  502    0  0.35893016800E+03  0.41565808204E+03 -0.12719639323E+04  0.13854662904E+04  0.46999998093E+01 0. -1.
       -5    1    3    3    0  502 -0.35893016800E+03 -0.41565808204E+03  0.72836356333E+03  0.91221602543E+03  0.46999998093E+01 0.  1.
</event>
<event>
 5   0  0.4050368E-05  0.2092325E+04  0.7818609E-02  0.8564632E-01
        1   -1    0    0  501    0  0.00000000000E+00  0.00000000000E+00  0.21074567425E+04  0.21074567425E+04  0.50400001928E-02 0.  1.
       -1   -1    0    0    0  501  0.00000000000E+00  0.00000000000E+00 -0.51932546216E+03  0.51932546218E+03  0.50400001928E-02 0. -1.
    10030    2    1    2    0    0  0.00000000000E+00  0.00000000000E+00  0.15881312804E+04  0.26267822047E+04  0.20923249717E+04 0.  0.
        2    1    3    3  502    0 -0.39304771247E+02 -0.14226489593E+03 -0.50618882844E+03  0.52726776471E+03  0.25500000920E-02 0. -1.
       -2    1    3    3    0  502  0.39304771247E+02  0.14226489593E+03  0.20943201088E+04  0.20995144400E+04  0.25500000920E-02 0.  1.
</event>
<event>
 5   0  0.4200061E-05  0.2101306E+04  0.7818609E-02  0.8560668E-01
        1   -1    0    0  501    0  0.00000000000E+00  0.00000000000E+00  0.16183035473E+04  0.16183035473E+04  0.50400001928E-02 0.  1.
       -1   -1    0    0    0  501  0.00000000000E+00  0.00000000000E+00 -0.68211632396E+03  0.68211632398E+03  0.50400001928E-02 0. -1.
    10030    2    1    2    0    0  0.00000000000E+00  0.00000000000E+00  0.93618722332E+03  0.23004198713E+04  0.21013055625E+04 0.  0.
        4    1    3    3  502    0  0.27062903736E+03 -0.41843686887E+03 -0.54450680505E+03  0.73811839344E+03  0.12699999809E+01 0. -1.
       -4    1    3    3    0  502 -0.27062903736E+03  0.41843686887E+03  0.14806940284E+04  0.15623014778E+04  0.12699999809E+01 0.  1.
</event>
<event>
 5   0  0.8547605E-05  0.2111509E+04  0.7818609E-02  0.8556190E-01
        2   -1    0    0  501    0  0.00000000000E+00  0.00000000000E+00  0.23883942191E+04  0.23883942191E+04  0.25500000920E-02 0. -1.
       -2   -1    0    0    0  501  0.00000000000E+00  0.00000000000E+00 -0.46668074422E+03  0.46668074422E+03  0.25500000920E-02 0.  1.
    10030    2    1    2    0    0  0.00000000000E+00  0.00000000000E+00  0.19217134749E+04  0.28550749633E+04  0.21115090259E+04 0.  0.
        4    1    3    3  502    0  0.68410022852E+03 -0.28532993945E+03 -0.55694725412E+02  0.74331003784E+03  0.12699999809E+01 0.  1.
       -4    1    3    3    0  502 -0.68410022852E+03  0.28532993945E+03  0.19774082003E+04  0.21117649255E+04  0.12699999809E+01 0. -1.
</event>
<event>
 5   0  0.8872777E-05  0.2094647E+04  0.7818609E-02  0.8563605E-01
        2   -1    0    0  501    0  0.00000000000E+00  0.00000000000E+00  0.12521346070E+04  0.12521346070E+04  0.25500000920E-02 0. -1.
       -2   -1    0    0    0  501  0.00000000000E+00  0.00000000000E+00 -0.87601334479E+03  0.87601334479E+03  0.25500000920E-02 0.  1.
    10030    2    1    2    0    0  0.00000000000E+00  0.00000000000E+00  0.37612126218E+03  0.21281479518E+04  0.20946471065E+04 0.  0.
        3    1    3    3  502    0  0.64031825292E+03 -0.49435833598E+03  0.86389797231E+03  0.11835190519E+04  0.10100000352E+00 0. -1.
       -3    1    3    3    0  502 -0.64031825292E+03  0.49435833598E+03 -0.48777671013E+03  0.94462889990E+03  0.10100000352E+00 0.  1.
</event>
<event>
 5   0  0.4182977E-05  0.2022567E+04  0.7818609E-02  0.8596142E-01
        1   -1    0    0  501    0  0.00000000000E+00  0.00000000000E+00  0.16308220211E+04  0.16308220212E+04  0.50400001928E-02 0.  1.
       -1   -1    0    0    0  501  0.00000000000E+00  0.00000000000E+00 -0.62710331108E+03  0.62710331110E+03  0.50400001928E-02 0. -1.
    10030    2    1    2    0    0  0.00000000000E+00  0.00000000000E+00  0.10037187101E+04  0.22579253323E+04  0.20225665767E+04 0.  0.
        1    1    3    3  502    0  0.42085227816E+03  0.20862788714E+03 -0.49792864371E+03  0.68452550689E+03  0.50400001928E-02 0. -1.
       -1    1    3    3    0  502 -0.42085227816E+03 -0.20862788714E+03  0.15016473538E+04  0.15733998254E+04  0.50400001928E-02 0.  1.
</event>
<event>
 5   0  0.4182977E-05  0.2102324E+04  0.7818609E-02  0.8560220E-01
       -1   -1    0    0    0  501  0.00000000000E+00  0.00000000000E+00  0.76547588221E+03  0.76547588223E+03  0.50400001928E-02 0.  1.
        1   -1    0    0  501    0  0.00000000000E+00  0.00000000000E+00 -0.14434702127E+04  0.14434702127E+04  0.50400001928E-02 0. -1.
    10030    2    1    2    0    0  0.00000000000E+00  0.00000000000E+00 -0.67799433046E+03  0.22089460949E+04  0.21023240802E+04 0.  0.
        1    1    3    3  502    0  0.42514422570E+03  0.48150105976E+03 -0.12132731258E+04  0.13728155597E+04  0.50400001928E-02 0. -1.
       -1    1    3    3    0  502 -0.42514422570E+03 -0.48150105976E+03  0.53527879530E+03  0.83613053522E+03  0.50400001928E-02 0.  1.
</event>
<event>
 5   0  0.4050368E-05  0.2017897E+04  0.7818609E-02  0.8598299E-01
        1   -1    0    0  501    0  0.00000000000E+00  0.00000000000E+00  0.15580617378E+04  0.15580617379E+04  0.50400001928E-02 0. -1.
       -1   -1    0    0    0  501  0.00000000000E+00  0.00000000000E+00 -0.65336132147E+03  0.65336132149E+03  0.50400001928E-02 0.  1.
    10030    2    1    2    0    0  0.00000000000E+00  0.00000000000E+00  0.90470041638E+03  0.22114230593E+04  0.20178971986E+04 0.  0.
        2    1    3    3  502    0  0.16936618692E+03  0.47044753386E+02 -0.63645148675E+03  0.66027919026E+03  0.25500000920E-02 0.  1.
       -2    1    3    3    0  502 -0.16936618692E+03 -0.47044753386E+02  0.15411519031E+04  0.15511438691E+04  0.25500000920E-02 0. -1.
</event>
<event>
 5   0  0.4050368E-05  0.2091534E+04  0.7818609E-02  0.8564982E-01
        1   -1    0    0  501    0  0.00000000000E+00  0.00000000000E+00  0.10905811447E+04  0.10905811447E+04  0.50400001928E-02 0. -1.
       -1   -1    0    0    0  501  0.00000000000E+00  0.00000000000E+00 -0.10027939344E+04  0.10027939344E+04  0.50400001928E-02 0.  1.
    10030    2    1    2    0    0  0.00000000000E+00  0.00000000000E+00  0.87787210282E+02  0.20933750792E+04  0.20915335588E+04 0.  0.
        2    1    3    3  502    0  0.58448734729E+03 -0.79152948587E+03 -0.31065517286E+03  0.10318192781E+04  0.25500000920E-02 0. -1.
       -2    1    3    3    0  502 -0.58448734729E+03  0.79152948587E+03  0.39844238314E+03  0.10615558011E+04  0.25500000920E-02 0.  1.
</event>
<event>
 5   0  0.9086985E-05  0.2113709E+04  0.7818609E-02  0.8555228E-01
       -2   -1    0    0    0  501  0.00000000000E+00  0.00000000000E+00  0.73700064061E+03  0.73700064061E+03  0.25500000920E-02 0.  1.
        2   -1    0    0  501    0  0.00000000000E+00  0.00000000000E+00 -0.15155234800E+04  0.15155234800E+04  0.25500000920E-02 0. -1.
    10030    2    1    2    0    0  0.00000000000E+00  0.00000000000E+00 -0.77852283939E+03  0.22525241206E+04  0.21137093231E+04 0.  0.
        5    1    3    3  502    0  0.79661310137E+03  0.69441501287E+03 -0.40069159441E+03  0.11302125850E+04  0.46999998093E+01 0. -1.
       -5    1    3    3    0  502 -0.79661310137E+03 -0.69441501287E+03 -0.37783124498E+03  0.11223115356E+04  0.46999998093E+01 0.  1.
</event>
<event>
 5   0  0.4128678E-05  0.2086960E+04  0.7818609E-02  0.8567009E-01
       -1   -1    0    0    0  501  0.00000000000E+00  0.00000000000E+00  0.98226590619E+03  0.98226590620E+03  0.50400001928E-02 0.  1.
        1   -1    0    0  501    0  0.00000000000E+00  0.00000000000E+00 -0.11085089580E+04  0.11085089580E+04  0.50400001928E-02 0. -1.
    10030    2    1    2    0    0  0.00000000000E+00  0.00000000000E+00 -0.12624305183E+03  0.20907748642E+04  0.20869600439E+04 0.  0.
        5    1    3    3  502    0 -0.62639166254E+03 -0.74867073646E+03  0.30627198170E+03  0.10230830872E+04  0.46999998093E+01 0.  1.
       -5    1    3    3    0  502  0.62639166254E+03  0.74867073646E+03 -0.43251503353E+03  0.10676917770E+04  0.46999998093E+01 0. -1.
</event>
<event>
 5   0  0.4174093E-05  0.1928149E+04  0.7818609E-02  0.8640971E-01
       -1   -1    0    0    0  501  0.00000000000E+00  0.00000000000E+00  0.14085880020E+04  0.14085880020E+04  0.50400001928E-02 0. -1.
        1   -1    0    0  501    0  0.00000000000E+00  0.00000000000E+00 -0.65983752627E+03  0.65983752629E+03  0.50400001928E-02 0.  1.
    10030    2    1    2    0    0  0.00000000000E+00  0.00000000000E+00  0.74875047576E+03  0.20684255283E+04  0.19281485657E+04 0.  0.
        3    1    3    3  502    0 -0.34757280472E+03  0.20749245840E+03 -0.56425484471E+03  0.69443755288E+03  0.10100000352E+00 0.  1.
       -3    1    3    3    0  502  0.34757280472E+03 -0.20749245840E+03  0.13130053205E+04  0.13739879754E+04  0.10100000352E+00 0. -1.
</event>
<event>
 5   0  0.4128678E-05  0.2080504E+04  0.7818609E-02  0.8569880E-01
        1   -1    0    0  501    0  0.00000000000E+00  0.00000000000E+00  0.90337653644E+03  0.90337653645E+03  0.50400001928E-02 0. -1.
       -1   -1    0    0    0  501  0.00000000000E+00  0.00000000000E+00 -0.11978663076E+04  0.11978663076E+04  0.50400001928E-02 0.  1.
    10030    2    1    2    0    0  0.00000000000E+00  0.00000000000E+00 -0.29448977113E+03  0.21012428440E+04  0.20805040890E+04 0.  0.
        5    1    3    3  502    0  0.37696378841E+03 -0.76306217153E+03 -0.75131784015E+03  0.11352824152E+04  0.46999998093E+01 0.  1.
       -5    1    3    3    0  502 -0.37696378841E+03  0.76306217153E+03  0.45682806901E+03  0.96596042881E+03  0.46999998093E+01 0. -1.
</event>
<event>
 5   0  0.4200061E-05  0.2097400E+04  0.7818609E-02  0.8562390E-01
       -1   -1    0    0    0  501  0.00000000000E+00  0.00000000000E+00  0.61888427095E+03  0.61888427097E+03  0.50400001928E-02 0.  1.
        1   -1    0    0  501    0  0.00000000000E+00  0.00000000000E+00 -0.17770230244E+04  0.17770230244E+04  0.50400001928E-02 0. -1.
    10030    2    1    2    0    0  0.00000000000E+00  0.00000000000E+00 -0.11581387535E+04  0.23959072954E+04  0.20973999132E+04 0.  0.
        4    1    3    3  502    0  0.26098014919E+03  0.41633601706E+02  0.58021977865E+03  0.63757399532E+03  0.12699999809E+01 0.  1.
       -4    1    3    3    0  502 -0.26098014919E+03 -0.41633601706E+02 -0.17383585321E+04  0.17583333001E+04  0.12699999809E+01 0. -1.
</event>
<event>
 5   0  0.9012466E-05  0.2093770E+04  0.7818609E-02  0.8563993E-01
        2   -1    0    0  501    0  0.00000000000E+00  0.00000000000E+00  0.10479979571E+04  0.10479979571E+04  0.25500000920E-02 0.  1.
       -2   -1    0    0    0  501  0.00000000000E+00  0.00000000000E+00 -0.10457728822E+04  0.10457728822E+04  0.25500000920E-02 0. -1.
    10030    2    1    2    0    0  0.00000000000E+00  0.00000000000E+00  0.22250748534E+01  0.20937708393E+04  0.20937696570E+04 0.  0.
        2    1    3    3  502    0 -0.44158473097E+03 -0.25029326473E+03  0.91671343187E+03  0.10478584395E+04  0.25500000920E-02 0.  1.
       -2    1    3    3    0  502  0.44158473097E+03  0.25029326473E+03 -0.91448835701E+03  0.10459123998E+04  0.25500000920E-02 0. -1.
</event>
<event>
 5   0  0.8858590E-05  0.2121435E+04  0.7818609E-02  0.8551860E-01
        2   -1    0    0  501    0  0.00000000000E+00  0.00000000000E+00  0.62602501578E+03  0.62602501578E+03  0.25500000920E-02 0.  1.
       -2   -1    0    0    0  501  0.00000000000E+00  0.00000000000E+00 -0.17972463643E+04  0.17972463643E+04  0.25500000920E-02 0. -1.
    10030    2    1    2    0    0  0.00000000000E+00  0.00000000000E+00 -0.11712213486E+04  0.24232713801E+04  0.21214345935E+04 0.  0.
        1    1    3    3  502    0 -0.39479839154E+03  0.97309014766E+03 -0.75638425067E+03  0.12941743855E+04  0.50400001928E-02 0.  1.
       -1    1    3    3    0  502  0.39479839154E+03 -0.97309014766E+03 -0.41483709790E+03  0.11290969946E+04  0.50400001928E-02 0. -1.
</event>
<event>
 5   0  0.4128678E-05  0.2046982E+04  0.7818609E-02  0.8584965E-01
       -1   -1    0    0    0  501  0.00000000000E+00  0.00000000000E+00  0.10096428772E+04  0.10096428772E+04  0.50400001928E-02 0.  1.
        1   -1    0    0  501    0  0.00000000000E+00  0.00000000000E+00 -0.10375287112E+04  0.10375287112E+04  0.50400001928E-02 0. -1.
    10030    2    1    2    0    0  0.00000000000E+00  0.00000000000E+00 -0.27885834057E+02  0.20471715884E+04  0.20469816542E+04 0.  0.
        5    1    3    3  502    0 -0.84730825191E+03  0.36672487864E+03 -0.45567720237E+03  0.10296029395E+04  0.46999998093E+01 0. -1.
       -5    1    3    3    0  502  0.84730825191E+03 -0.36672487864E+03  0.42779136832E+03  0.10175686489E+04  0.46999998093E+01 0.  1.
</event>
<event>
 5   0  0.4050368E-05  0.2117778E+04  0.7818609E-02  0.8553452E-01
       -1   -1    0    0    0  501  0.00000000000E+00  0.00000000000E+00  0.21323284784E+04  0.21323284784E+04  0.50400001928E-02 0. -1.
        1   -1    0    0  501    0  0.00000000000E+00  0.00000000000E+00 -0.52583149295E+03  0.52583149297E+03  0.50400001928E-02 0.  1.
    10030    2    1    2    0    0  0.00000000000E+00  0.00000000000E+00  0.16064969855E+04  0.26581599714E+04  0.21177775779E+04 0.  0.
        2    1    3    3  502    0  0.61463162901E+03  0.69915494642E+03  0.14366477422E+04  0.17118838785E+04  0.25500000920E-02 0. -1.
       -2    1    3    3    0  502 -0.61463162901E+03 -0.69915494642E+03  0.16984924330E+03  0.94627609287E+03  0.25500000920E-02 0.  1.
</event>
<event>
 5   0  0.4174093E-05  0.2113398E+04  0.7818609E-02  0.8555364E-01
       -1   -1    0    0    0  501  0.00000000000E+00  0.00000000000E+00  0.12845326610E+04  0.12845326610E+04  0.50400001928E-02 0.  1.
        1   -1    0    0  501    0  0.00000000000E+00  0.00000000000E+00 -0.86927541606E+03  0.86927541608E+03  0.50400001928E-02 0. -1.
    10030    2    1    2    0    0  0.00000000000E+00  0.00000000000E+00  0.41525724493E+03  0.21538080771E+04  0.21133978928E+04 0.  0.
        3    1    3    3  502    0  0.15520197526E+03  0.67926095189E+03  0.10172556390E+04  0.12330012730E+04  0.10100000352E+00 0.  1.
       -3    1    3    3    0  502 -0.15520197526E+03 -0.67926095189E+03 -0.60199839405E+03  0.92080680412E+03  0.10100000352E+00 0. -1.
</event>
<event>
 5   0  0.9012466E-05  0.2100804E+04  0.7818609E-02  0.8560889E-01
        2   -1    0    0  501    0  0.00000000000E+00  0.00000000000E+00  0.14150522655E+04  0.14150522655E+04  0.25500000920E-02 0.  1.
       -2   -1    0    0    0  501  0.00000000000E+00  0.00000000000E+00 -0.77972007115E+03  0.77972007116E+03  0.25500000920E-02 0. -1.
    10030    2    1    2    0    0  0.00000000000E+00  0.00000000000E+00  0.63533219437E+03  0.21947723367E+04  0.21008042776E+04 0.  0.
        2    1    3    3  502    0 -0.70756660993E+03  0.14257358142E+02 -0.49325597386E+03  0.86264432735E+03  0.25500000920E-02 0. -1.
       -2    1    3    3    0  502  0.70756660993E+03 -0.14257358142E+02  0.11285881682E+04  0.13321280093E+04  0.25500000920E-02 0.  1.
</event>
<event>
 5   0  0.8858590E-05  0.2140052E+04  0.7818609E-02  0.8543802E-01
        2   -1    0    0  501    0  0.00000000000E+00  0.00000000000E+00  0.91023709947E+03  0.91023709947E+03  0.25500000920E-02 0.  1.
       -2   -1    0    0    0  501  0.00000000000E+00  0.00000000000E+00 -0.12578654291E+04  0.12578654291E+04  0.25500000920E-02 0. -1.
    10030    2    1    2    0    0  0.00000000000E+00  0.00000000000E+00 -0.34762832960E+03  0.21681025285E+04  0.21400521299E+04 0.  0.
        1    1    3    3  502    0 -0.67324306114E+03 -0.53372869904E+03 -0.82000928789E+03  0.11876606316E+04  0.50400001928E-02 0. -1.
       -1    1    3    3    0  502  0.67324306114E+03  0.53372869904E+03  0.47238095829E+03  0.98044189697E+03  0.50400001928E-02 0.  1.
</event>
<event>
 5   0  0.4182977E-05  0.2105526E+04  0.7818609E-02  0.8558813E-01
       -1   -1    0    0    0  501  0.00000000000E+00  0.00000000000E+00  0.67522232064E+03  0.67522232066E+03  0.50400001928E-02 0. -1.
        1   -1    0    0  501    0  0.00000000000E+00  0.00000000000E+00 -0.16413997806E+04  0.16413997806E+04  0.50400001928E-02 0.  1.
    10030    2    1    2    0    0  0.00000000000E+00  0.00000000000E+00 -0.96617745994E+03  0.23166221013E+04  0.21055258431E+04 0.  0.
        1    1    3    3  502    0  0.94511147574E+03 -0.42920267385E+03 -0.67636853243E+03  0.12389209129E+04  0.50400001928E-02 0.  1.
       -1    1    3    3    0  502 -0.94511147574E+03  0.42920267385E+03 -0.28980892752E+03  0.10777011883E+04  0.50400001928E-02 0. -1.
</event>
<event>
 5   0  0.9012466E-05  0.2086524E+04  0.7818609E-02  0.8567203E-01
        2   -1    0    0  501    0  0.00000000000E+00  0.00000000000E+00  0.17585437689E+04  0.17585437689E+04  0.25500000920E-02 0.  1.
       -2   -1    0    0    0  501  0.00000000000E+00  0.00000000000E+00 -0.61891840548E+03  0.61891840548E+03  0.25500000920E-02 0. -1.
    10030    2    1    2    0    0  0.00000000000E+00  0.00000000000E+00  0.11396253634E+04  0.23774621744E+04  0.20865235253E+04 0.  0.
        2    1    3    3  502    0  0.94580604349E+03 -0.42673111026E+03  0.69330680511E+03  0.12479274171E+04  0.25500000920E-02 0.  1.
       -2    1    3    3    0  502 -0.94580604349E+03  0.42673111026E+03  0.44631855830E+03  0.11295347573E+04  0.25500000920E-02 0. -1.
</event>
<event>
 5   0  0.4200061E-05  0.1686735E+04  0.7818609E-02  0.8768966E-01
       -1   -1    0    0    0  501  0.00000000000E+00  0.00000000000E+00  0.72311210464E+03  0.72311210466E+03  0.50400001928E-02 0.  1.
        1   -1    0    0  501    0  0.00000000000E+00  0.00000000000E+00 -0.98362224474E+03  0.98362224475E+03  0.50400001928E-02 0. -1.
    10030    2    1    2    0    0  0.00000000000E+00  0.00000000000E+00 -0.26051014010E+03  0.17067343494E+04  0.16867354880E+04 0.  0.
        4    1    3    3  502    0  0.54738025059E+03 -0.44007616144E+03 -0.60266896253E+03  0.92547482834E+03  0.12699999809E+01 0. -1.
       -4    1    3    3    0  502 -0.54738025059E+03  0.44007616144E+03  0.34215882243E+03  0.78125952107E+03  0.12699999809E+01 0.  1.
</event>
<event>
 5   0  0.4174093E-05  0.2083251E+04  0.7818609E-02  0.8568658E-01
        1   -1    0    0  501    0  0.00000000000E+00  0.00000000000E+00  0.16349376983E+04  0.16349376983E+04  0.50400001928E-02 0.  1.
       -1   -1    0    0    0  501  0.00000000000E+00  0.00000000000E+00 -0.66362379867E+03  0.66362379869E+03  0.50400001928E-02 0. -1.
    10030    2    1    2    0    0  0.00000000000E+00  0.00000000000E+00  0.97131389961E+03  0.22985614970E+04  0.20832508883E+04 0.  0.
        3    1    3    3  502    0 -0.48003260813E+03  0.86619199855E+03  0.84192843236E+03  0.12998320579E+04  0.10100000352E+00 0.  1.
       -3    1    3    3    0  502  0.48003260813E+03 -0.86619199855E+03  0.12938546725E+03  0.99872943911E+03  0.10100000352E+00 0. -1.
</event>
<event>
 5   0  0.9086985E-05  0.2127766E+04  0.7818609E-02  0.8549110E-01
       -2   -1    0    0    0  501  0.00000000000E+00  0.00000000000E+00  0.69457763712E+03  0.69457763713E+03  0.25500000920E-02 0.  1.
        2   -1    0    0  501    0  0.00000000000E+00  0.00000000000E+00 -0.16295472556E+04  0.16295472556E+04  0.25500000920E-02 0. -1.
    10030    2    1    2    0    0  0.00000000000E+00  0.00000000000E+00 -0.93496961845E+03  0.23241248927E+04  0.21277660420E+04 0.  0.
        5    1    3    3  502    0  0.27574314941E+03  0.81052243387E+02  0.65135813123E+03  0.71196436409E+03  0.46999998093E+01 0.  1.
       -5    1    3    3    0  502 -0.27574314941E+03 -0.81052243387E+02 -0.15863277497E+04  0.16121605286E+04  0.46999998093E+01 0. -1.
</event>
<event>
 5   0  0.9012466E-05  0.2107922E+04  0.7818609E-02  0.8557762E-01
       -2   -1    0    0    0  501  0.00000000000E+00  0.00000000000E+00  0.73610011394E+03  0.73610011394E+03  0.25500000920E-02 0. -1.
        2   -1    0    0  501    0  0.00000000000E+00  0.00000000000E+00 -0.15090791440E+04  0.15090791440E+04  0.25500000920E-02 0.  1.
    10030    2    1    2    0    0  0.00000000000E+00  0.00000000000E+00 -0.77297903006E+03  0.22451792579E+04  0.21079215639E+04 0.  0.
        2    1    3    3  502    0 -0.38563676924E+03  0.53145841491E+03 -0.12645925663E+04  0.14249063560E+04  0.25500000920E-02 0.  1.
       -2    1    3    3    0  502  0.38563676924E+03 -0.53145841491E+03  0.49161353628E+03  0.82027290192E+03  0.25500000920E-02 0. -1.
</event>
<event>
 5   0  0.3176125E-05  0.1984266E+04  0.7818609E-02  0.8614012E-01
       -3   -1    0    0    0  501  0.00000000000E+00  0.00000000000E+00  0.16077231619E+04  0.16077231651E+04  0.10100000352E+00 0.  1.
        3   -1    0    0  501    0  0.00000000000E+00  0.00000000000E+00 -0.61224947267E+03  0.61224948100E+03  0.10100000352E+00 0. -1.
    10030    2    1    2    0    0  0.00000000000E+00  0.00000000000E+00  0.99547368924E+03  0.22199726461E+04  0.19842657794E+04 0.  0.
        2    1    3    3  502    0 -0.21429464190E+03 -0.96625756563E+03  0.42061514530E+03  0.10754036345E+04  0.25500000920E-02 0. -1.
       -2    1    3    3    0  502  0.21429464190E+03  0.96625756563E+03  0.57485854395E+03  0.11445690116E+04  0.25500000920E-02 0.  1.
</event>
<event>
 5   0  0.4128678E-05  0.2091168E+04  0.7818609E-02  0.8565144E-01
       -1   -1    0    0    0  501  0.00000000000E+00  0.00000000000E+00  0.16367286482E+04  0.16367286482E+04  0.50400001928E-02 0. -1.
        1   -1    0    0  501    0  0.00000000000E+00  0.00000000000E+00 -0.66794567901E+03  0.66794567903E+03  0.50400001928E-02 0.  1.
    10030    2    1    2    0    0  0.00000000000E+00  0.00000000000E+00  0.96878296921E+03  0.23046743273E+04  0.20911679304E+04 0.  0.
        5    1    3    3  502    0 -0.59411452400E+03  0.47316456669E+03  0.12763453419E+04  0.14852394745E+04  0.46999998093E+01 0. -1.
       -5    1    3    3    0  502  0.59411452400E+03 -0.47316456669E+03 -0.30756237270E+03  0.81943485275E+03  0.46999998093E+01 0.  1.
</event>
<event>
 5   0  0.4050368E-05  0.2101383E+04  0.7818609E-02  0.8560635E-01
       -1   -1    0    0    0  501  0.00000000000E+00  0.00000000000E+00  0.86172173345E+03  0.86172173347E+03  0.50400001928E-02 0. -1.
        1   -1    0    0  501    0  0.00000000000E+00  0.00000000000E+00 -0.12811005072E+04  0.12811005072E+04  0.50400001928E-02 0.  1.
    10030    2    1    2    0    0  0.00000000000E+00  0.00000000000E+00 -0.41937877378E+03  0.21428222407E+04  0.21013825448E+04 0.  0.
        2    1    3    3  502    0  0.13145867056E+03  0.10286356295E+04 -0.37300839202E+02  0.10376723919E+04  0.25500000920E-02 0. -1.
       -2    1    3    3    0  502 -0.13145867056E+03 -0.10286356295E+04 -0.38207793458E+03  0.11051498488E+04  0.25500000920E-02 0.  1.
</event>
<event>
 5   0  0.4182977E-05  0.2175577E+04  0.7818609E-02  0.8528663E-01
       -1   -1    0    0    0  501  0.00000000000E+00  0.00000000000E+00  0.59522781135E+03  0.59522781137E+03  0.50400001928E-02 0. -1.
        1   -1    0    0  501    0  0.00000000000E+00  0.00000000000E+00 -0.19879510753E+04  0.19879510753E+04  0.50400001928E-02 0.  1.
    10030    2    1    2    0    0  0.00000000000E+00  0.00000000000E+00 -0.13927232640E+04  0.25831788867E+04  0.21755769512E+04 0.  0.
        1    1    3    3  502    0  0.18904117732E+03 -0.24579259165E+02 -0.19679629295E+04  0.19771744482E+04  0.50400001928E-02 0.  1.
       -1    1    3    3    0  502 -0.18904117732E+03  0.24579259165E+02  0.57523966551E+03  0.60600443852E+03  0.50400001928E-02 0. -1.
</event>
<event>
 5   0  0.9012466E-05  0.2113016E+04  0.7818609E-02  0.8555531E-01
        2   -1    0    0  501    0  0.00000000000E+00  0.00000000000E+00  0.15134149117E+04  0.15134149117E+04  0.25500000920E-02 0. -1.
       -2   -1    0    0    0  501  0.00000000000E+00  0.00000000000E+00 -0.73754326845E+03  0.73754326846E+03  0.25500000920E-02 0.  1.
    10030    2    1    2    0    0  0.00000000000E+00  0.00000000000E+00  0.77587164326E+03  0.22509581802E+04  0.21130158357E+04 0.  0.
        2    1    3    3  502    0  0.83586798813E+03  0.63363356954E+03  0.52286207309E+03  0.11719861524E+04  0.25500000920E-02 0. -1.
       -2    1    3    3    0  502 -0.83586798813E+03 -0.63363356954E+03  0.25300957017E+03  0.10789720277E+04  0.25500000920E-02 0.  1.
</event>
<event>
 5   0  0.4182977E-05  0.2123625E+04  0.7818609E-02  0.8550907E-01
       -1   -1    0    0    0  501  0.00000000000E+00  0.00000000000E+00  0.91468018634E+03  0.91468018636E+03  0.50400001928E-02 0.  1.
        1   -1    0    0  501    0  0.00000000000E+00  0.00000000000E+00 -0.12326121712E+04  0.12326121712E+04  0.50400001928E-02 0. -1.
    10030    2    1    2    0    0  0.00000000000E+00  0.00000000000E+00 -0.31793198482E+03  0.21472923575E+04  0.21236251368E+04 0.  0.
        1    1    3    3  502    0  0.41941747791E+03 -0.24344386353E+03  0.79616176284E+03  0.93222823820E+03  0.50400001928E-02 0.  1.
       -1    1    3    3    0  502 -0.41941747791E+03  0.24344386353E+03 -0.11140937477E+04  0.12150641193E+04  0.50400001928E-02 0. -1.
</event>
<event>
 5   0  0.9086985E-05  0.2106575E+04  0.7818609E-02  0.8558352E-01
       -2   -1    0    0    0  501  0.00000000000E+00  0.00000000000E+00  0.47992174024E+03  0.47992174025E+03  0.25500000920E-02 0. -1.
        2   -1    0    0  501    0  0.00000000000E+00  0.00000000000E+00 -0.23116578558E+04  0.23116578558E+04  0.25500000920E-02 0.  1.
    10030    2    1    2    0    0  0.00000000000E+00  0.00000000000E+00 -0.18317361156E+04  0.27915795961E+04  0.21065752880E+04 0.  0.
        5    1    3    3  502    0  0.47463972653E+03 -0.32068674437E+03  0.25544660531E+03  0.62721441006E+03  0.46999998093E+01 0. -1.
       -5    1    3    3    0  502 -0.47463972653E+03  0.32068674437E+03 -0.20871827209E+04  0.21643651860E+04  0.46999998093E+01 0.  1.
</event>
<event>
 5   0  0.4174093E-05  0.2176594E+04  0.7818609E-02  0.8528234E-01
       -1   -1    0    0    0  501  0.00000000000E+00  0.00000000000E+00  0.82915639447E+03  0.82915639449E+03  0.50400001928E-02 0. -1.
        1   -1    0    0  501    0  0.00000000000E+00  0.00000000000E+00 -0.14284279017E+04  0.14284279017E+04  0.50400001928E-02 0.  1.
    10030    2    1    2    0    0  0.00000000000E+00  0.00000000000E+00 -0.59927150727E+03  0.22575842962E+04  0.21765937874E+04 0.  0.
        3    1    3    3  502    0 -0.46525024784E+03  0.91200785914E+03 -0.68238440772E+03  0.12303920588E+04  0.10100000352E+00 0.  1.
       -3    1    3    3    0  502  0.46525024784E+03 -0.91200785914E+03  0.83112900447E+02  0.10271922374E+04  0.10100000352E+00 0. -1.
</event>
<event>
 5   0  0.4128678E-05  0.2092240E+04  0.7818609E-02  0.8564670E-01
        1   -1    0    0  501    0  0.00000000000E+00  0.00000000000E+00  0.13109897747E+04  0.13109897747E+04  0.50400001928E-02 0.  1.
       -1   -1    0    0    0  501  0.00000000000E+00  0.00000000000E+00 -0.83476359760E+03  0.83476359762E+03  0.50400001928E-02 0. -1.
    10030    2    1    2    0    0  0.00000000000E+00  0.00000000000E+00  0.47622617711E+03  0.21457533723E+04  0.20922395090E+04 0.  0.
        5    1    3    3  502    0 -0.10536400861E+03  0.10268302994E+04  0.63878361066E+02  0.10342072197E+04  0.46999998093E+01 0. -1.
       -5    1    3    3    0  502  0.10536400861E+03 -0.10268302994E+04  0.41234781604E+03  0.11115461527E+04  0.46999998093E+01 0.  1.
</event>
<event>
 5   0  0.4128678E-05  0.2086631E+04  0.7818609E-02  0.8567156E-01
        1   -1    0    0  501    0  0.00000000000E+00  0.00000000000E+00  0.21600864094E+04  0.21600864094E+04  0.50400001928E-02 0.  1.
       -1   -1    0    0    0  501  0.00000000000E+00  0.00000000000E+00 -0.50391834306E+03  0.50391834308E+03  0.50400001928E-02 0. -1.
    10030    2    1    2    0    0  0.00000000000E+00  0.00000000000E+00  0.16561680664E+04  0.26640047525E+04  0.20866309346E+04 0.  0.
        5    1    3    3  502    0 -0.48060471647E+03 -0.23295936013E+03  0.19723063847E+04  0.20433466475E+04  0.46999998093E+01 0.  1.
       -5    1    3    3    0  502  0.48060471647E+03  0.23295936013E+03 -0.31613831832E+03  0.62065810497E+03  0.46999998093E+01 0. -1.
</event>
<event>
 5   0  0.9012466E-05  0.2087035E+04  0.7818609E-02  0.8566976E-01
       -2   -1    0    0    0  501  0.00000000000E+00  0.00000000000E+00  0.50649728058E+03  0.50649728058E+03  0.25500000920E-02 0. -1.
        2   -1    0    0  501    0  0.00000000000E+00  0.00000000000E+00 -0.21499194992E+04  0.21499194992E+04  0.25500000920E-02 0.  1.
    10030    2    1    2    0    0  0.00000000000E+00  0.00000000000E+00 -0.16434222187E+04  0.26564167798E+04  0.20870346234E+04 0.  0.
        2    1    3    3  502    0 -0.80703975068E+03 -0.44823994863E+03 -0.14409556342E+04  0.17113110034E+04  0.25500000920E-02 0.  1.
       -2    1    3    3    0  502  0.80703975068E+03  0.44823994863E+03 -0.20246658444E+03  0.94510577638E+03  0.25500000920E-02 0. -1.
</event>
<event>
 5   0  0.3176125E-05  0.2086607E+04  0.7818609E-02  0.8567166E-01
        3   -1    0    0  501    0  0.00000000000E+00  0.00000000000E+00  0.11334044608E+04  0.11334044653E+04  0.10100000352E+00 0.  1.
       -3   -1    0    0    0  501  0.00000000000E+00  0.00000000000E+00 -0.96036506190E+03  0.96036506721E+03  0.10100000352E+00 0. -1.
    10030    2    1    2    0    0  0.00000000000E+00  0.00000000000E+00  0.17303939891E+03  0.20937695325E+04  0.20866068680E+04 0.  0.
        2    1    3    3  502    0  0.10465286936E+03 -0.79480236581E+03 -0.58346910468E+03  0.99151360046E+03  0.25500000920E-02 0. -1.
       -2    1    3    3    0  502 -0.10465286936E+03  0.79480236581E+03  0.75650850359E+03  0.11022559321E+04  0.25500000920E-02 0.  1.
</event>
<event>
 5   0  0.4182977E-05  0.1994533E+04  0.7818609E-02  0.8609181E-01
        1   -1    0    0  501    0  0.00000000000E+00  0.00000000000E+00  0.10857840574E+04  0.10857840574E+04  0.50400001928E-02 0.  1.
       -1   -1    0    0    0  501  0.00000000000E+00  0.00000000000E+00 -0.91596484851E+03  0.91596484853E+03  0.50400001928E-02 0. -1.
    10030    2    1    2    0    0  0.00000000000E+00  0.00000000000E+00  0.16981920887E+03  0.20017489059E+04  0.19945325564E+04 0.  0.
        1    1    3    3  502    0  0.34095973730E+03 -0.46050728149E+03 -0.73426626423E+03  0.93137932421E+03  0.50400001928E-02 0. -1.
       -1    1    3    3    0  502 -0.34095973730E+03  0.46050728149E+03  0.90408547310E+03  0.10703695817E+04  0.50400001928E-02 0.  1.
</event>
<event>
 5   0  0.9012466E-05  0.2105681E+04  0.7818609E-02  0.8558745E-01
       -2   -1    0    0    0  501  0.00000000000E+00  0.00000000000E+00  0.68777909265E+03  0.68777909266E+03  0.25500000920E-02 0. -1.
        2   -1    0    0  501    0  0.00000000000E+00  0.00000000000E+00 -0.16116699463E+04  0.16116699463E+04  0.25500000920E-02 0.  1.
    10030    2    1    2    0    0  0.00000000000E+00  0.00000000000E+00 -0.92389085361E+03  0.22994490389E+04  0.21056807862E+04 0.  0.
        2    1    3    3  502    0  0.75045897682E+03 -0.46360383909E+03 -0.10896021072E+04  0.14019093935E+04  0.25500000920E-02 0. -1.
       -2    1    3    3    0  502 -0.75045897682E+03  0.46360383909E+03  0.16571125362E+03  0.89753964542E+03  0.25500000920E-02 0.  1.
</event>
<event>
 5   0  0.4050368E-05  0.2102137E+04  0.7818609E-02  0.8560303E-01
       -1   -1    0    0    0  501  0.00000000000E+00  0.00000000000E+00  0.11551563103E+04  0.11551563104E+04  0.50400001928E-02 0. -1.
        1   -1    0    0  501    0  0.00000000000E+00  0.00000000000E+00 -0.95635965769E+03  0.95635965771E+03  0.50400001928E-02 0.  1.
    10030    2    1    2    0    0  0.00000000000E+00  0.00000000000E+00  0.19879665266E+03  0.21115159681E+04  0.21021369066E+04 0.  0.
        2    1    3    3  502    0  0.52808435530E+03  0.27974569619E+03  0.96790294050E+03  0.11375266340E+04  0.25500000920E-02 0. -1.
       -2    1    3    3    0  502 -0.52808435530E+03 -0.27974569619E+03 -0.76910628784E+03  0.97398933406E+03  0.25500000920E-02 0.  1.
</event>
<event>
 5   0  0.4050368E-05  0.2101760E+04  0.7818609E-02  0.8560469E-01
        1   -1    0    0  501    0  0.00000000000E+00  0.00000000000E+00  0.56462487785E+03  0.56462487787E+03  0.50400001928E-02 0.  1.
       -1   -1    0    0    0  501  0.00000000000E+00  0.00000000000E+00 -0.19558976974E+04  0.19558976974E+04  0.50400001928E-02 0. -1.
    10030    2    1    2    0    0  0.00000000000E+00  0.00000000000E+00 -0.13912728195E+04  0.25205225753E+04  0.21017597375E+04 0.  0.
        2    1    3    3  502    0  0.32445449317E+03 -0.93591376447E+03 -0.11164722810E+04  0.14925533984E+04  0.25500000920E-02 0. -1.
       -2    1    3    3    0  502 -0.32445449317E+03  0.93591376447E+03 -0.27480053851E+03  0.10279691769E+04  0.25500000920E-02 0.  1.
</event>
<event>
 5   0  0.4200061E-05  0.2092952E+04  0.7818609E-02  0.8564355E-01
        1   -1    0    0  501    0  0.00000000000E+00  0.00000000000E+00  0.12516680694E+04  0.12516680694E+04  0.50400001928E-02 0. -1.
       -1   -1    0    0    0  501  0.00000000000E+00  0.00000000000E+00 -0.87492186712E+03  0.87492186713E+03  0.50400001928E-02 0.  1.
    10030    2    1    2    0    0  0.00000000000E+00  0.00000000000E+00  0.37674620228E+03  0.21265899365E+04  0.20929517570E+04 0.  0.
        4    1    3    3  502    0 -0.36434961534E+03  0.58215191675E+03  0.99065753440E+03  0.12054275008E+04  0.12699999809E+01 0. -1.
       -4    1    3    3    0  502  0.36434961534E+03 -0.58215191675E+03 -0.61391133212E+03  0.92116243572E+03  0.12699999809E+01 0.  1.
</event>
<event>
 5   0  0.4200061E-05  0.2113579E+04  0.7818609E-02  0.8555285E-01
       -1   -1    0    0    0  501  0.00000000000E+00  0.00000000000E+00  0.84468764746E+03  0.84468764747E+03  0.50400001928E-02 0. -1.
        1   -1    0    0  501    0  0.00000000000E+00  0.00000000000E+00 -0.13221507292E+04  0.13221507292E+04  0.50400001928E-02 0.  1.
    10030    2    1    2    0    0  0.00000000000E+00  0.00000000000E+00 -0.47746308172E+03  0.21668383767E+04  0.21135793234E+04 0.  0.
        4    1    3    3  502    0  0.41375618910E+03 -0.55226919734E+03 -0.10592794014E+04  0.12642270023E+04  0.12699999809E+01 0.  1.
       -4    1    3    3    0  502 -0.41375618910E+03  0.55226919734E+03  0.58181631966E+03  0.90261137433E+03  0.12699999809E+01 0. -1.
</event>
<event>
 5   0  0.4128678E-05  0.2296749E+04  0.7818609E-02  0.8479204E-01
       -1   -1    0    0    0  501  0.00000000000E+00  0.00000000000E+00  0.16835145531E+04  0.16835145531E+04  0.50400001928E-02 0.  1.
        1   -1    0    0  501    0  0.00000000000E+00  0.00000000000E+00 -0.78333972948E+03  0.78333972950E+03  0.50400001928E-02 0. -1.
    10030    2    1    2    0    0  0.00000000000E+00  0.00000000000E+00  0.90017482360E+03  0.24668542826E+04  0.22967488627E+04 0.  0.
        5    1    3    3  502    0 -0.42314708210E+03  0.56716257225E+03 -0.52134054018E+03  0.87894532553E+03  0.46999998093E+01 0. -1.
       -5    1    3    3    0  502  0.42314708210E+03 -0.56716257225E+03  0.14215153638E+04  0.15879089571E+04  0.46999998093E+01 0.  1.
</event>
<event>
 5   0  0.4174093E-05  0.2102361E+04  0.7818609E-02  0.8560204E-01
       -1   -1    0    0    0  501  0.00000000000E+00  0.00000000000E+00  0.64059467501E+03  0.64059467503E+03  0.50400001928E-02 0.  1.
        1   -1    0    0  501    0  0.00000000000E+00  0.00000000000E+00 -0.17249294741E+04  0.17249294741E+04  0.50400001928E-02 0. -1.
    10030    2    1    2    0    0  0.00000000000E+00  0.00000000000E+00 -0.10843347991E+04  0.23655241491E+04  0.21023611830E+04 0.  0.
        3    1    3    3  502    0  0.53312198386E+03 -0.23584573367E+03 -0.15263825505E+04  0.16339173665E+04  0.10100000352E+00 0. -1.
       -3    1    3    3    0  502 -0.53312198386E+03  0.23584573367E+03  0.44204775139E+03  0.73160678269E+03  0.10100000352E+00 0.  1.
</event>
<event>
 5   0  0.9086985E-05  0.2087720E+04  0.7818609E-02  0.8566672E-01
        2   -1    0    0  501    0  0.00000000000E+00  0.00000000000E+00  0.19969080450E+04  0.19969080450E+04  0.25500000920E-02 0.  1.
       -2   -1    0    0    0  501  0.00000000000E+00  0.00000000000E+00 -0.54566518627E+03  0.54566518627E+03  0.25500000920E-02 0. -1.
    10030    2    1    2    0    0  0.00000000000E+00  0.00000000000E+00  0.14512428588E+04  0.25425732313E+04  0.20877195217E+04 0.  0.
        5    1    3    3  502    0  0.47632458471E+03  0.92711425477E+03  0.79446248991E+03  0.13105795242E+04  0.46999998093E+01 0.  1.
       -5    1    3    3    0  502 -0.47632458471E+03 -0.92711425477E+03  0.65678036885E+03  0.12319937071E+04  0.46999998093E+01 0. -1.
</event>
<event>
 5   0  0.4128678E-05  0.2106780E+04  0.7818609E-02  0.8558263E-01
        1   -1    0    0  501    0  0.00000000000E+00  0.00000000000E+00  0.98887398194E+03  0.98887398195E+03  0.50400001928E-02 0. -1.
       -1   -1    0    0    0  501  0.00000000000E+00  0.00000000000E+00 -0.11221149723E+04  0.11221149724E+04  0.50400001928E-02 0.  1.
    10030    2    1    2    0    0  0.00000000000E+00  0.00000000000E+00 -0.13324099041E+03  0.21109889543E+04  0.21067798185E+04 0.  0.
        5    1    3    3  502    0 -0.90519765986E+03 -0.24136788177E+03  0.41597122946E+03  0.10250343465E+04  0.46999998093E+01 0. -1.
       -5    1    3    3    0  502  0.90519765986E+03  0.24136788177E+03 -0.54921221987E+03  0.10859546078E+04  0.46999998093E+01 0.  1.
</event>
<event>
 5   0  0.8858590E-05  0.2098089E+04  0.7818609E-02  0.8562085E-01
        2   -1    0    0  501    0  0.00000000000E+00  0.00000000000E+00  0.99325299706E+03  0.99325299706E+03  0.25500000920E-02 0. -1.
       -2   -1    0    0    0  501  0.00000000000E+00  0.00000000000E+00 -0.11079703566E+04  0.11079703566E+04  0.25500000920E-02 0.  1.
    10030    2    1    2    0    0  0.00000000000E+00  0.00000000000E+00 -0.11471735955E+03  0.21012233537E+04  0.20980894903E+04 0.  0.
        1    1    3    3  502    0  0.68894200165E+03  0.36712958037E+03 -0.75916902400E+03  0.10889273701E+04  0.50400001928E-02 0.  1.
       -1    1    3    3    0  502 -0.68894200165E+03 -0.36712958037E+03  0.64445166445E+03  0.10122959835E+04  0.50400001928E-02 0. -1.
</event>
<event>
 5   0  0.4174093E-05  0.2110829E+04  0.7818609E-02  0.8556488E-01
        1   -1    0    0  501    0  0.00000000000E+00  0.00000000000E+00  0.85523161240E+03  0.85523161241E+03  0.50400001928E-02 0. -1.
       -1   -1    0    0    0  501  0.00000000000E+00  0.00000000000E+00 -0.13024540244E+04  0.13024540245E+04  0.50400001928E-02 0.  1.
    10030    2    1    2    0    0  0.00000000000E+00  0.00000000000E+00 -0.44722241204E+03  0.21576856369E+04  0.21108290840E+04 0.  0.
        3    1    3    3  502    0  0.91713851129E+03 -0.46445435524E+03  0.20518627807E+02  0.10282421511E+04  0.10100000352E+00 0. -1.
       -3    1    3    3    0  502 -0.91713851129E+03  0.46445435524E+03 -0.46774103985E+03  0.11294434858E+04  0.10100000352E+00 0.  1.
</event>
<event>
 5   0  0.4050368E-05  0.2090448E+04  0.7818609E-02  0.8565463E-01
        1   -1    0    0  501    0  0.00000000000E+00  0.00000000000E+00  0.12887945984E+04  0.12887945984E+04  0.50400001928E-02 0. -1.
       -1   -1    0    0    0  501  0.00000000000E+00  0.00000000000E+00 -0.84768618469E+03  0.84768618471E+03  0.50400001928E-02 0.  1.
    10030    2    1    2    0    0  0.00000000000E+00  0.00000000000E+00  0.44110841371E+03  0.21364807831E+04  0.20904481586E+04 0.  0.
        2    1    3    3  502    0  0.10356822956E+04  0.13867936999E+03  0.19503251564E+03  0.10629710567E+04  0.25500000920E-02 0.  1.
       -2    1    3    3    0  502 -0.10356822956E+04 -0.13867936999E+03  0.24607589807E+03  0.10735097264E+04  0.25500000920E-02 0. -1.
</event>
<event>
 5   0  0.8858590E-05  0.2108385E+04  0.7818609E-02  0.8557559E-01
        2   -1    0    0  501    0  0.00000000000E+00  0.00000000000E+00  0.14342102541E+04  0.14342102541E+04  0.25500000920E-02 0. -1.
       -2   -1    0    0    0  501  0.00000000000E+00  0.00000000000E+00 -0.77486647277E+03  0.77486647278E+03  0.25500000920E-02 0.  1.
    10030    2    1    2    0    0  0.00000000000E+00  0.00000000000E+00  0.65934378137E+03  0.22090767269E+04  0.21083846336E+04 0.  0.
        1    1    3    3  502    0  0.66992685001E+03  0.13747545637E+03 -0.51090163668E+03  0.85365213516E+03  0.50400001928E-02 0.  1.
       -1    1    3    3    0  502 -0.66992685001E+03 -0.13747545637E+03  0.11702454181E+04  0.13554245918E+04  0.50400001928E-02 0. -1.
</event>
<event>
 5   0  0.8872777E-05  0.2087944E+04  0.7818609E-02  0.8566573E-01
        2   -1    0    0  501    0  0.00000000000E+00  0.00000000000E+00  0.20177231705E+04  0.20177231705E+04  0.25500000920E-02 0. -1.
       -2   -1    0    0    0  501  0.00000000000E+00  0.00000000000E+00 -0.54015229769E+03  0.54015229769E+03  0.25500000920E-02 0.  1.
    10030    2    1    2    0    0  0.00000000000E+00  0.00000000000E+00  0.14775708728E+04  0.25578754682E+04  0.20879442585E+04 0.  0.
        3    1    3    3  502    0 -0.64889977785E+03 -0.81057054408E+03  0.60580892290E+03  0.12021231176E+04  0.10100000352E+00 0. -1.
       -3    1    3    3    0  502  0.64889977785E+03  0.81057054408E+03  0.87176194994E+03  0.13557523506E+04  0.10100000352E+00 0.  1.
</event>
<event>
 5   0  0.8858590E-05  0.2100639E+04  0.7818609E-02  0.8560962E-01
       -2   -1    0    0    0  501  0.00000000000E+00  0.00000000000E+00  0.74617739651E+03  0.74617739652E+03  0.25500000920E-02 0.  1.
        2   -1    0    0  501    0  0.00000000000E+00  0.00000000000E+00 -0.14784304547E+04  0.14784304547E+04  0.25500000920E-02 0. -1.
    10030    2    1    2    0    0  0.00000000000E+00  0.00000000000E+00 -0.73225305819E+03  0.22246078512E+04  0.21006393195E+04 0.  0.
        1    1    3    3  502    0  0.99392790444E+03  0.30101841520E+03 -0.53245125462E+03  0.11670514573E+04  0.50400001928E-02 0.  1.
       -1    1    3    3    0  502 -0.99392790444E+03 -0.30101841520E+03 -0.19980180357E+03  0.10575563939E+04  0.50400001928E-02 0. -1.
</event>
<event>
 5   0  0.8872777E-05  0.2113518E+04  0.7818609E-02  0.8555312E-01
       -2   -1    0    0    0  501  0.00000000000E+00  0.00000000000E+00  0.13745272928E+04  0.13745272928E+04  0.25500000920E-02 0.  1.
        2   -1    0    0  501    0  0.00000000000E+00  0.00000000000E+00 -0.81245377752E+03  0.81245377753E+03  0.25500000920E-02 0. -1.
    10030    2    1    2    0    0  0.00000000000E+00  0.00000000000E+00  0.56207351524E+03  0.21869810703E+04  0.21135182907E+04 0.  0.
        3    1    3    3  502    0 -0.70039108132E+03  0.77053153527E+03  0.46750405529E+03  0.11414142830E+04  0.10100000352E+00 0. -1.
       -3    1    3    3    0  502  0.70039108132E+03 -0.77053153527E+03  0.94569459953E+02  0.10455667872E+04  0.10100000352E+00 0.  1.
</event>
<event>
 5   0  0.9012466E-05  0.2115564E+04  0.7818609E-02  0.8554418E-01
        2   -1    0    0  501    0  0.00000000000E+00  0.00000000000E+00  0.15339792260E+04  0.15339792260E+04  0.25500000920E-02 0.  1.
       -2   -1    0    0    0  501  0.00000000000E+00  0.00000000000E+00 -0.72941193144E+03  0.72941193144E+03  0.25500000920E-02 0. -1.
    10030    2    1    2    0    0  0.00000000000E+00  0.00000000000E+00  0.80456729454E+03  0.22633911574E+04  0.21155639910E+04 0.  0.
        2    1    3    3  502    0 -0.13790527356E+03 -0.96365628216E+03  0.84502550610E+03  0.12890769568E+04  0.25500000920E-02 0. -1.
       -2    1    3    3    0  502  0.13790527356E+03  0.96365628216E+03 -0.40458211563E+02  0.97431420061E+03  0.25500000920E-02 0.  1.
</event>
<event>
 5   0  0.8858590E-05  0.1854384E+04  0.7818609E-02  0.8677902E-01
        2   -1    0    0  501    0  0.00000000000E+00  0.00000000000E+00  0.12086934961E+04  0.12086934961E+04  0.25500000920E-02 0.  1.
       -2   -1    0    0    0  501  0.00000000000E+00  0.00000000000E+00 -0.71125152965E+03  0.71125152965E+03  0.25500000920E-02 0. -1.
    10030    2    1    2    0    0  0.00000000000E+00  0.00000000000E+00  0.49744196647E+03  0.19199450258E+04  0.18543841004E+04 0.  0.
        1    1    3    3  502    0  0.18003766890E+03 -0.44261810008E+03  0.10713952059E+04  0.11731206383E+04  0.50400001928E-02 0.  1.
       -1    1    3    3    0  502 -0.18003766890E+03  0.44261810008E+03 -0.57395323940E+03  0.74682438751E+03  0.50400001928E-02 0. -1.
</event>
<event>
 5   0  0.4128678E-05  0.2209491E+04  0.7818609E-02  0.8514488E-01
       -1   -1    0    0    0  501  0.00000000000E+00  0.00000000000E+00  0.10928064294E+04  0.10928064294E+04  0.50400001928E-02 0. -1.
        1   -1    0    0  501    0  0.00000000000E+00  0.00000000000E+00 -0.11168149807E+04  0.11168149807E+04  0.50400001928E-02 0.  1.
    10030    2    1    2    0    0  0.00000000000E+00  0.00000000000E+00 -0.24008551336E+02  0.22096214101E+04  0.22094909743E+04 0.  0.
        5    1    3    3  502    0 -0.51537718438E+03  0.83263405300E+03  0.49944295958E+03  0.10992535960E+04  0.46999998093E+01 0. -1.
       -5    1    3    3    0  502  0.51537718438E+03 -0.83263405300E+03 -0.52345151091E+03  0.11103678141E+04  0.46999998093E+01 0.  1.
</event>
<event>
 5   0  0.4128678E-05  0.2096913E+04  0.7818609E-02  0.8562605E-01
       -1   -1    0    0    0  501  0.00000000000E+00  0.00000000000E+00  0.62866923211E+03  0.62866923213E+03  0.50400001928E-02 0. -1.
        1   -1    0    0  501    0  0.00000000000E+00  0.00000000000E+00 -0.17485516498E+04  0.17485516498E+04  0.50400001928E-02 0.  1.
    10030    2    1    2    0    0  0.00000000000E+00  0.00000000000E+00 -0.11198824176E+04  0.23772208819E+04  0.20969126095E+04 0.  0.
        5    1    3    3  502    0  0.43298776103E+03  0.12085850642E+03  0.51385668449E+03  0.68275615118E+03  0.46999998093E+01 0. -1.
       -5    1    3    3    0  502 -0.43298776103E+03 -0.12085850642E+03 -0.16337391021E+04  0.16944647307E+04  0.46999998093E+01 0.  1.
</event>
<event>
 5   0  0.9012466E-05  0.2104607E+04  0.7818609E-02  0.8559217E-01
        2   -1    0    0  501    0  0.00000000000E+00  0.00000000000E+00  0.19994427390E+04  0.19994427390E+04  0.25500000920E-02 0.  1.
       -2   -1    0    0    0  501  0.00000000000E+00  0.00000000000E+00 -0.55382552719E+03  0.55382552719E+03  0.25500000920E-02 0. -1.
    10030    2    1    2    0    0  0.00000000000E+00  0.00000000000E+00  0.14456172118E+04  0.25532682662E+04  0.21046067842E+04 0.  0.
        2    1    3    3  502    0 -0.51468318889E+03 -0.91571482238E+03  0.79866886318E+03  0.13195849248E+04  0.25500000920E-02 0. -1.
       -2    1    3    3    0  502  0.51468318889E+03  0.91571482238E+03  0.64694834860E+03  0.12336833413E+04  0.25500000920E-02 0.  1.
</event>
<event>
 5   0  0.4174093E-05  0.2097685E+04  0.7818609E-02  0.8562264E-01
       -1   -1    0    0    0  501  0.00000000000E+00  0.00000000000E+00  0.65231392596E+03  0.65231392598E+03  0.50400001928E-02 0. -1.
        1   -1    0    0  501    0  0.00000000000E+00  0.00000000000E+00 -0.16864128791E+04  0.16864128791E+04  0.50400001928E-02 0.  1.
    10030    2    1    2    0    0  0.00000000000E+00  0.00000000000E+00 -0.10340989531E+04  0.23387268050E+04  0.20976850154E+04 0.  0.
        3    1    3    3  502    0 -0.31378642476E+03  0.21259272487E+03  0.57329054827E+03  0.68725515638E+03  0.10100000352E+00 0. -1.
       -3    1    3    3    0  502  0.31378642476E+03 -0.21259272487E+03 -0.16073895014E+04  0.16514716487E+04  0.10100000352E+00 0.  1.
</event>
<event>
 5   0  0.4128678E-05  0.2015406E+04  0.7818609E-02  0.8599451E-01
        1   -1    0    0  501    0  0.00000000000E+00  0.00000000000E+00  0.13795862739E+04  0.13795862739E+04  0.50400001928E-02 0. -1.
       -1   -1    0    0    0  501  0.00000000000E+00  0.00000000000E+00 -0.73606546061E+03  0.73606546062E+03  0.50400001928E-02 0.  1.
    10030    2    1    2    0    0  0.00000000000E+00  0.00000000000E+00  0.64352081330E+03  0.21156517345E+04  0.20154064664E+04 0.  0.
        5    1    3    3  502    0 -0.89626732982E+03 -0.24722739769E+03  0.72971245789E+03  0.11819132260E+04  0.46999998093E+01 0. -1.
       -5    1    3    3    0  502  0.89626732982E+03  0.24722739769E+03 -0.86191644586E+02  0.93373850851E+03  0.46999998093E+01 0.  1.
</event>
<event>
 5   0  0.9086985E-05  0.2119379E+04  0.7818609E-02  0.8552755E-01
       -2   -1    0    0    0  501  0.00000000000E+00  0.00000000000E+00  0.56219184381E+03  0.56219184381E+03  0.25500000920E-02 0.  1.
        2   -1    0    0  501    0  0.00000000000E+00  0.00000000000E+00 -0.19974347970E+04  0.19974347970E+04  0.25500000920E-02 0. -1.
    10030    2    1    2    0    0  0.00000000000E+00  0.00000000000E+00 -0.14352429532E+04  0.25596266408E+04  0.21193787310E+04 0.  0.
        5    1    3    3  502    0 -0.81295622075E+03 -0.13017565307E+03  0.88100316935E+02  0.82802613084E+03  0.46999998093E+01 0. -1.
       -5    1    3    3    0  502  0.81295622075E+03  0.13017565307E+03 -0.15233432701E+04  0.17316005100E+04  0.46999998093E+01 0.  1.
</event>
<event>
 5   0  0.8872777E-05  0.2102855E+04  0.7818609E-02  0.8559987E-01
        2   -1    0    0  501    0  0.00000000000E+00  0.00000000000E+00  0.21115398730E+04  0.21115398730E+04  0.25500000920E-02 0. -1.
       -2   -1    0    0    0  501  0.00000000000E+00  0.00000000000E+00 -0.52355155962E+03  0.52355155962E+03  0.25500000920E-02 0.  1.
    10030    2    1    2    0    0  0.00000000000E+00  0.00000000000E+00  0.15879883134E+04  0.26350914326E+04  0.21028551959E+04 0.  0.
        3    1    3    3  502    0 -0.71216267845E+03 -0.64596350446E+03  0.13271965950E+04  0.16388701418E+04  0.10100000352E+00 0. -1.
       -3    1    3    3    0  502  0.71216267845E+03  0.64596350446E+03  0.26079171834E+03  0.99622129079E+03  0.10100000352E+00 0.  1.
</event>
<event>
 5   0  0.4128678E-05  0.2157280E+04  0.7818609E-02  0.8536423E-01
       -1   -1    0    0    0  501  0.00000000000E+00  0.00000000000E+00  0.85569018128E+03  0.85569018129E+03  0.50400001928E-02 0. -1.
        1   -1    0    0  501    0  0.00000000000E+00  0.00000000000E+00 -0.13596790211E+04  0.13596790211E+04  0.50400001928E-02 0.  1.
    10030    2    1    2    0    0  0.00000000000E+00  0.00000000000E+00 -0.50398883986E+03  0.22153692024E+04  0.21572797576E+04 0.  0.
        5    1    3    3  502    0 -0.73754149283E+02 -0.34279394286E+03  0.79551888444E+03  0.86937894344E+03  0.46999998093E+01 0. -1.
       -5    1    3    3    0  502  0.73754149283E+02  0.34279394286E+03 -0.12995077243E+04  0.13459902590E+04  0.46999998093E+01 0.  1.
</event>
<event>
 5   0  0.9012466E-05  0.2098068E+04  0.7818609E-02  0.8562095E-01
        2   -1    0    0  501    0  0.00000000000E+00  0.00000000000E+00  0.20603009836E+04  0.20603009836E+04  0.25500000920E-02 0.  1.
       -2   -1    0    0    0  501  0.00000000000E+00  0.00000000000E+00 -0.53413191550E+03  0.53413191551E+03  0.25500000920E-02 0. -1.
    10030    2    1    2    0    0  0.00000000000E+00  0.00000000000E+00  0.15261690681E+04  0.25944328991E+04  0.20980681694E+04 0.  0.
        2    1    3    3  502    0 -0.53171631114E+03  0.71128174979E+03  0.14536117241E+04  0.17034174496E+04  0.25500000920E-02 0.  1.
       -2    1    3    3    0  502  0.53171631114E+03 -0.71128174979E+03  0.72557344005E+02  0.89101544952E+03  0.25500000920E-02 0. -1.
</event>
<event>
 5   0  0.4182977E-05  0.2092562E+04  0.7818609E-02  0.8564527E-01
        1   -1    0    0  501    0  0.00000000000E+00  0.00000000000E+00  0.19431180076E+04  0.19431180076E+04  0.50400001928E-02 0. -1.
       -1   -1    0    0    0  501  0.00000000000E+00  0.00000000000E+00 -0.56337487434E+03  0.56337487436E+03  0.50400001928E-02 0.  1.
    10030    2    1    2    0    0  0.00000000000E+00  0.00000000000E+00  0.13797431333E+04  0.25064928820E+04  0.20925619354E+04 0.  0.
        1    1    3    3  502    0  0.63863277603E+03 -0.58726323258E+03 -0.10590559967E+02  0.86766473188E+03  0.50400001928E-02 0.  1.
       -1    1    3    3    0  502 -0.63863277603E+03  0.58726323258E+03  0.13903336932E+04  0.16388281501E+04  0.50400001928E-02 0. -1.
</event>
<event>
 5   0  0.3176125E-05  0.2082178E+04  0.7818609E-02  0.8569135E-01
       -3   -1    0    0    0  501  0.00000000000E+00  0.00000000000E+00  0.15857999628E+04  0.15857999661E+04  0.10100000352E+00 0.  1.
        3   -1    0    0  501    0  0.00000000000E+00  0.00000000000E+00 -0.68348204705E+03  0.68348205452E+03  0.10100000352E+00 0. -1.
    10030    2    1    2    0    0  0.00000000000E+00  0.00000000000E+00  0.90231791578E+03  0.22692820206E+04  0.20821775303E+04 0.  0.
        3    1    3    3  502    0 -0.62467664635E+03 -0.33533607699E+03  0.12820259491E+04  0.14650125397E+04  0.10100000352E+00 0.  1.
       -3    1    3    3    0  502  0.62467664635E+03  0.33533607699E+03 -0.37970803337E+03  0.80426948086E+03  0.10100000352E+00 0. -1.
</event>
<event>
 5   0  0.8858590E-05  0.2058785E+04  0.7818609E-02  0.8579619E-01
        2   -1    0    0  501    0  0.00000000000E+00  0.00000000000E+00  0.13671115619E+04  0.13671115619E+04  0.25500000920E-02 0.  1.
       -2   -1    0    0    0  501  0.00000000000E+00  0.00000000000E+00 -0.77510074865E+03  0.77510074865E+03  0.25500000920E-02 0. -1.
    10030    2    1    2    0    0  0.00000000000E+00  0.00000000000E+00  0.59201081325E+03  0.21422123105E+04  0.20587852682E+04 0.  0.
        1    1    3    3  502    0  0.32874302167E+03  0.79577842625E+02  0.13076397358E+04  0.13506762329E+04  0.50400001928E-02 0.  1.
       -1    1    3    3    0  502 -0.32874302167E+03 -0.79577842625E+02 -0.71562892260E+03  0.79153607765E+03  0.50400001928E-02 0. -1.
</event>
<event>
 5   0  0.4050368E-05  0.2098118E+04  0.7818609E-02  0.8562073E-01
        1   -1    0    0  501    0  0.00000000000E+00  0.00000000000E+00  0.65491749538E+03  0.65491749540E+03  0.50400001928E-02 0. -1.
       -1   -1    0    0    0  501  0.00000000000E+00  0.00000000000E+00 -0.16804013858E+04  0.16804013858E+04  0.50400001928E-02 0.  1.
    10030    2    1    2    0    0  0.00000000000E+00  0.00000000000E+00 -0.10254838904E+04  0.23353188812E+04  0.20981175056E+04 0.  0.
        2    1    3    3  502    0  0.47307231580E+03  0.69867329569E+03  0.18109590755E+03  0.86298175984E+03  0.25500000920E-02 0. -1.
       -2    1    3    3    0  502 -0.47307231580E+03 -0.69867329569E+03 -0.12065797980E+04  0.14723371214E+04  0.25500000920E-02 0.  1.
</event>
<event>
 5   0  0.4174093E-05  0.2081827E+04  0.7818609E-02  0.8569291E-01
       -1   -1    0    0    0  501  0.00000000000E+00  0.00000000000E+00  0.77517933840E+03  0.77517933841E+03  0.50400001928E-02 0.  1.
        1   -1    0    0  501    0  0.00000000000E+00  0.00000000000E+00 -0.13977417411E+04  0.13977417411E+04  0.50400001928E-02 0. -1.
    10030    2    1    2    0    0  0.00000000000E+00  0.00000000000E+00 -0.62256240271E+03  0.21729210795E+04  0.20818266192E+04 0.  0.
        3    1    3    3  502    0 -0.79540311728E+03  0.61810322205E+03 -0.37540542554E+02  0.10080312568E+04  0.10100000352E+00 0.  1.
       -3    1    3    3    0  502  0.79540311728E+03 -0.61810322205E+03 -0.58502186016E+03  0.11648898228E+04  0.10100000352E+00 0. -1.
</event>
<event>
 5   0  0.4128678E-05  0.2102001E+04  0.7818609E-02  0.8560362E-01
       -1   -1    0    0    0  501  0.00000000000E+00  0.00000000000E+00  0.10676984036E+04  0.10676984036E+04  0.50400001928E-02 0. -1.
        1   -1    0    0  501    0  0.00000000000E+00  0.00000000000E+00 -0.10345637650E+04  0.10345637650E+04  0.50400001928E-02 0.  1.
    10030    2    1    2    0    0  0.00000000000E+00  0.00000000000E+00  0.33134638617E+02  0.21022621686E+04  0.21020010278E+04 0.  0.
        5    1    3    3  502    0  0.10548507580E+03  0.12937315313E+03 -0.10212106064E+04  0.10347742297E+04  0.46999998093E+01 0.  1.
       -5    1    3    3    0  502 -0.10548507580E+03 -0.12937315313E+03  0.10543452450E+04  0.10674879388E+04  0.46999998093E+01 0. -1.
</event>
<event>
 5   0  0.4050368E-05  0.1956146E+04  0.7818609E-02  0.8627403E-01
       -1   -1    0    0    0  501  0.00000000000E+00  0.00000000000E+00  0.98224830379E+03  0.98224830380E+03  0.50400001928E-02 0. -1.
        1   -1    0    0  501    0  0.00000000000E+00  0.00000000000E+00 -0.97391593360E+03  0.97391593361E+03  0.50400001928E-02 0.  1.
    10030    2    1    2    0    0  0.00000000000E+00  0.00000000000E+00  0.83323701905E+01  0.19561642374E+04  0.19561464913E+04 0.  0.
        2    1    3    3  502    0 -0.14296438596E+03 -0.93852512531E+02 -0.95884834776E+03  0.97398011467E+03  0.25500000920E-02 0.  1.
       -2    1    3    3    0  502  0.14296438596E+03  0.93852512531E+02  0.96718071795E+03  0.98218412273E+03  0.25500000920E-02 0. -1.
</event>
<event>
 5   0  0.8547605E-05  0.1942490E+04  0.7818609E-02  0.8633991E-01
       -2   -1    0    0    0  501  0.00000000000E+00  0.00000000000E+00  0.93701907640E+03  0.93701907641E+03  0.25500000920E-02 0. -1.
        2   -1    0    0  501    0  0.00000000000E+00  0.00000000000E+00 -0.10067213836E+04  0.10067213836E+04  0.25500000920E-02 0.  1.
    10030    2    1    2    0    0  0.00000000000E+00  0.00000000000E+00 -0.69702307171E+02  0.19437404600E+04  0.19424902996E+04 0.  0.
        4    1    3    3  502    0  0.79020894401E+03  0.32808552506E+03  0.42505887872E+03  0.95537790964E+03  0.12699999809E+01 0. -1.
       -4    1    3    3    0  502 -0.79020894401E+03 -0.32808552506E+03 -0.49476118589E+03  0.98836255034E+03  0.12699999809E+01 0.  1.
</event>
<event>
 5   0  0.4200061E-05  0.2075604E+04  0.7818609E-02  0.8572067E-01
        1   -1    0    0  501    0  0.00000000000E+00  0.00000000000E+00  0.19017436139E+04  0.19017436139E+04  0.50400001928E-02 0.  1.
       -1   -1    0    0    0  501  0.00000000000E+00  0.00000000000E+00 -0.56633948383E+03  0.56633948386E+03  0.50400001928E-02 0. -1.
    10030    2    1    2    0    0  0.00000000000E+00  0.00000000000E+00  0.13354041301E+04  0.24680830978E+04  0.20756035235E+04 0.  0.
        4    1    3    3  502    0  0.76260754969E+03 -0.21027265205E+03 -0.13106853416E+03  0.80185125590E+03  0.12699999809E+01 0.  1.
       -4    1    3    3    0  502 -0.76260754969E+03  0.21027265205E+03  0.14664726643E+04  0.16662318419E+04  0.12699999809E+01 0. -1.
</event>
<event>
 5   0  0.4128678E-05  0.2097707E+04  0.7818609E-02  0.8562254E-01
       -1   -1    0    0    0  501  0.00000000000E+00  0.00000000000E+00  0.93395086524E+03  0.93395086525E+03  0.50400001928E-02 0.  1.
        1   -1    0    0  501    0  0.00000000000E+00  0.00000000000E+00 -0.11778930013E+04  0.11778930013E+04  0.50400001928E-02 0. -1.
    10030    2    1    2    0    0  0.00000000000E+00  0.00000000000E+00 -0.24394213606E+03  0.21118438666E+04  0.20977074989E+04 0.  0.
        5    1    3    3  502    0  0.87502841025E+03 -0.57808172556E+03 -0.10707617656E+03  0.10542014028E+04  0.46999998093E+01 0.  1.
       -5    1    3    3    0  502 -0.87502841025E+03  0.57808172556E+03 -0.13686595950E+03  0.10576424637E+04  0.46999998093E+01 0. -1.
</event>
<event>
 5   0  0.3176125E-05  0.2097488E+04  0.7818609E-02  0.8562351E-01
       -4   -1    0    0    0  501  0.00000000000E+00  0.00000000000E+00  0.98222611530E+03  0.98222693635E+03  0.12699999809E+01 0.  1.
        4   -1    0    0  501    0  0.00000000000E+00  0.00000000000E+00 -0.11197647633E+04  0.11197654835E+04  0.12699999809E+01 0. -1.
    10030    2    1    2    0    0  0.00000000000E+00  0.00000000000E+00 -0.13753864800E+03  0.21019924198E+04  0.20974878434E+04 0.  0.
        1    1    3    3  502    0 -0.94183000683E+03 -0.23196401152E+03 -0.46838973841E+03  0.10771443782E+04  0.50400001928E-02 0. -1.
       -1    1    3    3    0  502  0.94183000683E+03  0.23196401152E+03  0.33085109041E+03  0.10248480416E+04  0.50400001928E-02 0.  1.
</event>
<event>
 5   0  0.8858590E-05  0.2087173E+04  0.7818609E-02  0.8566915E-01
       -2   -1    0    0    0  501  0.00000000000E+00  0.00000000000E+00  0.16962607024E+04  0.16962607024E+04  0.25500000920E-02 0.  1.
        2   -1    0    0  501    0  0.00000000000E+00  0.00000000000E+00 -0.64204349516E+03  0.64204349516E+03  0.25500000920E-02 0. -1.
    10030    2    1    2    0    0  0.00000000000E+00  0.00000000000E+00  0.10542172073E+04  0.23383041976E+04  0.20871733518E+04 0.  0.
        1    1    3    3  502    0  0.38673257724E+03 -0.67535977346E+03  0.13060340987E+04  0.15203282464E+04  0.50400001928E-02 0.  1.
       -1    1    3    3    0  502 -0.38673257724E+03  0.67535977346E+03 -0.25181689139E+03  0.81797595119E+03  0.50400001928E-02 0. -1.
</event>
<event>
 5   0  0.8872777E-05  0.2106093E+04  0.7818609E-02  0.8558564E-01
       -2   -1    0    0    0  501  0.00000000000E+00  0.00000000000E+00  0.15765535451E+04  0.15765535451E+04  0.25500000920E-02 0. -1.
        2   -1    0    0  501    0  0.00000000000E+00  0.00000000000E+00 -0.70337398869E+03  0.70337398870E+03  0.25500000920E-02 0.  1.
    10030    2    1    2    0    0  0.00000000000E+00  0.00000000000E+00  0.87317955637E+03  0.22799275338E+04  0.21060928331E+04 0.  0.
        3    1    3    3  502    0  0.46086088429E+03  0.88132639289E+03  0.61934666500E+02  0.99647623082E+03  0.10100000352E+00 0.  1.
       -3    1    3    3    0  502 -0.46086088429E+03 -0.88132639289E+03  0.81124488987E+03  0.12834513029E+04  0.10100000352E+00 0. -1.
</event>
<event>
 5   0  0.8872777E-05  0.2107455E+04  0.7818609E-02  0.8557967E-01
       -2   -1    0    0    0  501  0.00000000000E+00  0.00000000000E+00  0.20045099752E+04  0.20045099752E+04  0.25500000920E-02 0. -1.
        2   -1    0    0  501    0  0.00000000000E+00  0.00000000000E+00 -0.55392148407E+03  0.55392148408E+03  0.25500000920E-02 0.  1.
    10030    2    1    2    0    0  0.00000000000E+00  0.00000000000E+00  0.14505884911E+04  0.25584314592E+04  0.21074545217E+04 0.  0.
        3    1    3    3  502    0 -0.33080219646E+03  0.57930332008E+03 -0.26492289675E+03  0.71777892227E+03  0.10100000352E+00 0.  1.
       -3    1    3    3    0  502  0.33080219646E+03 -0.57930332008E+03  0.17155113878E+04  0.18406525370E+04  0.10100000352E+00 0. -1.
</event>
<event>
 5   0  0.4200061E-05  0.1701018E+04  0.7818609E-02  0.8760784E-01
       -1   -1    0    0    0  501  0.00000000000E+00  0.00000000000E+00  0.12515576768E+04  0.12515576768E+04  0.50400001928E-02 0. -1.
        1   -1    0    0  501    0  0.00000000000E+00  0.00000000000E+00 -0.57797200779E+03  0.57797200781E+03  0.50400001928E-02 0.  1.
    10030    2    1    2    0    0  0.00000000000E+00  0.00000000000E+00  0.67358566903E+03  0.18295296846E+04  0.17010176993E+04 0.  0.
        4    1    3    3  502    0 -0.83763004849E+03  0.67418733597E+00  0.17821160316E+03  0.85637932078E+03  0.12699999809E+01 0.  1.
       -4    1    3    3    0  502  0.83763004849E+03 -0.67418733597E+00  0.49537406587E+03  0.97315036387E+03  0.12699999809E+01 0. -1.
</event>
<event>
 5   0  0.8858590E-05  0.2168094E+04  0.7818609E-02  0.8531826E-01
       -2   -1    0    0    0  501  0.00000000000E+00  0.00000000000E+00  0.10331683401E+04  0.10331683401E+04  0.25500000920E-02 0.  1.
        2   -1    0    0  501    0  0.00000000000E+00  0.00000000000E+00 -0.11374316955E+04  0.11374316955E+04  0.25500000920E-02 0. -1.
    10030    2    1    2    0    0  0.00000000000E+00  0.00000000000E+00 -0.10426335544E+03  0.21706000356E+04  0.21680944784E+04 0.  0.
        1    1    3    3  502    0 -0.48619857545E+03 -0.62104668771E+03  0.69241477705E+03  0.10495362150E+04  0.50400001928E-02 0.  1.
       -1    1    3    3    0  502  0.48619857545E+03  0.62104668771E+03 -0.79667813249E+03  0.11210638206E+04  0.50400001928E-02 0. -1.
</event>
<event>
 5   0  0.4050368E-05  0.2069943E+04  0.7818609E-02  0.8574600E-01
       -1   -1    0    0    0  501  0.00000000000E+00  0.00000000000E+00  0.67875715506E+03  0.67875715508E+03  0.50400001928E-02 0.  1.
        1   -1    0    0  501    0  0.00000000000E+00  0.00000000000E+00 -0.15781287739E+04  0.15781287739E+04  0.50400001928E-02 0. -1.
    10030    2    1    2    0    0  0.00000000000E+00  0.00000000000E+00 -0.89937161883E+03  0.22568859290E+04  0.20699431846E+04 0.  0.
        2    1    3    3  502    0  0.33572998334E+03 -0.97328674538E+03 -0.33448101343E+03  0.10825337218E+04  0.25500000920E-02 0. -1.
       -2    1    3    3    0  502 -0.33572998334E+03  0.97328674538E+03 -0.56489060540E+03  0.11743522072E+04  0.25500000920E-02 0.  1.
</event>
<event>
 5   0  0.4182977E-05  0.2110104E+04  0.7818609E-02  0.8556806E-01
       -1   -1    0    0    0  501  0.00000000000E+00  0.00000000000E+00  0.15630364231E+04  0.15630364231E+04  0.50400001928E-02 0. -1.
        1   -1    0    0  501    0  0.00000000000E+00  0.00000000000E+00 -0.71216170065E+03  0.71216170067E+03  0.50400001928E-02 0.  1.
    10030    2    1    2    0    0  0.00000000000E+00  0.00000000000E+00  0.85087472248E+03  0.22751981238E+04  0.21101039570E+04 0.  0.
        1    1    3    3  502    0  0.21439727375E+03 -0.59054905961E+03 -0.48847523907E+03  0.79581558291E+03  0.50400001928E-02 0.  1.
       -1    1    3    3    0  502 -0.21439727375E+03  0.59054905961E+03  0.13393499615E+04  0.14793825409E+04  0.50400001928E-02 0. -1.
</event>
<event>
 5   0  0.4128678E-05  0.2097380E+04  0.7818609E-02  0.8562398E-01
       -1   -1    0    0    0  501  0.00000000000E+00  0.00000000000E+00  0.94664325274E+03  0.94664325275E+03  0.50400001928E-02 0.  1.
        1   -1    0    0  501    0  0.00000000000E+00  0.00000000000E+00 -0.11617371768E+04  0.11617371769E+04  0.50400001928E-02 0. -1.
    10030    2    1    2    0    0  0.00000000000E+00  0.00000000000E+00 -0.21509392411E+03  0.21083804296E+04  0.20973799465E+04 0.  0.
        5    1    3    3  502    0  0.52758464214E+03  0.70019863239E+03  0.47088817031E+03  0.99517909864E+03  0.46999998093E+01 0.  1.
       -5    1    3    3    0  502 -0.52758464214E+03 -0.70019863239E+03 -0.68598209442E+03  0.11132013310E+04  0.46999998093E+01 0. -1.
</event>
<event>
 5   0  0.9012466E-05  0.2132877E+04  0.7818609E-02  0.8546898E-01
       -2   -1    0    0    0  501  0.00000000000E+00  0.00000000000E+00  0.90490260355E+03  0.90490260355E+03  0.25500000920E-02 0. -1.
        2   -1    0    0  501    0  0.00000000000E+00  0.00000000000E+00 -0.12568100308E+04  0.12568100308E+04  0.25500000920E-02 0.  1.
    10030    2    1    2    0    0  0.00000000000E+00  0.00000000000E+00 -0.35190742725E+03  0.21617126344E+04  0.21328766200E+04 0.  0.
        2    1    3    3  502    0 -0.86624080672E+03 -0.59531029458E+03 -0.35873375662E+03  0.11106112687E+04  0.25500000920E-02 0. -1.
       -2    1    3    3    0  502  0.86624080672E+03  0.59531029458E+03  0.68263293709E+01  0.10511013656E+04  0.25500000920E-02 0.  1.
</event>
<event>
 5   0  0.8858590E-05  0.2082368E+04  0.7818609E-02  0.8569050E-01
       -2   -1    0    0    0  501  0.00000000000E+00  0.00000000000E+00  0.49014562229E+03  0.49014562230E+03  0.25500000920E-02 0. -1.
        2   -1    0    0  501    0  0.00000000000E+00  0.00000000000E+00 -0.22117184825E+04  0.22117184825E+04  0.25500000920E-02 0.  1.
    10030    2    1    2    0    0  0.00000000000E+00  0.00000000000E+00 -0.17215728602E+04  0.27018641048E+04  0.20823680097E+04 0.  0.
        1    1    3    3  502    0 -0.59093974753E+03 -0.91118897393E+02  0.24517320847E+03  0.64623706242E+03  0.50400001928E-02 0. -1.
       -1    1    3    3    0  502  0.59093974753E+03  0.91118897393E+02 -0.19667460686E+04  0.20556270423E+04  0.50400001928E-02 0.  1.
</event>
<event>
 5   0  0.8872777E-05  0.2080374E+04  0.7818609E-02  0.8569939E-01
        2   -1    0    0  501    0  0.00000000000E+00  0.00000000000E+00  0.15365544246E+04  0.15365544246E+04  0.25500000920E-02 0.  1.
       -2   -1    0    0    0  501  0.00000000000E+00  0.00000000000E+00 -0.70416552469E+03  0.70416552469E+03  0.25500000920E-02 0. -1.
    10030    2    1    2    0    0  0.00000000000E+00  0.00000000000E+00  0.83238889995E+03  0.22407199493E+04  0.20803736709E+04 0.  0.
        3    1    3    3  502    0  0.53062625454E+03  0.31909747081E+02  0.13792026496E+04  0.14781009481E+04  0.10100000352E+00 0.  1.
       -3    1    3    3    0  502 -0.53062625454E+03 -0.31909747081E+02 -0.54681374966E+03  0.76261900120E+03  0.10100000352E+00 0. -1.
</event>
<event>
 5   0  0.3176125E-05  0.2084522E+04  0.7818609E-02  0.8568092E-01
       -3   -1    0    0    0  501  0.00000000000E+00  0.00000000000E+00  0.67156964141E+03  0.67156964901E+03  0.10100000352E+00 0. -1.
        3   -1    0    0  501    0  0.00000000000E+00  0.00000000000E+00 -0.16175663411E+04  0.16175663443E+04  0.10100000352E+00 0.  1.
    10030    2    1    2    0    0  0.00000000000E+00  0.00000000000E+00 -0.94599669970E+03  0.22891359933E+04  0.20845224489E+04 0.  0.
        4    1    3    3  502    0  0.33871469754E+03  0.68554206823E+03 -0.12507638263E+04  0.14659834023E+04  0.12699999809E+01 0.  1.
       -4    1    3    3    0  502 -0.33871469754E+03 -0.68554206823E+03  0.30476712664E+03  0.82315259097E+03  0.12699999809E+01 0. -1.
</event>
<event>
 5   0  0.3176125E-05  0.2108296E+04  0.7818609E-02  0.8557598E-01
        4   -1    0    0  501    0  0.00000000000E+00  0.00000000000E+00  0.10014015732E+04  0.10014023785E+04  0.12699999809E+01 0.  1.
       -4   -1    0    0    0  501  0.00000000000E+00  0.00000000000E+00 -0.11096714174E+04  0.11096721442E+04  0.12699999809E+01 0. -1.
    10030    2    1    2    0    0  0.00000000000E+00  0.00000000000E+00 -0.10826984429E+03  0.21110745227E+04  0.21082962982E+04 0.  0.
        4    1    3    3  502    0  0.41834335367E+03 -0.89755452885E+03 -0.41601317353E+03  0.10740967681E+04  0.12699999809E+01 0. -1.
       -4    1    3    3    0  502 -0.41834335367E+03  0.89755452885E+03  0.30774332925E+03  0.10369777545E+04  0.12699999809E+01 0.  1.
</event>
<event>
 5   0  0.8547605E-05  0.2097241E+04  0.7818609E-02  0.8562460E-01
       -2   -1    0    0    0  501  0.00000000000E+00  0.00000000000E+00  0.14655756242E+04  0.14655756242E+04  0.25500000920E-02 0. -1.
        2   -1    0    0  501    0  0.00000000000E+00  0.00000000000E+00 -0.75028904453E+03  0.75028904453E+03  0.25500000920E-02 0.  1.
    10030    2    1    2    0    0  0.00000000000E+00  0.00000000000E+00  0.71528657963E+03  0.22158646687E+04  0.20972413640E+04 0.  0.
        4    1    3    3  502    0  0.19833096903E+03 -0.81818012051E+03 -0.30289772113E+03  0.89470806704E+03  0.12699999809E+01 0.  1.
       -4    1    3    3    0  502 -0.19833096903E+03  0.81818012051E+03  0.10181843008E+04  0.13211566017E+04  0.12699999809E+01 0. -1.
</event>
<event>
 5   0  0.8858590E-05  0.2095390E+04  0.7818609E-02  0.8563277E-01
       -2   -1    0    0    0  501  0.00000000000E+00  0.00000000000E+00  0.51638295559E+03  0.51638295560E+03  0.25500000920E-02 0. -1.
        2   -1    0    0  501    0  0.00000000000E+00  0.00000000000E+00 -0.21256791854E+04  0.21256791854E+04  0.25500000920E-02 0.  1.
    10030    2    1    2    0    0  0.00000000000E+00  0.00000000000E+00 -0.16092962298E+04  0.26420621410E+04  0.20953897016E+04 0.  0.
        1    1    3    3  502    0 -0.42292077907E+03 -0.16650604719E+03  0.38559627946E+03  0.59604592095E+03  0.50400001928E-02 0. -1.
       -1    1    3    3    0  502  0.42292077907E+03  0.16650604719E+03 -0.19948925092E+04  0.20460162200E+04  0.50400001928E-02 0.  1.
</event>
<event>
 5   0  0.4182977E-05  0.2183979E+04  0.7818609E-02  0.8525126E-01
       -1   -1    0    0    0  501  0.00000000000E+00  0.00000000000E+00  0.88392767070E+03  0.88392767071E+03  0.50400001928E-02 0.  1.
        1   -1    0    0  501    0  0.00000000000E+00  0.00000000000E+00 -0.13490258472E+04  0.13490258472E+04  0.50400001928E-02 0. -1.
    10030    2    1    2    0    0  0.00000000000E+00  0.00000000000E+00 -0.46509817647E+03  0.22329535179E+04  0.21839791893E+04 0.  0.
        1    1    3    3  502    0 -0.60154283099E+02 -0.34383389447E+03  0.82535186215E+03  0.89612832851E+03  0.50400001928E-02 0.  1.
       -1    1    3    3    0  502  0.60154283099E+02  0.34383389447E+03 -0.12904500386E+04  0.13368251894E+04  0.50400001928E-02 0. -1.
</event>
<event>
 5   0  0.4128678E-05  0.2104232E+04  0.7818609E-02  0.8559382E-01
       -1   -1    0    0    0  501  0.00000000000E+00  0.00000000000E+00  0.61991356355E+03  0.61991356357E+03  0.50400001928E-02 0. -1.
        1   -1    0    0  501    0  0.00000000000E+00  0.00000000000E+00 -0.17856485266E+04  0.17856485266E+04  0.50400001928E-02 0.  1.
    10030    2    1    2    0    0  0.00000000000E+00  0.00000000000E+00 -0.11657349631E+04  0.24055620902E+04  0.21042316806E+04 0.  0.
        5    1    3    3  502    0 -0.17600268836E+03  0.10045166760E+04 -0.28718901880E+03  0.10594953144E+04  0.46999998093E+01 0. -1.
       -5    1    3    3    0  502  0.17600268836E+03 -0.10045166760E+04 -0.87854594428E+03  0.13460667758E+04  0.46999998093E+01 0.  1.
</event>
<event>
 5   0  0.9086985E-05  0.2094136E+04  0.7818609E-02  0.8563831E-01
        2   -1    0    0  501    0  0.00000000000E+00  0.00000000000E+00  0.14280275071E+04  0.14280275072E+04  0.25500000920E-02 0. -1.
       -2   -1    0    0    0  501  0.00000000000E+00  0.00000000000E+00 -0.76773842296E+03  0.76773842296E+03  0.25500000920E-02 0.  1.
    10030    2    1    2    0    0  0.00000000000E+00  0.00000000000E+00  0.66028908419E+03  0.21957659301E+04  0.20941361811E+04 0.  0.
        5    1    3    3  502    0 -0.18908484747E+03  0.72983598856E+03  0.10919840155E+04  0.13269758211E+04  0.46999998093E+01 0. -1.
       -5    1    3    3    0  502  0.18908484747E+03 -0.72983598856E+03 -0.43169493132E+03  0.86879010898E+03  0.46999998093E+01 0.  1.
</event>
<event>
 5   0  0.9086985E-05  0.2094203E+04  0.7818609E-02  0.8563801E-01
       -2   -1    0    0    0  501  0.00000000000E+00  0.00000000000E+00  0.17331793906E+04  0.17331793906E+04  0.25500000920E-02 0. -1.
        2   -1    0    0  501    0  0.00000000000E+00  0.00000000000E+00 -0.63260680927E+03  0.63260680928E+03  0.25500000920E-02 0.  1.
    10030    2    1    2    0    0  0.00000000000E+00  0.00000000000E+00  0.11005725813E+04  0.23657861999E+04  0.20942025539E+04 0.  0.
        5    1    3    3  502    0  0.83025245215E+03 -0.62841059670E+03  0.67496150676E+03  0.12408924764E+04  0.46999998093E+01 0. -1.
       -5    1    3    3    0  502 -0.83025245215E+03  0.62841059670E+03  0.42561107457E+03  0.11248937235E+04  0.46999998093E+01 0.  1.
</event>
<event>
 5   0  0.9086985E-05  0.2100908E+04  0.7818609E-02  0.8560843E-01
       -2   -1    0    0    0  501  0.00000000000E+00  0.00000000000E+00  0.82183686603E+03  0.82183686603E+03  0.25500000920E-02 0.  1.
        2   -1    0    0  501    0  0.00000000000E+00  0.00000000000E+00 -0.13426676955E+04  0.13426676955E+04  0.25500000920E-02 0. -1.
    10030    2    1    2    0    0  0.00000000000E+00  0.00000000000E+00 -0.52083082948E+03  0.21645045615E+04  0.21009081950E+04 0.  0.
        5    1    3    3  502    0  0.53389542404E+03 -0.84013227405E+03 -0.60607883698E+03  0.11654270498E+04  0.46999998093E+01 0. -1.
       -5    1    3    3    0  502 -0.53389542404E+03  0.84013227405E+03  0.85248007509E+02  0.99907751176E+03  0.46999998093E+01 0.  1.
</event>
<event>
 5   0  0.8547605E-05  0.2101613E+04  0.7818609E-02  0.8560533E-01
        2   -1    0    0  501    0  0.00000000000E+00  0.00000000000E+00  0.10249317616E+04  0.10249317616E+04  0.25500000920E-02 0.  1.
       -2   -1    0    0    0  501  0.00000000000E+00  0.00000000000E+00 -0.10773346580E+04  0.10773346580E+04  0.25500000920E-02 0. -1.
    10030    2    1    2    0    0  0.00000000000E+00  0.00000000000E+00 -0.52402896359E+02  0.21022664196E+04  0.21016131984E+04 0.  0.
        4    1    3    3  502    0 -0.94245151797E+03 -0.10493228837E+03  0.42667235580E+03  0.10398444888E+04  0.12699999809E+01 0.  1.
       -4    1    3    3    0  502  0.94245151797E+03  0.10493228837E+03 -0.47907525216E+03  0.10624219308E+04  0.12699999809E+01 0. -1.
</event>
<event>
 5   0  0.8547605E-05  0.2090120E+04  0.7818609E-02  0.8565608E-01
       -2   -1    0    0    0  501  0.00000000000E+00  0.00000000000E+00  0.72393757480E+03  0.72393757480E+03  0.25500000920E-02 0. -1.
        2   -1    0    0  501    0  0.00000000000E+00  0.00000000000E+00 -0.15086244408E+04  0.15086244408E+04  0.25500000920E-02 0.  1.
    10030    2    1    2    0    0  0.00000000000E+00  0.00000000000E+00 -0.78468686597E+03  0.22325620156E+04  0.20901195362E+04 0.  0.
        4    1    3    3  502    0 -0.34086292445E+03 -0.21936008565E+03 -0.14212345156E+04  0.14779091791E+04  0.12699999809E+01 0.  1.
       -4    1    3    3    0  502  0.34086292445E+03  0.21936008565E+03  0.63654764963E+03  0.75465283647E+03  0.12699999809E+01 0. -1.
</event>
<event>
 5   0  0.4128678E-05  0.2116272E+04  0.7818609E-02  0.8554109E-01
        1   -1    0    0  501    0  0.00000000000E+00  0.00000000000E+00  0.13743743401E+04  0.13743743401E+04  0.50400001928E-02 0.  1.
       -1   -1    0    0    0  501  0.00000000000E+00  0.00000000000E+00 -0.81466265549E+03  0.81466265550E+03  0.50400001928E-02 0. -1.
    10030    2    1    2    0    0  0.00000000000E+00  0.00000000000E+00  0.55971168465E+03  0.21890369956E+04  0.21162716740E+04 0.  0.
        5    1    3    3  502    0  0.46782938682E+03 -0.81266674138E+03  0.78695479752E+03  0.12241778919E+04  0.46999998093E+01 0.  1.
       -5    1    3    3    0  502 -0.46782938682E+03  0.81266674138E+03 -0.22724311287E+03  0.96485910373E+03  0.46999998093E+01 0. -1.
</event>
<event>
 5   0  0.8872777E-05  0.2077237E+04  0.7818609E-02  0.8571338E-01
        2   -1    0    0  501    0  0.00000000000E+00  0.00000000000E+00  0.20439122084E+04  0.20439122084E+04  0.25500000920E-02 0. -1.
       -2   -1    0    0    0  501  0.00000000000E+00  0.00000000000E+00 -0.52777622585E+03  0.52777622586E+03  0.25500000920E-02 0.  1.
    10030    2    1    2    0    0  0.00000000000E+00  0.00000000000E+00  0.15161359825E+04  0.25716884342E+04  0.20772368871E+04 0.  0.
        3    1    3    3  502    0 -0.13327072556E+03 -0.14136078879E+03  0.20212165063E+04  0.20305319831E+04  0.10100000352E+00 0. -1.
       -3    1    3    3    0  502  0.13327072556E+03  0.14136078879E+03 -0.50508052378E+03  0.54115645113E+03  0.10100000352E+00 0.  1.
</event>
<event>
 5   0  0.9012466E-05  0.2096530E+04  0.7818609E-02  0.8562773E-01
        2   -1    0    0  501    0  0.00000000000E+00  0.00000000000E+00  0.10727279190E+04  0.10727279190E+04  0.25500000920E-02 0.  1.
       -2   -1    0    0    0  501  0.00000000000E+00  0.00000000000E+00 -0.10243602283E+04  0.10243602283E+04  0.25500000920E-02 0. -1.
    10030    2    1    2    0    0  0.00000000000E+00  0.00000000000E+00  0.48367690694E+02  0.20970881474E+04  0.20965302918E+04 0.  0.
        2    1    3    3  502    0 -0.90318326234E+03  0.39431314109E+03 -0.33317436585E+03  0.10403018873E+04  0.25500000920E-02 0. -1.
       -2    1    3    3    0  502  0.90318326234E+03 -0.39431314109E+03  0.38154205654E+03  0.10567862601E+04  0.25500000920E-02 0.  1.
</event>
<event>
 5   0  0.4174093E-05  0.2150785E+04  0.7818609E-02  0.8539196E-01
        1   -1    0    0  501    0  0.00000000000E+00  0.00000000000E+00  0.96734642336E+03  0.96734642338E+03  0.50400001928E-02 0.  1.
       -1   -1    0    0    0  501  0.00000000000E+00  0.00000000000E+00 -0.11955061126E+04  0.11955061126E+04  0.50400001928E-02 0. -1.
    10030    2    1    2    0    0  0.00000000000E+00  0.00000000000E+00 -0.22815968924E+03  0.21628525360E+04  0.21507845658E+04 0.  0.
        3    1    3    3  502    0  0.62963079549E+03 -0.86200330786E+03  0.16973722337E+02  0.10676014045E+04  0.10100000352E+00 0.  1.
       -3    1    3    3    0  502 -0.62963079549E+03  0.86200330786E+03 -0.24513341157E+03  0.10952511315E+04  0.10100000352E+00 0. -1.
</event>
<event>
 5   0  0.9086985E-05  0.2100608E+04  0.7818609E-02  0.8560976E-01
       -2   -1    0    0    0  501  0.00000000000E+00  0.00000000000E+00  0.11557674232E+04  0.11557674232E+04  0.25500000920E-02 0. -1.
        2   -1    0    0  501    0  0.00000000000E+00  0.00000000000E+00 -0.95446391667E+03  0.95446391668E+03  0.25500000920E-02 0.  1.
    10030    2    1    2    0    0  0.00000000000E+00  0.00000000000E+00  0.20130350653E+03  0.21102313399E+04  0.21006078182E+04 0.  0.
        5    1    3    3  502    0 -0.25552857121E+03 -0.37377283771E+03 -0.85137931406E+03  0.96429757405E+03  0.46999998093E+01 0.  1.
       -5    1    3    3    0  502  0.25552857121E+03  0.37377283771E+03  0.10526828206E+04  0.11459337658E+04  0.46999998093E+01 0. -1.
</event>
<event>
 5   0  0.9012466E-05  0.2119104E+04  0.7818609E-02  0.8552874E-01
        2   -1    0    0  501    0  0.00000000000E+00  0.00000000000E+00  0.17116128328E+04  0.17116128328E+04  0.25500000920E-02 0. -1.
       -2   -1    0    0    0  501  0.00000000000E+00  0.00000000000E+00 -0.65590205653E+03  0.65590205654E+03  0.25500000920E-02 0.  1.
    10030    2    1    2    0    0  0.00000000000E+00  0.00000000000E+00  0.10557107763E+04  0.23675148894E+04  0.21191039399E+04 0.  0.
        2    1    3    3  502    0 -0.21361545162E+03  0.25740981433E+03 -0.59536316716E+03  0.68289726497E+03  0.25500000920E-02 0.  1.
       -2    1    3    3    0  502  0.21361545162E+03 -0.25740981433E+03  0.16510739434E+04  0.16846176244E+04  0.25500000920E-02 0. -1.
</event>
<event>
 5   0  0.4182977E-05  0.2100365E+04  0.7818609E-02  0.8561083E-01
        1   -1    0    0  501    0  0.00000000000E+00  0.00000000000E+00  0.29077197037E+04  0.29077197037E+04  0.50400001928E-02 0. -1.
       -1   -1    0    0    0  501  0.00000000000E+00  0.00000000000E+00 -0.37929477586E+03  0.37929477589E+03  0.50400001928E-02 0.  1.
    10030    2    1    2    0    0  0.00000000000E+00  0.00000000000E+00  0.25284249278E+04  0.32870144796E+04  0.21003646287E+04 0.  0.
        1    1    3    3  502    0  0.46921337945E+03 -0.42202614336E+03  0.25778727123E+04  0.26539960403E+04  0.50400001928E-02 0. -1.
       -1    1    3    3    0  502 -0.46921337945E+03  0.42202614336E+03 -0.49447784405E+02  0.63301843934E+03  0.50400001928E-02 0.  1.
</event>
<event>
 5   0  0.9086985E-05  0.2092646E+04  0.7818609E-02  0.8564490E-01
       -2   -1    0    0    0  501  0.00000000000E+00  0.00000000000E+00  0.63439711413E+03  0.63439711413E+03  0.25500000920E-02 0. -1.
        2   -1    0    0  501    0  0.00000000000E+00  0.00000000000E+00 -0.17257199457E+04  0.17257199457E+04  0.25500000920E-02 0.  1.
    10030    2    1    2    0    0  0.00000000000E+00  0.00000000000E+00 -0.10913228315E+04  0.23601170598E+04  0.20926459360E+04 0.  0.
        5    1    3    3  502    0  0.26014038651E+03  0.35907276159E+03 -0.16145082255E+04  0.16742954247E+04  0.46999998093E+01 0.  1.
       -5    1    3    3    0  502 -0.26014038651E+03 -0.35907276159E+03  0.52318539395E+03  0.68582163516E+03  0.46999998093E+01 0. -1.
</event>
<event>
 5   0  0.9086985E-05  0.2098936E+04  0.7818609E-02  0.8561712E-01
       -2   -1    0    0    0  501  0.00000000000E+00  0.00000000000E+00  0.64347881762E+03  0.64347881762E+03  0.25500000920E-02 0.  1.
        2   -1    0    0  501    0  0.00000000000E+00  0.00000000000E+00 -0.17116065881E+04  0.17116065881E+04  0.25500000920E-02 0. -1.
    10030    2    1    2    0    0  0.00000000000E+00  0.00000000000E+00 -0.10681277704E+04  0.23550854057E+04  0.20989355240E+04 0.  0.
        5    1    3    3  502    0  0.36728814045E+03 -0.30549107312E+03 -0.15825152556E+04  0.16530583771E+04  0.46999998093E+01 0. -1.
       -5    1    3    3    0  502 -0.36728814045E+03  0.30549107312E+03  0.51438748521E+03  0.70202702854E+03  0.46999998093E+01 0.  1.
</event>
<event>
 5   0  0.8872777E-05  0.2117635E+04  0.7818609E-02  0.8553515E-01
       -2   -1    0    0    0  501  0.00000000000E+00  0.00000000000E+00  0.42468619556E+03  0.42468619557E+03  0.25500000920E-02 0.  1.
        2   -1    0    0  501    0  0.00000000000E+00  0.00000000000E+00 -0.26398186031E+04  0.26398186031E+04  0.25500000920E-02 0. -1.
    10030    2    1    2    0    0  0.00000000000E+00  0.00000000000E+00 -0.22151324075E+04  0.30645047987E+04  0.21176350200E+04 0.  0.
        3    1    3    3  502    0 -0.75479676954E+03  0.71337000797E+03 -0.80930326624E+03  0.13166574036E+04  0.10100000352E+00 0.  1.
       -3    1    3    3    0  502  0.75479676954E+03 -0.71337000797E+03 -0.14058291413E+04  0.17478473950E+04  0.10100000352E+00 0. -1.
</event>
<event>
 5   0  0.4050368E-05  0.2114668E+04  0.7818609E-02  0.8554809E-01
        1   -1    0    0  501    0  0.00000000000E+00  0.00000000000E+00  0.25420322718E+04  0.25420322718E+04  0.50400001928E-02 0. -1.
       -1   -1    0    0    0  501  0.00000000000E+00  0.00000000000E+00 -0.43978802242E+03  0.43978802245E+03  0.50400001928E-02 0.  1.
    10030    2    1    2    0    0  0.00000000000E+00  0.00000000000E+00  0.21022442494E+04  0.29818202942E+04  0.21146681497E+04 0.  0.
        2    1    3    3  502    0  0.67214604590E+03 -0.23296703223E+03  0.21541334350E+04  0.22685556640E+04  0.25500000920E-02 0. -1.
       -2    1    3    3    0  502 -0.67214604590E+03  0.23296703223E+03 -0.51889185605E+02  0.71326463021E+03  0.25500000920E-02 0.  1.
</event>
<event>
 5   0  0.4128678E-05  0.2101686E+04  0.7818609E-02  0.8560501E-01
       -1   -1    0    0    0  501  0.00000000000E+00  0.00000000000E+00  0.10961585368E+04  0.10961585368E+04  0.50400001928E-02 0. -1.
        1   -1    0    0  501    0  0.00000000000E+00  0.00000000000E+00 -0.10074008520E+04  0.10074008520E+04  0.50400001928E-02 0.  1.
    10030    2    1    2    0    0  0.00000000000E+00  0.00000000000E+00  0.88757684825E+02  0.21035593889E+04  0.21016860317E+04 0.  0.
        5    1    3    3  502    0 -0.51278883290E+03 -0.24732908813E+03 -0.83965523600E+03  0.10144787185E+04  0.46999998093E+01 0.  1.
       -5    1    3    3    0  502  0.51278883290E+03  0.24732908813E+03  0.92841292083E+03  0.10890806704E+04  0.46999998093E+01 0. -1.
</event>
<event>
 5   0  0.9012466E-05  0.2115985E+04  0.7818609E-02  0.8554234E-01
        2   -1    0    0  501    0  0.00000000000E+00  0.00000000000E+00  0.13748732385E+04  0.13748732385E+04  0.25500000920E-02 0. -1.
       -2   -1    0    0    0  501  0.00000000000E+00  0.00000000000E+00 -0.81414673991E+03  0.81414673991E+03  0.25500000920E-02 0.  1.
    10030    2    1    2    0    0  0.00000000000E+00  0.00000000000E+00  0.56072649857E+03  0.21890199784E+04  0.21159854110E+04 0.  0.
        2    1    3    3  502    0  0.28764934042E+03 -0.36783830596E+03  0.12625002653E+04  0.13460884378E+04  0.25500000920E-02 0. -1.
       -2    1    3    3    0  502 -0.28764934042E+03  0.36783830596E+03 -0.70177376677E+03  0.84293154059E+03  0.25500000920E-02 0.  1.
</event>
<event>
 5   0  0.8858590E-05  0.2114237E+04  0.7818609E-02  0.8554998E-01
       -2   -1    0    0    0  501  0.00000000000E+00  0.00000000000E+00  0.97309755831E+03  0.97309755831E+03  0.25500000920E-02 0.  1.
        2   -1    0    0  501    0  0.00000000000E+00  0.00000000000E+00 -0.11483943771E+04  0.11483943771E+04  0.25500000920E-02 0. -1.
    10030    2    1    2    0    0  0.00000000000E+00  0.00000000000E+00 -0.17529681882E+03  0.21214919354E+04  0.21142372283E+04 0.  0.
        1    1    3    3  502    0  0.87687689633E+03 -0.25687002073E+03  0.44578127455E+03  0.10166691909E+04  0.50400001928E-02 0.  1.
       -1    1    3    3    0  502 -0.87687689633E+03  0.25687002073E+03 -0.62107809337E+03  0.11048227446E+04  0.50400001928E-02 0. -1.
</event>
<event>
 5   0  0.4050368E-05  0.2098359E+04  0.7818609E-02  0.8561967E-01
        1   -1    0    0  501    0  0.00000000000E+00  0.00000000000E+00  0.11002588486E+04  0.11002588486E+04  0.50400001928E-02 0. -1.
       -1   -1    0    0    0  501  0.00000000000E+00  0.00000000000E+00 -0.10004712733E+04  0.10004712733E+04  0.50400001928E-02 0.  1.
    10030    2    1    2    0    0  0.00000000000E+00  0.00000000000E+00  0.99787575358E+02  0.21007301219E+04  0.20983587598E+04 0.  0.
        2    1    3    3  502    0 -0.30752995308E+03  0.96132715253E+03 -0.23687853676E+03  0.10367429804E+04  0.25500000920E-02 0.  1.
       -2    1    3    3    0  502  0.30752995308E+03 -0.96132715253E+03  0.33666611212E+03  0.10639871415E+04  0.25500000920E-02 0. -1.
</event>
<event>
 5   0  0.4174093E-05  0.2011028E+04  0.7818609E-02  0.8601482E-01
        1   -1    0    0  501    0  0.00000000000E+00  0.00000000000E+00  0.20314952471E+04  0.20314952471E+04  0.50400001928E-02 0. -1.
       -1   -1    0    0    0  501  0.00000000000E+00  0.00000000000E+00 -0.49769163367E+03  0.49769163369E+03  0.50400001928E-02 0.  1.
    10030    2    1    2    0    0  0.00000000000E+00  0.00000000000E+00  0.15338036134E+04  0.25291868808E+04  0.20110277853E+04 0.  0.
        3    1    3    3  502    0  0.93474293237E+03 -0.33536840289E+03  0.56867840292E+03  0.11443825634E+04  0.10100000352E+00 0.  1.
       -3    1    3    3    0  502 -0.93474293237E+03  0.33536840289E+03  0.96512521049E+03  0.13848043174E+04  0.10100000352E+00 0. -1.
</event>
<event>
 5   0  0.9012466E-05  0.2119117E+04  0.7818609E-02  0.8552869E-01
       -2   -1    0    0    0  501  0.00000000000E+00  0.00000000000E+00  0.60129953670E+03  0.60129953671E+03  0.25500000920E-02 0.  1.
        2   -1    0    0  501    0  0.00000000000E+00  0.00000000000E+00 -0.18670629708E+04  0.18670629708E+04  0.25500000920E-02 0. -1.
    10030    2    1    2    0    0  0.00000000000E+00  0.00000000000E+00 -0.12657634341E+04  0.24683625075E+04  0.21191168909E+04 0.  0.
        2    1    3    3  502    0  0.21359086148E+03 -0.87443411381E+03  0.18169444253E+02  0.90032561011E+03  0.25500000920E-02 0.  1.
       -2    1    3    3    0  502 -0.21359086148E+03  0.87443411381E+03 -0.12839328784E+04  0.15680368974E+04  0.25500000920E-02 0. -1.
</event>
<event>
 5   0  0.4182977E-05  0.2091504E+04  0.7818609E-02  0.8564995E-01
       -1   -1    0    0    0  501  0.00000000000E+00  0.00000000000E+00  0.11530459587E+04  0.11530459587E+04  0.50400001928E-02 0.  1.
        1   -1    0    0  501    0  0.00000000000E+00  0.00000000000E+00 -0.94844213188E+03  0.94844213189E+03  0.50400001928E-02 0. -1.
    10030    2    1    2    0    0  0.00000000000E+00  0.00000000000E+00  0.20460382680E+03  0.21014880906E+04  0.20915041164E+04 0.  0.
        1    1    3    3  502    0  0.96744803136E+03 -0.22493091892E+03  0.43104527548E+03  0.10827509599E+04  0.50400001928E-02 0. -1.
       -1    1    3    3    0  502 -0.96744803136E+03  0.22493091892E+03 -0.22644144867E+03  0.10187371307E+04  0.50400001928E-02 0.  1.
</event>
<event>
 5   0  0.4182977E-05  0.2058353E+04  0.7818609E-02  0.8579815E-01
       -1   -1    0    0    0  501  0.00000000000E+00  0.00000000000E+00  0.11148385452E+04  0.11148385452E+04  0.50400001928E-02 0. -1.
        1   -1    0    0  501    0  0.00000000000E+00  0.00000000000E+00 -0.95009634832E+03  0.95009634833E+03  0.50400001928E-02 0.  1.
    10030    2    1    2    0    0  0.00000000000E+00  0.00000000000E+00  0.16474219687E+03  0.20649348935E+04  0.20583527694E+04 0.  0.
        1    1    3    3  502    0 -0.76918840644E+03  0.32997412356E+01  0.76832831133E+03  0.10871936750E+04  0.50400001928E-02 0. -1.
       -1    1    3    3    0  502  0.76918840644E+03 -0.32997412356E+01 -0.60358611445E+03  0.97774121856E+03  0.50400001928E-02 0.  1.
</event>
<event>
 5   0  0.4050368E-05  0.2099289E+04  0.7818609E-02  0.8561556E-01
        1   -1    0    0  501    0  0.00000000000E+00  0.00000000000E+00  0.13091435431E+04  0.13091435431E+04  0.50400001928E-02 0. -1.
       -1   -1    0    0    0  501  0.00000000000E+00  0.00000000000E+00 -0.84158383684E+03  0.84158383685E+03  0.50400001928E-02 0.  1.
    10030    2    1    2    0    0  0.00000000000E+00  0.00000000000E+00  0.46755970623E+03  0.21507273799E+04  0.20992894474E+04 0.  0.
        2    1    3    3  502    0 -0.41684661115E+03  0.96155374524E+03  0.29358258399E+03  0.10883645694E+04  0.25500000920E-02 0. -1.
       -2    1    3    3    0  502  0.41684661115E+03 -0.96155374524E+03  0.17397712224E+03  0.10623628106E+04  0.25500000920E-02 0.  1.
</event>
<event>
 5   0  0.8547605E-05  0.1845617E+04  0.7818609E-02  0.8682410E-01
        2   -1    0    0  501    0  0.00000000000E+00  0.00000000000E+00  0.12750524712E+04  0.12750524712E+04  0.25500000920E-02 0.  1.
       -2   -1    0    0    0  501  0.00000000000E+00  0.00000000000E+00 -0.66787474628E+03  0.66787474628E+03  0.25500000920E-02 0. -1.
    10030    2    1    2    0    0  0.00000000000E+00  0.00000000000E+00  0.60717772497E+03  0.19429272175E+04  0.18456168028E+04 0.  0.
        4    1    3    3  502    0  0.69586492219E+03  0.28037386912E+03  0.86926211298E+03  0.11482402755E+04  0.12699999809E+01 0.  1.
       -4    1    3    3    0  502 -0.69586492219E+03 -0.28037386912E+03 -0.26208438802E+03  0.79468694198E+03  0.12699999809E+01 0. -1.
</event>
<event>
 5   0  0.9086985E-05  0.2088613E+04  0.7818609E-02  0.8566276E-01
       -2   -1    0    0    0  501  0.00000000000E+00  0.00000000000E+00  0.63561004897E+03  0.63561004898E+03  0.25500000920E-02 0.  1.
        2   -1    0    0  501    0  0.00000000000E+00  0.00000000000E+00 -0.17157938531E+04  0.17157938531E+04  0.25500000920E-02 0. -1.
    10030    2    1    2    0    0  0.00000000000E+00  0.00000000000E+00 -0.10801838041E+04  0.23514039020E+04  0.20886127597E+04 0.  0.
        5    1    3    3  502    0  0.63356542992E+03  0.15006101137E+03  0.37911191834E+03  0.75343971076E+03  0.46999998093E+01 0.  1.
       -5    1    3    3    0  502 -0.63356542992E+03 -0.15006101137E+03 -0.14592957224E+04  0.15979641913E+04  0.46999998093E+01 0. -1.
</event>
<event>
 5   0  0.8547605E-05  0.2101129E+04  0.7818609E-02  0.8560746E-01
        2   -1    0    0  501    0  0.00000000000E+00  0.00000000000E+00  0.10423063033E+04  0.10423063033E+04  0.25500000920E-02 0. -1.
       -2   -1    0    0    0  501  0.00000000000E+00  0.00000000000E+00 -0.10588882953E+04  0.10588882953E+04  0.25500000920E-02 0.  1.
    10030    2    1    2    0    0  0.00000000000E+00  0.00000000000E+00 -0.16581992034E+02  0.21011945986E+04  0.21011291676E+04 0.  0.
        4    1    3    3  502    0 -0.56846238839E+02  0.11884309948E+03  0.10340126134E+04  0.10423717546E+04  0.12699999809E+01 0. -1.
       -4    1    3    3    0  502  0.56846238839E+02 -0.11884309948E+03 -0.10505946054E+04  0.10588228440E+04  0.12699999809E+01 0.  1.
</event>
<event>
 5   0  0.8858590E-05  0.2080781E+04  0.7818609E-02  0.8569757E-01
       -2   -1    0    0    0  501  0.00000000000E+00  0.00000000000E+00  0.55656862743E+03  0.55656862744E+03  0.25500000920E-02 0. -1.
        2   -1    0    0  501    0  0.00000000000E+00  0.00000000000E+00 -0.19447960337E+04  0.19447960337E+04  0.25500000920E-02 0.  1.
    10030    2    1    2    0    0  0.00000000000E+00  0.00000000000E+00 -0.13882274063E+04  0.25013646611E+04  0.20807810640E+04 0.  0.
        1    1    3    3  502    0 -0.14752610264E+03 -0.61046253564E+03 -0.16912161737E+04  0.18040622507E+04  0.50400001928E-02 0.  1.
       -1    1    3    3    0  502  0.14752610264E+03  0.61046253564E+03  0.30298876740E+03  0.69730241042E+03  0.50400001928E-02 0. -1.
</event>
<event>
 5   0  0.9086985E-05  0.2075318E+04  0.7818609E-02  0.8572195E-01
        2   -1    0    0  501    0  0.00000000000E+00  0.00000000000E+00  0.92871935205E+03  0.92871935205E+03  0.25500000920E-02 0.  1.
       -2   -1    0    0    0  501  0.00000000000E+00  0.00000000000E+00 -0.11593774723E+04  0.11593774723E+04  0.25500000920E-02 0. -1.
    10030    2    1    2    0    0  0.00000000000E+00  0.00000000000E+00 -0.23065812025E+03  0.20880968244E+04  0.20753180912E+04 0.  0.
        5    1    3    3  502    0 -0.77473581674E+03 -0.24723333149E+03 -0.76379291183E+03  0.11156798860E+04  0.46999998093E+01 0. -1.
       -5    1    3    3    0  502  0.77473581674E+03  0.24723333149E+03  0.53313479158E+03  0.97241693832E+03  0.46999998093E+01 0.  1.
</event>
<event>
 5   0  0.8872777E-05  0.2093737E+04  0.7818609E-02  0.8564007E-01
        2   -1    0    0  501    0  0.00000000000E+00  0.00000000000E+00  0.13537063544E+04  0.13537063544E+04  0.25500000920E-02 0.  1.
       -2   -1    0    0    0  501  0.00000000000E+00  0.00000000000E+00 -0.80957974982E+03  0.80957974983E+03  0.25500000920E-02 0. -1.
    10030    2    1    2    0    0  0.00000000000E+00  0.00000000000E+00  0.54412660458E+03  0.21632861042E+04  0.20937366136E+04 0.  0.
        3    1    3    3  502    0 -0.84885520769E+03  0.55481400332E+03  0.54061946642E+03  0.11491923945E+04  0.10100000352E+00 0.  1.
       -3    1    3    3    0  502  0.84885520769E+03 -0.55481400332E+03  0.35071381553E+01  0.10140937097E+04  0.10100000352E+00 0. -1.
</event>
<event>
 5   0  0.8547605E-05  0.2089758E+04  0.7818609E-02  0.8565769E-01
        2   -1    0    0  501    0  0.00000000000E+00  0.00000000000E+00  0.15143191469E+04  0.15143191469E+04  0.25500000920E-02 0. -1.
       -2   -1    0    0    0  501  0.00000000000E+00  0.00000000000E+00 -0.72096554109E+03  0.72096554110E+03  0.25500000920E-02 0.  1.
    10030    2    1    2    0    0  0.00000000000E+00  0.00000000000E+00  0.79335360581E+03  0.22352846880E+04  0.20897578072E+04 0.  0.
        4    1    3    3  502    0  0.88950089028E+03 -0.32434441810E+03  0.86945102958E+03  0.12854407186E+04  0.12699999809E+01 0. -1.
       -4    1    3    3    0  502 -0.88950089028E+03  0.32434441810E+03 -0.76097423768E+02  0.94984396938E+03  0.12699999809E+01 0.  1.
</event>
<event>
 5   0  0.4174093E-05  0.2108026E+04  0.7818609E-02  0.8557716E-01
        1   -1    0    0  501    0  0.00000000000E+00  0.00000000000E+00  0.18083214974E+04  0.18083214974E+04  0.50400001928E-02 0. -1.
       -1   -1    0    0    0  501  0.00000000000E+00  0.00000000000E+00 -0.61435071107E+03  0.61435071109E+03  0.50400001928E-02 0.  1.
    10030    2    1    2    0    0  0.00000000000E+00  0.00000000000E+00  0.11939707864E+04  0.24226722085E+04  0.21080261837E+04 0.  0.
        3    1    3    3  502    0 -0.61653091088E+03  0.82842957204E+03  0.83952484510E+03  0.13308673471E+04  0.10100000352E+00 0. -1.
       -3    1    3    3    0  502  0.61653091088E+03 -0.82842957204E+03  0.35444594128E+03  0.10918048614E+04  0.10100000352E+00 0.  1.
</event>
<event>
 5   0  0.4050368E-05  0.1774702E+04  0.7818609E-02  0.8719869E-01
        1   -1    0    0  501    0  0.00000000000E+00  0.00000000000E+00  0.16626763250E+04  0.16626763250E+04  0.50400001928E-02 0. -1.
       -1   -1    0    0    0  501  0.00000000000E+00  0.00000000000E+00 -0.47356898336E+03  0.47356898339E+03  0.50400001928E-02 0.  1.
    10030    2    1    2    0    0  0.00000000000E+00  0.00000000000E+00  0.11891073417E+04  0.21362453084E+04  0.17747021575E+04 0.  0.
        2    1    3    3  502    0 -0.48605707054E+03  0.34458474094E+03 -0.19698001107E+03  0.62752788327E+03  0.25500000920E-02 0.  1.
       -2    1    3    3    0  502  0.48605707054E+03 -0.34458474094E+03  0.13860873527E+04  0.15087174252E+04  0.25500000920E-02 0. -1.
</event>
<event>
 5   0  0.4128678E-05  0.2027039E+04  0.7818609E-02  0.8594083E-01
        1   -1    0    0  501    0  0.00000000000E+00  0.00000000000E+00  0.11089556198E+04  0.11089556198E+04  0.50400001928E-02 0.  1.
       -1   -1    0    0    0  501  0.00000000000E+00  0.00000000000E+00 -0.92629619346E+03  0.92629619347E+03  0.50400001928E-02 0. -1.
    10030    2    1    2    0    0  0.00000000000E+00  0.00000000000E+00  0.18265942634E+03  0.20352518133E+04  0.20270385979E+04 0.  0.
        5    1    3    3  502    0 -0.64818763512E+03  0.11007205692E+03 -0.68311663043E+03  0.94812103067E+03  0.46999998093E+01 0. -1.
       -5    1    3    3    0  502  0.64818763512E+03 -0.11007205692E+03  0.86577605678E+03  0.10871307826E+04  0.46999998093E+01 0.  1.
</event>
<event>
 5   0  0.8547605E-05  0.2089524E+04  0.7818609E-02  0.8565872E-01
       -2   -1    0    0    0  501  0.00000000000E+00  0.00000000000E+00  0.55738134423E+03  0.55738134424E+03  0.25500000920E-02 0.  1.
        2   -1    0    0  501    0  0.00000000000E+00  0.00000000000E+00 -0.19583136635E+04  0.19583136635E+04  0.25500000920E-02 0. -1.
    10030    2    1    2    0    0  0.00000000000E+00  0.00000000000E+00 -0.14009323193E+04  0.25156950077E+04  0.20895238713E+04 0.  0.
        4    1    3    3  502    0  0.41814981802E+03 -0.18383956448E+03  0.43079115459E+03  0.62787649068E+03  0.12699999809E+01 0.  1.
       -4    1    3    3    0  502 -0.41814981802E+03  0.18383956448E+03 -0.18317234739E+04  0.18878185171E+04  0.12699999809E+01 0. -1.
</event>
<event>
 5   0  0.4182977E-05  0.2144926E+04  0.7818609E-02  0.8541707E-01
        1   -1    0    0  501    0  0.00000000000E+00  0.00000000000E+00  0.15259712617E+04  0.15259712617E+04  0.50400001928E-02 0.  1.
       -1   -1    0    0    0  501  0.00000000000E+00  0.00000000000E+00 -0.75373427216E+03  0.75373427218E+03  0.50400001928E-02 0. -1.
    10030    2    1    2    0    0  0.00000000000E+00  0.00000000000E+00  0.77223698952E+03  0.22797055339E+04  0.21449259552E+04 0.  0.
        1    1    3    3  502    0  0.24894179767E+03 -0.45969729038E+03  0.13813802800E+04  0.14769919077E+04  0.50400001928E-02 0.  1.
       -1    1    3    3    0  502 -0.24894179767E+03  0.45969729038E+03 -0.60914329043E+03  0.80271362622E+03  0.50400001928E-02 0. -1.
</event>
<event>
 5   0  0.4128678E-05  0.2116843E+04  0.7818609E-02  0.8553860E-01
       -1   -1    0    0    0  501  0.00000000000E+00  0.00000000000E+00  0.83145179376E+03  0.83145179378E+03  0.50400001928E-02 0. -1.
        1   -1    0    0  501    0  0.00000000000E+00  0.00000000000E+00 -0.13473488655E+04  0.13473488655E+04  0.50400001928E-02 0.  1.
    10030    2    1    2    0    0  0.00000000000E+00  0.00000000000E+00 -0.51589707171E+03  0.21788006593E+04  0.21168425837E+04 0.  0.
        5    1    3    3  502    0 -0.83261025194E+03  0.70945961766E+02 -0.92654607207E+03  0.12477110542E+04  0.46999998093E+01 0.  1.
       -5    1    3    3    0  502  0.83261025194E+03 -0.70945961766E+02  0.41064900037E+03  0.93108960504E+03  0.46999998093E+01 0. -1.
</event>
<event>
 5   0  0.4182977E-05  0.2096392E+04  0.7818609E-02  0.8562834E-01
       -1   -1    0    0    0  501  0.00000000000E+00  0.00000000000E+00  0.63357348513E+03  0.63357348515E+03  0.50400001928E-02 0. -1.
        1   -1    0    0  501    0  0.00000000000E+00  0.00000000000E+00 -0.17341558032E+04  0.17341558032E+04  0.50400001928E-02 0.  1.
    10030    2    1    2    0    0  0.00000000000E+00  0.00000000000E+00 -0.11005823181E+04  0.23677292884E+04  0.20963922687E+04 0.  0.
        1    1    3    3  502    0  0.34548163078E+03  0.83709984998E+01 -0.16679637574E+04  0.17033880142E+04  0.50400001928E-02 0.  1.
       -1    1    3    3    0  502 -0.34548163078E+03 -0.83709984998E+01  0.56738143934E+03  0.66434127417E+03  0.50400001928E-02 0. -1.
</event>
<event>
 5   0  0.4050368E-05  0.2083305E+04  0.7818609E-02  0.8568634E-01
        1   -1    0    0  501    0  0.00000000000E+00  0.00000000000E+00  0.11794739758E+04  0.11794739758E+04  0.50400001928E-02 0. -1.
       -1   -1    0    0    0  501  0.00000000000E+00  0.00000000000E+00 -0.91993535755E+03  0.91993535756E+03  0.50400001928E-02 0.  1.
    10030    2    1    2    0    0  0.00000000000E+00  0.00000000000E+00  0.25953861826E+03  0.20994093334E+04  0.20833048876E+04 0.  0.
        2    1    3    3  502    0 -0.69307431183E+03  0.30674175781E+03  0.84985395449E+03  0.11387248358E+04  0.25500000920E-02 0. -1.
       -2    1    3    3    0  502  0.69307431183E+03 -0.30674175781E+03 -0.59031533623E+03  0.96068449758E+03  0.25500000920E-02 0.  1.
</event>
<event>
 5   0  0.9086985E-05  0.2091339E+04  0.7818609E-02  0.8565068E-01
        2   -1    0    0  501    0  0.00000000000E+00  0.00000000000E+00  0.86844902575E+03  0.86844902575E+03  0.25500000920E-02 0. -1.
       -2   -1    0    0    0  501  0.00000000000E+00  0.00000000000E+00 -0.12590551457E+04  0.12590551457E+04  0.25500000920E-02 0.  1.
    10030    2    1    2    0    0  0.00000000000E+00  0.00000000000E+00 -0.39060611998E+03  0.21275041715E+04  0.20913394891E+04 0.  0.
        5    1    3    3  502    0 -0.14016312882E+02 -0.90619523203E+03  0.33526829739E+03  0.96634009376E+03  0.46999998093E+01 0. -1.
       -5    1    3    3    0  502  0.14016312882E+02  0.90619523203E+03 -0.72587441738E+03  0.11611640777E+04  0.46999998093E+01 0.  1.
</event>
<event>
 5   0  0.8547605E-05  0.2013890E+04  0.7818609E-02  0.8600154E-01
       -2   -1    0    0    0  501  0.00000000000E+00  0.00000000000E+00  0.13549828814E+04  0.13549828814E+04  0.25500000920E-02 0.  1.
        2   -1    0    0  501    0  0.00000000000E+00  0.00000000000E+00 -0.74830354958E+03  0.74830354958E+03  0.25500000920E-02 0. -1.
    10030    2    1    2    0    0  0.00000000000E+00  0.00000000000E+00  0.60667933187E+03  0.21032864310E+04  0.20138902649E+04 0.  0.
        4    1    3    3  502    0  0.19760076894E+03  0.34517354300E+01  0.13345279137E+04  0.13490827786E+04  0.12699999809E+01 0.  1.
       -4    1    3    3    0  502 -0.19760076894E+03 -0.34517354300E+01 -0.72784858179E+03  0.75420365239E+03  0.12699999809E+01 0. -1.
</event>
<event>
 5   0  0.4174093E-05  0.2081269E+04  0.7818609E-02  0.8569540E-01
        1   -1    0    0  501    0  0.00000000000E+00  0.00000000000E+00  0.11944679329E+04  0.11944679329E+04  0.50400001928E-02 0. -1.
       -1   -1    0    0    0  501  0.00000000000E+00  0.00000000000E+00 -0.90661281401E+03  0.90661281402E+03  0.50400001928E-02 0.  1.
    10030    2    1    2    0    0  0.00000000000E+00  0.00000000000E+00  0.28785511891E+03  0.21010807470E+04  0.20812687803E+04 0.  0.
        3    1    3    3  502    0 -0.70434059199E+03 -0.17489403748E+03 -0.60898449228E+03  0.94738889370E+03  0.10100000352E+00 0.  1.
       -3    1    3    3    0  502  0.70434059199E+03  0.17489403748E+03  0.89683961119E+03  0.11536918533E+04  0.10100000352E+00 0. -1.
</event>
<event>
 5   0  0.4050368E-05  0.2102915E+04  0.7818609E-02  0.8559960E-01
        1   -1    0    0  501    0  0.00000000000E+00  0.00000000000E+00  0.13435828746E+04  0.13435828746E+04  0.50400001928E-02 0. -1.
       -1   -1    0    0    0  501  0.00000000000E+00  0.00000000000E+00 -0.82284686945E+03  0.82284686946E+03  0.50400001928E-02 0.  1.
    10030    2    1    2    0    0  0.00000000000E+00  0.00000000000E+00  0.52073600518E+03  0.21664297441E+04  0.21029150836E+04 0.  0.
        2    1    3    3  502    0  0.93648596746E+03 -0.34083332961E+03  0.60573911290E+03  0.11662303369E+04  0.25500000920E-02 0. -1.
       -2    1    3    3    0  502 -0.93648596746E+03  0.34083332961E+03 -0.85003107722E+02  0.10001994072E+04  0.25500000920E-02 0.  1.
</event>
<event>
 5   0  0.8547605E-05  0.2096445E+04  0.7818609E-02  0.8562811E-01
        2   -1    0    0  501    0  0.00000000000E+00  0.00000000000E+00  0.81637303706E+03  0.81637303706E+03  0.25500000920E-02 0.  1.
       -2   -1    0    0    0  501  0.00000000000E+00  0.00000000000E+00 -0.13459165423E+04  0.13459165423E+04  0.25500000920E-02 0. -1.
    10030    2    1    2    0    0  0.00000000000E+00  0.00000000000E+00 -0.52954350525E+03  0.21622895794E+04  0.20964445858E+04 0.  0.
        4    1    3    3  502    0 -0.95077064309E+03  0.80503412947E+02 -0.71236328134E+03  0.11907597040E+04  0.12699999809E+01 0.  1.
       -4    1    3    3    0  502  0.95077064309E+03 -0.80503412947E+02  0.18281977609E+03  0.97152987534E+03  0.12699999809E+01 0. -1.
</event>
<event>
 5   0  0.4182977E-05  0.2097488E+04  0.7818609E-02  0.8562351E-01
        1   -1    0    0  501    0  0.00000000000E+00  0.00000000000E+00  0.99626241220E+03  0.99626241221E+03  0.50400001928E-02 0.  1.
       -1   -1    0    0    0  501  0.00000000000E+00  0.00000000000E+00 -0.11039904234E+04  0.11039904234E+04  0.50400001928E-02 0. -1.
    10030    2    1    2    0    0  0.00000000000E+00  0.00000000000E+00 -0.10772801116E+03  0.21002528356E+04  0.20974881761E+04 0.  0.
        1    1    3    3  502    0 -0.56899476515E+03  0.28075228954E+03 -0.89000193984E+03  0.10930143383E+04  0.50400001928E-02 0. -1.
       -1    1    3    3    0  502  0.56899476515E+03 -0.28075228954E+03  0.78227392868E+03  0.10072384973E+04  0.50400001928E-02 0.  1.
</event>
<event>
 5   0  0.8547605E-05  0.2095136E+04  0.7818609E-02  0.8563389E-01
        2   -1    0    0  501    0  0.00000000000E+00  0.00000000000E+00  0.19235715874E+04  0.19235715874E+04  0.25500000920E-02 0.  1.
       -2   -1    0    0    0  501  0.00000000000E+00  0.00000000000E+00 -0.57050076324E+03  0.57050076324E+03  0.25500000920E-02 0. -1.
    10030    2    1    2    0    0  0.00000000000E+00  0.00000000000E+00  0.13530708241E+04  0.24940723506E+04  0.20951363285E+04 0.  0.
        4    1    3    3  502    0 -0.99137846185E+01 -0.64585913660E+02 -0.56807157444E+03  0.57181863379E+03  0.12699999809E+01 0. -1.
       -4    1    3    3    0  502  0.99137846185E+01  0.64585913660E+02  0.19211423986E+04  0.19222537168E+04  0.12699999809E+01 0.  1.
</event>
<event>
 5   0  0.4182977E-05  0.2094698E+04  0.7818609E-02  0.8563583E-01
       -1   -1    0    0    0  501  0.00000000000E+00  0.00000000000E+00  0.93002925777E+03  0.93002925778E+03  0.50400001928E-02 0. -1.
        1   -1    0    0  501    0  0.00000000000E+00  0.00000000000E+00 -0.11794676355E+04  0.11794676355E+04  0.50400001928E-02 0.  1.
    10030    2    1    2    0    0  0.00000000000E+00  0.00000000000E+00 -0.24943837770E+03  0.21094968933E+04  0.20946975052E+04 0.  0.
        1    1    3    3  502    0  0.14741233520E+03 -0.97987758057E+03  0.21686588540E+03  0.10143575709E+04  0.50400001928E-02 0.  1.
       -1    1    3    3    0  502 -0.14741233520E+03  0.97987758057E+03 -0.46630426310E+03  0.10951393223E+04  0.50400001928E-02 0. -1.
</event>
<event>
 5   0  0.4182977E-05  0.2076231E+04  0.7818609E-02  0.8571787E-01
       -1   -1    0    0    0  501  0.00000000000E+00  0.00000000000E+00  0.97054604865E+03  0.97054604866E+03  0.50400001928E-02 0. -1.
        1   -1    0    0  501    0  0.00000000000E+00  0.00000000000E+00 -0.11103888776E+04  0.11103888776E+04  0.50400001928E-02 0.  1.
    10030    2    1    2    0    0  0.00000000000E+00  0.00000000000E+00 -0.13984282890E+03  0.20809349262E+04  0.20762307556E+04 0.  0.
        1    1    3    3  502    0  0.27453313818E+03  0.10008917175E+04 -0.93014092269E+02  0.10420193355E+04  0.50400001928E-02 0. -1.
       -1    1    3    3    0  502 -0.27453313818E+03 -0.10008917175E+04 -0.46828736632E+02  0.10389155908E+04  0.50400001928E-02 0.  1.
</event>
<event>
 5   0  0.8872777E-05  0.2099442E+04  0.7818609E-02  0.8561489E-01
       -2   -1    0    0    0  501  0.00000000000E+00  0.00000000000E+00  0.40672007839E+03  0.40672007840E+03  0.25500000920E-02 0.  1.
        2   -1    0    0  501    0  0.00000000000E+00  0.00000000000E+00 -0.27092689596E+04  0.27092689596E+04  0.25500000920E-02 0. -1.
    10030    2    1    2    0    0  0.00000000000E+00  0.00000000000E+00 -0.23025488813E+04  0.31159890380E+04  0.20994419103E+04 0.  0.
        3    1    3    3  502    0  0.91070621304E+03 -0.18256036724E+03 -0.42538140880E+03  0.10215984766E+04  0.10100000352E+00 0.  1.
       -3    1    3    3    0  502 -0.91070621304E+03  0.18256036724E+03 -0.18771674725E+04  0.20943905615E+04  0.10100000352E+00 0. -1.
</event>
<event>
 5   0  0.4128678E-05  0.2094699E+04  0.7818609E-02  0.8563582E-01
        1   -1    0    0  501    0  0.00000000000E+00  0.00000000000E+00  0.15721683486E+04  0.15721683486E+04  0.50400001928E-02 0.  1.
       -1   -1    0    0    0  501  0.00000000000E+00  0.00000000000E+00 -0.69772499855E+03  0.69772499857E+03  0.50400001928E-02 0. -1.
    10030    2    1    2    0    0  0.00000000000E+00  0.00000000000E+00  0.87444335004E+03  0.22698933472E+04  0.20946991753E+04 0.  0.
        5    1    3    3  502    0 -0.16144902510E+03 -0.26799449408E+03  0.15203341062E+04  0.15521999617E+04  0.46999998093E+01 0.  1.
       -5    1    3    3    0  502  0.16144902510E+03  0.26799449408E+03 -0.64589075621E+03  0.71769338545E+03  0.46999998093E+01 0. -1.
</event>
<event>
 5   0  0.8872777E-05  0.2101791E+04  0.7818609E-02  0.8560455E-01
       -2   -1    0    0    0  501  0.00000000000E+00  0.00000000000E+00  0.40621572301E+03  0.40621572302E+03  0.25500000920E-02 0. -1.
        2   -1    0    0  501    0  0.00000000000E+00  0.00000000000E+00 -0.27187070270E+04  0.27187070270E+04  0.25500000920E-02 0.  1.
    10030    2    1    2    0    0  0.00000000000E+00  0.00000000000E+00 -0.23124913040E+04  0.31249227500E+04  0.21017911796E+04 0.  0.
        3    1    3    3  502    0  0.37013013949E+03  0.42039401228E+03 -0.24782807347E+04  0.25407878415E+04  0.10100000352E+00 0.  1.
       -3    1    3    3    0  502 -0.37013013949E+03 -0.42039401228E+03  0.16578943071E+03  0.58413490844E+03  0.10100000352E+00 0. -1.
</event>
<event>
 5   0  0.8547605E-05  0.2123886E+04  0.7818609E-02  0.8550794E-01
       -2   -1    0    0    0  501  0.00000000000E+00  0.00000000000E+00  0.12044122998E+04  0.12044122998E+04  0.25500000920E-02 0.  1.
        2   -1    0    0  501    0  0.00000000000E+00  0.00000000000E+00 -0.93632642105E+03  0.93632642106E+03  0.25500000920E-02 0. -1.
    10030    2    1    2    0    0  0.00000000000E+00  0.00000000000E+00  0.26808587874E+03  0.21407387209E+04  0.21238861157E+04 0.  0.
        4    1    3    3  502    0 -0.49763322334E+03  0.63675028041E+03 -0.56035881490E+03  0.98340904963E+03  0.12699999809E+01 0. -1.
       -4    1    3    3    0  502  0.49763322334E+03 -0.63675028041E+03  0.82844469364E+03  0.11573296712E+04  0.12699999809E+01 0.  1.
</event>
<event>
 5   0  0.8872777E-05  0.2086937E+04  0.7818609E-02  0.8567020E-01
       -2   -1    0    0    0  501  0.00000000000E+00  0.00000000000E+00  0.14607196227E+04  0.14607196227E+04  0.25500000920E-02 0.  1.
        2   -1    0    0  501    0  0.00000000000E+00  0.00000000000E+00 -0.74540434987E+03  0.74540434988E+03  0.25500000920E-02 0. -1.
    10030    2    1    2    0    0  0.00000000000E+00  0.00000000000E+00  0.71531527283E+03  0.22061239726E+04  0.20869372398E+04 0.  0.
        3    1    3    3  502    0 -0.36365220451E+03  0.96701406362E+03  0.20277150606E+03  0.10528415925E+04  0.10100000352E+00 0.  1.
       -3    1    3    3    0  502  0.36365220451E+03 -0.96701406362E+03  0.51254376677E+03  0.11532823801E+04  0.10100000352E+00 0. -1.
</event>
<event>
 5   0  0.8858590E-05  0.2096197E+04  0.7818609E-02  0.8562921E-01
        2   -1    0    0  501    0  0.00000000000E+00  0.00000000000E+00  0.13531383948E+04  0.13531383948E+04  0.25500000920E-02 0.  1.
       -2   -1    0    0    0  501  0.00000000000E+00  0.00000000000E+00 -0.81182392707E+03  0.81182392707E+03  0.25500000920E-02 0. -1.
    10030    2    1    2    0    0  0.00000000000E+00  0.00000000000E+00  0.54131446772E+03  0.21649623219E+04  0.20961966754E+04 0.  0.
        1    1    3    3  502    0 -0.60014293103E+02 -0.17278838680E+03  0.13365262546E+04  0.13489847928E+04  0.50400001928E-02 0.  1.
       -1    1    3    3    0  502  0.60014293103E+02  0.17278838680E+03 -0.79521178685E+03  0.81597752908E+03  0.50400001928E-02 0. -1.
</event>
<event>
 5   0  0.4050368E-05  0.2087617E+04  0.7818609E-02  0.8566718E-01
        1   -1    0    0  501    0  0.00000000000E+00  0.00000000000E+00  0.18534432035E+04  0.18534432035E+04  0.50400001928E-02 0. -1.
       -1   -1    0    0    0  501  0.00000000000E+00  0.00000000000E+00 -0.58784447979E+03  0.58784447981E+03  0.50400001928E-02 0.  1.
    10030    2    1    2    0    0  0.00000000000E+00  0.00000000000E+00  0.12655987237E+04  0.24412876834E+04  0.20876171640E+04 0.  0.
        2    1    3    3  502    0  0.75256681310E+03 -0.70409717755E+03  0.43913265138E+03  0.11202442274E+04  0.25500000920E-02 0.  1.
       -2    1    3    3    0  502 -0.75256681310E+03  0.70409717755E+03  0.82646607236E+03  0.13210434559E+04  0.25500000920E-02 0. -1.
</event>
<event>
 5   0  0.4200061E-05  0.2116318E+04  0.7818609E-02  0.8554089E-01
        1   -1    0    0  501    0  0.00000000000E+00  0.00000000000E+00  0.16504103978E+04  0.16504103978E+04  0.50400001928E-02 0. -1.
       -1   -1    0    0    0  501  0.00000000000E+00  0.00000000000E+00 -0.67843759647E+03  0.67843759648E+03  0.50400001928E-02 0.  1.
    10030    2    1    2    0    0  0.00000000000E+00  0.00000000000E+00  0.97197280135E+03  0.23288479943E+04  0.21163179945E+04 0.  0.
        4    1    3    3  502    0  0.65088347260E+03  0.83429568000E+03  0.48656244443E+03  0.11646644160E+04  0.12699999809E+01 0.  1.
       -4    1    3    3    0  502 -0.65088347260E+03 -0.83429568000E+03  0.48541035692E+03  0.11641835783E+04  0.12699999809E+01 0. -1.
</event>
<event>
 5   0  0.9086985E-05  0.2098885E+04  0.7818609E-02  0.8561735E-01
       -2   -1    0    0    0  501  0.00000000000E+00  0.00000000000E+00  0.11639869056E+04  0.11639869056E+04  0.25500000920E-02 0. -1.
        2   -1    0    0  501    0  0.00000000000E+00  0.00000000000E+00 -0.94617007404E+03  0.94617007405E+03  0.25500000920E-02 0.  1.
    10030    2    1    2    0    0  0.00000000000E+00  0.00000000000E+00  0.21781683153E+03  0.21101569796E+04  0.20988850151E+04 0.  0.
        5    1    3    3  502    0 -0.40601453687E+03  0.15057192187E+03 -0.85214779684E+03  0.95587533992E+03  0.46999998093E+01 0.  1.
       -5    1    3    3    0  502  0.40601453687E+03 -0.15057192187E+03  0.10699646284E+04  0.11542816397E+04  0.46999998093E+01 0. -1.
</event>
<event>
 5   0  0.4182977E-05  0.2093387E+04  0.7818609E-02  0.8564162E-01
        1   -1    0    0  501    0  0.00000000000E+00  0.00000000000E+00  0.16449677700E+04  0.16449677700E+04  0.50400001928E-02 0. -1.
       -1   -1    0    0    0  501  0.00000000000E+00  0.00000000000E+00 -0.66601126615E+03  0.66601126617E+03  0.50400001928E-02 0.  1.
    10030    2    1    2    0    0  0.00000000000E+00  0.00000000000E+00  0.97895650381E+03  0.23109790361E+04  0.20933867940E+04 0.  0.
        1    1    3    3  502    0 -0.50875055819E+03 -0.71648027548E+03  0.11172674158E+04  0.14214280123E+04  0.50400001928E-02 0. -1.
       -1    1    3    3    0  502  0.50875055819E+03  0.71648027548E+03 -0.13831091203E+03  0.88955102385E+03  0.50400001928E-02 0.  1.
</event>
<event>
 5   0  0.4200061E-05  0.2108185E+04  0.7818609E-02  0.8557646E-01
        1   -1    0    0  501    0  0.00000000000E+00  0.00000000000E+00  0.17496867401E+04  0.17496867402E+04  0.50400001928E-02 0. -1.
       -1   -1    0    0    0  501  0.00000000000E+00  0.00000000000E+00 -0.63503440927E+03  0.63503440929E+03  0.50400001928E-02 0.  1.
    10030    2    1    2    0    0  0.00000000000E+00  0.00000000000E+00  0.11146523309E+04  0.23847211494E+04  0.21081852722E+04 0.  0.
        4    1    3    3  502    0  0.21395686268E+03 -0.10677579662E+03  0.17186007753E+04  0.17351567213E+04  0.12699999809E+01 0. -1.
       -4    1    3    3    0  502 -0.21395686268E+03  0.10677579662E+03 -0.60394844442E+03  0.64956442810E+03  0.12699999809E+01 0.  1.
</event>
<event>
 5   0  0.4128678E-05  0.2122780E+04  0.7818609E-02  0.8551274E-01
       -1   -1    0    0    0  501  0.00000000000E+00  0.00000000000E+00  0.68624358023E+03  0.68624358025E+03  0.50400001928E-02 0.  1.
        1   -1    0    0  501    0  0.00000000000E+00  0.00000000000E+00 -0.16416166592E+04  0.16416166592E+04  0.50400001928E-02 0. -1.
    10030    2    1    2    0    0  0.00000000000E+00  0.00000000000E+00 -0.95537307894E+03  0.23278602394E+04  0.21227801521E+04 0.  0.
        5    1    3    3  502    0  0.78937994733E+02 -0.34229791016E+03  0.62063627202E+03  0.71316936169E+03  0.46999998093E+01 0.  1.
       -5    1    3    3    0  502 -0.78937994733E+02  0.34229791016E+03 -0.15760093510E+04  0.16146908777E+04  0.46999998093E+01 0. -1.
</event>
<event>
 5   0  0.8547605E-05  0.2112172E+04  0.7818609E-02  0.8555901E-01
        2   -1    0    0  501    0  0.00000000000E+00  0.00000000000E+00  0.12030331096E+04  0.12030331096E+04  0.25500000920E-02 0.  1.
       -2   -1    0    0    0  501  0.00000000000E+00  0.00000000000E+00 -0.92708775586E+03  0.92708775586E+03  0.25500000920E-02 0. -1.
    10030    2    1    2    0    0  0.00000000000E+00  0.00000000000E+00  0.27594535377E+03  0.21301208655E+04  0.21121716463E+04 0.  0.
        4    1    3    3  502    0 -0.46470036415E+03 -0.58204902578E+02 -0.81663415575E+03  0.94139640766E+03  0.12699999809E+01 0. -1.
       -4    1    3    3    0  502  0.46470036415E+03  0.58204902578E+02  0.10925795095E+04  0.11887244578E+04  0.12699999809E+01 0.  1.
</event>
<event>
 5   0  0.4182977E-05  0.2086184E+04  0.7818609E-02  0.8567354E-01
        1   -1    0    0  501    0  0.00000000000E+00  0.00000000000E+00  0.14516763610E+04  0.14516763610E+04  0.50400001928E-02 0. -1.
       -1   -1    0    0    0  501  0.00000000000E+00  0.00000000000E+00 -0.74950661563E+03  0.74950661565E+03  0.50400001928E-02 0.  1.
    10030    2    1    2    0    0  0.00000000000E+00  0.00000000000E+00  0.70216974541E+03  0.22011829767E+04  0.20861841111E+04 0.  0.
        1    1    3    3  502    0  0.56652943885E+03 -0.86133411491E+03  0.18362577413E+03  0.10471726159E+04  0.50400001928E-02 0. -1.
       -1    1    3    3    0  502 -0.56652943885E+03  0.86133411491E+03  0.51854397128E+03  0.11540103608E+04  0.50400001928E-02 0.  1.
</event>
<event>
 5   0  0.9012466E-05  0.2072150E+04  0.7818609E-02  0.8573612E-01
       -2   -1    0    0    0  501  0.00000000000E+00  0.00000000000E+00  0.78913458589E+03  0.78913458589E+03  0.25500000920E-02 0.  1.
        2   -1    0    0  501    0  0.00000000000E+00  0.00000000000E+00 -0.13602897701E+04  0.13602897701E+04  0.25500000920E-02 0. -1.
    10030    2    1    2    0    0  0.00000000000E+00  0.00000000000E+00 -0.57115518424E+03  0.21494243560E+04  0.20721502884E+04 0.  0.
        2    1    3    3  502    0 -0.30104406139E+03 -0.43174324054E+03  0.64012723017E+03  0.82872952371E+03  0.25500000920E-02 0.  1.
       -2    1    3    3    0  502  0.30104406139E+03  0.43174324054E+03 -0.12112824144E+04  0.13206948323E+04  0.25500000920E-02 0. -1.
</event>
<event>
 5   0  0.9086985E-05  0.2027974E+04  0.7818609E-02  0.8593652E-01
        2   -1    0    0  501    0  0.00000000000E+00  0.00000000000E+00  0.16472822259E+04  0.16472822259E+04  0.25500000920E-02 0.  1.
       -2   -1    0    0    0  501  0.00000000000E+00  0.00000000000E+00 -0.62416120003E+03  0.62416120004E+03  0.25500000920E-02 0. -1.
    10030    2    1    2    0    0  0.00000000000E+00  0.00000000000E+00  0.10231210259E+04  0.22714434260E+04  0.20279740146E+04 0.  0.
        5    1    3    3  502    0  0.84886294762E+03 -0.55302620194E+03  0.46482215184E+03  0.11146694607E+04  0.46999998093E+01 0.  1.
       -5    1    3    3    0  502 -0.84886294762E+03  0.55302620194E+03  0.55829887406E+03  0.11567739652E+04  0.46999998093E+01 0. -1.
</event>
<event>
 5   0  0.4174093E-05  0.2105885E+04  0.7818609E-02  0.8558655E-01
       -1   -1    0    0    0  501  0.00000000000E+00  0.00000000000E+00  0.69883734864E+03  0.69883734866E+03  0.50400001928E-02 0.  1.
        1   -1    0    0  501    0  0.00000000000E+00  0.00000000000E+00 -0.15864756216E+04  0.15864756216E+04  0.50400001928E-02 0. -1.
    10030    2    1    2    0    0  0.00000000000E+00  0.00000000000E+00 -0.88763827295E+03  0.22853129702E+04  0.21058854832E+04 0.  0.
        3    1    3    3  502    0  0.71926759044E+03  0.65097811181E+03 -0.88805039844E+03  0.13152003228E+04  0.10100000352E+00 0. -1.
       -3    1    3    3    0  502 -0.71926759044E+03 -0.65097811181E+03  0.41212549073E+00  0.97011264746E+03  0.10100000352E+00 0.  1.
</event>
<event>
 5   0  0.4128678E-05  0.1702415E+04  0.7818609E-02  0.8759988E-01
        1   -1    0    0  501    0  0.00000000000E+00  0.00000000000E+00  0.59544154447E+03  0.59544154449E+03  0.50400001928E-02 0.  1.
       -1   -1    0    0    0  501  0.00000000000E+00  0.00000000000E+00 -0.12168355118E+04  0.12168355118E+04  0.50400001928E-02 0. -1.
    10030    2    1    2    0    0  0.00000000000E+00  0.00000000000E+00 -0.62139396731E+03  0.18122770563E+04  0.17024152449E+04 0.  0.
        5    1    3    3  502    0  0.25191297823E+03  0.37642772497E+03  0.45648666795E+03  0.64308642400E+03  0.46999998093E+01 0.  1.
       -5    1    3    3    0  502 -0.25191297823E+03 -0.37642772497E+03 -0.10778806353E+04  0.11691906323E+04  0.46999998093E+01 0. -1.
</event>
<event>
 5   0  0.9012466E-05  0.2118440E+04  0.7818609E-02  0.8553164E-01
        2   -1    0    0  501    0  0.00000000000E+00  0.00000000000E+00  0.88099733419E+03  0.88099733420E+03  0.25500000920E-02 0.  1.
       -2   -1    0    0    0  501  0.00000000000E+00  0.00000000000E+00 -0.12734963812E+04  0.12734963812E+04  0.25500000920E-02 0. -1.
    10030    2    1    2    0    0  0.00000000000E+00  0.00000000000E+00 -0.39249904699E+03  0.21544937154E+04  0.21184399136E+04 0.  0.
        2    1    3    3  502    0  0.74635384182E+03  0.71032700090E+03 -0.44606884097E+03  0.11227581736E+04  0.25500000920E-02 0. -1.
       -2    1    3    3    0  502 -0.74635384182E+03 -0.71032700090E+03  0.53569793983E+02  0.10317355418E+04  0.25500000920E-02 0.  1.
</event>
<event>
 5   0  0.4200061E-05  0.1974703E+04  0.7818609E-02  0.8618540E-01
       -1   -1    0    0    0  501  0.00000000000E+00  0.00000000000E+00  0.59513615003E+03  0.59513615005E+03  0.50400001928E-02 0.  1.
        1   -1    0    0  501    0  0.00000000000E+00  0.00000000000E+00 -0.16380510832E+04  0.16380510832E+04  0.50400001928E-02 0. -1.
    10030    2    1    2    0    0  0.00000000000E+00  0.00000000000E+00 -0.10429149332E+04  0.22331872333E+04  0.19747034362E+04 0.  0.
        4    1    3    3  502    0  0.34038331014E+02  0.95011134183E+03 -0.82277668769E+03  0.12573119186E+04  0.12699999809E+01 0. -1.
       -4    1    3    3    0  502 -0.34038331014E+02 -0.95011134183E+03 -0.22013824550E+03  0.97587531472E+03  0.12699999809E+01 0.  1.
</event>
<event>
 5   0  0.8872777E-05  0.2100289E+04  0.7818609E-02  0.8561116E-01
       -2   -1    0    0    0  501  0.00000000000E+00  0.00000000000E+00  0.11306362580E+04  0.11306362580E+04  0.25500000920E-02 0. -1.
        2   -1    0    0  501    0  0.00000000000E+00  0.00000000000E+00 -0.97538289164E+03  0.97538289165E+03  0.25500000920E-02 0.  1.
    10030    2    1    2    0    0  0.00000000000E+00  0.00000000000E+00  0.15525336634E+03  0.21060191496E+04  0.21002888018E+04 0.  0.
        3    1    3    3  502    0 -0.41231713964E+03 -0.19523616858E+03  0.10260829829E+04  0.11229287080E+04  0.10100000352E+00 0. -1.
       -3    1    3    3    0  502  0.41231713964E+03  0.19523616858E+03 -0.87082961658E+03  0.98309044165E+03  0.10100000352E+00 0.  1.
</event>
<event>
 5   0  0.9086985E-05  0.2213088E+04  0.7818609E-02  0.8513000E-01
        2   -1    0    0  501    0  0.00000000000E+00  0.00000000000E+00  0.15633913376E+04  0.15633913377E+04  0.25500000920E-02 0. -1.
       -2   -1    0    0    0  501  0.00000000000E+00  0.00000000000E+00 -0.78319424184E+03  0.78319424185E+03  0.25500000920E-02 0.  1.
    10030    2    1    2    0    0  0.00000000000E+00  0.00000000000E+00  0.78019709580E+03  0.23465855795E+04  0.22130875206E+04 0.  0.
        5    1    3    3  502    0 -0.64554157211E+03 -0.80644957189E+03 -0.30479474612E+02  0.10334582341E+04  0.46999998093E+01 0.  1.
       -5    1    3    3    0  502  0.64554157211E+03  0.80644957189E+03  0.81067657042E+03  0.13131273454E+04  0.46999998093E+01 0. -1.
</event>
<event>
 5   0  0.8547605E-05  0.2105159E+04  0.7818609E-02  0.8558974E-01
       -2   -1    0    0    0  501  0.00000000000E+00  0.00000000000E+00  0.57069133208E+03  0.57069133208E+03  0.25500000920E-02 0.  1.
        2   -1    0    0  501    0  0.00000000000E+00  0.00000000000E+00 -0.19413706736E+04  0.19413706736E+04  0.25500000920E-02 0. -1.
    10030    2    1    2    0    0  0.00000000000E+00  0.00000000000E+00 -0.13706793415E+04  0.25120620057E+04  0.21051588213E+04 0.  0.
        4    1    3    3  502    0 -0.12418365624E+03  0.96256237979E+03 -0.11714841651E+04  0.15212904646E+04  0.12699999809E+01 0. -1.
       -4    1    3    3    0  502  0.12418365624E+03 -0.96256237979E+03 -0.19919517635E+03  0.99077154110E+03  0.12699999809E+01 0.  1.
</event>
<event>
 5   0  0.4200061E-05  0.2097535E+04  0.7818609E-02  0.8562330E-01
       -1   -1    0    0    0  501  0.00000000000E+00  0.00000000000E+00  0.11285545504E+04  0.11285545504E+04  0.50400001928E-02 0.  1.
        1   -1    0    0  501    0  0.00000000000E+00  0.00000000000E+00 -0.97462115701E+03  0.97462115702E+03  0.50400001928E-02 0. -1.
    10030    2    1    2    0    0  0.00000000000E+00  0.00000000000E+00  0.15393339341E+03  0.21031757075E+04  0.20975348786E+04 0.  0.
        4    1    3    3  502    0 -0.15651933208E+03 -0.58704549602E+03 -0.78019529487E+03  0.98885136737E+03  0.12699999809E+01 0. -1.
       -4    1    3    3    0  502  0.15651933208E+03  0.58704549602E+03  0.93412868829E+03  0.11143243401E+04  0.12699999809E+01 0.  1.
</event>
<event>
 5   0  0.8858590E-05  0.2119009E+04  0.7818609E-02  0.8552916E-01
       -2   -1    0    0    0  501  0.00000000000E+00  0.00000000000E+00  0.74890115671E+03  0.74890115672E+03  0.25500000920E-02 0. -1.
        2   -1    0    0  501    0  0.00000000000E+00  0.00000000000E+00 -0.14989291441E+04  0.14989291441E+04  0.25500000920E-02 0.  1.
    10030    2    1    2    0    0  0.00000000000E+00  0.00000000000E+00 -0.75002798739E+03  0.22478303008E+04  0.21190089852E+04 0.  0.
        1    1    3    3  502    0 -0.97446319729E+03  0.15489437439E+03 -0.78445677703E+03  0.12605329132E+04  0.50400001928E-02 0.  1.
       -1    1    3    3    0  502  0.97446319729E+03 -0.15489437439E+03  0.34428789647E+02  0.98729738766E+03  0.50400001928E-02 0. -1.
</event>
<event>
 5   0  0.4200061E-05  0.2005088E+04  0.7818609E-02  0.8604246E-01
        1   -1    0    0  501    0  0.00000000000E+00  0.00000000000E+00  0.99739828328E+03  0.99739828330E+03  0.50400001928E-02 0. -1.
       -1   -1    0    0    0  501  0.00000000000E+00  0.00000000000E+00 -0.10077158744E+04  0.10077158745E+04  0.50400001928E-02 0.  1.
    10030    2    1    2    0    0  0.00000000000E+00  0.00000000000E+00 -0.10317591160E+02  0.20051141578E+04  0.20050876123E+04 0.  0.
        4    1    3    3  502    0  0.13743221269E+03  0.99112031243E+03  0.57174874351E+02  0.10022363324E+04  0.12699999809E+01 0. -1.
       -4    1    3    3    0  502 -0.13743221269E+03 -0.99112031243E+03 -0.67492465511E+02  0.10028778254E+04  0.12699999809E+01 0.  1.
</event>
<event>
 5   0  0.8547605E-05  0.2102326E+04  0.7818609E-02  0.8560219E-01
        2   -1    0    0  501    0  0.00000000000E+00  0.00000000000E+00  0.14076012339E+04  0.14076012339E+04  0.25500000920E-02 0.  1.
       -2   -1    0    0    0  501  0.00000000000E+00  0.00000000000E+00 -0.78498346390E+03  0.78498346391E+03  0.25500000920E-02 0. -1.
    10030    2    1    2    0    0  0.00000000000E+00  0.00000000000E+00  0.62261776996E+03  0.21925846978E+04  0.21023260378E+04 0.  0.
        4    1    3    3  502    0 -0.33921806159E+03  0.95645578688E+03  0.59705250385E+03  0.11774335951E+04  0.12699999809E+01 0.  1.
       -4    1    3    3    0  502  0.33921806159E+03 -0.95645578688E+03  0.25565266106E+02  0.10151511027E+04  0.12699999809E+01 0. -1.
</event>
<event>
 5   0  0.4182977E-05  0.2098913E+04  0.7818609E-02  0.8561722E-01
       -1   -1    0    0    0  501  0.00000000000E+00  0.00000000000E+00  0.15256286171E+04  0.15256286171E+04  0.50400001928E-02 0.  1.
        1   -1    0    0  501    0  0.00000000000E+00  0.00000000000E+00 -0.72190481040E+03  0.72190481041E+03  0.50400001928E-02 0. -1.
    10030    2    1    2    0    0  0.00000000000E+00  0.00000000000E+00  0.80372380673E+03  0.22475334276E+04  0.20989127067E+04 0.  0.
        1    1    3    3  502    0 -0.65712829323E+03  0.21010912009E+03  0.12486779037E+04  0.14265903208E+04  0.50400001928E-02 0.  1.
       -1    1    3    3    0  502  0.65712829323E+03 -0.21010912009E+03 -0.44495409698E+03  0.82094310677E+03  0.50400001928E-02 0. -1.
</event>
<event>
 5   0  0.9086985E-05  0.2181280E+04  0.7818609E-02  0.8526261E-01
        2   -1    0    0  501    0  0.00000000000E+00  0.00000000000E+00  0.11185600124E+04  0.11185600124E+04  0.25500000920E-02 0. -1.
       -2   -1    0    0    0  501  0.00000000000E+00  0.00000000000E+00 -0.10634164117E+04  0.10634164117E+04  0.25500000920E-02 0.  1.
    10030    2    1    2    0    0  0.00000000000E+00  0.00000000000E+00  0.55143600720E+02  0.21819764242E+04  0.21812795096E+04 0.  0.
        5    1    3    3  502    0 -0.36467503782E+03 -0.92995371094E+03  0.46551436936E+03  0.11020560357E+04  0.46999998093E+01 0. -1.
       -5    1    3    3    0  502  0.36467503782E+03  0.92995371094E+03 -0.41037076864E+03  0.10799203885E+04  0.46999998093E+01 0.  1.
</event>
<event>
 5   0  0.9086985E-05  0.2107560E+04  0.7818609E-02  0.8557920E-01
       -2   -1    0    0    0  501  0.00000000000E+00  0.00000000000E+00  0.73161480217E+03  0.73161480217E+03  0.25500000920E-02 0. -1.
        2   -1    0    0  501    0  0.00000000000E+00  0.00000000000E+00 -0.15178103329E+04  0.15178103329E+04  0.25500000920E-02 0.  1.
    10030    2    1    2    0    0  0.00000000000E+00  0.00000000000E+00 -0.78619553070E+03  0.22494251350E+04  0.21075602069E+04 0.  0.
        5    1    3    3  502    0 -0.73870840973E+03 -0.42701865985E+03  0.26690820470E+03  0.89403418850E+03  0.46999998093E+01 0. -1.
       -5    1    3    3    0  502  0.73870840973E+03  0.42701865985E+03 -0.10531037354E+04  0.13553909465E+04  0.46999998093E+01 0.  1.
</event>
<event>
 5   0  0.9012466E-05  0.2098342E+04  0.7818609E-02  0.8561974E-01
       -2   -1    0    0    0  501  0.00000000000E+00  0.00000000000E+00  0.10684693889E+04  0.10684693889E+04  0.25500000920E-02 0. -1.
        2   -1    0    0  501    0  0.00000000000E+00  0.00000000000E+00 -0.10302214551E+04  0.10302214551E+04  0.25500000920E-02 0.  1.
    10030    2    1    2    0    0  0.00000000000E+00  0.00000000000E+00  0.38247933766E+02  0.20986908441E+04  0.20983422873E+04 0.  0.
        2    1    3    3  502    0 -0.38131682848E+03  0.35879779106E+03  0.92846238247E+03  0.10659178084E+04  0.25500000920E-02 0. -1.
       -2    1    3    3    0  502  0.38131682848E+03 -0.35879779106E+03 -0.89021444870E+03  0.10327730357E+04  0.25500000920E-02 0.  1.
</event>
<event>
 5   0  0.9012466E-05  0.2023648E+04  0.7818609E-02  0.8595644E-01
       -2   -1    0    0    0  501  0.00000000000E+00  0.00000000000E+00  0.10554533276E+04  0.10554533276E+04  0.25500000920E-02 0.  1.
        2   -1    0    0  501    0  0.00000000000E+00  0.00000000000E+00 -0.96999781194E+03  0.96999781195E+03  0.25500000920E-02 0. -1.
    10030    2    1    2    0    0  0.00000000000E+00  0.00000000000E+00  0.85455515641E+02  0.20254511395E+04  0.20236476159E+04 0.  0.
        2    1    3    3  502    0 -0.26560381510E+03 -0.68712848275E+03  0.73695710874E+03  0.10420156998E+04  0.25500000920E-02 0.  1.
       -2    1    3    3    0  502  0.26560381510E+03  0.68712848275E+03 -0.65150159310E+03  0.98343543978E+03  0.25500000920E-02 0. -1.
</event>
<event>
 5   0  0.8858590E-05  0.2124712E+04  0.7818609E-02  0.8550435E-01
        2   -1    0    0  501    0  0.00000000000E+00  0.00000000000E+00  0.12505512987E+04  0.12505512987E+04  0.25500000920E-02 0. -1.
       -2   -1    0    0    0  501  0.00000000000E+00  0.00000000000E+00 -0.90248249581E+03  0.90248249582E+03  0.25500000920E-02 0.  1.
    10030    2    1    2    0    0  0.00000000000E+00  0.00000000000E+00  0.34806880290E+03  0.21530337945E+04  0.21247123638E+04 0.  0.
        1    1    3    3  502    0 -0.31335949271E+03  0.10047354369E+04  0.27492839952E+02  0.10528263514E+04  0.50400001928E-02 0. -1.
       -1    1    3    3    0  502  0.31335949271E+03 -0.10047354369E+04  0.32057596295E+03  0.11002074431E+04  0.50400001928E-02 0.  1.
</event>
<event>
 5   0  0.4174093E-05  0.2090149E+04  0.7818609E-02  0.8565595E-01
       -1   -1    0    0    0  501  0.00000000000E+00  0.00000000000E+00  0.11911793992E+04  0.11911793992E+04  0.50400001928E-02 0.  1.
        1   -1    0    0  501    0  0.00000000000E+00  0.00000000000E+00 -0.91689050769E+03  0.91689050770E+03  0.50400001928E-02 0. -1.
    10030    2    1    2    0    0  0.00000000000E+00  0.00000000000E+00  0.27428889152E+03  0.21080699069E+04  0.20901493575E+04 0.  0.
        3    1    3    3  502    0 -0.18663160093E+03 -0.99672912180E+03  0.39205791493E+03  0.10872027022E+04  0.10100000352E+00 0.  1.
       -3    1    3    3    0  502  0.18663160093E+03  0.99672912180E+03 -0.11776902341E+03  0.10208672048E+04  0.10100000352E+00 0. -1.
</event>
<event>
 5   0  0.4174093E-05  0.2415325E+04  0.7818609E-02  0.8433788E-01
        1   -1    0    0  501    0  0.00000000000E+00  0.00000000000E+00  0.11892649400E+04  0.11892649400E+04  0.50400001928E-02 0. -1.
       -1   -1    0    0    0  501  0.00000000000E+00  0.00000000000E+00 -0.12263451543E+04  0.12263451543E+04  0.50400001928E-02 0.  1.
    10030    2    1    2    0    0  0.00000000000E+00  0.00000000000E+00 -0.37080214291E+02  0.24156100943E+04  0.24153254822E+04 0.  0.
        3    1    3    3  502    0 -0.64405121486E+03  0.32558156359E+03 -0.98697438649E+03  0.12226707536E+04  0.10100000352E+00 0.  1.
       -3    1    3    3    0  502  0.64405121486E+03 -0.32558156359E+03  0.94989417220E+03  0.11929393407E+04  0.10100000352E+00 0. -1.
</event>
<event>
 5   0  0.3176125E-05  0.2103099E+04  0.7818609E-02  0.8559879E-01
       -3   -1    0    0    0  501  0.00000000000E+00  0.00000000000E+00  0.12986757072E+04  0.12986757111E+04  0.10100000352E+00 0. -1.
        3   -1    0    0  501    0  0.00000000000E+00  0.00000000000E+00 -0.85144911770E+03  0.85144912369E+03  0.10100000352E+00 0.  1.
    10030    2    1    2    0    0  0.00000000000E+00  0.00000000000E+00  0.44722658950E+03  0.21501248348E+04  0.21030989475E+04 0.  0.
        3    1    3    3  502    0  0.53194884937E+02  0.34844590251E+03  0.12364788116E+04  0.12857387388E+04  0.10100000352E+00 0. -1.
       -3    1    3    3    0  502 -0.53194884937E+02 -0.34844590251E+03 -0.78925222207E+03  0.86438609603E+03  0.10100000352E+00 0.  1.
</event>
<event>
 5   0  0.8872777E-05  0.2095697E+04  0.7818609E-02  0.8563141E-01
       -2   -1    0    0    0  501  0.00000000000E+00  0.00000000000E+00  0.10238653735E+04  0.10238653735E+04  0.25500000920E-02 0.  1.
        2   -1    0    0  501    0  0.00000000000E+00  0.00000000000E+00 -0.10723933930E+04  0.10723933930E+04  0.25500000920E-02 0. -1.
    10030    2    1    2    0    0  0.00000000000E+00  0.00000000000E+00 -0.48528019432E+02  0.20962587665E+04  0.20956969837E+04 0.  0.
        3    1    3    3  502    0 -0.91260583321E+03 -0.39273031978E+03 -0.35736970693E+03  0.10558407212E+04  0.10100000352E+00 0. -1.
       -3    1    3    3    0  502  0.91260583321E+03  0.39273031978E+03  0.30884168749E+03  0.10404180453E+04  0.10100000352E+00 0.  1.
</event>
<event>
 5   0  0.4182977E-05  0.1962395E+04  0.7818609E-02  0.8624407E-01
       -1   -1    0    0    0  501  0.00000000000E+00  0.00000000000E+00  0.97870463825E+03  0.97870463827E+03  0.50400001928E-02 0.  1.
        1   -1    0    0  501    0  0.00000000000E+00  0.00000000000E+00 -0.98369697289E+03  0.98369697290E+03  0.50400001928E-02 0. -1.
    10030    2    1    2    0    0  0.00000000000E+00  0.00000000000E+00 -0.49923346362E+01  0.19624016112E+04  0.19623952609E+04 0.  0.
        1    1    3    3  502    0  0.81029776655E+03 -0.48991916145E+03  0.25469240718E+03  0.98054651982E+03  0.50400001928E-02 0.  1.
       -1    1    3    3    0  502 -0.81029776655E+03  0.48991916145E+03 -0.25968474181E+03  0.98185509134E+03  0.50400001928E-02 0. -1.
</event>
<event>
 5   0  0.9012466E-05  0.2110978E+04  0.7818609E-02  0.8556423E-01
       -2   -1    0    0    0  501  0.00000000000E+00  0.00000000000E+00  0.12523726594E+04  0.12523726594E+04  0.25500000920E-02 0. -1.
        2   -1    0    0  501    0  0.00000000000E+00  0.00000000000E+00 -0.88955693182E+03  0.88955693182E+03  0.25500000920E-02 0.  1.
    10030    2    1    2    0    0  0.00000000000E+00  0.00000000000E+00  0.36281572753E+03  0.21419295912E+04  0.21109777643E+04 0.  0.
        2    1    3    3  502    0  0.73457216232E+03 -0.55068888490E+03  0.70981441421E+03  0.11604701686E+04  0.25500000920E-02 0. -1.
       -2    1    3    3    0  502 -0.73457216232E+03  0.55068888490E+03 -0.34699868668E+03  0.98145942257E+03  0.25500000920E-02 0.  1.
</event>
<event>
 5   0  0.4200061E-05  0.2127271E+04  0.7818609E-02  0.8549325E-01
       -1   -1    0    0    0  501  0.00000000000E+00  0.00000000000E+00  0.11835708728E+04  0.11835708728E+04  0.50400001928E-02 0.  1.
        1   -1    0    0  501    0  0.00000000000E+00  0.00000000000E+00 -0.95585360363E+03  0.95585360364E+03  0.50400001928E-02 0. -1.
    10030    2    1    2    0    0  0.00000000000E+00  0.00000000000E+00  0.22771726916E+03  0.21394244764E+04  0.21272710066E+04 0.  0.
        4    1    3    3  502    0  0.59913849675E+03  0.87833860189E+03  0.14357798074E+03  0.10728755227E+04  0.12699999809E+01 0. -1.
       -4    1    3    3    0  502 -0.59913849675E+03 -0.87833860189E+03  0.84139288423E+02  0.10665489537E+04  0.12699999809E+01 0.  1.
</event>
<event>
 5   0  0.4182977E-05  0.2087336E+04  0.7818609E-02  0.8566842E-01
       -1   -1    0    0    0  501  0.00000000000E+00  0.00000000000E+00  0.10920896529E+04  0.10920896529E+04  0.50400001928E-02 0.  1.
        1   -1    0    0  501    0  0.00000000000E+00  0.00000000000E+00 -0.99739358934E+03  0.99739358935E+03  0.50400001928E-02 0. -1.
    10030    2    1    2    0    0  0.00000000000E+00  0.00000000000E+00  0.94696063587E+02  0.20894832423E+04  0.20873363110E+04 0.  0.
        1    1    3    3  502    0  0.46145696280E+03  0.50755448122E+03 -0.74002894255E+03  0.10090574393E+04  0.50400001928E-02 0. -1.
       -1    1    3    3    0  502 -0.46145696280E+03 -0.50755448122E+03  0.83472500614E+03  0.10804258030E+04  0.50400001928E-02 0.  1.
</event>
<event>
 5   0  0.4050368E-05  0.2103026E+04  0.7818609E-02  0.8559912E-01
        1   -1    0    0  501    0  0.00000000000E+00  0.00000000000E+00  0.11913360969E+04  0.11913360969E+04  0.50400001928E-02 0. -1.
       -1   -1    0    0    0  501  0.00000000000E+00  0.00000000000E+00 -0.92810030028E+03  0.92810030029E+03  0.50400001928E-02 0.  1.
    10030    2    1    2    0    0  0.00000000000E+00  0.00000000000E+00  0.26323579661E+03  0.21194363972E+04  0.21030258099E+04 0.  0.
        2    1    3    3  502    0 -0.28112975024E+03 -0.10074509873E+04  0.22663400560E+02  0.10461859576E+04  0.25500000920E-02 0. -1.
       -2    1    3    3    0  502  0.28112975024E+03  0.10074509873E+04  0.24057239605E+03  0.10732504395E+04  0.25500000920E-02 0.  1.
</event>
<event>
 5   0  0.4174093E-05  0.2239165E+04  0.7818609E-02  0.8502301E-01
       -1   -1    0    0    0  501  0.00000000000E+00  0.00000000000E+00  0.55736331664E+03  0.55736331666E+03  0.50400001928E-02 0.  1.
        1   -1    0    0  501    0  0.00000000000E+00  0.00000000000E+00 -0.22489200069E+04  0.22489200069E+04  0.50400001928E-02 0. -1.
    10030    2    1    2    0    0  0.00000000000E+00  0.00000000000E+00 -0.16915566902E+04  0.28062833235E+04  0.22391654820E+04 0.  0.
        3    1    3    3  502    0  0.54877700129E+03  0.16271268250E+03 -0.20516799184E+04  0.21300286645E+04  0.10100000352E+00 0. -1.
       -3    1    3    3    0  502 -0.54877700129E+03 -0.16271268250E+03  0.36012322811E+03  0.67625465900E+03  0.10100000352E+00 0.  1.
</event>
<event>
 5   0  0.8547605E-05  0.1879406E+04  0.7818609E-02  0.8665176E-01
       -2   -1    0    0    0  501  0.00000000000E+00  0.00000000000E+00  0.55452042249E+03  0.55452042250E+03  0.25500000920E-02 0.  1.
        2   -1    0    0  501    0  0.00000000000E+00  0.00000000000E+00 -0.15924428257E+04  0.15924428257E+04  0.25500000920E-02 0. -1.
    10030    2    1    2    0    0  0.00000000000E+00  0.00000000000E+00 -0.10379224032E+04  0.21469632482E+04  0.18794063621E+04 0.  0.
        4    1    3    3  502    0  0.44095565907E+03  0.19368854668E+02 -0.14666563079E+04  0.15316329143E+04  0.12699999809E+01 0. -1.
       -4    1    3    3    0  502 -0.44095565907E+03 -0.19368854668E+02  0.42873390473E+03  0.61533033385E+03  0.12699999809E+01 0.  1.
</event>
<event>
 5   0  0.8547605E-05  0.2102003E+04  0.7818609E-02  0.8560362E-01
       -2   -1    0    0    0  501  0.00000000000E+00  0.00000000000E+00  0.14820728699E+04  0.14820728699E+04  0.25500000920E-02 0. -1.
        2   -1    0    0  501    0  0.00000000000E+00  0.00000000000E+00 -0.74531020648E+03  0.74531020648E+03  0.25500000920E-02 0.  1.
    10030    2    1    2    0    0  0.00000000000E+00  0.00000000000E+00  0.73676266345E+03  0.22273830764E+04  0.21020028894E+04 0.  0.
        4    1    3    3  502    0 -0.85407028129E+03  0.15144520777E+03 -0.26050944696E+03  0.90567018345E+03  0.12699999809E+01 0. -1.
       -4    1    3    3    0  502  0.85407028129E+03 -0.15144520777E+03  0.99727211041E+03  0.13217128930E+04  0.12699999809E+01 0.  1.
</event>
<event>
 5   0  0.4050368E-05  0.2112723E+04  0.7818609E-02  0.8555659E-01
       -1   -1    0    0    0  501  0.00000000000E+00  0.00000000000E+00  0.72031322205E+03  0.72031322207E+03  0.50400001928E-02 0.  1.
        1   -1    0    0  501    0  0.00000000000E+00  0.00000000000E+00 -0.15491865197E+04  0.15491865197E+04  0.50400001928E-02 0. -1.
    10030    2    1    2    0    0  0.00000000000E+00  0.00000000000E+00 -0.82887329766E+03  0.22694997418E+04  0.21127229195E+04 0.  0.
        2    1    3    3  502    0  0.11700775655E+03 -0.84513199005E+03 -0.10835218532E+04  0.13791151156E+04  0.25500000920E-02 0. -1.
       -2    1    3    3    0  502 -0.11700775655E+03  0.84513199005E+03  0.25464855555E+03  0.89038462619E+03  0.25500000920E-02 0.  1.
</event>
<event>
 5   0  0.8547605E-05  0.2096249E+04  0.7818609E-02  0.8562897E-01
       -2   -1    0    0    0  501  0.00000000000E+00  0.00000000000E+00  0.17287826219E+04  0.17287826219E+04  0.25500000920E-02 0. -1.
        2   -1    0    0  501    0  0.00000000000E+00  0.00000000000E+00 -0.63545588193E+03  0.63545588194E+03  0.25500000920E-02 0.  1.
    10030    2    1    2    0    0  0.00000000000E+00  0.00000000000E+00  0.10933267400E+04  0.23642385038E+04  0.20962491127E+04 0.  0.
        4    1    3    3  502    0  0.30842742494E+03 -0.65006701726E+03 -0.31290409388E+03  0.78461786129E+03  0.12699999809E+01 0.  1.
       -4    1    3    3    0  502 -0.30842742494E+03  0.65006701726E+03  0.14062308338E+04  0.15796206425E+04  0.12699999809E+01 0. -1.
</event>
<event>
 5   0  0.8858590E-05  0.2105961E+04  0.7818609E-02  0.8558622E-01
        2   -1    0    0  501    0  0.00000000000E+00  0.00000000000E+00  0.25521279019E+04  0.25521279019E+04  0.25500000920E-02 0. -1.
       -2   -1    0    0    0  501  0.00000000000E+00  0.00000000000E+00 -0.43444823995E+03  0.43444823996E+03  0.25500000920E-02 0.  1.
    10030    2    1    2    0    0  0.00000000000E+00  0.00000000000E+00  0.21176796619E+04  0.29865761418E+04  0.21059605648E+04 0.  0.
        1    1    3    3  502    0  0.43342879710E+03 -0.52301461190E+02  0.24177328368E+04  0.24568329278E+04  0.50400001928E-02 0. -1.
       -1    1    3    3    0  502 -0.43342879710E+03  0.52301461190E+02 -0.30005317489E+03  0.52974321401E+03  0.50400001928E-02 0.  1.
</event>
<event>
 5   0  0.8547605E-05  0.2104521E+04  0.7818609E-02  0.8559255E-01
        2   -1    0    0  501    0  0.00000000000E+00  0.00000000000E+00  0.13933639274E+04  0.13933639274E+04  0.25500000920E-02 0.  1.
       -2   -1    0    0    0  501  0.00000000000E+00  0.00000000000E+00 -0.79466092708E+03  0.79466092709E+03  0.25500000920E-02 0. -1.
    10030    2    1    2    0    0  0.00000000000E+00  0.00000000000E+00  0.59870300036E+03  0.21880248545E+04  0.21045207249E+04 0.  0.
        4    1    3    3  502    0  0.26245047442E+03  0.89940994685E+03 -0.19864444447E+03  0.95774721729E+03  0.12699999809E+01 0. -1.
       -4    1    3    3    0  502 -0.26245047442E+03 -0.89940994685E+03  0.79734744483E+03  0.12302776372E+04  0.12699999809E+01 0.  1.
</event>
<event>
 5   0  0.4174093E-05  0.2103925E+04  0.7818609E-02  0.8559516E-01
       -1   -1    0    0    0  501  0.00000000000E+00  0.00000000000E+00  0.15414293668E+04  0.15414293668E+04  0.50400001928E-02 0.  1.
        1   -1    0    0  501    0  0.00000000000E+00  0.00000000000E+00 -0.71792127304E+03  0.71792127306E+03  0.50400001928E-02 0. -1.
    10030    2    1    2    0    0  0.00000000000E+00  0.00000000000E+00  0.82350809372E+03  0.22593506398E+04  0.21039248402E+04 0.  0.
        3    1    3    3  502    0  0.63030361686E+03  0.26534674256E+02 -0.49224024980E+03  0.80017948742E+03  0.10100000352E+00 0. -1.
       -3    1    3    3    0  502 -0.63030361686E+03 -0.26534674256E+02  0.13157483435E+04  0.14591711524E+04  0.10100000352E+00 0.  1.
</event>
<event>
 5   0  0.9086985E-05  0.2000706E+04  0.7818609E-02  0.8606291E-01
       -2   -1    0    0    0  501  0.00000000000E+00  0.00000000000E+00  0.46710848242E+03  0.46710848243E+03  0.25500000920E-02 0.  1.
        2   -1    0    0  501    0  0.00000000000E+00  0.00000000000E+00 -0.21423416595E+04  0.21423416595E+04  0.25500000920E-02 0. -1.
    10030    2    1    2    0    0  0.00000000000E+00  0.00000000000E+00 -0.16752331771E+04  0.26094501419E+04  0.20007058369E+04 0.  0.
        5    1    3    3  502    0 -0.81312134927E+03  0.53721157824E+03 -0.54329958889E+03  0.11157773710E+04  0.46999998093E+01 0. -1.
       -5    1    3    3    0  502  0.81312134927E+03 -0.53721157824E+03 -0.11319335882E+04  0.14936727709E+04  0.46999998093E+01 0.  1.
</event>
<event>
 5   0  0.4174093E-05  0.2164516E+04  0.7818609E-02  0.8533344E-01
       -1   -1    0    0    0  501  0.00000000000E+00  0.00000000000E+00  0.60592776992E+03  0.60592776995E+03  0.50400001928E-02 0. -1.
        1   -1    0    0  501    0  0.00000000000E+00  0.00000000000E+00 -0.19330402066E+04  0.19330402067E+04  0.50400001928E-02 0.  1.
    10030    2    1    2    0    0  0.00000000000E+00  0.00000000000E+00 -0.13271124367E+04  0.25389679766E+04  0.21645163355E+04 0.  0.
        3    1    3    3  502    0  0.52602216444E+03  0.16660463149E+01  0.44588961297E+03  0.68957932853E+03  0.10100000352E+00 0. -1.
       -3    1    3    3    0  502 -0.52602216444E+03 -0.16660463149E+01 -0.17730020497E+04  0.18493886481E+04  0.10100000352E+00 0.  1.
</event>
<event>
 5   0  0.4174093E-05  0.2114473E+04  0.7818609E-02  0.8554895E-01
       -1   -1    0    0    0  501  0.00000000000E+00  0.00000000000E+00  0.11163870934E+04  0.11163870934E+04  0.50400001928E-02 0. -1.
        1   -1    0    0  501    0  0.00000000000E+00  0.00000000000E+00 -0.10012197070E+04  0.10012197070E+04  0.50400001928E-02 0.  1.
    10030    2    1    2    0    0  0.00000000000E+00  0.00000000000E+00  0.11516738638E+03  0.21176068005E+04  0.21144727557E+04 0.  0.
        3    1    3    3  502    0  0.17155050917E+03 -0.35118550301E+03 -0.92621029919E+03  0.10052991412E+04  0.10100000352E+00 0.  1.
       -3    1    3    3    0  502 -0.17155050917E+03  0.35118550301E+03  0.10413776856E+04  0.11123076593E+04  0.10100000352E+00 0. -1.
</event>
<event>
 5   0  0.8872777E-05  0.2088934E+04  0.7818609E-02  0.8566134E-01
       -2   -1    0    0    0  501  0.00000000000E+00  0.00000000000E+00  0.72543590597E+03  0.72543590597E+03  0.25500000920E-02 0. -1.
        2   -1    0    0  501    0  0.00000000000E+00  0.00000000000E+00 -0.15038015423E+04  0.15038015423E+04  0.25500000920E-02 0.  1.
    10030    2    1    2    0    0  0.00000000000E+00  0.00000000000E+00 -0.77836563635E+03  0.22292374483E+04  0.20889343065E+04 0.  0.
        3    1    3    3  502    0 -0.32009100416E+03 -0.13155263562E+03  0.66247413142E+03  0.74741978290E+03  0.10100000352E+00 0. -1.
       -3    1    3    3    0  502  0.32009100416E+03  0.13155263562E+03 -0.14408397678E+04  0.14818176654E+04  0.10100000352E+00 0.  1.
</event>
<event>
 5   0  0.4182977E-05  0.2056068E+04  0.7818609E-02  0.8580846E-01
       -1   -1    0    0    0  501  0.00000000000E+00  0.00000000000E+00  0.76071012042E+03  0.76071012044E+03  0.50400001928E-02 0. -1.
        1   -1    0    0  501    0  0.00000000000E+00  0.00000000000E+00 -0.13892996346E+04  0.13892996346E+04  0.50400001928E-02 0.  1.
    10030    2    1    2    0    0  0.00000000000E+00  0.00000000000E+00 -0.62858951418E+03  0.21500097551E+04  0.20560683767E+04 0.  0.
        1    1    3    3  502    0  0.93604705164E+03  0.29801278886E+03  0.26348101369E+01  0.98234548274E+03  0.50400001928E-02 0. -1.
       -1    1    3    3    0  502 -0.93604705164E+03 -0.29801278886E+03 -0.63122432431E+03  0.11676642723E+04  0.50400001928E-02 0.  1.
</event>
<event>
 5   0  0.4200061E-05  0.2106770E+04  0.7818609E-02  0.8558267E-01
        1   -1    0    0  501    0  0.00000000000E+00  0.00000000000E+00  0.20573553229E+04  0.20573553229E+04  0.50400001928E-02 0. -1.
       -1   -1    0    0    0  501  0.00000000000E+00  0.00000000000E+00 -0.53934273004E+03  0.53934273007E+03  0.50400001928E-02 0.  1.
    10030    2    1    2    0    0  0.00000000000E+00  0.00000000000E+00  0.15180125928E+04  0.25966980529E+04  0.21067696946E+04 0.  0.
        4    1    3    3  502    0 -0.79991818525E+03  0.57528874465E+03  0.29982280712E+03  0.10299133805E+04  0.12699999809E+01 0. -1.
       -4    1    3    3    0  502  0.79991818525E+03 -0.57528874465E+03  0.12181897857E+04  0.15667846724E+04  0.12699999809E+01 0.  1.
</event>
<event>
 5   0  0.4128678E-05  0.2049987E+04  0.7818609E-02  0.8583600E-01
       -1   -1    0    0    0  501  0.00000000000E+00  0.00000000000E+00  0.11278727455E+04  0.11278727455E+04  0.50400001928E-02 0. -1.
        1   -1    0    0  501    0  0.00000000000E+00  0.00000000000E+00 -0.93149877710E+03  0.93149877712E+03  0.50400001928E-02 0.  1.
    10030    2    1    2    0    0  0.00000000000E+00  0.00000000000E+00  0.19637396838E+03  0.20593715226E+04  0.20499873982E+04 0.  0.
        5    1    3    3  502    0 -0.32991512336E+03 -0.22746985972E+03 -0.84953152138E+03  0.93931486814E+03  0.46999998093E+01 0.  1.
       -5    1    3    3    0  502  0.32991512336E+03  0.22746985972E+03  0.10459054898E+04  0.11200566545E+04  0.46999998093E+01 0. -1.
</event>
<event>
 5   0  0.4200061E-05  0.2094645E+04  0.7818609E-02  0.8563606E-01
        1   -1    0    0  501    0  0.00000000000E+00  0.00000000000E+00  0.70324274473E+03  0.70324274475E+03  0.50400001928E-02 0.  1.
       -1   -1    0    0    0  501  0.00000000000E+00  0.00000000000E+00 -0.15597520113E+04  0.15597520113E+04  0.50400001928E-02 0. -1.
    10030    2    1    2    0    0  0.00000000000E+00  0.00000000000E+00 -0.85650926654E+03  0.22629947560E+04  0.20946448726E+04 0.  0.
        4    1    3    3  502    0  0.23233866011E+03  0.64590966085E+03 -0.12828429697E+04  0.14549461298E+04  0.12699999809E+01 0. -1.
       -4    1    3    3    0  502 -0.23233866011E+03 -0.64590966085E+03  0.42633370314E+03  0.80804862620E+03  0.12699999809E+01 0.  1.
</event>
<event>
 5   0  0.4182977E-05  0.2092823E+04  0.7818609E-02  0.8564411E-01
        1   -1    0    0  501    0  0.00000000000E+00  0.00000000000E+00  0.16762427132E+04  0.16762427132E+04  0.50400001928E-02 0.  1.
       -1   -1    0    0    0  501  0.00000000000E+00  0.00000000000E+00 -0.65323320957E+03  0.65323320959E+03  0.50400001928E-02 0. -1.
    10030    2    1    2    0    0  0.00000000000E+00  0.00000000000E+00  0.10230095037E+04  0.23294759228E+04  0.20928233634E+04 0.  0.
        1    1    3    3  502    0  0.30182333660E+03  0.99802504055E+02 -0.59818420892E+03  0.67740845445E+03  0.50400001928E-02 0. -1.
       -1    1    3    3    0  502 -0.30182333660E+03 -0.99802504055E+02  0.16211937126E+04  0.16520674684E+04  0.50400001928E-02 0.  1.
</event>
<event>
 5   0  0.8547605E-05  0.2107321E+04  0.7818609E-02  0.8558025E-01
        2   -1    0    0  501    0  0.00000000000E+00  0.00000000000E+00  0.11252749516E+04  0.11252749516E+04  0.25500000920E-02 0. -1.
       -2   -1    0    0    0  501  0.00000000000E+00  0.00000000000E+00 -0.98660364052E+03  0.98660364053E+03  0.25500000920E-02 0.  1.
    10030    2    1    2    0    0  0.00000000000E+00  0.00000000000E+00  0.13867131107E+03  0.21118785921E+04  0.21073209189E+04 0.  0.
        4    1    3    3  502    0 -0.56293303804E+03 -0.59264446016E+03  0.73566289617E+03  0.10996920347E+04  0.12699999809E+01 0. -1.
       -4    1    3    3    0  502  0.56293303804E+03  0.59264446016E+03 -0.59699158509E+03  0.10121865574E+04  0.12699999809E+01 0.  1.
</event>
<event>
 5   0  0.4200061E-05  0.2171103E+04  0.7818609E-02  0.8530553E-01
        1   -1    0    0  501    0  0.00000000000E+00  0.00000000000E+00  0.10249403385E+04  0.10249403385E+04  0.50400001928E-02 0. -1.
       -1   -1    0    0    0  501  0.00000000000E+00  0.00000000000E+00 -0.11497473521E+04  0.11497473522E+04  0.50400001928E-02 0.  1.
    10030    2    1    2    0    0  0.00000000000E+00  0.00000000000E+00 -0.12480701367E+03  0.21746876906E+04  0.21711033511E+04 0.  0.
        4    1    3    3  502    0 -0.42603838895E+02 -0.27784267963E+03 -0.11126617024E+04  0.11476189779E+04  0.12699999809E+01 0.  1.
       -4    1    3    3    0  502  0.42603838895E+02  0.27784267963E+03  0.98785468871E+03  0.10270687127E+04  0.12699999809E+01 0. -1.
</event>
<event>
 5   0  0.4182977E-05  0.2127019E+04  0.7818609E-02  0.8549434E-01
        1   -1    0    0  501    0  0.00000000000E+00  0.00000000000E+00  0.13844012033E+04  0.13844012033E+04  0.50400001928E-02 0. -1.
       -1   -1    0    0    0  501  0.00000000000E+00  0.00000000000E+00 -0.81699728556E+03  0.81699728558E+03  0.50400001928E-02 0.  1.
    10030    2    1    2    0    0  0.00000000000E+00  0.00000000000E+00  0.56740391772E+03  0.22013984889E+04  0.21270185944E+04 0.  0.
        1    1    3    3  502    0  0.71209075181E+02 -0.94740762404E+03  0.77832632843E+03  0.12281872056E+04  0.50400001928E-02 0. -1.
       -1    1    3    3    0  502 -0.71209075181E+02  0.94740762404E+03 -0.21092241071E+03  0.97321128325E+03  0.50400001928E-02 0.  1.
</event>
<event>
 5   0  0.4174093E-05  0.2315443E+04  0.7818609E-02  0.8471857E-01
       -1   -1    0    0    0  501  0.00000000000E+00  0.00000000000E+00  0.88164713438E+03  0.88164713439E+03  0.50400001928E-02 0.  1.
        1   -1    0    0  501    0  0.00000000000E+00  0.00000000000E+00 -0.15202444985E+04  0.15202444985E+04  0.50400001928E-02 0. -1.
    10030    2    1    2    0    0  0.00000000000E+00  0.00000000000E+00 -0.63859736415E+03  0.24018916329E+04  0.23154431159E+04 0.  0.
        3    1    3    3  502    0  0.69740388065E+02  0.25869567862E+03  0.84904337458E+03  0.89031558337E+03  0.10100000352E+00 0.  1.
       -3    1    3    3    0  502 -0.69740388065E+02 -0.25869567862E+03 -0.14876407387E+04  0.15115760496E+04  0.10100000352E+00 0. -1.
</event>
<event>
 5   0  0.4174093E-05  0.2110500E+04  0.7818609E-02  0.8556632E-01
       -1   -1    0    0    0  501  0.00000000000E+00  0.00000000000E+00  0.58699221707E+03  0.58699221709E+03  0.50400001928E-02 0.  1.
        1   -1    0    0  501    0  0.00000000000E+00  0.00000000000E+00 -0.18970485007E+04  0.18970485007E+04  0.50400001928E-02 0. -1.
    10030    2    1    2    0    0  0.00000000000E+00  0.00000000000E+00 -0.13100562836E+04  0.24840407178E+04  0.21105001354E+04 0.  0.
        3    1    3    3  502    0  0.33382948454E+03  0.66171688805E+03  0.22908078066E+03  0.77575084850E+03  0.10100000352E+00 0.  1.
       -3    1    3    3    0  502 -0.33382948454E+03 -0.66171688805E+03 -0.15391370643E+04  0.17082898693E+04  0.10100000352E+00 0. -1.
</event>
<event>
 5   0  0.8547605E-05  0.2103893E+04  0.7818609E-02  0.8559530E-01
        2   -1    0    0  501    0  0.00000000000E+00  0.00000000000E+00  0.90175196251E+03  0.90175196252E+03  0.25500000920E-02 0.  1.
       -2   -1    0    0    0  501  0.00000000000E+00  0.00000000000E+00 -0.12271577324E+04  0.12271577324E+04  0.25500000920E-02 0. -1.
    10030    2    1    2    0    0  0.00000000000E+00  0.00000000000E+00 -0.32540576992E+03  0.21289096950E+04  0.21038934322E+04 0.  0.
        4    1    3    3  502    0 -0.36577174969E+03  0.93921648638E+03 -0.46740408840E+03  0.11110287017E+04  0.12699999809E+01 0. -1.
       -4    1    3    3    0  502  0.36577174969E+03 -0.93921648638E+03  0.14199831847E+03  0.10178809933E+04  0.12699999809E+01 0.  1.
</event>
<event>
 5   0  0.4050368E-05  0.2066097E+04  0.7818609E-02  0.8576327E-01
        1   -1    0    0  501    0  0.00000000000E+00  0.00000000000E+00  0.74482418333E+03  0.74482418335E+03  0.50400001928E-02 0.  1.
       -1   -1    0    0    0  501  0.00000000000E+00  0.00000000000E+00 -0.14328062391E+04  0.14328062391E+04  0.50400001928E-02 0. -1.
    10030    2    1    2    0    0  0.00000000000E+00  0.00000000000E+00 -0.68798205579E+03  0.21776304225E+04  0.20660965485E+04 0.  0.
        2    1    3    3  502    0 -0.28961534494E+03 -0.41413435446E+03  0.60564956439E+03  0.78879383011E+03  0.25500000920E-02 0.  1.
       -2    1    3    3    0  502  0.28961534494E+03  0.41413435446E+03 -0.12936316202E+04  0.13888365924E+04  0.25500000920E-02 0. -1.
</event>
<event>
 5   0  0.4200061E-05  0.2111055E+04  0.7818609E-02  0.8556389E-01
        1   -1    0    0  501    0  0.00000000000E+00  0.00000000000E+00  0.76066464104E+03  0.76066464106E+03  0.50400001928E-02 0.  1.
       -1   -1    0    0    0  501  0.00000000000E+00  0.00000000000E+00 -0.14646904553E+04  0.14646904553E+04  0.50400001928E-02 0. -1.
    10030    2    1    2    0    0  0.00000000000E+00  0.00000000000E+00 -0.70402581428E+03  0.22253550964E+04  0.21110549396E+04 0.  0.
        4    1    3    3  502    0 -0.41640339707E+03 -0.26880532579E+03 -0.13343981486E+04  0.14234704507E+04  0.12699999809E+01 0. -1.
       -4    1    3    3    0  502  0.41640339707E+03  0.26880532579E+03  0.63037233428E+03  0.80188464568E+03  0.12699999809E+01 0.  1.
</event>
<event>
 5   0  0.8547605E-05  0.2131598E+04  0.7818609E-02  0.8547451E-01
        2   -1    0    0  501    0  0.00000000000E+00  0.00000000000E+00  0.65166580316E+03  0.65166580316E+03  0.25500000920E-02 0.  1.
       -2   -1    0    0    0  501  0.00000000000E+00  0.00000000000E+00 -0.17431128165E+04  0.17431128165E+04  0.25500000920E-02 0. -1.
    10030    2    1    2    0    0  0.00000000000E+00  0.00000000000E+00 -0.10914470133E+04  0.23947786196E+04  0.21315975357E+04 0.  0.
        4    1    3    3  502    0  0.65778580802E+03  0.24720799485E+03 -0.14459921616E+04  0.16076967706E+04  0.12699999809E+01 0. -1.
       -4    1    3    3    0  502 -0.65778580802E+03 -0.24720799485E+03  0.35454514830E+03  0.78708184900E+03  0.12699999809E+01 0.  1.
</event>
<event>
 5   0  0.9086985E-05  0.2073061E+04  0.7818609E-02  0.8573204E-01
       -2   -1    0    0    0  501  0.00000000000E+00  0.00000000000E+00  0.76371911007E+03  0.76371911008E+03  0.25500000920E-02 0.  1.
        2   -1    0    0  501    0  0.00000000000E+00  0.00000000000E+00 -0.14067935147E+04  0.14067935147E+04  0.25500000920E-02 0. -1.
    10030    2    1    2    0    0  0.00000000000E+00  0.00000000000E+00 -0.64307440466E+03  0.21705126248E+04  0.20730606273E+04 0.  0.
        5    1    3    3  502    0  0.23803427415E+02 -0.74164717147E+03 -0.10792749294E+04  0.13097570742E+04  0.46999998093E+01 0. -1.
       -5    1    3    3    0  502 -0.23803427415E+02  0.74164717147E+03  0.43620052477E+03  0.86075555062E+03  0.46999998093E+01 0.  1.
</event>
<event>
 5   0  0.4200061E-05  0.2087161E+04  0.7818609E-02  0.8566920E-01
        1   -1    0    0  501    0  0.00000000000E+00  0.00000000000E+00  0.43267818054E+03  0.43267818057E+03  0.50400001928E-02 0. -1.
       -1   -1    0    0    0  501  0.00000000000E+00  0.00000000000E+00 -0.25170208363E+04  0.25170208363E+04  0.50400001928E-02 0.  1.
    10030    2    1    2    0    0  0.00000000000E+00  0.00000000000E+00 -0.20843426558E+04  0.29496990169E+04  0.20871607469E+04 0.  0.
        4    1    3    3  502    0  0.29616840377E+03 -0.55745698189E+02 -0.24541827772E+04  0.24726176459E+04  0.12699999809E+01 0.  1.
       -4    1    3    3    0  502 -0.29616840377E+03  0.55745698189E+02  0.36984012138E+03  0.47708137098E+03  0.12699999809E+01 0. -1.
</event>
<event>
 5   0  0.8547605E-05  0.2075390E+04  0.7818609E-02  0.8572162E-01
        2   -1    0    0  501    0  0.00000000000E+00  0.00000000000E+00  0.60297669868E+03  0.60297669868E+03  0.25500000920E-02 0. -1.
       -2   -1    0    0    0  501  0.00000000000E+00  0.00000000000E+00 -0.17858256566E+04  0.17858256566E+04  0.25500000920E-02 0.  1.
    10030    2    1    2    0    0  0.00000000000E+00  0.00000000000E+00 -0.11828489579E+04  0.23888023553E+04  0.20753903333E+04 0.  0.
        4    1    3    3  502    0 -0.47462179439E+03  0.78457499744E+03 -0.32280786131E+02  0.91753334347E+03  0.12699999809E+01 0.  1.
       -4    1    3    3    0  502  0.47462179439E+03 -0.78457499744E+03 -0.11505681718E+04  0.14712690118E+04  0.12699999809E+01 0. -1.
</event>
<event>
 5   0  0.8872777E-05  0.2104348E+04  0.7818609E-02  0.8559330E-01
        2   -1    0    0  501    0  0.00000000000E+00  0.00000000000E+00  0.10537724696E+04  0.10537724696E+04  0.25500000920E-02 0.  1.
       -2   -1    0    0    0  501  0.00000000000E+00  0.00000000000E+00 -0.10505782351E+04  0.10505782351E+04  0.25500000920E-02 0. -1.
    10030    2    1    2    0    0  0.00000000000E+00  0.00000000000E+00  0.31942344496E+01  0.21043507047E+04  0.21043482804E+04 0.  0.
        3    1    3    3  502    0  0.68637748570E+03  0.76961860228E+03  0.21050778191E+03  0.10524924619E+04  0.10100000352E+00 0.  1.
       -3    1    3    3    0  502 -0.68637748570E+03 -0.76961860228E+03 -0.20731354746E+03  0.10518582428E+04  0.10100000352E+00 0. -1.
</event>
<event>
 5   0  0.4128678E-05  0.2090880E+04  0.7818609E-02  0.8565271E-01
       -1   -1    0    0    0  501  0.00000000000E+00  0.00000000000E+00  0.85608320823E+03  0.85608320824E+03  0.50400001928E-02 0. -1.
        1   -1    0    0  501    0  0.00000000000E+00  0.00000000000E+00 -0.12766807821E+04  0.12766807821E+04  0.50400001928E-02 0.  1.
    10030    2    1    2    0    0  0.00000000000E+00  0.00000000000E+00 -0.42059757385E+03  0.21327639903E+04  0.20908801781E+04 0.  0.
        5    1    3    3  502    0 -0.31773506692E+03 -0.26963450716E+03 -0.11882876522E+04  0.12592489724E+04  0.46999998093E+01 0.  1.
       -5    1    3    3    0  502  0.31773506692E+03  0.26963450716E+03  0.76769007831E+03  0.87351501793E+03  0.46999998093E+01 0. -1.
</event>
<event>
 5   0  0.9012466E-05  0.2025827E+04  0.7818609E-02  0.8594640E-01
       -2   -1    0    0    0  501  0.00000000000E+00  0.00000000000E+00  0.82033940391E+03  0.82033940392E+03  0.25500000920E-02 0.  1.
        2   -1    0    0  501    0  0.00000000000E+00  0.00000000000E+00 -0.12506942033E+04  0.12506942033E+04  0.25500000920E-02 0. -1.
    10030    2    1    2    0    0  0.00000000000E+00  0.00000000000E+00 -0.43035479941E+03  0.20710336072E+04  0.20258269790E+04 0.  0.
        2    1    3    3  502    0 -0.95602027734E+03 -0.15024903183E+02  0.12663870936E+03  0.96448840382E+03  0.25500000920E-02 0.  1.
       -2    1    3    3    0  502  0.95602027734E+03  0.15024903183E+02 -0.55699350877E+03  0.11065452034E+04  0.25500000920E-02 0. -1.
</event>
<event>
 5   0  0.4128678E-05  0.2145223E+04  0.7818609E-02  0.8541580E-01
       -1   -1    0    0    0  501  0.00000000000E+00  0.00000000000E+00  0.96127326039E+03  0.96127326041E+03  0.50400001928E-02 0.  1.
        1   -1    0    0  501    0  0.00000000000E+00  0.00000000000E+00 -0.11968452116E+04  0.11968452116E+04  0.50400001928E-02 0. -1.
    10030    2    1    2    0    0  0.00000000000E+00  0.00000000000E+00 -0.23557195118E+03  0.21581184720E+04  0.21452228777E+04 0.  0.
        5    1    3    3  502    0 -0.79630078105E+03  0.14204771610E+03  0.59086364305E+03  0.10017057563E+04  0.46999998093E+01 0.  1.
       -5    1    3    3    0  502  0.79630078105E+03 -0.14204771610E+03 -0.82643559423E+03  0.11564127157E+04  0.46999998093E+01 0. -1.
</event>
<event>
 5   0  0.9012466E-05  0.2091955E+04  0.7818609E-02  0.8564796E-01
       -2   -1    0    0    0  501  0.00000000000E+00  0.00000000000E+00  0.76651413761E+03  0.76651413761E+03  0.25500000920E-02 0. -1.
        2   -1    0    0  501    0  0.00000000000E+00  0.00000000000E+00 -0.14273305067E+04  0.14273305067E+04  0.25500000920E-02 0.  1.
    10030    2    1    2    0    0  0.00000000000E+00  0.00000000000E+00 -0.66081636907E+03  0.21938446443E+04  0.20919550783E+04 0.  0.
        2    1    3    3  502    0 -0.84992843296E+03 -0.37052300816E+03 -0.83814124480E+03  0.12498585468E+04  0.25500000920E-02 0.  1.
       -2    1    3    3    0  502  0.84992843296E+03  0.37052300816E+03  0.17732487573E+03  0.94398609751E+03  0.25500000920E-02 0. -1.
</event>
<event>
 5   0  0.4174093E-05  0.2133697E+04  0.7818609E-02  0.8546543E-01
       -1   -1    0    0    0  501  0.00000000000E+00  0.00000000000E+00  0.11584585089E+04  0.11584585089E+04  0.50400001928E-02 0. -1.
        1   -1    0    0  501    0  0.00000000000E+00  0.00000000000E+00 -0.98248274454E+03  0.98248274455E+03  0.50400001928E-02 0.  1.
    10030    2    1    2    0    0  0.00000000000E+00  0.00000000000E+00  0.17597576435E+03  0.21409412535E+04  0.21336967875E+04 0.  0.
        3    1    3    3  502    0  0.16002890977E+03 -0.24797300897E+03 -0.94070790812E+03  0.98591644866E+03  0.10100000352E+00 0.  1.
       -3    1    3    3    0  502 -0.16002890977E+03  0.24797300897E+03  0.11166836725E+04  0.11550248048E+04  0.10100000352E+00 0. -1.
</event>
<event>
 5   0  0.8872777E-05  0.2094171E+04  0.7818609E-02  0.8563816E-01
       -2   -1    0    0    0  501  0.00000000000E+00  0.00000000000E+00  0.59190162145E+03  0.59190162146E+03  0.25500000920E-02 0.  1.
        2   -1    0    0  501    0  0.00000000000E+00  0.00000000000E+00 -0.18523139942E+04  0.18523139942E+04  0.25500000920E-02 0. -1.
    10030    2    1    2    0    0  0.00000000000E+00  0.00000000000E+00 -0.12604123728E+04  0.24442156157E+04  0.20941706298E+04 0.  0.
        3    1    3    3  502    0  0.54506307814E+03 -0.21152532263E+03  0.38363919709E+03  0.69929662162E+03  0.10100000352E+00 0.  1.
       -3    1    3    3    0  502 -0.54506307814E+03  0.21152532263E+03 -0.16440515699E+04  0.17449189941E+04  0.10100000352E+00 0. -1.
</event>
<event>
 5   0  0.4050368E-05  0.2114245E+04  0.7818609E-02  0.8554994E-01
        1   -1    0    0  501    0  0.00000000000E+00  0.00000000000E+00  0.10303489489E+04  0.10303489489E+04  0.50400001928E-02 0.  1.
       -1   -1    0    0    0  501  0.00000000000E+00  0.00000000000E+00 -0.10845917764E+04  0.10845917765E+04  0.50400001928E-02 0. -1.
    10030    2    1    2    0    0  0.00000000000E+00  0.00000000000E+00 -0.54242827552E+02  0.21149407254E+04  0.21142450159E+04 0.  0.
        2    1    3    3  502    0  0.54152371347E+03  0.79530335673E+03  0.41091836941E+03  0.10462357611E+04  0.25500000920E-02 0.  1.
       -2    1    3    3    0  502 -0.54152371347E+03 -0.79530335673E+03 -0.46516119696E+03  0.10687049643E+04  0.25500000920E-02 0. -1.
</event>
<event>
 5   0  0.4182977E-05  0.1887273E+04  0.7818609E-02  0.8661217E-01
       -1   -1    0    0    0  501  0.00000000000E+00  0.00000000000E+00  0.57575097981E+03  0.57575097984E+03  0.50400001928E-02 0. -1.
        1   -1    0    0  501    0  0.00000000000E+00  0.00000000000E+00 -0.15465889909E+04  0.15465889909E+04  0.50400001928E-02 0.  1.
    10030    2    1    2    0    0  0.00000000000E+00  0.00000000000E+00 -0.97083801108E+03  0.21223399707E+04  0.18872732997E+04 0.  0.
        1    1    3    3  502    0  0.14639507601E+03  0.91151894651E+03 -0.70507233000E+03  0.11616476655E+04  0.50400001928E-02 0.  1.
       -1    1    3    3    0  502 -0.14639507601E+03 -0.91151894651E+03 -0.26576568107E+03  0.96069230526E+03  0.50400001928E-02 0. -1.
</event>
<event>
 5   0  0.9012466E-05  0.2003057E+04  0.7818609E-02  0.8605193E-01
       -2   -1    0    0    0  501  0.00000000000E+00  0.00000000000E+00  0.47232210054E+03  0.47232210055E+03  0.25500000920E-02 0. -1.
        2   -1    0    0  501    0  0.00000000000E+00  0.00000000000E+00 -0.21236770798E+04  0.21236770798E+04  0.25500000920E-02 0.  1.
    10030    2    1    2    0    0  0.00000000000E+00  0.00000000000E+00 -0.16513549793E+04  0.25959991804E+04  0.20030572825E+04 0.  0.
        2    1    3    3  502    0  0.33364240815E+03  0.75177243363E+03 -0.15663161086E+04  0.17691311994E+04  0.25500000920E-02 0.  1.
       -2    1    3    3    0  502 -0.33364240815E+03 -0.75177243363E+03 -0.85038870675E+02  0.82686798101E+03  0.25500000920E-02 0. -1.
</event>
<event>
 5   0  0.4174093E-05  0.2105814E+04  0.7818609E-02  0.8558687E-01
       -1   -1    0    0    0  501  0.00000000000E+00  0.00000000000E+00  0.12104594443E+04  0.12104594443E+04  0.50400001928E-02 0. -1.
        1   -1    0    0  501    0  0.00000000000E+00  0.00000000000E+00 -0.91586160863E+03  0.91586160864E+03  0.50400001928E-02 0.  1.
    10030    2    1    2    0    0  0.00000000000E+00  0.00000000000E+00  0.29459783569E+03  0.21263210530E+04  0.21058141740E+04 0.  0.
        3    1    3    3  502    0  0.28924873003E+03  0.48206268684E+03 -0.75163130597E+03  0.93861541229E+03  0.10100000352E+00 0.  1.
       -3    1    3    3    0  502 -0.28924873003E+03 -0.48206268684E+03  0.10462291417E+04  0.11877056407E+04  0.10100000352E+00 0. -1.
</event>
<event>
 5   0  0.8547605E-05  0.2107269E+04  0.7818609E-02  0.8558048E-01
        2   -1    0    0  501    0  0.00000000000E+00  0.00000000000E+00  0.10166072321E+04  0.10166072321E+04  0.25500000920E-02 0.  1.
       -2   -1    0    0    0  501  0.00000000000E+00  0.00000000000E+00 -0.10920103680E+04  0.10920103680E+04  0.25500000920E-02 0. -1.
    10030    2    1    2    0    0  0.00000000000E+00  0.00000000000E+00 -0.75403135962E+02  0.21086176001E+04  0.21072689792E+04 0.  0.
        4    1    3    3  502    0 -0.53542464523E+03  0.50787497120E+03  0.71479532751E+03  0.10273998784E+04  0.12699999809E+01 0.  1.
       -4    1    3    3    0  502  0.53542464523E+03 -0.50787497120E+03 -0.79019846347E+03  0.10812177217E+04  0.12699999809E+01 0. -1.
</event>
<event>
 5   0  0.8872777E-05  0.2128258E+04  0.7818609E-02  0.8548897E-01
       -2   -1    0    0    0  501  0.00000000000E+00  0.00000000000E+00  0.86388758846E+03  0.86388758846E+03  0.25500000920E-02 0. -1.
        2   -1    0    0  501    0  0.00000000000E+00  0.00000000000E+00 -0.13107845084E+04  0.13107845084E+04  0.25500000920E-02 0.  1.
    10030    2    1    2    0    0  0.00000000000E+00  0.00000000000E+00 -0.44689691995E+03  0.21746720969E+04  0.21282579430E+04 0.  0.
        3    1    3    3  502    0 -0.67461003078E+03 -0.45902195734E+03  0.47450780019E+03  0.94390545797E+03  0.10100000352E+00 0. -1.
       -3    1    3    3    0  502  0.67461003078E+03  0.45902195734E+03 -0.92140472014E+03  0.12307666389E+04  0.10100000352E+00 0.  1.
</event>
<event>
 5   0  0.9086985E-05  0.2108337E+04  0.7818609E-02  0.8557580E-01
        2   -1    0    0  501    0  0.00000000000E+00  0.00000000000E+00  0.14742073590E+04  0.14742073590E+04  0.25500000920E-02 0. -1.
       -2   -1    0    0    0  501  0.00000000000E+00  0.00000000000E+00 -0.75380910334E+03  0.75380910334E+03  0.25500000920E-02 0.  1.
    10030    2    1    2    0    0  0.00000000000E+00  0.00000000000E+00  0.72039825563E+03  0.22280164623E+04  0.21083367164E+04 0.  0.
        5    1    3    3  502    0 -0.62363834467E+03  0.14615126263E+03  0.12449606709E+04  0.14000836184E+04  0.46999998093E+01 0. -1.
       -5    1    3    3    0  502  0.62363834467E+03 -0.14615126263E+03 -0.52456241525E+03  0.82793284390E+03  0.46999998093E+01 0.  1.
</event>
<event>
 5   0  0.4200061E-05  0.2110899E+04  0.7818609E-02  0.8556457E-01
        1   -1    0    0  501    0  0.00000000000E+00  0.00000000000E+00  0.15576629130E+04  0.15576629130E+04  0.50400001928E-02 0. -1.
       -1   -1    0    0    0  501  0.00000000000E+00  0.00000000000E+00 -0.71515725117E+03  0.71515725119E+03  0.50400001928E-02 0.  1.
    10030    2    1    2    0    0  0.00000000000E+00  0.00000000000E+00  0.84250566185E+03  0.22728201642E+04  0.21108992654E+04 0.  0.
        4    1    3    3  502    0  0.41996664617E+03  0.91672181016E+03  0.75697391673E+03  0.12608576385E+04  0.12699999809E+01 0.  1.
       -4    1    3    3    0  502 -0.41996664617E+03 -0.91672181016E+03  0.85531745122E+02  0.10119625257E+04  0.12699999809E+01 0. -1.
</event>
<event>
 5   0  0.4174093E-05  0.2093413E+04  0.7818609E-02  0.8564151E-01
       -1   -1    0    0    0  501  0.00000000000E+00  0.00000000000E+00  0.69691981451E+03  0.69691981453E+03  0.50400001928E-02 0.  1.
        1   -1    0    0  501    0  0.00000000000E+00  0.00000000000E+00 -0.15720524153E+04  0.15720524153E+04  0.50400001928E-02 0. -1.
    10030    2    1    2    0    0  0.00000000000E+00  0.00000000000E+00 -0.87513260079E+03  0.22689722298E+04  0.20934129814E+04 0.  0.
        3    1    3    3  502    0 -0.67355656172E+03 -0.17147036084E+03  0.41070008334E+03  0.80731350487E+03  0.10100000352E+00 0.  1.
       -3    1    3    3    0  502  0.67355656172E+03  0.17147036084E+03 -0.12858326841E+04  0.14616587250E+04  0.10100000352E+00 0. -1.
</event>
<event>
 5   0  0.4128678E-05  0.2098830E+04  0.7818609E-02  0.8561759E-01
       -1   -1    0    0    0  501  0.00000000000E+00  0.00000000000E+00  0.11377677821E+04  0.11377677821E+04  0.50400001928E-02 0. -1.
        1   -1    0    0  501    0  0.00000000000E+00  0.00000000000E+00 -0.96792301327E+03  0.96792301328E+03  0.50400001928E-02 0.  1.
    10030    2    1    2    0    0  0.00000000000E+00  0.00000000000E+00  0.16984476883E+03  0.21056907954E+04  0.20988297883E+04 0.  0.
        5    1    3    3  502    0 -0.74384885629E+02 -0.75583570039E+03  0.81146426129E+03  0.11114481790E+04  0.46999998093E+01 0. -1.
       -5    1    3    3    0  502  0.74384885629E+02  0.75583570039E+03 -0.64161949246E+03  0.99424261642E+03  0.46999998093E+01 0.  1.
</event>
<event>
 5   0  0.8547605E-05  0.2027497E+04  0.7818609E-02  0.8593872E-01
       -2   -1    0    0    0  501  0.00000000000E+00  0.00000000000E+00  0.66020979217E+03  0.66020979218E+03  0.25500000920E-02 0. -1.
        2   -1    0    0  501    0  0.00000000000E+00  0.00000000000E+00 -0.15566052552E+04  0.15566052552E+04  0.25500000920E-02 0.  1.
    10030    2    1    2    0    0  0.00000000000E+00  0.00000000000E+00 -0.89639546300E+03  0.22168150473E+04  0.20274970106E+04 0.  0.
        4    1    3    3  502    0  0.85342619687E+03  0.41953817495E+02 -0.10446517407E+04  0.13495907782E+04  0.12699999809E+01 0.  1.
       -4    1    3    3    0  502 -0.85342619687E+03 -0.41953817495E+02  0.14825627767E+03  0.86722426919E+03  0.12699999809E+01 0. -1.
</event>
<event>
 5   0  0.8547605E-05  0.2031589E+04  0.7818609E-02  0.8591993E-01
       -2   -1    0    0    0  501  0.00000000000E+00  0.00000000000E+00  0.82722816514E+03  0.82722816514E+03  0.25500000920E-02 0. -1.
        2   -1    0    0  501    0  0.00000000000E+00  0.00000000000E+00 -0.12473444680E+04  0.12473444680E+04  0.25500000920E-02 0.  1.
    10030    2    1    2    0    0  0.00000000000E+00  0.00000000000E+00 -0.42011630281E+03  0.20745726331E+04  0.20315890092E+04 0.  0.
        4    1    3    3  502    0  0.45452772865E+03 -0.95852731325E+02 -0.11325279333E+04  0.12240932704E+04  0.12699999809E+01 0.  1.
       -4    1    3    3    0  502 -0.45452772865E+03  0.95852731325E+02  0.71241163045E+03  0.85047936266E+03  0.12699999809E+01 0. -1.
</event>
<event>
 5   0  0.9086985E-05  0.2099478E+04  0.7818609E-02  0.8561474E-01
       -2   -1    0    0    0  501  0.00000000000E+00  0.00000000000E+00  0.96155277406E+03  0.96155277406E+03  0.25500000920E-02 0.  1.
        2   -1    0    0  501    0  0.00000000000E+00  0.00000000000E+00 -0.11460124440E+04  0.11460124440E+04  0.25500000920E-02 0. -1.
    10030    2    1    2    0    0  0.00000000000E+00  0.00000000000E+00 -0.18445966991E+03  0.21075652180E+04  0.20994775013E+04 0.  0.
        5    1    3    3  502    0  0.91207295702E+03  0.11351000776E+03  0.41684080870E+03  0.10092274028E+04  0.46999998093E+01 0.  1.
       -5    1    3    3    0  502 -0.91207295702E+03 -0.11351000776E+03 -0.60130047861E+03  0.10983378152E+04  0.46999998093E+01 0. -1.
</event>
<event>
 5   0  0.8547605E-05  0.2093874E+04  0.7818609E-02  0.8563947E-01
        2   -1    0    0  501    0  0.00000000000E+00  0.00000000000E+00  0.14276475283E+04  0.14276475283E+04  0.25500000920E-02 0. -1.
       -2   -1    0    0    0  501  0.00000000000E+00  0.00000000000E+00 -0.76775045618E+03  0.76775045618E+03  0.25500000920E-02 0.  1.
    10030    2    1    2    0    0  0.00000000000E+00  0.00000000000E+00  0.65989707210E+03  0.21953979845E+04  0.20938739610E+04 0.  0.
        4    1    3    3  502    0 -0.31394329320E+03 -0.71003917317E+03  0.10664005138E+04  0.13190631855E+04  0.12699999809E+01 0. -1.
       -4    1    3    3    0  502  0.31394329320E+03  0.71003917317E+03 -0.40650344168E+03  0.87633479891E+03  0.12699999809E+01 0.  1.
</event>
<event>
 5   0  0.9012466E-05  0.2125351E+04  0.7818609E-02  0.8550157E-01
        2   -1    0    0  501    0  0.00000000000E+00  0.00000000000E+00  0.21934345883E+04  0.21934345883E+04  0.25500000920E-02 0. -1.
       -2   -1    0    0    0  501  0.00000000000E+00  0.00000000000E+00 -0.51484531940E+03  0.51484531940E+03  0.25500000920E-02 0.  1.
    10030    2    1    2    0    0  0.00000000000E+00  0.00000000000E+00  0.16785892689E+04  0.27082799077E+04  0.21253512945E+04 0.  0.
        2    1    3    3  502    0 -0.82649463989E+03  0.17586638860E+03  0.18146735660E+02  0.84519327993E+03  0.25500000920E-02 0.  1.
       -2    1    3    3    0  502  0.82649463989E+03 -0.17586638860E+03  0.16604425333E+04  0.18630866278E+04  0.25500000920E-02 0. -1.
</event>
<event>
 5   0  0.9086985E-05  0.2154694E+04  0.7818609E-02  0.8537526E-01
        2   -1    0    0  501    0  0.00000000000E+00  0.00000000000E+00  0.27677885114E+04  0.27677885114E+04  0.25500000920E-02 0. -1.
       -2   -1    0    0    0  501  0.00000000000E+00  0.00000000000E+00 -0.41935147955E+03  0.41935147956E+03  0.25500000920E-02 0.  1.
    10030    2    1    2    0    0  0.00000000000E+00  0.00000000000E+00  0.23484370318E+04  0.31871399910E+04  0.21546936742E+04 0.  0.
        5    1    3    3  502    0 -0.21625460031E+03  0.84131903027E+03  0.21167942292E+04  0.22881048188E+04  0.46999998093E+01 0. -1.
       -5    1    3    3    0  502  0.21625460031E+03 -0.84131903027E+03  0.23164280265E+03  0.89903517221E+03  0.46999998093E+01 0.  1.
</event>
<event>
 5   0  0.9086985E-05  0.2097693E+04  0.7818609E-02  0.8562260E-01
        2   -1    0    0  501    0  0.00000000000E+00  0.00000000000E+00  0.25694657475E+04  0.25694657475E+04  0.25500000920E-02 0.  1.
       -2   -1    0    0    0  501  0.00000000000E+00  0.00000000000E+00 -0.42813547389E+03  0.42813547390E+03  0.25500000920E-02 0. -1.
    10030    2    1    2    0    0  0.00000000000E+00  0.00000000000E+00  0.21413302736E+04  0.29976012214E+04  0.20976934337E+04 0.  0.
        5    1    3    3  502    0 -0.90656384638E+02 -0.76860146407E+03  0.59109099051E+02  0.77619763348E+03  0.46999998093E+01 0. -1.
       -5    1    3    3    0  502  0.90656384638E+02  0.76860146407E+03  0.20822211746E+04  0.22214035879E+04  0.46999998093E+01 0.  1.
</event>
<event>
 5   0  0.4050368E-05  0.2009413E+04  0.7818609E-02  0.8602232E-01
       -1   -1    0    0    0  501  0.00000000000E+00  0.00000000000E+00  0.72066657738E+03  0.72066657740E+03  0.50400001928E-02 0. -1.
        1   -1    0    0  501    0  0.00000000000E+00  0.00000000000E+00 -0.14006969811E+04  0.14006969811E+04  0.50400001928E-02 0.  1.
    10030    2    1    2    0    0  0.00000000000E+00  0.00000000000E+00 -0.68003040371E+03  0.21213635585E+04  0.20094133466E+04 0.  0.
        2    1    3    3  502    0 -0.80814212277E+03 -0.15180659060E+03  0.26946730097E+03  0.86530431517E+03  0.25500000920E-02 0. -1.
       -2    1    3    3    0  502  0.80814212277E+03  0.15180659060E+03 -0.94949770468E+03  0.12560592433E+04  0.25500000920E-02 0.  1.
</event>
<event>
 5   0  0.4050368E-05  0.2086936E+04  0.7818609E-02  0.8567020E-01
        1   -1    0    0  501    0  0.00000000000E+00  0.00000000000E+00  0.54819888809E+03  0.54819888812E+03  0.50400001928E-02 0. -1.
       -1   -1    0    0    0  501  0.00000000000E+00  0.00000000000E+00 -0.19861860525E+04  0.19861860525E+04  0.50400001928E-02 0.  1.
    10030    2    1    2    0    0  0.00000000000E+00  0.00000000000E+00 -0.14379871644E+04  0.25343849406E+04  0.20869355386E+04 0.  0.
        2    1    3    3  502    0 -0.42749754792E+03  0.18074189324E+03  0.41594127317E+03  0.62324066634E+03  0.25500000920E-02 0. -1.
       -2    1    3    3    0  502  0.42749754792E+03 -0.18074189324E+03 -0.18539284375E+04  0.19111442742E+04  0.25500000920E-02 0.  1.
</event>
<event>
 5   0  0.3176125E-05  0.1752984E+04  0.7818609E-02  0.8731709E-01
       -4   -1    0    0    0  501  0.00000000000E+00  0.00000000000E+00  0.75650317912E+03  0.75650424514E+03  0.12699999809E+01 0. -1.
        4   -1    0    0  501    0  0.00000000000E+00  0.00000000000E+00 -0.10155101992E+04  0.10155109933E+04  0.12699999809E+01 0.  1.
    10030    2    1    2    0    0  0.00000000000E+00  0.00000000000E+00 -0.25900702004E+03  0.17720152384E+04  0.17529841325E+04 0.  0.
        1    1    3    3  502    0  0.44506760580E+03 -0.65083984021E+02 -0.88994522184E+03  0.99715775914E+03  0.50400001928E-02 0.  1.
       -1    1    3    3    0  502 -0.44506760580E+03  0.65083984021E+02  0.63093820180E+03  0.77485747930E+03  0.50400001928E-02 0. -1.
</event>
<event>
 5   0  0.4128678E-05  0.2130740E+04  0.7818609E-02  0.8547822E-01
        1   -1    0    0  501    0  0.00000000000E+00  0.00000000000E+00  0.15956549645E+04  0.15956549645E+04  0.50400001928E-02 0.  1.
       -1   -1    0    0    0  501  0.00000000000E+00  0.00000000000E+00 -0.71131485615E+03  0.71131485617E+03  0.50400001928E-02 0. -1.
    10030    2    1    2    0    0  0.00000000000E+00  0.00000000000E+00  0.88434010836E+03  0.23069698207E+04  0.21307398542E+04 0.  0.
        5    1    3    3  502    0  0.71163249214E+03 -0.46851517552E+02 -0.41472716717E+03  0.82500701922E+03  0.46999998093E+01 0. -1.
       -5    1    3    3    0  502 -0.71163249214E+03  0.46851517552E+02  0.12990672755E+04  0.14819628015E+04  0.46999998093E+01 0.  1.
</event>
<event>
 5   0  0.8872777E-05  0.2108992E+04  0.7818609E-02  0.8557293E-01
       -2   -1    0    0    0  501  0.00000000000E+00  0.00000000000E+00  0.11872617888E+04  0.11872617888E+04  0.25500000920E-02 0.  1.
        2   -1    0    0  501    0  0.00000000000E+00  0.00000000000E+00 -0.93657661659E+03  0.93657661659E+03  0.25500000920E-02 0. -1.
    10030    2    1    2    0    0  0.00000000000E+00  0.00000000000E+00  0.25068517226E+03  0.21238384054E+04  0.21089918247E+04 0.  0.
        3    1    3    3  502    0 -0.15729659087E+03  0.23660371690E+03  0.11479902840E+04  0.11826264155E+04  0.10100000352E+00 0.  1.
       -3    1    3    3    0  502  0.15729659087E+03 -0.23660371690E+03 -0.89730511170E+03  0.94121198995E+03  0.10100000352E+00 0. -1.
</event>
<event>
 5   0  0.4182977E-05  0.2113261E+04  0.7818609E-02  0.8555424E-01
       -1   -1    0    0    0  501  0.00000000000E+00  0.00000000000E+00  0.55622033511E+03  0.55622033513E+03  0.50400001928E-02 0. -1.
        1   -1    0    0  501    0  0.00000000000E+00  0.00000000000E+00 -0.20072412985E+04  0.20072412985E+04  0.50400001928E-02 0.  1.
    10030    2    1    2    0    0  0.00000000000E+00  0.00000000000E+00 -0.14510209634E+04  0.25634616337E+04  0.21132613920E+04 0.  0.
        1    1    3    3  502    0 -0.13832095334E+03 -0.10285942312E+04 -0.96607614483E+03  0.14179005241E+04  0.50400001928E-02 0.  1.
       -1    1    3    3    0  502  0.13832095334E+03  0.10285942312E+04 -0.48494481859E+03  0.11455611096E+04  0.50400001928E-02 0. -1.
</event>
<event>
 5   0  0.4050368E-05  0.1707761E+04  0.7818609E-02  0.8756950E-01
        1   -1    0    0  501    0  0.00000000000E+00  0.00000000000E+00  0.41390258409E+03  0.41390258412E+03  0.50400001928E-02 0.  1.
       -1   -1    0    0    0  501  0.00000000000E+00  0.00000000000E+00 -0.17615546932E+04  0.17615546932E+04  0.50400001928E-02 0. -1.
    10030    2    1    2    0    0  0.00000000000E+00  0.00000000000E+00 -0.13476521091E+04  0.21754572774E+04  0.17077611538E+04 0.  0.
        2    1    3    3  502    0  0.63912051610E+03 -0.29335585504E+03 -0.12908021185E+04  0.14699329240E+04  0.25500000920E-02 0. -1.
       -2    1    3    3    0  502 -0.63912051610E+03  0.29335585504E+03 -0.56849990611E+02  0.70552435338E+03  0.25500000920E-02 0.  1.
</event>
<event>
 5   0  0.4128678E-05  0.2105524E+04  0.7818609E-02  0.8558814E-01
       -1   -1    0    0    0  501  0.00000000000E+00  0.00000000000E+00  0.10530354612E+04  0.10530354612E+04  0.50400001928E-02 0.  1.
        1   -1    0    0  501    0  0.00000000000E+00  0.00000000000E+00 -0.10524882030E+04  0.10524882030E+04  0.50400001928E-02 0. -1.
    10030    2    1    2    0    0  0.00000000000E+00  0.00000000000E+00  0.54725822592E+00  0.21055236642E+04  0.21055235931E+04 0.  0.
        5    1    3    3  502    0  0.58486061943E+03 -0.48339539026E+03  0.73003543875E+03  0.10529515085E+04  0.46999998093E+01 0.  1.
       -5    1    3    3    0  502 -0.58486061943E+03  0.48339539026E+03 -0.72948818052E+03  0.10525721557E+04  0.46999998093E+01 0. -1.
</event>
<event>
 5   0  0.9012466E-05  0.2081015E+04  0.7818609E-02  0.8569653E-01
       -2   -1    0    0    0  501  0.00000000000E+00  0.00000000000E+00  0.12446094669E+04  0.12446094669E+04  0.25500000920E-02 0. -1.
        2   -1    0    0  501    0  0.00000000000E+00  0.00000000000E+00 -0.86987606779E+03  0.86987606779E+03  0.25500000920E-02 0.  1.
    10030    2    1    2    0    0  0.00000000000E+00  0.00000000000E+00  0.37473339914E+03  0.21144855347E+04  0.20810151264E+04 0.  0.
        2    1    3    3  502    0 -0.52438415639E+03  0.15769319632E+03 -0.71162916105E+03  0.89792090437E+03  0.25500000920E-02 0.  1.
       -2    1    3    3    0  502  0.52438415639E+03 -0.15769319632E+03  0.10863625602E+04  0.12165646304E+04  0.25500000920E-02 0. -1.
</event>
<event>
 5   0  0.8547605E-05  0.2118621E+04  0.7818609E-02  0.8553085E-01
       -2   -1    0    0    0  501  0.00000000000E+00  0.00000000000E+00  0.93370299288E+03  0.93370299289E+03  0.25500000920E-02 0.  1.
        2   -1    0    0  501    0  0.00000000000E+00  0.00000000000E+00 -0.12018155758E+04  0.12018155758E+04  0.25500000920E-02 0. -1.
    10030    2    1    2    0    0  0.00000000000E+00  0.00000000000E+00 -0.26811258294E+03  0.21355185687E+04  0.21186210610E+04 0.  0.
        4    1    3    3  502    0 -0.81202274408E+03  0.15109566720E+03 -0.80261577599E+03  0.11516963725E+04  0.12699999809E+01 0. -1.
       -4    1    3    3    0  502  0.81202274408E+03 -0.15109566720E+03  0.53450319305E+03  0.98382219625E+03  0.12699999809E+01 0.  1.
</event>
<event>
 5   0  0.4174093E-05  0.2034476E+04  0.7818609E-02  0.8590670E-01
        1   -1    0    0  501    0  0.00000000000E+00  0.00000000000E+00  0.13299125727E+04  0.13299125727E+04  0.50400001928E-02 0. -1.
       -1   -1    0    0    0  501  0.00000000000E+00  0.00000000000E+00 -0.77807571620E+03  0.77807571622E+03  0.50400001928E-02 0.  1.
    10030    2    1    2    0    0  0.00000000000E+00  0.00000000000E+00  0.55183685653E+03  0.21079882890E+04  0.20344755369E+04 0.  0.
        3    1    3    3  502    0 -0.82130368540E+03 -0.90909071846E+02 -0.33878777857E+03  0.89307411345E+03  0.10100000352E+00 0.  1.
       -3    1    3    3    0  502  0.82130368540E+03  0.90909071846E+02  0.89062463510E+03  0.12149141755E+04  0.10100000352E+00 0. -1.
</event>
<event>
 5   0  0.9012466E-05  0.2108760E+04  0.7818609E-02  0.8557394E-01
       -2   -1    0    0    0  501  0.00000000000E+00  0.00000000000E+00  0.10444566510E+04  0.10444566510E+04  0.25500000920E-02 0.  1.
        2   -1    0    0  501    0  0.00000000000E+00  0.00000000000E+00 -0.10643977923E+04  0.10643977923E+04  0.25500000920E-02 0. -1.
    10030    2    1    2    0    0  0.00000000000E+00  0.00000000000E+00 -0.19941141343E+02  0.21088544433E+04  0.21087601604E+04 0.  0.
        2    1    3    3  502    0  0.41024403769E+03  0.13633143285E+03 -0.97169486791E+03  0.10635212017E+04  0.25500000920E-02 0. -1.
       -2    1    3    3    0  502 -0.41024403769E+03 -0.13633143285E+03  0.95175372657E+03  0.10453332416E+04  0.25500000920E-02 0.  1.
</event>
<event>
 5   0  0.4128678E-05  0.2090862E+04  0.7818609E-02  0.8565279E-01
       -1   -1    0    0    0  501  0.00000000000E+00  0.00000000000E+00  0.13785004426E+04  0.13785004426E+04  0.50400001928E-02 0.  1.
        1   -1    0    0  501    0  0.00000000000E+00  0.00000000000E+00 -0.79283681824E+03  0.79283681825E+03  0.50400001928E-02 0. -1.
    10030    2    1    2    0    0  0.00000000000E+00  0.00000000000E+00  0.58566362437E+03  0.21713372609E+04  0.20908619322E+04 0.  0.
        5    1    3    3  502    0 -0.20248596908E+03 -0.14578428335E+03  0.13471157094E+04  0.13700352000E+04  0.46999998093E+01 0.  1.
       -5    1    3    3    0  502  0.20248596908E+03  0.14578428335E+03 -0.76145208499E+03  0.80130206083E+03  0.46999998093E+01 0. -1.
</event>
<event>
 5   0  0.3176125E-05  0.2107408E+04  0.7818609E-02  0.8557987E-01
       -3   -1    0    0    0  501  0.00000000000E+00  0.00000000000E+00  0.17427595430E+04  0.17427595460E+04  0.10100000352E+00 0. -1.
        3   -1    0    0  501    0  0.00000000000E+00  0.00000000000E+00 -0.63708875614E+03  0.63708876414E+03  0.10100000352E+00 0.  1.
    10030    2    1    2    0    0  0.00000000000E+00  0.00000000000E+00  0.11056707869E+04  0.23798483101E+04  0.21074083824E+04 0.  0.
        5    1    3    3  502    0 -0.99582119943E+03  0.28801040040E+02  0.16527595014E+03  0.10098651350E+04  0.46999998093E+01 0.  1.
       -5    1    3    3    0  502  0.99582119943E+03 -0.28801040040E+02  0.94039483676E+03  0.13699831751E+04  0.46999998093E+01 0. -1.
</event>
<event>
 5   0  0.4200061E-05  0.2108571E+04  0.7818609E-02  0.8557477E-01
       -1   -1    0    0    0  501  0.00000000000E+00  0.00000000000E+00  0.11877725118E+04  0.11877725118E+04  0.50400001928E-02 0.  1.
        1   -1    0    0  501    0  0.00000000000E+00  0.00000000000E+00 -0.93580002649E+03  0.93580002650E+03  0.50400001928E-02 0. -1.
    10030    2    1    2    0    0  0.00000000000E+00  0.00000000000E+00  0.25197248532E+03  0.21235725383E+04  0.21085706514E+04 0.  0.
        4    1    3    3  502    0 -0.87949734412E+03  0.42251060897E+03  0.52818345666E+03  0.11095089769E+04  0.12699999809E+01 0.  1.
       -4    1    3    3    0  502  0.87949734412E+03 -0.42251060897E+03 -0.27621097134E+03  0.10140635614E+04  0.12699999809E+01 0. -1.
</event>
<event>
 5   0  0.4050368E-05  0.2074201E+04  0.7818609E-02  0.8572694E-01
        1   -1    0    0  501    0  0.00000000000E+00  0.00000000000E+00  0.11845089541E+04  0.11845089541E+04  0.50400001928E-02 0.  1.
       -1   -1    0    0    0  501  0.00000000000E+00  0.00000000000E+00 -0.90803690310E+03  0.90803690312E+03  0.50400001928E-02 0. -1.
    10030    2    1    2    0    0  0.00000000000E+00  0.00000000000E+00  0.27647205102E+03  0.20925458572E+04  0.20742013812E+04 0.  0.
        2    1    3    3  502    0 -0.82923356624E+03 -0.21565168103E+03  0.72773592618E+03  0.11241590337E+04  0.25500000920E-02 0.  1.
       -2    1    3    3    0  502  0.82923356624E+03  0.21565168103E+03 -0.45126387516E+03  0.96838682350E+03  0.25500000920E-02 0. -1.
</event>
<event>
 5   0  0.4128678E-05  0.2110310E+04  0.7818609E-02  0.8556715E-01
       -1   -1    0    0    0  501  0.00000000000E+00  0.00000000000E+00  0.72211283328E+03  0.72211283330E+03  0.50400001928E-02 0.  1.
        1   -1    0    0  501    0  0.00000000000E+00  0.00000000000E+00 -0.15417980938E+04  0.15417980938E+04  0.50400001928E-02 0. -1.
    10030    2    1    2    0    0  0.00000000000E+00  0.00000000000E+00 -0.81968526054E+03  0.22639109271E+04  0.21103101098E+04 0.  0.
        5    1    3    3  502    0  0.41021906392E+03  0.89514743909E+02  0.62862161676E+03  0.75596282768E+03  0.46999998093E+01 0.  1.
       -5    1    3    3    0  502 -0.41021906392E+03 -0.89514743909E+02 -0.14483068773E+04  0.15079480994E+04  0.46999998093E+01 0. -1.
</event>
<event>
 5   0  0.4182977E-05  0.2066936E+04  0.7818609E-02  0.8575950E-01
       -1   -1    0    0    0  501  0.00000000000E+00  0.00000000000E+00  0.10085181716E+04  0.10085181716E+04  0.50400001928E-02 0. -1.
        1   -1    0    0  501    0  0.00000000000E+00  0.00000000000E+00 -0.10590352009E+04  0.10590352009E+04  0.50400001928E-02 0.  1.
    10030    2    1    2    0    0  0.00000000000E+00  0.00000000000E+00 -0.50517029341E+02  0.20675533725E+04  0.20669361330E+04 0.  0.
        1    1    3    3  502    0  0.59659879041E+02 -0.96590570410E+03  0.33751094120E+03  0.10249130528E+04  0.50400001928E-02 0. -1.
       -1    1    3    3    0  502 -0.59659879041E+02  0.96590570410E+03 -0.38802797054E+03  0.10426403197E+04  0.50400001928E-02 0.  1.
</event>
<event>
 5   0  0.8872777E-05  0.2076063E+04  0.7818609E-02  0.8571862E-01
        2   -1    0    0  501    0  0.00000000000E+00  0.00000000000E+00  0.12100214851E+04  0.12100214851E+04  0.25500000920E-02 0. -1.
       -2   -1    0    0    0  501  0.00000000000E+00  0.00000000000E+00 -0.89048747798E+03  0.89048747799E+03  0.25500000920E-02 0.  1.
    10030    2    1    2    0    0  0.00000000000E+00  0.00000000000E+00  0.31953400714E+03  0.21005089631E+04  0.20760626008E+04 0.  0.
        3    1    3    3  502    0 -0.28110765926E+03  0.49988942706E+03  0.10351708081E+04  0.11834228186E+04  0.10100000352E+00 0. -1.
       -3    1    3    3    0  502  0.28110765926E+03 -0.49988942706E+03 -0.71563680097E+03  0.91708614453E+03  0.10100000352E+00 0.  1.
</event>
<event>
 5   0  0.8872777E-05  0.2152875E+04  0.7818609E-02  0.8538303E-01
       -2   -1    0    0    0  501  0.00000000000E+00  0.00000000000E+00  0.73485497785E+03  0.73485497786E+03  0.25500000920E-02 0.  1.
        2   -1    0    0  501    0  0.00000000000E+00  0.00000000000E+00 -0.15767975697E+04  0.15767975697E+04  0.25500000920E-02 0. -1.
    10030    2    1    2    0    0  0.00000000000E+00  0.00000000000E+00 -0.84194259182E+03  0.23116525475E+04  0.21528748623E+04 0.  0.
        3    1    3    3  502    0 -0.59648512000E+02  0.90936675339E+03 -0.10361209694E+04  0.13798740923E+04  0.10100000352E+00 0. -1.
       -3    1    3    3    0  502  0.59648512000E+02 -0.90936675339E+03  0.19417837757E+03  0.93177845525E+03  0.10100000352E+00 0.  1.
</event>
<event>
 5   0  0.4128678E-05  0.2099007E+04  0.7818609E-02  0.8561681E-01
       -1   -1    0    0    0  501  0.00000000000E+00  0.00000000000E+00  0.17090819087E+04  0.17090819087E+04  0.50400001928E-02 0.  1.
        1   -1    0    0  501    0  0.00000000000E+00  0.00000000000E+00 -0.64447319857E+03  0.64447319859E+03  0.50400001928E-02 0. -1.
    10030    2    1    2    0    0  0.00000000000E+00  0.00000000000E+00  0.10646087102E+04  0.23535551073E+04  0.20990068931E+04 0.  0.
        5    1    3    3  502    0  0.64306060585E+03 -0.62909464449E+03  0.11383596471E+04  0.14509210147E+04  0.46999998093E+01 0.  1.
       -5    1    3    3    0  502 -0.64306060585E+03  0.62909464449E+03 -0.73750936990E+02  0.90263409266E+03  0.46999998093E+01 0. -1.
</event>
<event>
 5   0  0.4174093E-05  0.2095688E+04  0.7818609E-02  0.8563145E-01
        1   -1    0    0  501    0  0.00000000000E+00  0.00000000000E+00  0.10606263765E+04  0.10606263766E+04  0.50400001928E-02 0.  1.
       -1   -1    0    0    0  501  0.00000000000E+00  0.00000000000E+00 -0.10352151881E+04  0.10352151881E+04  0.50400001928E-02 0. -1.
    10030    2    1    2    0    0  0.00000000000E+00  0.00000000000E+00  0.25411188465E+02  0.20958415647E+04  0.20956875091E+04 0.  0.
        3    1    3    3  502    0  0.92114858984E+03  0.34180413554E+03 -0.35150757482E+03  0.10435048524E+04  0.10100000352E+00 0. -1.
       -3    1    3    3    0  502 -0.92114858984E+03 -0.34180413554E+03  0.37691876329E+03  0.10523367123E+04  0.10100000352E+00 0.  1.
</event>
<event>
 5   0  0.4174093E-05  0.2109838E+04  0.7818609E-02  0.8556922E-01
        1   -1    0    0  501    0  0.00000000000E+00  0.00000000000E+00  0.12232322419E+04  0.12232322419E+04  0.50400001928E-02 0. -1.
       -1   -1    0    0    0  501  0.00000000000E+00  0.00000000000E+00 -0.90976496562E+03  0.90976496563E+03  0.50400001928E-02 0.  1.
    10030    2    1    2    0    0  0.00000000000E+00  0.00000000000E+00  0.31346727628E+03  0.21329972075E+04  0.21098377554E+04 0.  0.
        3    1    3    3  502    0  0.10856389409E+03  0.89935905593E+03  0.70324215794E+03  0.11468140100E+04  0.10100000352E+00 0.  1.
       -3    1    3    3    0  502 -0.10856389409E+03 -0.89935905593E+03 -0.38977488166E+03  0.98618319756E+03  0.10100000352E+00 0. -1.
</event>
<event>
 5   0  0.9012466E-05  0.2084785E+04  0.7818609E-02  0.8567975E-01
       -2   -1    0    0    0  501  0.00000000000E+00  0.00000000000E+00  0.49958868911E+03  0.49958868911E+03  0.25500000920E-02 0. -1.
        2   -1    0    0  501    0  0.00000000000E+00  0.00000000000E+00 -0.21749538434E+04  0.21749538434E+04  0.25500000920E-02 0.  1.
    10030    2    1    2    0    0  0.00000000000E+00  0.00000000000E+00 -0.16753651543E+04  0.26745425325E+04  0.20847852067E+04 0.  0.
        2    1    3    3  502    0 -0.51942653231E+03  0.82147035028E+03 -0.13210514197E+04  0.16400592405E+04  0.25500000920E-02 0.  1.
       -2    1    3    3    0  502  0.51942653231E+03 -0.82147035028E+03 -0.35431373453E+03  0.10344832920E+04  0.25500000920E-02 0. -1.
</event>
<event>
 5   0  0.9012466E-05  0.2094678E+04  0.7818609E-02  0.8563591E-01
        2   -1    0    0  501    0  0.00000000000E+00  0.00000000000E+00  0.14127462491E+04  0.14127462491E+04  0.25500000920E-02 0.  1.
       -2   -1    0    0    0  501  0.00000000000E+00  0.00000000000E+00 -0.77644457051E+03  0.77644457052E+03  0.25500000920E-02 0. -1.
    10030    2    1    2    0    0  0.00000000000E+00  0.00000000000E+00  0.63630167854E+03  0.21891908196E+04  0.20946781658E+04 0.  0.
        2    1    3    3  502    0  0.10663031700E+02 -0.42291011568E+03  0.13194789631E+04  0.13856375429E+04  0.25500000920E-02 0.  1.
       -2    1    3    3    0  502 -0.10663031700E+02  0.42291011568E+03 -0.68317728461E+03  0.80355327664E+03  0.25500000920E-02 0. -1.
</event>
<event>
 5   0  0.4200061E-05  0.2111404E+04  0.7818609E-02  0.8556236E-01
       -1   -1    0    0    0  501  0.00000000000E+00  0.00000000000E+00  0.12238122302E+04  0.12238122302E+04  0.50400001928E-02 0.  1.
        1   -1    0    0  501    0  0.00000000000E+00  0.00000000000E+00 -0.91068456990E+03  0.91068456991E+03  0.50400001928E-02 0. -1.
    10030    2    1    2    0    0  0.00000000000E+00  0.00000000000E+00  0.31312766033E+03  0.21344968001E+04  0.21114041911E+04 0.  0.
        4    1    3    3  502    0  0.84737847666E+03 -0.19822936655E+03  0.76072890929E+03  0.11558785623E+04  0.12699999809E+01 0. -1.
       -4    1    3    3    0  502 -0.84737847666E+03  0.19822936655E+03 -0.44760124896E+03  0.97861823784E+03  0.12699999809E+01 0.  1.
</event>
<event>
 5   0  0.8858590E-05  0.2109515E+04  0.7818609E-02  0.8557063E-01
       -2   -1    0    0    0  501  0.00000000000E+00  0.00000000000E+00  0.14198982547E+04  0.14198982547E+04  0.25500000920E-02 0. -1.
        2   -1    0    0  501    0  0.00000000000E+00  0.00000000000E+00 -0.78351644155E+03  0.78351644155E+03  0.25500000920E-02 0.  1.
    10030    2    1    2    0    0  0.00000000000E+00  0.00000000000E+00  0.63638181314E+03  0.22034146963E+04  0.21095152314E+04 0.  0.
        1    1    3    3  502    0 -0.33474368843E+03  0.87587144657E+03  0.82271253376E+03  0.12474213567E+04  0.50400001928E-02 0. -1.
       -1    1    3    3    0  502  0.33474368843E+03 -0.87587144657E+03 -0.18633072061E+03  0.95599333958E+03  0.50400001928E-02 0.  1.
</event>
<event>
 5   0  0.3176125E-05  0.2031676E+04  0.7818609E-02  0.8591953E-01
        3   -1    0    0  501    0  0.00000000000E+00  0.00000000000E+00  0.11994380981E+04  0.11994381023E+04  0.10100000352E+00 0.  1.
       -3   -1    0    0    0  501  0.00000000000E+00  0.00000000000E+00 -0.86034177110E+03  0.86034177703E+03  0.10100000352E+00 0. -1.
    10030    2    1    2    0    0  0.00000000000E+00  0.00000000000E+00  0.33909632698E+03  0.20597798794E+04  0.20316758680E+04 0.  0.
        3    1    3    3  502    0 -0.12880960535E+03  0.32517285168E+03  0.11364691679E+04  0.11890716874E+04  0.10100000352E+00 0.  1.
       -3    1    3    3    0  502  0.12880960535E+03 -0.32517285168E+03 -0.79737284094E+03  0.87070819198E+03  0.10100000352E+00 0. -1.
</event>
<event>
 5   0  0.9086985E-05  0.2076255E+04  0.7818609E-02  0.8571776E-01
       -2   -1    0    0    0  501  0.00000000000E+00  0.00000000000E+00  0.81796505210E+03  0.81796505210E+03  0.25500000920E-02 0.  1.
        2   -1    0    0  501    0  0.00000000000E+00  0.00000000000E+00 -0.13175492231E+04  0.13175492231E+04  0.25500000920E-02 0. -1.
    10030    2    1    2    0    0  0.00000000000E+00  0.00000000000E+00 -0.49958417097E+03  0.21355142752E+04  0.20762554938E+04 0.  0.
        5    1    3    3  502    0  0.36490445905E+03 -0.54407243872E+02  0.74824892325E+03  0.83427450732E+03  0.46999998093E+01 0.  1.
       -5    1    3    3    0  502 -0.36490445905E+03  0.54407243872E+02 -0.12478330942E+04  0.13012397679E+04  0.46999998093E+01 0. -1.
</event>
<event>
 5   0  0.9086985E-05  0.2177891E+04  0.7818609E-02  0.8527687E-01
       -2   -1    0    0    0  501  0.00000000000E+00  0.00000000000E+00  0.70690252188E+03  0.70690252188E+03  0.25500000920E-02 0. -1.
        2   -1    0    0  501    0  0.00000000000E+00  0.00000000000E+00 -0.16774615190E+04  0.16774615190E+04  0.25500000920E-02 0.  1.
    10030    2    1    2    0    0  0.00000000000E+00  0.00000000000E+00 -0.97055899713E+03  0.23843640409E+04  0.21778905190E+04 0.  0.
        5    1    3    3  502    0  0.24136429717E+03 -0.87119586745E+03 -0.11499084602E+04  0.14627202467E+04  0.46999998093E+01 0.  1.
       -5    1    3    3    0  502 -0.24136429717E+03  0.87119586745E+03  0.17934946306E+03  0.92164379415E+03  0.46999998093E+01 0. -1.
</event>
<event>
 5   0  0.9012466E-05  0.2103963E+04  0.7818609E-02  0.8559500E-01
       -2   -1    0    0    0  501  0.00000000000E+00  0.00000000000E+00  0.13990259830E+04  0.13990259830E+04  0.25500000920E-02 0.  1.
        2   -1    0    0  501    0  0.00000000000E+00  0.00000000000E+00 -0.79102537924E+03  0.79102537924E+03  0.25500000920E-02 0. -1.
    10030    2    1    2    0    0  0.00000000000E+00  0.00000000000E+00  0.60800060372E+03  0.21900513622E+04  0.21039629833E+04 0.  0.
        2    1    3    3  502    0  0.86927193543E+03 -0.44428365645E+03 -0.10401190004E+03  0.98175360476E+03  0.25500000920E-02 0. -1.
       -2    1    3    3    0  502 -0.86927193543E+03  0.44428365645E+03  0.71201250375E+03  0.12082977574E+04  0.25500000920E-02 0.  1.
</event>
<event>
 5   0  0.4128678E-05  0.2093608E+04  0.7818609E-02  0.8564065E-01
        1   -1    0    0  501    0  0.00000000000E+00  0.00000000000E+00  0.13253872689E+04  0.13253872689E+04  0.50400001928E-02 0.  1.
       -1   -1    0    0    0  501  0.00000000000E+00  0.00000000000E+00 -0.82677582245E+03  0.82677582247E+03  0.50400001928E-02 0. -1.
    10030    2    1    2    0    0  0.00000000000E+00  0.00000000000E+00  0.49861144643E+03  0.21521630914E+04  0.20936075557E+04 0.  0.
        5    1    3    3  502    0  0.94916255512E+03  0.48593790454E+02 -0.20171975414E+03  0.97158831906E+03  0.46999998093E+01 0. -1.
       -5    1    3    3    0  502 -0.94916255512E+03 -0.48593790454E+02  0.70033120057E+03  0.11805747723E+04  0.46999998093E+01 0.  1.
</event>
<event>
 5   0  0.8872777E-05  0.2097395E+04  0.7818609E-02  0.8562392E-01
       -2   -1    0    0    0  501  0.00000000000E+00  0.00000000000E+00  0.91303659590E+03  0.91303659590E+03  0.25500000920E-02 0. -1.
        2   -1    0    0  501    0  0.00000000000E+00  0.00000000000E+00 -0.12045152247E+04  0.12045152247E+04  0.25500000920E-02 0.  1.
    10030    2    1    2    0    0  0.00000000000E+00  0.00000000000E+00 -0.29147862878E+03  0.21175518206E+04  0.20973950324E+04 0.  0.
        3    1    3    3  502    0  0.29736579432E+03  0.52829711484E+03  0.71819593316E+03  0.93985619420E+03  0.10100000352E+00 0. -1.
       -3    1    3    3    0  502 -0.29736579432E+03 -0.52829711484E+03 -0.10096745619E+04  0.11776956264E+04  0.10100000352E+00 0.  1.
</event>
<event>
 5   0  0.4174093E-05  0.2094135E+04  0.7818609E-02  0.8563832E-01
       -1   -1    0    0    0  501  0.00000000000E+00  0.00000000000E+00  0.84456793751E+03  0.84456793753E+03  0.50400001928E-02 0. -1.
        1   -1    0    0  501    0  0.00000000000E+00  0.00000000000E+00 -0.12981192042E+04  0.12981192042E+04  0.50400001928E-02 0.  1.
    10030    2    1    2    0    0  0.00000000000E+00  0.00000000000E+00 -0.45355126667E+03  0.21426871417E+04  0.20941345314E+04 0.  0.
        3    1    3    3  502    0  0.44223359252E+03  0.90077308694E+03 -0.53268425447E+03  0.11360964878E+04  0.10100000352E+00 0.  1.
       -3    1    3    3    0  502 -0.44223359252E+03 -0.90077308694E+03  0.79132987804E+02  0.10065906539E+04  0.10100000352E+00 0. -1.
</event>
<event>
 5   0  0.8547605E-05  0.2078040E+04  0.7818609E-02  0.8570979E-01
       -2   -1    0    0    0  501  0.00000000000E+00  0.00000000000E+00  0.13934532541E+04  0.13934532541E+04  0.25500000920E-02 0. -1.
        2   -1    0    0  501    0  0.00000000000E+00  0.00000000000E+00 -0.77473932849E+03  0.77473932849E+03  0.25500000920E-02 0.  1.
    10030    2    1    2    0    0  0.00000000000E+00  0.00000000000E+00  0.61871392559E+03  0.21681925826E+04  0.20780404600E+04 0.  0.
        4    1    3    3  502    0 -0.39506376956E+02  0.68855666223E+03  0.11201740942E+04  0.13154705033E+04  0.12699999809E+01 0. -1.
       -4    1    3    3    0  502  0.39506376956E+02 -0.68855666223E+03 -0.50146016857E+03  0.85272207928E+03  0.12699999809E+01 0.  1.
</event>
<event>
 5   0  0.4050368E-05  0.2064790E+04  0.7818609E-02  0.8576914E-01
        1   -1    0    0  501    0  0.00000000000E+00  0.00000000000E+00  0.13650123106E+04  0.13650123106E+04  0.50400001928E-02 0.  1.
       -1   -1    0    0    0  501  0.00000000000E+00  0.00000000000E+00 -0.78082753192E+03  0.78082753193E+03  0.50400001928E-02 0. -1.
    10030    2    1    2    0    0  0.00000000000E+00  0.00000000000E+00  0.58418477869E+03  0.21458398425E+04  0.20647897651E+04 0.  0.
        2    1    3    3  502    0  0.82807172103E+03 -0.39991034948E+03  0.77977597800E+03  0.12056872060E+04  0.25500000920E-02 0.  1.
       -2    1    3    3    0  502 -0.82807172103E+03  0.39991034948E+03 -0.19559119931E+03  0.94015263657E+03  0.25500000920E-02 0. -1.
</event>
<event>
 5   0  0.4182977E-05  0.2092182E+04  0.7818609E-02  0.8564695E-01
       -1   -1    0    0    0  501  0.00000000000E+00  0.00000000000E+00  0.77390007189E+03  0.77390007191E+03  0.50400001928E-02 0.  1.
        1   -1    0    0  501    0  0.00000000000E+00  0.00000000000E+00 -0.14140156628E+04  0.14140156628E+04  0.50400001928E-02 0. -1.
    10030    2    1    2    0    0  0.00000000000E+00  0.00000000000E+00 -0.64011559087E+03  0.21879157347E+04  0.20921824233E+04 0.  0.
        1    1    3    3  502    0  0.97818271332E+03  0.37074714873E+03 -0.32367347534E+03  0.10950157020E+04  0.50400001928E-02 0.  1.
       -1    1    3    3    0  502 -0.97818271332E+03 -0.37074714873E+03 -0.31644211553E+03  0.10929000327E+04  0.50400001928E-02 0. -1.
</event>
<event>
 5   0  0.9086985E-05  0.2103337E+04  0.7818609E-02  0.8559775E-01
       -2   -1    0    0    0  501  0.00000000000E+00  0.00000000000E+00  0.57807113850E+03  0.57807113850E+03  0.25500000920E-02 0.  1.
        2   -1    0    0  501    0  0.00000000000E+00  0.00000000000E+00 -0.19132710248E+04  0.19132710248E+04  0.25500000920E-02 0. -1.
    10030    2    1    2    0    0  0.00000000000E+00  0.00000000000E+00 -0.13351998863E+04  0.24913421633E+04  0.21033371195E+04 0.  0.
        5    1    3    3  502    0 -0.33686249653E+02 -0.34301175743E+02  0.57675640259E+03  0.57877575277E+03  0.46999998093E+01 0.  1.
       -5    1    3    3    0  502  0.33686249653E+02  0.34301175743E+02 -0.19119562889E+04  0.19125664106E+04  0.46999998093E+01 0. -1.
</event>
<event>
 5   0  0.4128678E-05  0.2055018E+04  0.7818609E-02  0.8581321E-01
       -1   -1    0    0    0  501  0.00000000000E+00  0.00000000000E+00  0.42111897545E+03  0.42111897548E+03  0.50400001928E-02 0.  1.
        1   -1    0    0  501    0  0.00000000000E+00  0.00000000000E+00 -0.25070700776E+04  0.25070700776E+04  0.50400001928E-02 0. -1.
    10030    2    1    2    0    0  0.00000000000E+00  0.00000000000E+00 -0.20859511021E+04  0.29281890531E+04  0.20550180364E+04 0.  0.
        5    1    3    3  502    0  0.39422548849E+03  0.92400465966E+03 -0.73553327392E+03  0.12450821796E+04  0.46999998093E+01 0. -1.
       -5    1    3    3    0  502 -0.39422548849E+03 -0.92400465966E+03 -0.13504178282E+04  0.16831068735E+04  0.46999998093E+01 0.  1.
</event>
<event>
 5   0  0.8872777E-05  0.2081860E+04  0.7818609E-02  0.8569277E-01
        2   -1    0    0  501    0  0.00000000000E+00  0.00000000000E+00  0.11079444685E+04  0.11079444685E+04  0.25500000920E-02 0.  1.
       -2   -1    0    0    0  501  0.00000000000E+00  0.00000000000E+00 -0.97796885107E+03  0.97796885107E+03  0.25500000920E-02 0. -1.
    10030    2    1    2    0    0  0.00000000000E+00  0.00000000000E+00  0.12997561746E+03  0.20859133196E+04  0.20818599174E+04 0.  0.
        3    1    3    3  502    0  0.63336513802E+03  0.63078590835E+03  0.59940506901E+03  0.10762568035E+04  0.10100000352E+00 0.  1.
       -3    1    3    3    0  502 -0.63336513802E+03 -0.63078590835E+03 -0.46942945155E+03  0.10096565161E+04  0.10100000352E+00 0. -1.
</event>
<event>
 5   0  0.8858590E-05  0.2098104E+04  0.7818609E-02  0.8562079E-01
       -2   -1    0    0    0  501  0.00000000000E+00  0.00000000000E+00  0.68719200487E+03  0.68719200488E+03  0.25500000920E-02 0.  1.
        2   -1    0    0  501    0  0.00000000000E+00  0.00000000000E+00 -0.16014598554E+04  0.16014598554E+04  0.25500000920E-02 0. -1.
    10030    2    1    2    0    0  0.00000000000E+00  0.00000000000E+00 -0.91426785053E+03  0.22886518603E+04  0.20981042956E+04 0.  0.
        1    1    3    3  502    0 -0.73071800685E+03 -0.38439835286E+03 -0.11630543439E+04  0.14263261570E+04  0.50400001928E-02 0. -1.
       -1    1    3    3    0  502  0.73071800685E+03  0.38439835286E+03  0.24878649339E+03  0.86232570328E+03  0.50400001928E-02 0.  1.
</event>
<event>
 5   0  0.4050368E-05  0.1925849E+04  0.7818609E-02  0.8642095E-01
       -1   -1    0    0    0  501  0.00000000000E+00  0.00000000000E+00  0.10918675335E+04  0.10918675335E+04  0.50400001928E-02 0.  1.
        1   -1    0    0  501    0  0.00000000000E+00  0.00000000000E+00 -0.84920908432E+03  0.84920908434E+03  0.50400001928E-02 0. -1.
    10030    2    1    2    0    0  0.00000000000E+00  0.00000000000E+00  0.24265844920E+03  0.19410766179E+04  0.19258492447E+04 0.  0.
        2    1    3    3  502    0  0.79154967558E+03 -0.25466919200E+02  0.67340496140E+03  0.10395545656E+04  0.25500000920E-02 0.  1.
       -2    1    3    3    0  502 -0.79154967558E+03  0.25466919200E+02 -0.43074651221E+03  0.90152205224E+03  0.25500000920E-02 0. -1.
</event>
<event>
 5   0  0.4050368E-05  0.2097932E+04  0.7818609E-02  0.8562155E-01
        1   -1    0    0  501    0  0.00000000000E+00  0.00000000000E+00  0.15248785857E+04  0.15248785857E+04  0.50400001928E-02 0. -1.
       -1   -1    0    0    0  501  0.00000000000E+00  0.00000000000E+00 -0.72158527995E+03  0.72158527997E+03  0.50400001928E-02 0.  1.
    10030    2    1    2    0    0  0.00000000000E+00  0.00000000000E+00  0.80329330573E+03  0.22464638657E+04  0.20979322593E+04 0.  0.
        2    1    3    3  502    0  0.37106961241E+03 -0.83562976691E+03  0.95220834865E+03  0.13201024596E+04  0.25500000920E-02 0. -1.
       -2    1    3    3    0  502 -0.37106961241E+03  0.83562976691E+03 -0.14891504292E+03  0.92636140605E+03  0.25500000920E-02 0.  1.
</event>
<event>
 5   0  0.8872777E-05  0.2109574E+04  0.7818609E-02  0.8557038E-01
        2   -1    0    0  501    0  0.00000000000E+00  0.00000000000E+00  0.22853054466E+04  0.22853054466E+04  0.25500000920E-02 0. -1.
       -2   -1    0    0    0  501  0.00000000000E+00  0.00000000000E+00 -0.48683886609E+03  0.48683886610E+03  0.25500000920E-02 0.  1.
    10030    2    1    2    0    0  0.00000000000E+00  0.00000000000E+00  0.17984665805E+04  0.27721443127E+04  0.21095739023E+04 0.  0.
        3    1    3    3  502    0 -0.59617362768E+03 -0.75377372966E+03  0.14704834553E+04  0.17566785228E+04  0.10100000352E+00 0. -1.
       -3    1    3    3    0  502  0.59617362768E+03  0.75377372966E+03  0.32798312518E+03  0.10154657899E+04  0.10100000352E+00 0.  1.
</event>
<event>
 5   0  0.8872777E-05  0.2057710E+04  0.7818609E-02  0.8580105E-01
       -2   -1    0    0    0  501  0.00000000000E+00  0.00000000000E+00  0.39053504578E+03  0.39053504579E+03  0.25500000920E-02 0.  1.
        2   -1    0    0  501    0  0.00000000000E+00  0.00000000000E+00 -0.27104923037E+04  0.27104923037E+04  0.25500000920E-02 0. -1.
    10030    2    1    2    0    0  0.00000000000E+00  0.00000000000E+00 -0.23199572579E+04  0.31010273495E+04  0.20577096354E+04 0.  0.
        3    1    3    3  502    0 -0.17280250117E+03 -0.80196649312E+03 -0.20957102529E+04  0.22505582496E+04  0.10100000352E+00 0. -1.
       -3    1    3    3    0  502  0.17280250117E+03  0.80196649312E+03 -0.22424700508E+03  0.85046909996E+03  0.10100000352E+00 0.  1.
</event>
<event>
 5   0  0.4200061E-05  0.2098149E+04  0.7818609E-02  0.8562059E-01
        1   -1    0    0  501    0  0.00000000000E+00  0.00000000000E+00  0.11749717117E+04  0.11749717117E+04  0.50400001928E-02 0. -1.
       -1   -1    0    0    0  501  0.00000000000E+00  0.00000000000E+00 -0.93666746659E+03  0.93666746661E+03  0.50400001928E-02 0.  1.
    10030    2    1    2    0    0  0.00000000000E+00  0.00000000000E+00  0.23830424506E+03  0.21116391783E+04  0.20981494480E+04 0.  0.
        4    1    3    3  502    0  0.10509903220E+03  0.21654204402E+03 -0.90850041027E+03  0.93984619580E+03  0.12699999809E+01 0.  1.
       -4    1    3    3    0  502 -0.10509903220E+03 -0.21654204402E+03  0.11468046553E+04  0.11717929825E+04  0.12699999809E+01 0. -1.
</event>
<event>
 5   0  0.4200061E-05  0.2055152E+04  0.7818609E-02  0.8581261E-01
        1   -1    0    0  501    0  0.00000000000E+00  0.00000000000E+00  0.10202306503E+04  0.10202306503E+04  0.50400001928E-02 0. -1.
       -1   -1    0    0    0  501  0.00000000000E+00  0.00000000000E+00 -0.10349746031E+04  0.10349746032E+04  0.50400001928E-02 0.  1.
    10030    2    1    2    0    0  0.00000000000E+00  0.00000000000E+00 -0.14743952840E+02  0.20552052535E+04  0.20551523666E+04 0.  0.
        4    1    3    3  502    0 -0.74565535217E+03 -0.19253106003E+03  0.67296978174E+03  0.10227218846E+04  0.12699999809E+01 0. -1.
       -4    1    3    3    0  502  0.74565535217E+03  0.19253106003E+03 -0.68771373458E+03  0.10324833688E+04  0.12699999809E+01 0.  1.
</event>
<event>
 5   0  0.4182977E-05  0.2075900E+04  0.7818609E-02  0.8571934E-01
        1   -1    0    0  501    0  0.00000000000E+00  0.00000000000E+00  0.16352048616E+04  0.16352048616E+04  0.50400001928E-02 0. -1.
       -1   -1    0    0    0  501  0.00000000000E+00  0.00000000000E+00 -0.65884136664E+03  0.65884136666E+03  0.50400001928E-02 0.  1.
    10030    2    1    2    0    0  0.00000000000E+00  0.00000000000E+00  0.97636349494E+03  0.22940462283E+04  0.20759003885E+04 0.  0.
        1    1    3    3  502    0 -0.43433763567E+02 -0.72176333416E+03 -0.33472581337E+03  0.79678740735E+03  0.50400001928E-02 0.  1.
       -1    1    3    3    0  502  0.43433763567E+02  0.72176333416E+03  0.13110893083E+04  0.14972588209E+04  0.50400001928E-02 0. -1.
</event>
<event>
 5   0  0.4182977E-05  0.2091265E+04  0.7818609E-02  0.8565101E-01
       -1   -1    0    0    0  501  0.00000000000E+00  0.00000000000E+00  0.56814802842E+03  0.56814802845E+03  0.50400001928E-02 0.  1.
        1   -1    0    0  501    0  0.00000000000E+00  0.00000000000E+00 -0.19244051896E+04  0.19244051896E+04  0.50400001928E-02 0. -1.
    10030    2    1    2    0    0  0.00000000000E+00  0.00000000000E+00 -0.13562571612E+04  0.24925532181E+04  0.20912647029E+04 0.  0.
        1    1    3    3  502    0  0.91009721809E+03 -0.40557309715E+03 -0.30012806340E+03  0.10405975870E+04  0.50400001928E-02 0.  1.
       -1    1    3    3    0  502 -0.91009721809E+03  0.40557309715E+03 -0.10561290978E+04  0.14519556311E+04  0.50400001928E-02 0. -1.
</event>
<event>
 5   0  0.4050368E-05  0.2081654E+04  0.7818609E-02  0.8569368E-01
        1   -1    0    0  501    0  0.00000000000E+00  0.00000000000E+00  0.92839901490E+03  0.92839901492E+03  0.50400001928E-02 0. -1.
       -1   -1    0    0    0  501  0.00000000000E+00  0.00000000000E+00 -0.11668695926E+04  0.11668695926E+04  0.50400001928E-02 0.  1.
    10030    2    1    2    0    0  0.00000000000E+00  0.00000000000E+00 -0.23847057771E+03  0.20952686075E+04  0.20816537467E+04 0.  0.
        2    1    3    3  502    0  0.63615756563E+03  0.82050124149E+03 -0.45257344044E+02  0.10392145894E+04  0.25500000920E-02 0.  1.
       -2    1    3    3    0  502 -0.63615756563E+03 -0.82050124149E+03 -0.19321323367E+03  0.10560540182E+04  0.25500000920E-02 0. -1.
</event>
<event>
 5   0  0.4128678E-05  0.2079057E+04  0.7818609E-02  0.8570525E-01
       -1   -1    0    0    0  501  0.00000000000E+00  0.00000000000E+00  0.66363187544E+03  0.66363187546E+03  0.50400001928E-02 0. -1.
        1   -1    0    0  501    0  0.00000000000E+00  0.00000000000E+00 -0.16283423784E+04  0.16283423784E+04  0.50400001928E-02 0.  1.
    10030    2    1    2    0    0  0.00000000000E+00  0.00000000000E+00 -0.96471050297E+03  0.22919742539E+04  0.20790573888E+04 0.  0.
        5    1    3    3  502    0 -0.12456608274E+03  0.96316749847E+03 -0.89097560308E+03  0.13179787382E+04  0.46999998093E+01 0.  1.
       -5    1    3    3    0  502  0.12456608274E+03 -0.96316749847E+03 -0.73734899885E+02  0.97399551567E+03  0.46999998093E+01 0. -1.
</event>
<event>
 5   0  0.4050368E-05  0.2066940E+04  0.7818609E-02  0.8575948E-01
        1   -1    0    0  501    0  0.00000000000E+00  0.00000000000E+00  0.12643650579E+04  0.12643650580E+04  0.50400001928E-02 0. -1.
       -1   -1    0    0    0  501  0.00000000000E+00  0.00000000000E+00 -0.84474044976E+03  0.84474044978E+03  0.50400001928E-02 0.  1.
    10030    2    1    2    0    0  0.00000000000E+00  0.00000000000E+00  0.41962460818E+03  0.21091055077E+04  0.20669400647E+04 0.  0.
        2    1    3    3  502    0  0.77398710926E+03 -0.30806401553E+03  0.83392749748E+03  0.11787258180E+04  0.25500000920E-02 0. -1.
       -2    1    3    3    0  502 -0.77398710926E+03  0.30806401553E+03 -0.41430288930E+03  0.93037968972E+03  0.25500000920E-02 0.  1.
</event>
<event>
 5   0  0.8858590E-05  0.2095743E+04  0.7818609E-02  0.8563121E-01
        2   -1    0    0  501    0  0.00000000000E+00  0.00000000000E+00  0.18512715316E+04  0.18512715316E+04  0.25500000920E-02 0. -1.
       -2   -1    0    0    0  501  0.00000000000E+00  0.00000000000E+00 -0.59312462200E+03  0.59312462201E+03  0.25500000920E-02 0.  1.
    10030    2    1    2    0    0  0.00000000000E+00  0.00000000000E+00  0.12581469096E+04  0.24443961536E+04  0.20957430447E+04 0.  0.
        1    1    3    3  502    0  0.18281859408E+03  0.42473925545E+03  0.17258317774E+04  0.17867068583E+04  0.50400001928E-02 0. -1.
       -1    1    3    3    0  502 -0.18281859408E+03 -0.42473925545E+03 -0.46768486787E+03  0.65768929528E+03  0.50400001928E-02 0.  1.
</event>
<event>
 5   0  0.8858590E-05  0.2082766E+04  0.7818609E-02  0.8568874E-01
       -2   -1    0    0    0  501  0.00000000000E+00  0.00000000000E+00  0.56460473090E+03  0.56460473091E+03  0.25500000920E-02 0. -1.
        2   -1    0    0  501    0  0.00000000000E+00  0.00000000000E+00 -0.19207739085E+04  0.19207739085E+04  0.25500000920E-02 0.  1.
    10030    2    1    2    0    0  0.00000000000E+00  0.00000000000E+00 -0.13561691776E+04  0.24853786394E+04  0.20827655036E+04 0.  0.
        1    1    3    3  502    0  0.68137191908E+03 -0.90018864579E+02 -0.16116953308E+04  0.17521224065E+04  0.50400001928E-02 0.  1.
       -1    1    3    3    0  502 -0.68137191908E+03  0.90018864579E+02  0.25552615320E+03  0.73325623290E+03  0.50400001928E-02 0. -1.
</event>
<event>
 5   0  0.9012466E-05  0.2091373E+04  0.7818609E-02  0.8565053E-01
        2   -1    0    0  501    0  0.00000000000E+00  0.00000000000E+00  0.14795175393E+04  0.14795175393E+04  0.25500000920E-02 0.  1.
       -2   -1    0    0    0  501  0.00000000000E+00  0.00000000000E+00 -0.73906541885E+03  0.73906541886E+03  0.25500000920E-02 0. -1.
    10030    2    1    2    0    0  0.00000000000E+00  0.00000000000E+00  0.74045212044E+03  0.22185829582E+04  0.20913729939E+04 0.  0.
        2    1    3    3  502    0 -0.53857278011E+03 -0.62027687133E+03  0.10566192210E+04  0.13383752145E+04  0.25500000920E-02 0.  1.
       -2    1    3    3    0  502  0.53857278011E+03  0.62027687133E+03 -0.31616710052E+03  0.88020774369E+03  0.25500000920E-02 0. -1.
</event>
<event>
 5   0  0.4200061E-05  0.2106350E+04  0.7818609E-02  0.8558451E-01
       -1   -1    0    0    0  501  0.00000000000E+00  0.00000000000E+00  0.15112151814E+04  0.15112151814E+04  0.50400001928E-02 0. -1.
        1   -1    0    0  501    0  0.00000000000E+00  0.00000000000E+00 -0.73396371312E+03  0.73396371314E+03  0.50400001928E-02 0.  1.
    10030    2    1    2    0    0  0.00000000000E+00  0.00000000000E+00  0.77725146832E+03  0.22451788946E+04  0.21063495493E+04 0.  0.
        4    1    3    3  502    0  0.24685419868E+03  0.93651091424E+03  0.82964177065E+03  0.12752634114E+04  0.12699999809E+01 0. -1.
       -4    1    3    3    0  502 -0.24685419868E+03 -0.93651091424E+03 -0.52390302337E+02  0.96991548321E+03  0.12699999809E+01 0.  1.
</event>
<event>
 5   0  0.4200061E-05  0.2103616E+04  0.7818609E-02  0.8559652E-01
        1   -1    0    0  501    0  0.00000000000E+00  0.00000000000E+00  0.18931373432E+04  0.18931373432E+04  0.50400001928E-02 0.  1.
       -1   -1    0    0    0  501  0.00000000000E+00  0.00000000000E+00 -0.58437376632E+03  0.58437376634E+03  0.50400001928E-02 0. -1.
    10030    2    1    2    0    0  0.00000000000E+00  0.00000000000E+00  0.13087635768E+04  0.24775111095E+04  0.21036157438E+04 0.  0.
        4    1    3    3  502    0 -0.10367293387E+04  0.28020406646E+02  0.86075628357E+03  0.13477744090E+04  0.12699999809E+01 0. -1.
       -4    1    3    3    0  502  0.10367293387E+04 -0.28020406646E+02  0.44800729327E+03  0.11297367006E+04  0.12699999809E+01 0.  1.
</event>
<event>
 5   0  0.4182977E-05  0.2098475E+04  0.7818609E-02  0.8561916E-01
       -1   -1    0    0    0  501  0.00000000000E+00  0.00000000000E+00  0.11703907730E+04  0.11703907730E+04  0.50400001928E-02 0.  1.
        1   -1    0    0  501    0  0.00000000000E+00  0.00000000000E+00 -0.94062512681E+03  0.94062512682E+03  0.50400001928E-02 0. -1.
    10030    2    1    2    0    0  0.00000000000E+00  0.00000000000E+00  0.22976564618E+03  0.21110158998E+04  0.20984746549E+04 0.  0.
        1    1    3    3  502    0 -0.73525804085E+03 -0.17653909690E+03 -0.61687667045E+03  0.97586231915E+03  0.50400001928E-02 0. -1.
       -1    1    3    3    0  502  0.73525804085E+03  0.17653909690E+03  0.84664231663E+03  0.11351535807E+04  0.50400001928E-02 0.  1.
</event>
<event>
 5   0  0.4050368E-05  0.2093838E+04  0.7818609E-02  0.8563963E-01
        1   -1    0    0  501    0  0.00000000000E+00  0.00000000000E+00  0.93648411167E+03  0.93648411169E+03  0.50400001928E-02 0. -1.
       -1   -1    0    0    0  501  0.00000000000E+00  0.00000000000E+00 -0.11703764044E+04  0.11703764044E+04  0.50400001928E-02 0.  1.
    10030    2    1    2    0    0  0.00000000000E+00  0.00000000000E+00 -0.23389229272E+03  0.21068605161E+04  0.20938375366E+04 0.  0.
        2    1    3    3  502    0  0.99128391249E+03  0.32878177820E+03 -0.43708459028E+02  0.10452998049E+04  0.25500000920E-02 0. -1.
       -2    1    3    3    0  502 -0.99128391249E+03 -0.32878177820E+03 -0.19018383369E+03  0.10615607111E+04  0.25500000920E-02 0.  1.
</event>
<event>
 5   0  0.4050368E-05  0.2092372E+04  0.7818609E-02  0.8564611E-01
       -1   -1    0    0    0  501  0.00000000000E+00  0.00000000000E+00  0.14776125108E+04  0.14776125108E+04  0.50400001928E-02 0.  1.
        1   -1    0    0  501    0  0.00000000000E+00  0.00000000000E+00 -0.74072565705E+03  0.74072565707E+03  0.50400001928E-02 0. -1.
    10030    2    1    2    0    0  0.00000000000E+00  0.00000000000E+00  0.73688685378E+03  0.22183381679E+04  0.20923723359E+04 0.  0.
        2    1    3    3  502    0  0.83442686612E+03  0.62025082076E+03  0.24513946126E+03  0.10682100126E+04  0.25500000920E-02 0. -1.
       -2    1    3    3    0  502 -0.83442686612E+03 -0.62025082076E+03  0.49174739252E+03  0.11501281553E+04  0.25500000920E-02 0.  1.
</event>
<event>
 5   0  0.8872777E-05  0.1961270E+04  0.7818609E-02  0.8624945E-01
       -2   -1    0    0    0  501  0.00000000000E+00  0.00000000000E+00  0.79615745095E+03  0.79615745095E+03  0.25500000920E-02 0.  1.
        2   -1    0    0  501    0  0.00000000000E+00  0.00000000000E+00 -0.12078576846E+04  0.12078576846E+04  0.25500000920E-02 0. -1.
    10030    2    1    2    0    0  0.00000000000E+00  0.00000000000E+00 -0.41170023369E+03  0.20040151356E+04  0.19612698900E+04 0.  0.
        3    1    3    3  502    0 -0.31004367872E+03  0.81164861754E+03  0.25875119739E+03  0.90656094854E+03  0.10100000352E+00 0.  1.
       -3    1    3    3    0  502  0.31004367872E+03 -0.81164861754E+03 -0.67045143108E+03  0.10974541871E+04  0.10100000352E+00 0. -1.
</event>
<event>
 5   0  0.8858590E-05  0.2083720E+04  0.7818609E-02  0.8568449E-01
        2   -1    0    0  501    0  0.00000000000E+00  0.00000000000E+00  0.14410950782E+04  0.14410950782E+04  0.25500000920E-02 0.  1.
       -2   -1    0    0    0  501  0.00000000000E+00  0.00000000000E+00 -0.75322745118E+03  0.75322745118E+03  0.25500000920E-02 0. -1.
    10030    2    1    2    0    0  0.00000000000E+00  0.00000000000E+00  0.68786762706E+03  0.21943225294E+04  0.20837201085E+04 0.  0.
        1    1    3    3  502    0  0.72612244657E+03  0.58302962010E+02  0.11283325239E+04  0.13430514984E+04  0.50400001928E-02 0.  1.
       -1    1    3    3    0  502 -0.72612244657E+03 -0.58302962010E+02 -0.44046489688E+03  0.85127103099E+03  0.50400001928E-02 0. -1.
</event>
<event>
 5   0  0.8872777E-05  0.2053586E+04  0.7818609E-02  0.8581969E-01
       -2   -1    0    0    0  501  0.00000000000E+00  0.00000000000E+00  0.87603368252E+03  0.87603368253E+03  0.25500000920E-02 0. -1.
        2   -1    0    0  501    0  0.00000000000E+00  0.00000000000E+00 -0.12034973508E+04  0.12034973508E+04  0.25500000920E-02 0.  1.
    10030    2    1    2    0    0  0.00000000000E+00  0.00000000000E+00 -0.32746366826E+03  0.20795310333E+04  0.20535863421E+04 0.  0.
        3    1    3    3  502    0 -0.67461721096E+03  0.29201843066E+02 -0.94703083713E+03  0.11631115792E+04  0.10100000352E+00 0.  1.
       -3    1    3    3    0  502  0.67461721096E+03 -0.29201843066E+02  0.61956716887E+03  0.91641945413E+03  0.10100000352E+00 0. -1.
</event>
<event>
 5   0  0.4182977E-05  0.2115434E+04  0.7818609E-02  0.8554475E-01
        1   -1    0    0  501    0  0.00000000000E+00  0.00000000000E+00  0.12353652457E+04  0.12353652457E+04  0.50400001928E-02 0. -1.
       -1   -1    0    0    0  501  0.00000000000E+00  0.00000000000E+00 -0.90561492342E+03  0.90561492344E+03  0.50400001928E-02 0.  1.
    10030    2    1    2    0    0  0.00000000000E+00  0.00000000000E+00  0.32975032223E+03  0.21409801691E+04  0.21154339530E+04 0.  0.
        1    1    3    3  502    0 -0.93200905874E+03  0.42370025513E+03 -0.10404473746E+03  0.10290714743E+04  0.50400001928E-02 0.  1.
       -1    1    3    3    0  502  0.93200905874E+03 -0.42370025513E+03  0.43379505969E+03  0.11119086948E+04  0.50400001928E-02 0. -1.
</event>
<event>
 5   0  0.9012466E-05  0.2093572E+04  0.7818609E-02  0.8564080E-01
        2   -1    0    0  501    0  0.00000000000E+00  0.00000000000E+00  0.20409539979E+04  0.20409539979E+04  0.25500000920E-02 0.  1.
       -2   -1    0    0    0  501  0.00000000000E+00  0.00000000000E+00 -0.53688658871E+03  0.53688658871E+03  0.25500000920E-02 0. -1.
    10030    2    1    2    0    0  0.00000000000E+00  0.00000000000E+00  0.15040674092E+04  0.25778405867E+04  0.20935719043E+04 0.  0.
        2    1    3    3  502    0  0.95656988332E+03 -0.42496110470E+03  0.73731205650E+03  0.12803307974E+04  0.25500000920E-02 0. -1.
       -2    1    3    3    0  502 -0.95656988332E+03  0.42496110470E+03  0.76675535273E+03  0.12975097892E+04  0.25500000920E-02 0.  1.
</event>
<event>
 5   0  0.9012466E-05  0.2068496E+04  0.7818609E-02  0.8575250E-01
       -2   -1    0    0    0  501  0.00000000000E+00  0.00000000000E+00  0.60839046782E+03  0.60839046783E+03  0.25500000920E-02 0.  1.
        2   -1    0    0  501    0  0.00000000000E+00  0.00000000000E+00 -0.17581940297E+04  0.17581940297E+04  0.25500000920E-02 0. -1.
    10030    2    1    2    0    0  0.00000000000E+00  0.00000000000E+00 -0.11498035619E+04  0.23665844975E+04  0.20684955772E+04 0.  0.
        2    1    3    3  502    0 -0.16329128455E+02 -0.10242956365E+04 -0.41221165976E+03  0.11042493576E+04  0.25500000920E-02 0.  1.
       -2    1    3    3    0  502  0.16329128455E+02  0.10242956365E+04 -0.73759190213E+03  0.12623351399E+04  0.25500000920E-02 0. -1.
</event>
<event>
 5   0  0.4200061E-05  0.2117778E+04  0.7818609E-02  0.8553452E-01
       -1   -1    0    0    0  501  0.00000000000E+00  0.00000000000E+00  0.23840351204E+04  0.23840351204E+04  0.50400001928E-02 0.  1.
        1   -1    0    0  501    0  0.00000000000E+00  0.00000000000E+00 -0.47031419612E+03  0.47031419615E+03  0.50400001928E-02 0. -1.
    10030    2    1    2    0    0  0.00000000000E+00  0.00000000000E+00  0.19137209242E+04  0.28543493165E+04  0.21177776665E+04 0.  0.
        4    1    3    3  502    0  0.62319756601E+03 -0.11192097927E+02  0.21105866171E+04  0.22006994230E+04  0.12699999809E+01 0.  1.
       -4    1    3    3    0  502 -0.62319756601E+03  0.11192097927E+02 -0.19686569286E+03  0.65364989349E+03  0.12699999809E+01 0. -1.
</event>
<event>
 5   0  0.4050368E-05  0.2004168E+04  0.7818609E-02  0.8604674E-01
        1   -1    0    0  501    0  0.00000000000E+00  0.00000000000E+00  0.72173265753E+03  0.72173265755E+03  0.50400001928E-02 0.  1.
       -1   -1    0    0    0  501  0.00000000000E+00  0.00000000000E+00 -0.13913360525E+04  0.13913360526E+04  0.50400001928E-02 0. -1.
    10030    2    1    2    0    0  0.00000000000E+00  0.00000000000E+00 -0.66960339501E+03  0.21130687101E+04  0.20041683230E+04 0.  0.
        2    1    3    3  502    0  0.50468569459E+03  0.74543012854E+03  0.12934484969E+03  0.90945248199E+03  0.25500000920E-02 0.  1.
       -2    1    3    3    0  502 -0.50468569459E+03 -0.74543012854E+03 -0.79894824470E+03  0.12036162281E+04  0.25500000920E-02 0. -1.
</event>
<event>
 5   0  0.4128678E-05  0.2090751E+04  0.7818609E-02  0.8565329E-01
        1   -1    0    0  501    0  0.00000000000E+00  0.00000000000E+00  0.14021847748E+04  0.14021847748E+04  0.50400001928E-02 0. -1.
       -1   -1    0    0    0  501  0.00000000000E+00  0.00000000000E+00 -0.77936217877E+03  0.77936217879E+03  0.50400001928E-02 0.  1.
    10030    2    1    2    0    0  0.00000000000E+00  0.00000000000E+00  0.62282259598E+03  0.21815469535E+04  0.20907508518E+04 0.  0.
        5    1    3    3  502    0 -0.58601325620E+03  0.57745380191E+03  0.98433974417E+03  0.12828917537E+04  0.46999998093E+01 0. -1.
       -5    1    3    3    0  502  0.58601325620E+03 -0.57745380191E+03 -0.36151714818E+03  0.89865519984E+03  0.46999998093E+01 0.  1.
</event>
<event>
 5   0  0.8547605E-05  0.2082003E+04  0.7818609E-02  0.8569213E-01
        2   -1    0    0  501    0  0.00000000000E+00  0.00000000000E+00  0.26079349641E+04  0.26079349641E+04  0.25500000920E-02 0.  1.
       -2   -1    0    0    0  501  0.00000000000E+00  0.00000000000E+00 -0.41553346108E+03  0.41553346109E+03  0.25500000920E-02 0. -1.
    10030    2    1    2    0    0  0.00000000000E+00  0.00000000000E+00  0.21924015030E+04  0.30234684252E+04  0.20820031142E+04 0.  0.
        4    1    3    3  502    0 -0.14674303934E+03 -0.27040359656E+03  0.25404063221E+04  0.25589680574E+04  0.12699999809E+01 0.  1.
       -4    1    3    3    0  502  0.14674303934E+03  0.27040359656E+03 -0.34800481910E+03  0.46450036775E+03  0.12699999809E+01 0. -1.
</event>
<event>
 5   0  0.4128678E-05  0.2134013E+04  0.7818609E-02  0.8546407E-01
       -1   -1    0    0    0  501  0.00000000000E+00  0.00000000000E+00  0.60411095364E+03  0.60411095366E+03  0.50400001928E-02 0.  1.
        1   -1    0    0  501    0  0.00000000000E+00  0.00000000000E+00 -0.18845917164E+04  0.18845917164E+04  0.50400001928E-02 0. -1.
    10030    2    1    2    0    0  0.00000000000E+00  0.00000000000E+00 -0.12804807627E+04  0.24887026700E+04  0.21340126514E+04 0.  0.
        5    1    3    3  502    0  0.46965539192E+03  0.86977031494E+03 -0.11087655547E+04  0.14854156769E+04  0.46999998093E+01 0. -1.
       -5    1    3    3    0  502 -0.46965539192E+03 -0.86977031494E+03 -0.17171520801E+03  0.10032869931E+04  0.46999998093E+01 0.  1.
</event>
<event>
 5   0  0.8858590E-05  0.2228675E+04  0.7818609E-02  0.8506587E-01
        2   -1    0    0  501    0  0.00000000000E+00  0.00000000000E+00  0.15790965027E+04  0.15790965027E+04  0.25500000920E-02 0.  1.
       -2   -1    0    0    0  501  0.00000000000E+00  0.00000000000E+00 -0.78636589330E+03  0.78636589331E+03  0.25500000920E-02 0. -1.
    10030    2    1    2    0    0  0.00000000000E+00  0.00000000000E+00  0.79273060942E+03  0.23654623960E+04  0.22286746124E+04 0.  0.
        1    1    3    3  502    0  0.20120635285E+03 -0.56252645866E+03  0.13947518453E+04  0.15173176079E+04  0.50400001928E-02 0.  1.
       -1    1    3    3    0  502 -0.20120635285E+03  0.56252645866E+03 -0.60202123592E+03  0.84814478814E+03  0.50400001928E-02 0. -1.
</event>
<event>
 5   0  0.4128678E-05  0.2089090E+04  0.7818609E-02  0.8566065E-01
        1   -1    0    0  501    0  0.00000000000E+00  0.00000000000E+00  0.10897441240E+04  0.10897441240E+04  0.50400001928E-02 0. -1.
       -1   -1    0    0    0  501  0.00000000000E+00  0.00000000000E+00 -0.10012207596E+04  0.10012207596E+04  0.50400001928E-02 0.  1.
    10030    2    1    2    0    0  0.00000000000E+00  0.00000000000E+00  0.88523364414E+02  0.20909648837E+04  0.20890901749E+04 0.  0.
        5    1    3    3  502    0 -0.48330466084E+03 -0.83167940592E+03 -0.36326253330E+03  0.10282294430E+04  0.46999998093E+01 0.  1.
       -5    1    3    3    0  502  0.48330466084E+03  0.83167940592E+03  0.45178589771E+03  0.10627354406E+04  0.46999998093E+01 0. -1.
</event>
<event>
 5   0  0.4174093E-05  0.2107702E+04  0.7818609E-02  0.8557858E-01
        1   -1    0    0  501    0  0.00000000000E+00  0.00000000000E+00  0.12311002297E+04  0.12311002297E+04  0.50400001928E-02 0. -1.
       -1   -1    0    0    0  501  0.00000000000E+00  0.00000000000E+00 -0.90212120919E+03  0.90212120920E+03  0.50400001928E-02 0.  1.
    10030    2    1    2    0    0  0.00000000000E+00  0.00000000000E+00  0.32897902053E+03  0.21332214389E+04  0.21077017131E+04 0.  0.
        3    1    3    3  502    0  0.29343388010E+03  0.70962654334E+03  0.89498205103E+03  0.11792650910E+04  0.10100000352E+00 0. -1.
       -3    1    3    3    0  502 -0.29343388010E+03 -0.70962654334E+03 -0.56600303050E+03  0.95395634792E+03  0.10100000352E+00 0.  1.
</event>
<event>
 5   0  0.4174093E-05  0.2104186E+04  0.7818609E-02  0.8559402E-01
       -1   -1    0    0    0  501  0.00000000000E+00  0.00000000000E+00  0.13466401067E+04  0.13466401067E+04  0.50400001928E-02 0.  1.
        1   -1    0    0  501    0  0.00000000000E+00  0.00000000000E+00 -0.82197128908E+03  0.82197128909E+03  0.50400001928E-02 0. -1.
    10030    2    1    2    0    0  0.00000000000E+00  0.00000000000E+00  0.52466881766E+03  0.21686113958E+04  0.21041858326E+04 0.  0.
        3    1    3    3  502    0  0.12228519960E+03  0.24523404460E+03  0.13092138867E+04  0.13375852938E+04  0.10100000352E+00 0.  1.
       -3    1    3    3    0  502 -0.12228519960E+03 -0.24523404460E+03 -0.78454506909E+03  0.83102610206E+03  0.10100000352E+00 0. -1.
</event>
<event>
 5   0  0.4128678E-05  0.2116842E+04  0.7818609E-02  0.8553860E-01
       -1   -1    0    0    0  501  0.00000000000E+00  0.00000000000E+00  0.10218563690E+04  0.10218563691E+04  0.50400001928E-02 0.  1.
        1   -1    0    0  501    0  0.00000000000E+00  0.00000000000E+00 -0.10962944944E+04  0.10962944944E+04  0.50400001928E-02 0. -1.
    10030    2    1    2    0    0  0.00000000000E+00  0.00000000000E+00 -0.74438125353E+02  0.21181508635E+04  0.21168424707E+04 0.  0.
        5    1    3    3  502    0 -0.98336388110E+03 -0.23247424784E+03 -0.35234962332E+03  0.10701500575E+04  0.46999998093E+01 0. -1.
       -5    1    3    3    0  502  0.98336388110E+03  0.23247424784E+03  0.27791149797E+03  0.10480008059E+04  0.46999998093E+01 0.  1.
</event>
<event>
 5   0  0.8547605E-05  0.2091107E+04  0.7818609E-02  0.8565171E-01
        2   -1    0    0  501    0  0.00000000000E+00  0.00000000000E+00  0.98491430361E+03  0.98491430361E+03  0.25500000920E-02 0.  1.
       -2   -1    0    0    0  501  0.00000000000E+00  0.00000000000E+00 -0.11099256293E+04  0.11099256293E+04  0.25500000920E-02 0. -1.
    10030    2    1    2    0    0  0.00000000000E+00  0.00000000000E+00 -0.12501132572E+03  0.20948399329E+04  0.20911065284E+04 0.  0.
        4    1    3    3  502    0 -0.94386071917E+03 -0.42223174765E+03  0.92778532877E+02  0.10381532522E+04  0.12699999809E+01 0. -1.
       -4    1    3    3    0  502  0.94386071917E+03  0.42223174765E+03 -0.21778985859E+03  0.10566866808E+04  0.12699999809E+01 0.  1.
</event>
<event>
 5   0  0.8872777E-05  0.2256996E+04  0.7818609E-02  0.8495073E-01
       -2   -1    0    0    0  501  0.00000000000E+00  0.00000000000E+00  0.14197863229E+04  0.14197863229E+04  0.25500000920E-02 0.  1.
        2   -1    0    0  501    0  0.00000000000E+00  0.00000000000E+00 -0.89697106566E+03  0.89697106566E+03  0.25500000920E-02 0. -1.
    10030    2    1    2    0    0  0.00000000000E+00  0.00000000000E+00  0.52281525728E+03  0.23167573886E+04  0.22569955703E+04 0.  0.
        3    1    3    3  502    0  0.34247449845E+03  0.14081873669E+03 -0.83283410173E+03  0.91144464994E+03  0.10100000352E+00 0. -1.
       -3    1    3    3    0  502 -0.34247449845E+03 -0.14081873669E+03  0.13556493590E+04  0.14053127387E+04  0.10100000352E+00 0.  1.
</event>
<event>
 5   0  0.9012466E-05  0.2090043E+04  0.7818609E-02  0.8565642E-01
       -2   -1    0    0    0  501  0.00000000000E+00  0.00000000000E+00  0.56405604723E+03  0.56405604723E+03  0.25500000920E-02 0.  1.
        2   -1    0    0  501    0  0.00000000000E+00  0.00000000000E+00 -0.19361014968E+04  0.19361014968E+04  0.25500000920E-02 0. -1.
    10030    2    1    2    0    0  0.00000000000E+00  0.00000000000E+00 -0.13720454495E+04  0.25001575440E+04  0.20900428295E+04 0.  0.
        2    1    3    3  502    0  0.58247170346E+03 -0.29562987933E+02 -0.17233092372E+04  0.18193245952E+04  0.25500000920E-02 0. -1.
       -2    1    3    3    0  502 -0.58247170346E+03  0.29562987933E+02  0.35126378770E+03  0.68083294878E+03  0.25500000920E-02 0.  1.
</event>
<event>
 5   0  0.8858590E-05  0.2039517E+04  0.7818609E-02  0.8588365E-01
       -2   -1    0    0    0  501  0.00000000000E+00  0.00000000000E+00  0.78366215382E+03  0.78366215382E+03  0.25500000920E-02 0.  1.
        2   -1    0    0  501    0  0.00000000000E+00  0.00000000000E+00 -0.13269845519E+04  0.13269845519E+04  0.25500000920E-02 0. -1.
    10030    2    1    2    0    0  0.00000000000E+00  0.00000000000E+00 -0.54332239812E+03  0.21106467058E+04  0.20395171704E+04 0.  0.
        1    1    3    3  502    0 -0.63207485958E+03 -0.53951353023E+03 -0.88330169687E+03  0.12127717696E+04  0.50400001928E-02 0. -1.
       -1    1    3    3    0  502  0.63207485958E+03  0.53951353023E+03  0.33997929874E+03  0.89787493617E+03  0.50400001928E-02 0.  1.
</event>
<event>
 5   0  0.9086985E-05  0.2175941E+04  0.7818609E-02  0.8528509E-01
       -2   -1    0    0    0  501  0.00000000000E+00  0.00000000000E+00  0.74179376006E+03  0.74179376006E+03  0.25500000920E-02 0. -1.
        2   -1    0    0  501    0  0.00000000000E+00  0.00000000000E+00 -0.15956989355E+04  0.15956989355E+04  0.25500000920E-02 0.  1.
    10030    2    1    2    0    0  0.00000000000E+00  0.00000000000E+00 -0.85390517542E+03  0.23374926955E+04  0.21759407283E+04 0.  0.
        5    1    3    3  502    0 -0.78181195561E+03 -0.22903487251E+03  0.34767428779E+03  0.88576882264E+03  0.46999998093E+01 0. -1.
       -5    1    3    3    0  502  0.78181195561E+03  0.22903487251E+03 -0.12015794632E+04  0.14517238729E+04  0.46999998093E+01 0.  1.
</event>
<event>
 5   0  0.8872777E-05  0.2078986E+04  0.7818609E-02  0.8570557E-01
       -2   -1    0    0    0  501  0.00000000000E+00  0.00000000000E+00  0.11255972142E+04  0.11255972142E+04  0.25500000920E-02 0.  1.
        2   -1    0    0  501    0  0.00000000000E+00  0.00000000000E+00 -0.95997550920E+03  0.95997550920E+03  0.25500000920E-02 0. -1.
    10030    2    1    2    0    0  0.00000000000E+00  0.00000000000E+00  0.16562170497E+03  0.20855727234E+04  0.20789860594E+04 0.  0.
        3    1    3    3  502    0  0.30248917199E+03 -0.81487393386E+03  0.65472805649E+03  0.10882040550E+04  0.10100000352E+00 0.  1.
       -3    1    3    3    0  502 -0.30248917199E+03  0.81487393386E+03 -0.48910635153E+03  0.99736866833E+03  0.10100000352E+00 0. -1.
</event>
<event>
 5   0  0.4182977E-05  0.2086711E+04  0.7818609E-02  0.8567120E-01
       -1   -1    0    0    0  501  0.00000000000E+00  0.00000000000E+00  0.75470855177E+03  0.75470855179E+03  0.50400001928E-02 0.  1.
        1   -1    0    0  501    0  0.00000000000E+00  0.00000000000E+00 -0.14423988354E+04  0.14423988354E+04  0.50400001928E-02 0. -1.
    10030    2    1    2    0    0  0.00000000000E+00  0.00000000000E+00 -0.68769028362E+03  0.21971073872E+04  0.20867110353E+04 0.  0.
        1    1    3    3  502    0  0.48434659045E+03 -0.32725264702E+03 -0.12538036772E+04  0.13833689224E+04  0.50400001928E-02 0. -1.
       -1    1    3    3    0  502 -0.48434659045E+03  0.32725264702E+03  0.56611339354E+03  0.81373846476E+03  0.50400001928E-02 0.  1.
</event>
<event>
 5   0  0.4174093E-05  0.2087655E+04  0.7818609E-02  0.8566701E-01
        1   -1    0    0  501    0  0.00000000000E+00  0.00000000000E+00  0.15088299440E+04  0.15088299441E+04  0.50400001928E-02 0.  1.
       -1   -1    0    0    0  501  0.00000000000E+00  0.00000000000E+00 -0.72213311723E+03  0.72213311725E+03  0.50400001928E-02 0. -1.
    10030    2    1    2    0    0  0.00000000000E+00  0.00000000000E+00  0.78669682681E+03  0.22309630613E+04  0.20876552119E+04 0.  0.
        3    1    3    3  502    0 -0.82000572352E+03  0.98549466612E+02  0.10754880084E+04  0.13560220686E+04  0.10100000352E+00 0.  1.
       -3    1    3    3    0  502  0.82000572352E+03 -0.98549466612E+02 -0.28879118162E+03  0.87494099273E+03  0.10100000352E+00 0. -1.
</event>
<event>
 5   0  0.4128678E-05  0.2125558E+04  0.7818609E-02  0.8550068E-01
       -1   -1    0    0    0  501  0.00000000000E+00  0.00000000000E+00  0.16181766303E+04  0.16181766303E+04  0.50400001928E-02 0. -1.
        1   -1    0    0  501    0  0.00000000000E+00  0.00000000000E+00 -0.69800744046E+03  0.69800744048E+03  0.50400001928E-02 0.  1.
    10030    2    1    2    0    0  0.00000000000E+00  0.00000000000E+00  0.92016918986E+03  0.23161840708E+04  0.21255581177E+04 0.  0.
        5    1    3    3  502    0 -0.24444961259E+03  0.16947545963E+03  0.15718813118E+04  0.15997845145E+04  0.46999998093E+01 0. -1.
       -5    1    3    3    0  502  0.24444961259E+03 -0.16947545963E+03 -0.65171212189E+03  0.71639955634E+03  0.46999998093E+01 0.  1.
</event>
<event>
 5   0  0.4174093E-05  0.2074777E+04  0.7818609E-02  0.8572436E-01
       -1   -1    0    0    0  501  0.00000000000E+00  0.00000000000E+00  0.68716166491E+03  0.68716166492E+03  0.50400001928E-02 0. -1.
        1   -1    0    0  501    0  0.00000000000E+00  0.00000000000E+00 -0.15661159125E+04  0.15661159125E+04  0.50400001928E-02 0.  1.
    10030    2    1    2    0    0  0.00000000000E+00  0.00000000000E+00 -0.87895424758E+03  0.22532775774E+04  0.20747769209E+04 0.  0.
        3    1    3    3  502    0  0.57839849734E+03 -0.73917224020E+03 -0.91936931694E+03  0.13138342260E+04  0.10100000352E+00 0.  1.
       -3    1    3    3    0  502 -0.57839849734E+03  0.73917224020E+03  0.40415069356E+02  0.93944335137E+03  0.10100000352E+00 0. -1.
</event>
<event>
 5   0  0.9012466E-05  0.2062282E+04  0.7818609E-02  0.8578043E-01
        2   -1    0    0  501    0  0.00000000000E+00  0.00000000000E+00  0.13670380105E+04  0.13670380105E+04  0.25500000920E-02 0. -1.
       -2   -1    0    0    0  501  0.00000000000E+00  0.00000000000E+00 -0.77777785537E+03  0.77777785538E+03  0.25500000920E-02 0.  1.
    10030    2    1    2    0    0  0.00000000000E+00  0.00000000000E+00  0.58926015515E+03  0.21448158659E+04  0.20622821262E+04 0.  0.
        2    1    3    3  502    0  0.67779731417E+03 -0.39696448892E+03  0.98939332239E+03  0.12632850632E+04  0.25500000920E-02 0. -1.
       -2    1    3    3    0  502 -0.67779731417E+03  0.39696448892E+03 -0.40013316723E+03  0.88153080269E+03  0.25500000920E-02 0.  1.
</event>
<event>
 5   0  0.8872777E-05  0.2057434E+04  0.7818609E-02  0.8580229E-01
       -2   -1    0    0    0  501  0.00000000000E+00  0.00000000000E+00  0.86065989770E+03  0.86065989771E+03  0.25500000920E-02 0.  1.
        2   -1    0    0  501    0  0.00000000000E+00  0.00000000000E+00 -0.12295899308E+04  0.12295899308E+04  0.25500000920E-02 0. -1.
    10030    2    1    2    0    0  0.00000000000E+00  0.00000000000E+00 -0.36893003310E+03  0.20902498285E+04  0.20574340758E+04 0.  0.
        3    1    3    3  502    0 -0.70616764493E+03  0.54835332086E+02  0.57347651736E+03  0.91134789326E+03  0.10100000352E+00 0.  1.
       -3    1    3    3    0  502  0.70616764493E+03 -0.54835332086E+02 -0.94240655046E+03  0.11789019353E+04  0.10100000352E+00 0. -1.
</event>
<event>
 5   0  0.4174093E-05  0.2069385E+04  0.7818609E-02  0.8574851E-01
       -1   -1    0    0    0  501  0.00000000000E+00  0.00000000000E+00  0.46270905695E+03  0.46270905698E+03  0.50400001928E-02 0.  1.
        1   -1    0    0  501    0  0.00000000000E+00  0.00000000000E+00 -0.23137406201E+04  0.23137406201E+04  0.50400001928E-02 0. -1.
    10030    2    1    2    0    0  0.00000000000E+00  0.00000000000E+00 -0.18510315632E+04  0.27764496771E+04  0.20693851651E+04 0.  0.
        3    1    3    3  502    0  0.28442997339E+03  0.99438693884E+03 -0.96538274590E+03  0.14148037497E+04  0.10100000352E+00 0.  1.
       -3    1    3    3    0  502 -0.28442997339E+03 -0.99438693884E+03 -0.88564881729E+03  0.13616459274E+04  0.10100000352E+00 0. -1.
</event>
<event>
 5   0  0.4050368E-05  0.2062300E+04  0.7818609E-02  0.8578035E-01
        1   -1    0    0  501    0  0.00000000000E+00  0.00000000000E+00  0.16364759360E+04  0.16364759360E+04  0.50400001928E-02 0. -1.
       -1   -1    0    0    0  501  0.00000000000E+00  0.00000000000E+00 -0.64973174001E+03  0.64973174003E+03  0.50400001928E-02 0.  1.
    10030    2    1    2    0    0  0.00000000000E+00  0.00000000000E+00  0.98674419597E+03  0.22862076760E+04  0.20623000338E+04 0.  0.
        2    1    3    3  502    0  0.83533649916E+02  0.10202521405E+04  0.35590000182E+03  0.10837698613E+04  0.25500000920E-02 0.  1.
       -2    1    3    3    0  502 -0.83533649916E+02 -0.10202521405E+04  0.63084419415E+03  0.12024378147E+04  0.25500000920E-02 0. -1.
</event>
<event>
 5   0  0.9012466E-05  0.2111514E+04  0.7818609E-02  0.8556188E-01
        2   -1    0    0  501    0  0.00000000000E+00  0.00000000000E+00  0.24568862644E+04  0.24568862644E+04  0.25500000920E-02 0.  1.
       -2   -1    0    0    0  501  0.00000000000E+00  0.00000000000E+00 -0.45367296585E+03  0.45367296585E+03  0.25500000920E-02 0. -1.
    10030    2    1    2    0    0  0.00000000000E+00  0.00000000000E+00  0.20032132986E+04  0.29105592303E+04  0.21115140334E+04 0.  0.
        2    1    3    3  502    0 -0.29036977763E+02 -0.87832607936E+03  0.18080995126E+04  0.20103541219E+04  0.25500000920E-02 0.  1.
       -2    1    3    3    0  502  0.29036977763E+02  0.87832607936E+03  0.19511378597E+03  0.90020510843E+03  0.25500000920E-02 0. -1.
</event>
<event>
 5   0  0.4200061E-05  0.2104185E+04  0.7818609E-02  0.8559402E-01
       -1   -1    0    0    0  501  0.00000000000E+00  0.00000000000E+00  0.59769512513E+03  0.59769512515E+03  0.50400001928E-02 0.  1.
        1   -1    0    0  501    0  0.00000000000E+00  0.00000000000E+00 -0.18519450075E+04  0.18519450075E+04  0.50400001928E-02 0. -1.
    10030    2    1    2    0    0  0.00000000000E+00  0.00000000000E+00 -0.12542498824E+04  0.24496401327E+04  0.21041848807E+04 0.  0.
        4    1    3    3  502    0  0.55733122767E+03 -0.26342012345E+03  0.36542491556E+03  0.71662070901E+03  0.12699999809E+01 0.  1.
       -4    1    3    3    0  502 -0.55733122767E+03  0.26342012345E+03 -0.16196747980E+04  0.17330194237E+04  0.12699999809E+01 0. -1.
</event>
<event>
 5   0  0.3176125E-05  0.2085689E+04  0.7818609E-02  0.8567574E-01
        3   -1    0    0  501    0  0.00000000000E+00  0.00000000000E+00  0.85986015842E+03  0.85986016435E+03  0.10100000352E+00 0. -1.
       -3   -1    0    0    0  501  0.00000000000E+00  0.00000000000E+00 -0.12647695662E+04  0.12647695702E+04  0.10100000352E+00 0.  1.
    10030    2    1    2    0    0  0.00000000000E+00  0.00000000000E+00 -0.40490940778E+03  0.21246297346E+04  0.20856893059E+04 0.  0.
        5    1    3    3  502    0  0.73975754981E+03 -0.19660300256E+03 -0.92392135419E+03  0.11998111234E+04  0.46999998093E+01 0.  1.
       -5    1    3    3    0  502 -0.73975754981E+03  0.19660300256E+03  0.51901194640E+03  0.92481861120E+03  0.46999998093E+01 0. -1.
</event>
<event>
 5   0  0.8858590E-05  0.2104580E+04  0.7818609E-02  0.8559228E-01
        2   -1    0    0  501    0  0.00000000000E+00  0.00000000000E+00  0.22877149674E+04  0.22877149674E+04  0.25500000920E-02 0.  1.
       -2   -1    0    0    0  501  0.00000000000E+00  0.00000000000E+00 -0.48402637695E+03  0.48402637696E+03  0.25500000920E-02 0. -1.
    10030    2    1    2    0    0  0.00000000000E+00  0.00000000000E+00  0.18036885904E+04  0.27717413444E+04  0.21045801360E+04 0.  0.
        1    1    3    3  502    0 -0.10306139042E+04  0.25115872702E+02  0.62396397574E+03  0.12050422688E+04  0.50400001928E-02 0. -1.
       -1    1    3    3    0  502  0.10306139042E+04 -0.25115872702E+02  0.11797246147E+04  0.15666990755E+04  0.50400001928E-02 0.  1.
</event>
<event>
 5   0  0.4200061E-05  0.2146043E+04  0.7818609E-02  0.8541228E-01
       -1   -1    0    0    0  501  0.00000000000E+00  0.00000000000E+00  0.99954778285E+03  0.99954778286E+03  0.50400001928E-02 0. -1.
        1   -1    0    0  501    0  0.00000000000E+00  0.00000000000E+00 -0.11518964308E+04  0.11518964308E+04  0.50400001928E-02 0.  1.
    10030    2    1    2    0    0  0.00000000000E+00  0.00000000000E+00 -0.15234864795E+03  0.21514442137E+04  0.21460433579E+04 0.  0.
        4    1    3    3  502    0 -0.88320136795E+03  0.14931044434E+03  0.51610488580E+03  0.10337814717E+04  0.12699999809E+01 0. -1.
       -4    1    3    3    0  502  0.88320136795E+03 -0.14931044434E+03 -0.66845353375E+03  0.11176627420E+04  0.12699999809E+01 0.  1.
</event>
<event>
 5   0  0.4174093E-05  0.1718434E+04  0.7818609E-02  0.8750920E-01
        1   -1    0    0  501    0  0.00000000000E+00  0.00000000000E+00  0.11556752385E+04  0.11556752385E+04  0.50400001928E-02 0. -1.
       -1   -1    0    0    0  501  0.00000000000E+00  0.00000000000E+00 -0.63880699941E+03  0.63880699943E+03  0.50400001928E-02 0.  1.
    10030    2    1    2    0    0  0.00000000000E+00  0.00000000000E+00  0.51686823911E+03  0.17944822380E+04  0.17184335093E+04 0.  0.
        3    1    3    3  502    0  0.18212385182E+03 -0.55770115904E+03  0.91395142083E+03  0.10860510531E+04  0.10100000352E+00 0. -1.
       -3    1    3    3    0  502 -0.18212385182E+03  0.55770115904E+03 -0.39708318173E+03  0.70843118481E+03  0.10100000352E+00 0.  1.
</event>
<event>
 5   0  0.4050368E-05  0.2099798E+04  0.7818609E-02  0.8561333E-01
       -1   -1    0    0    0  501  0.00000000000E+00  0.00000000000E+00  0.90906807506E+03  0.90906807508E+03  0.50400001928E-02 0.  1.
        1   -1    0    0  501    0  0.00000000000E+00  0.00000000000E+00 -0.12125466608E+04  0.12125466609E+04  0.50400001928E-02 0. -1.
    10030    2    1    2    0    0  0.00000000000E+00  0.00000000000E+00 -0.30347858579E+03  0.21216147359E+04  0.20997975702E+04 0.  0.
        2    1    3    3  502    0  0.45184250737E+02  0.48794009366E+03 -0.10899126744E+04  0.11950049328E+04  0.25500000920E-02 0. -1.
       -2    1    3    3    0  502 -0.45184250737E+02 -0.48794009366E+03  0.78643408864E+03  0.92660980315E+03  0.25500000920E-02 0.  1.
</event>
<event>
 5   0  0.8858590E-05  0.2115196E+04  0.7818609E-02  0.8554579E-01
        2   -1    0    0  501    0  0.00000000000E+00  0.00000000000E+00  0.13067752964E+04  0.13067752964E+04  0.25500000920E-02 0. -1.
       -2   -1    0    0    0  501  0.00000000000E+00  0.00000000000E+00 -0.85593397305E+03  0.85593397306E+03  0.25500000920E-02 0.  1.
    10030    2    1    2    0    0  0.00000000000E+00  0.00000000000E+00  0.45084132332E+03  0.21627092694E+04  0.21151958503E+04 0.  0.
        1    1    3    3  502    0  0.11977548490E+03 -0.10427788768E+04  0.35786579635E+03  0.11089643281E+04  0.50400001928E-02 0. -1.
       -1    1    3    3    0  502 -0.11977548490E+03  0.10427788768E+04  0.92975526966E+02  0.10537449413E+04  0.50400001928E-02 0.  1.
</event>
<event>
 5   0  0.9086985E-05  0.2101889E+04  0.7818609E-02  0.8560412E-01
       -2   -1    0    0    0  501  0.00000000000E+00  0.00000000000E+00  0.14994199409E+04  0.14994199409E+04  0.25500000920E-02 0. -1.
        2   -1    0    0  501    0  0.00000000000E+00  0.00000000000E+00 -0.73660778177E+03  0.73660778177E+03  0.25500000920E-02 0.  1.
    10030    2    1    2    0    0  0.00000000000E+00  0.00000000000E+00  0.76281215914E+03  0.22360277227E+04  0.21018890519E+04 0.  0.
        5    1    3    3  502    0 -0.79147279064E+03 -0.21421703766E+03 -0.31792323656E+03  0.87944038563E+03  0.46999998093E+01 0.  1.
       -5    1    3    3    0  502  0.79147279064E+03  0.21421703766E+03  0.10807353957E+04  0.13565873370E+04  0.46999998093E+01 0. -1.
</event>
<event>
 5   0  0.4128678E-05  0.1759758E+04  0.7818609E-02  0.8727997E-01
        1   -1    0    0  501    0  0.00000000000E+00  0.00000000000E+00  0.85410488803E+03  0.85410488804E+03  0.50400001928E-02 0.  1.
       -1   -1    0    0    0  501  0.00000000000E+00  0.00000000000E+00 -0.90643106865E+03  0.90643106866E+03  0.50400001928E-02 0. -1.
    10030    2    1    2    0    0  0.00000000000E+00  0.00000000000E+00 -0.52326180617E+02  0.17605359567E+04  0.17597581725E+04 0.  0.
        5    1    3    3  502    0  0.83738366908E+03 -0.22113954066E+03 -0.18131551773E+03  0.88487937746E+03  0.46999998093E+01 0.  1.
       -5    1    3    3    0  502 -0.83738366908E+03  0.22113954066E+03  0.12898933711E+03  0.87565657924E+03  0.46999998093E+01 0. -1.
</event>
<event>
 5   0  0.8547605E-05  0.2115463E+04  0.7818609E-02  0.8554462E-01
        2   -1    0    0  501    0  0.00000000000E+00  0.00000000000E+00  0.19240944524E+04  0.19240944524E+04  0.25500000920E-02 0.  1.
       -2   -1    0    0    0  501  0.00000000000E+00  0.00000000000E+00 -0.58146644768E+03  0.58146644768E+03  0.25500000920E-02 0. -1.
    10030    2    1    2    0    0  0.00000000000E+00  0.00000000000E+00  0.13426280047E+04  0.25055609001E+04  0.21154634161E+04 0.  0.
        4    1    3    3  502    0 -0.83308874046E+03  0.65116470396E+03  0.63904185689E+03  0.12354871221E+04  0.12699999809E+01 0.  1.
       -4    1    3    3    0  502  0.83308874046E+03 -0.65116470396E+03  0.70358614785E+03  0.12700737780E+04  0.12699999809E+01 0. -1.
</event>
<event>
 5   0  0.4182977E-05  0.2080919E+04  0.7818609E-02  0.8569696E-01
       -1   -1    0    0    0  501  0.00000000000E+00  0.00000000000E+00  0.72722486938E+03  0.72722486940E+03  0.50400001928E-02 0.  1.
        1   -1    0    0  501    0  0.00000000000E+00  0.00000000000E+00 -0.14886125310E+04  0.14886125310E+04  0.50400001928E-02 0. -1.
    10030    2    1    2    0    0  0.00000000000E+00  0.00000000000E+00 -0.76138766157E+03  0.22158374004E+04  0.20809190791E+04 0.  0.
        1    1    3    3  502    0  0.16793472062E+03  0.38371233035E+03 -0.13948732369E+04  0.14564026125E+04  0.50400001928E-02 0. -1.
       -1    1    3    3    0  502 -0.16793472062E+03 -0.38371233035E+03  0.63348557528E+03  0.75943478783E+03  0.50400001928E-02 0.  1.
</event>
<event>
 5   0  0.4128678E-05  0.2123419E+04  0.7818609E-02  0.8550997E-01
       -1   -1    0    0    0  501  0.00000000000E+00  0.00000000000E+00  0.59083287570E+03  0.59083287572E+03  0.50400001928E-02 0.  1.
        1   -1    0    0  501    0  0.00000000000E+00  0.00000000000E+00 -0.19078611142E+04  0.19078611142E+04  0.50400001928E-02 0. -1.
    10030    2    1    2    0    0  0.00000000000E+00  0.00000000000E+00 -0.13170282385E+04  0.24986939899E+04  0.21234190058E+04 0.  0.
        5    1    3    3  502    0  0.56242690885E+03 -0.38913140483E+03 -0.16141024638E+04  0.17530248519E+04  0.46999998093E+01 0. -1.
       -5    1    3    3    0  502 -0.56242690885E+03  0.38913140483E+03  0.29707422526E+03  0.74566913798E+03  0.46999998093E+01 0.  1.
</event>
<event>
 5   0  0.4050368E-05  0.2223262E+04  0.7818609E-02  0.8508808E-01
        1   -1    0    0  501    0  0.00000000000E+00  0.00000000000E+00  0.15897535812E+04  0.15897535813E+04  0.50400001928E-02 0.  1.
       -1   -1    0    0    0  501  0.00000000000E+00  0.00000000000E+00 -0.77730502371E+03  0.77730502373E+03  0.50400001928E-02 0. -1.
    10030    2    1    2    0    0  0.00000000000E+00  0.00000000000E+00  0.81244855753E+03  0.23670586050E+04  0.22232619685E+04 0.  0.
        2    1    3    3  502    0  0.56111925912E+03 -0.55994855986E+02  0.14261689018E+04  0.15336062021E+04  0.25500000920E-02 0.  1.
       -2    1    3    3    0  502 -0.56111925912E+03  0.55994855986E+02 -0.61372034424E+03  0.83345240284E+03  0.25500000920E-02 0. -1.
</event>
<event>
 5   0  0.4050368E-05  0.2109492E+04  0.7818609E-02  0.8557074E-01
       -1   -1    0    0    0  501  0.00000000000E+00  0.00000000000E+00  0.10343814507E+04  0.10343814507E+04  0.50400001928E-02 0.  1.
        1   -1    0    0  501    0  0.00000000000E+00  0.00000000000E+00 -0.10755115514E+04  0.10755115514E+04  0.50400001928E-02 0. -1.
    10030    2    1    2    0    0  0.00000000000E+00  0.00000000000E+00 -0.41130100718E+02  0.21098930021E+04  0.21094920705E+04 0.  0.
        2    1    3    3  502    0  0.79827885534E+03  0.65648213718E+03  0.18988233395E+03  0.10508440551E+04  0.25500000920E-02 0.  1.
       -2    1    3    3    0  502 -0.79827885534E+03 -0.65648213718E+03 -0.23101243467E+03  0.10590489471E+04  0.25500000920E-02 0. -1.
</event>
<event>
 5   0  0.4128678E-05  0.2131307E+04  0.7818609E-02  0.8547576E-01
        1   -1    0    0  501    0  0.00000000000E+00  0.00000000000E+00  0.11423929992E+04  0.11423929992E+04  0.50400001928E-02 0.  1.
       -1   -1    0    0    0  501  0.00000000000E+00  0.00000000000E+00 -0.99406894519E+03  0.99406894520E+03  0.50400001928E-02 0. -1.
    10030    2    1    2    0    0  0.00000000000E+00  0.00000000000E+00  0.14832405403E+03  0.21364619444E+04  0.21313070203E+04 0.  0.
        5    1    3    3  502    0  0.17395301870E+03 -0.42521729146E+03  0.10380103382E+04  0.11351462240E+04  0.46999998093E+01 0.  1.
       -5    1    3    3    0  502 -0.17395301870E+03  0.42521729146E+03 -0.88968628418E+03  0.10013157204E+04  0.46999998093E+01 0. -1.
</event>
<event>
 5   0  0.4128678E-05  0.2103075E+04  0.7818609E-02  0.8559890E-01
       -1   -1    0    0    0  501  0.00000000000E+00  0.00000000000E+00  0.90312823157E+03  0.90312823159E+03  0.50400001928E-02 0.  1.
        1   -1    0    0  501    0  0.00000000000E+00  0.00000000000E+00 -0.12243348381E+04  0.12243348381E+04  0.50400001928E-02 0. -1.
    10030    2    1    2    0    0  0.00000000000E+00  0.00000000000E+00 -0.32120660655E+03  0.21274630697E+04  0.21030752314E+04 0.  0.
        5    1    3    3  502    0  0.87149557933E+03 -0.28671088997E+03 -0.68037244355E+03  0.11422068250E+04  0.46999998093E+01 0. -1.
       -5    1    3    3    0  502 -0.87149557933E+03  0.28671088997E+03  0.35916583700E+03  0.98525624468E+03  0.46999998093E+01 0.  1.
</event>
<event>
 5   0  0.4050368E-05  0.2021140E+04  0.7818609E-02  0.8596800E-01
        1   -1    0    0  501    0  0.00000000000E+00  0.00000000000E+00  0.19000405192E+04  0.19000405192E+04  0.50400001928E-02 0.  1.
       -1   -1    0    0    0  501  0.00000000000E+00  0.00000000000E+00 -0.53748926813E+03  0.53748926815E+03  0.50400001928E-02 0. -1.
    10030    2    1    2    0    0  0.00000000000E+00  0.00000000000E+00  0.13625512511E+04  0.24375297874E+04  0.20211396667E+04 0.  0.
        2    1    3    3  502    0 -0.35742874738E+03  0.93975005036E+03  0.55848716234E+03  0.11501275482E+04  0.25500000920E-02 0.  1.
       -2    1    3    3    0  502  0.35742874738E+03 -0.93975005036E+03  0.80406408874E+03  0.12874022392E+04  0.25500000920E-02 0. -1.
</event>
<event>
 5   0  0.4050368E-05  0.2107539E+04  0.7818609E-02  0.8557930E-01
       -1   -1    0    0    0  501  0.00000000000E+00  0.00000000000E+00  0.99248638122E+03  0.99248638123E+03  0.50400001928E-02 0.  1.
        1   -1    0    0  501    0  0.00000000000E+00  0.00000000000E+00 -0.11188364947E+04  0.11188364947E+04  0.50400001928E-02 0. -1.
    10030    2    1    2    0    0  0.00000000000E+00  0.00000000000E+00 -0.12635011346E+03  0.21113228759E+04  0.21075388336E+04 0.  0.
        2    1    3    3  502    0  0.46526211075E+03  0.23349091839E+03 -0.98103139342E+03  0.11105896792E+04  0.25500000920E-02 0. -1.
       -2    1    3    3    0  502 -0.46526211075E+03 -0.23349091839E+03  0.85468127997E+03  0.10007331967E+04  0.25500000920E-02 0.  1.
</event>
<event>
 5   0  0.3176125E-05  0.2079282E+04  0.7818609E-02  0.8570425E-01
        4   -1    0    0  501    0  0.00000000000E+00  0.00000000000E+00  0.76511851651E+03  0.76511957053E+03  0.12699999809E+01 0. -1.
       -4   -1    0    0    0  501  0.00000000000E+00  0.00000000000E+00 -0.14126597576E+04  0.14126603285E+04  0.12699999809E+01 0.  1.
    10030    2    1    2    0    0  0.00000000000E+00  0.00000000000E+00 -0.64754124113E+03  0.21777798990E+04  0.20792824795E+04 0.  0.
        4    1    3    3  502    0 -0.20466681684E+03 -0.43175998897E+03  0.64330332229E+03  0.80134010967E+03  0.12699999809E+01 0. -1.
       -4    1    3    3    0  502  0.20466681684E+03  0.43175998897E+03 -0.12908445634E+04  0.13764397894E+04  0.12699999809E+01 0.  1.
</event>
<event>
 5   0  0.8858590E-05  0.2057732E+04  0.7818609E-02  0.8580095E-01
        2   -1    0    0  501    0  0.00000000000E+00  0.00000000000E+00  0.13313484284E+04  0.13313484284E+04  0.25500000920E-02 0. -1.
       -2   -1    0    0    0  501  0.00000000000E+00  0.00000000000E+00 -0.79510786067E+03  0.79510786068E+03  0.25500000920E-02 0.  1.
    10030    2    1    2    0    0  0.00000000000E+00  0.00000000000E+00  0.53624056777E+03  0.21264562891E+04  0.20577323448E+04 0.  0.
        1    1    3    3  502    0  0.81203675360E+03 -0.62019218031E+03  0.14358159705E+03  0.10318225161E+04  0.50400001928E-02 0.  1.
       -1    1    3    3    0  502 -0.81203675360E+03  0.62019218031E+03  0.39265897072E+03  0.10946337730E+04  0.50400001928E-02 0. -1.
</event>
<event>
 5   0  0.4128678E-05  0.2128299E+04  0.7818609E-02  0.8548879E-01
        1   -1    0    0  501    0  0.00000000000E+00  0.00000000000E+00  0.20145303543E+04  0.20145303543E+04  0.50400001928E-02 0. -1.
       -1   -1    0    0    0  501  0.00000000000E+00  0.00000000000E+00 -0.56212308613E+03  0.56212308615E+03  0.50400001928E-02 0.  1.
    10030    2    1    2    0    0  0.00000000000E+00  0.00000000000E+00  0.14524072682E+04  0.25766534404E+04  0.21282988699E+04 0.  0.
        5    1    3    3  502    0  0.34975179919E+03 -0.78685919386E+03 -0.30744897162E+02  0.86165019045E+03  0.46999998093E+01 0.  1.
       -5    1    3    3    0  502 -0.34975179919E+03  0.78685919386E+03  0.14831521653E+04  0.17150032500E+04  0.46999998093E+01 0. -1.
</event>
<event>
 5   0  0.4050368E-05  0.2109225E+04  0.7818609E-02  0.8557191E-01
        1   -1    0    0  501    0  0.00000000000E+00  0.00000000000E+00  0.19207471209E+04  0.19207471209E+04  0.50400001928E-02 0. -1.
       -1   -1    0    0    0  501  0.00000000000E+00  0.00000000000E+00 -0.57904940410E+03  0.57904940413E+03  0.50400001928E-02 0.  1.
    10030    2    1    2    0    0  0.00000000000E+00  0.00000000000E+00  0.13416977168E+04  0.24997965250E+04  0.21092249532E+04 0.  0.
        2    1    3    3  502    0  0.38792627685E+03 -0.39189234621E+03 -0.39458218871E+03  0.67805715905E+03  0.25500000920E-02 0.  1.
       -2    1    3    3    0  502 -0.38792627685E+03  0.39189234621E+03  0.17362799055E+04  0.18217393659E+04  0.25500000920E-02 0. -1.
</event>
<event>
 5   0  0.4182977E-05  0.2165020E+04  0.7818609E-02  0.8533130E-01
        1   -1    0    0  501    0  0.00000000000E+00  0.00000000000E+00  0.98440146965E+03  0.98440146966E+03  0.50400001928E-02 0. -1.
       -1   -1    0    0    0  501  0.00000000000E+00  0.00000000000E+00 -0.11903963877E+04  0.11903963877E+04  0.50400001928E-02 0.  1.
    10030    2    1    2    0    0  0.00000000000E+00  0.00000000000E+00 -0.20599491806E+03  0.21747978574E+04  0.21650200494E+04 0.  0.
        1    1    3    3  502    0  0.33537309928E+02 -0.41079334876E+03 -0.11084936692E+04  0.11826386351E+04  0.50400001928E-02 0.  1.
       -1    1    3    3    0  502 -0.33537309928E+02  0.41079334876E+03  0.90249875113E+03  0.99215922229E+03  0.50400001928E-02 0. -1.
</event>
<event>
 5   0  0.9086985E-05  0.2098346E+04  0.7818609E-02  0.8561972E-01
       -2   -1    0    0    0  501  0.00000000000E+00  0.00000000000E+00  0.94379552883E+03  0.94379552883E+03  0.25500000920E-02 0. -1.
        2   -1    0    0  501    0  0.00000000000E+00  0.00000000000E+00 -0.11663167026E+04  0.11663167026E+04  0.25500000920E-02 0.  1.
    10030    2    1    2    0    0  0.00000000000E+00  0.00000000000E+00 -0.22252117380E+03  0.21101122315E+04  0.20983464815E+04 0.  0.
        5    1    3    3  502    0  0.48172539142E+03 -0.58981922670E+03 -0.83696925406E+03  0.11315854785E+04  0.46999998093E+01 0.  1.
       -5    1    3    3    0  502 -0.48172539142E+03  0.58981922670E+03  0.61444808026E+03  0.97852675296E+03  0.46999998093E+01 0. -1.
</event>
<event>
 5   0  0.9086985E-05  0.2087960E+04  0.7818609E-02  0.8566566E-01
        2   -1    0    0  501    0  0.00000000000E+00  0.00000000000E+00  0.90360838369E+03  0.90360838370E+03  0.25500000920E-02 0. -1.
       -2   -1    0    0    0  501  0.00000000000E+00  0.00000000000E+00 -0.12061582549E+04  0.12061582549E+04  0.25500000920E-02 0.  1.
    10030    2    1    2    0    0  0.00000000000E+00  0.00000000000E+00 -0.30254987116E+03  0.21097666386E+04  0.20879604509E+04 0.  0.
        5    1    3    3  502    0 -0.85351195891E+03 -0.25808122067E+03  0.39733559063E+03  0.97621014235E+03  0.46999998093E+01 0. -1.
       -5    1    3    3    0  502  0.85351195891E+03  0.25808122067E+03 -0.69988546178E+03  0.11335564962E+04  0.46999998093E+01 0.  1.
</event>
<event>
 5   0  0.8547605E-05  0.2121118E+04  0.7818609E-02  0.8551997E-01
       -2   -1    0    0    0  501  0.00000000000E+00  0.00000000000E+00  0.81962334725E+03  0.81962334725E+03  0.25500000920E-02 0. -1.
        2   -1    0    0  501    0  0.00000000000E+00  0.00000000000E+00 -0.13723204361E+04  0.13723204361E+04  0.25500000920E-02 0.  1.
    10030    2    1    2    0    0  0.00000000000E+00  0.00000000000E+00 -0.55269708881E+03  0.21919437833E+04  0.21211184496E+04 0.  0.
        4    1    3    3  502    0 -0.51569077668E+03 -0.31464411507E+03 -0.11771464834E+04  0.13231074607E+04  0.12699999809E+01 0.  1.
       -4    1    3    3    0  502  0.51569077668E+03  0.31464411507E+03  0.62444939454E+03  0.86883632265E+03  0.12699999809E+01 0. -1.
</event>
<event>
 5   0  0.4128678E-05  0.2068800E+04  0.7818609E-02  0.8575113E-01
        1   -1    0    0  501    0  0.00000000000E+00  0.00000000000E+00  0.11733738225E+04  0.11733738225E+04  0.50400001928E-02 0. -1.
       -1   -1    0    0    0  501  0.00000000000E+00  0.00000000000E+00 -0.91188592092E+03  0.91188592093E+03  0.50400001928E-02 0.  1.
    10030    2    1    2    0    0  0.00000000000E+00  0.00000000000E+00  0.26148790162E+03  0.20852597435E+04  0.20687997185E+04 0.  0.
        5    1    3    3  502    0 -0.42981134509E+03 -0.23807906518E+03 -0.78674080195E+03  0.92757889859E+03  0.46999998093E+01 0.  1.
       -5    1    3    3    0  502  0.42981134509E+03  0.23807906518E+03  0.10482287036E+04  0.11576808449E+04  0.46999998093E+01 0. -1.
</event>
<event>
 5   0  0.9012466E-05  0.2088435E+04  0.7818609E-02  0.8566355E-01
       -2   -1    0    0    0  501  0.00000000000E+00  0.00000000000E+00  0.58240652097E+03  0.58240652098E+03  0.25500000920E-02 0.  1.
        2   -1    0    0  501    0  0.00000000000E+00  0.00000000000E+00 -0.18722141483E+04  0.18722141483E+04  0.25500000920E-02 0. -1.
    10030    2    1    2    0    0  0.00000000000E+00  0.00000000000E+00 -0.12898076273E+04  0.24546206693E+04  0.20884345607E+04 0.  0.
        2    1    3    3  502    0  0.18777994309E+02  0.15485872063E+03  0.56863452905E+03  0.58964316672E+03  0.25500000920E-02 0.  1.
       -2    1    3    3    0  502 -0.18777994309E+02 -0.15485872063E+03 -0.18584421564E+04  0.18649775026E+04  0.25500000920E-02 0. -1.
</event>
<event>
 5   0  0.4050368E-05  0.2153046E+04  0.7818609E-02  0.8538229E-01
        1   -1    0    0  501    0  0.00000000000E+00  0.00000000000E+00  0.20339392009E+04  0.20339392009E+04  0.50400001928E-02 0. -1.
       -1   -1    0    0    0  501  0.00000000000E+00  0.00000000000E+00 -0.56978198444E+03  0.56978198446E+03  0.50400001928E-02 0.  1.
    10030    2    1    2    0    0  0.00000000000E+00  0.00000000000E+00  0.14641572164E+04  0.26037211853E+04  0.21530461343E+04 0.  0.
        2    1    3    3  502    0 -0.65170253571E+03 -0.17990605311E+03 -0.28102500926E+03  0.73215943539E+03  0.25500000920E-02 0.  1.
       -2    1    3    3    0  502  0.65170253571E+03  0.17990605311E+03  0.17451822257E+04  0.18715617499E+04  0.25500000920E-02 0. -1.
</event>
<event>
 5   0  0.9012466E-05  0.2111874E+04  0.7818609E-02  0.8556031E-01
       -2   -1    0    0    0  501  0.00000000000E+00  0.00000000000E+00  0.54371409299E+03  0.54371409300E+03  0.25500000920E-02 0.  1.
        2   -1    0    0  501    0  0.00000000000E+00  0.00000000000E+00 -0.20507147151E+04  0.20507147151E+04  0.25500000920E-02 0. -1.
    10030    2    1    2    0    0  0.00000000000E+00  0.00000000000E+00 -0.15070006221E+04  0.25944288081E+04  0.21118735675E+04 0.  0.
        2    1    3    3  502    0  0.75399700648E+03  0.69094450195E+03 -0.10764025602E+04  0.14847754922E+04  0.25500000920E-02 0. -1.
       -2    1    3    3    0  502 -0.75399700648E+03 -0.69094450195E+03 -0.43059806185E+03  0.11096533159E+04  0.25500000920E-02 0.  1.
</event>
<event>
 5   0  0.4128678E-05  0.2093026E+04  0.7818609E-02  0.8564322E-01
       -1   -1    0    0    0  501  0.00000000000E+00  0.00000000000E+00  0.71749981113E+03  0.71749981115E+03  0.50400001928E-02 0.  1.
        1   -1    0    0  501    0  0.00000000000E+00  0.00000000000E+00 -0.15263966837E+04  0.15263966837E+04  0.50400001928E-02 0. -1.
    10030    2    1    2    0    0  0.00000000000E+00  0.00000000000E+00 -0.80889687255E+03  0.22438964948E+04  0.20930258787E+04 0.  0.
        5    1    3    3  502    0 -0.28311546140E+03  0.92819953133E+03 -0.82442369620E+03  0.12733441229E+04  0.46999998093E+01 0.  1.
       -5    1    3    3    0  502  0.28311546140E+03 -0.92819953133E+03  0.15526823645E+02  0.97055237195E+03  0.46999998093E+01 0. -1.
</event>
<event>
 5   0  0.8547605E-05  0.2100337E+04  0.7818609E-02  0.8561095E-01
       -2   -1    0    0    0  501  0.00000000000E+00  0.00000000000E+00  0.10733960857E+04  0.10733960857E+04  0.25500000920E-02 0. -1.
        2   -1    0    0  501    0  0.00000000000E+00  0.00000000000E+00 -0.10274436462E+04  0.10274436462E+04  0.25500000920E-02 0.  1.
    10030    2    1    2    0    0  0.00000000000E+00  0.00000000000E+00  0.45952439424E+02  0.21008397319E+04  0.21003371045E+04 0.  0.
        4    1    3    3  502    0 -0.56805318271E+03 -0.50761436992E+03 -0.70003533824E+03  0.10346051685E+04  0.12699999809E+01 0.  1.
       -4    1    3    3    0  502  0.56805318271E+03  0.50761436992E+03  0.74598777767E+03  0.10662345634E+04  0.12699999809E+01 0. -1.
</event>
<event>
 5   0  0.4182977E-05  0.2132941E+04  0.7818609E-02  0.8546870E-01
       -1   -1    0    0    0  501  0.00000000000E+00  0.00000000000E+00  0.72910301064E+03  0.72910301066E+03  0.50400001928E-02 0.  1.
        1   -1    0    0  501    0  0.00000000000E+00  0.00000000000E+00 -0.15599427045E+04  0.15599427045E+04  0.50400001928E-02 0. -1.
    10030    2    1    2    0    0  0.00000000000E+00  0.00000000000E+00 -0.83083969390E+03  0.22890457152E+04  0.21329406202E+04 0.  0.
        1    1    3    3  502    0  0.10282959280E+04  0.34193922797E+02 -0.11416707934E+03  0.10351791448E+04  0.50400001928E-02 0.  1.
       -1    1    3    3    0  502 -0.10282959280E+04 -0.34193922797E+02 -0.71667261456E+03  0.12538665704E+04  0.50400001928E-02 0. -1.
</event>
<event>
 5   0  0.4128678E-05  0.2166799E+04  0.7818609E-02  0.8532376E-01
        1   -1    0    0  501    0  0.00000000000E+00  0.00000000000E+00  0.15710881321E+04  0.15710881321E+04  0.50400001928E-02 0. -1.
       -1   -1    0    0    0  501  0.00000000000E+00  0.00000000000E+00 -0.74709623053E+03  0.74709623055E+03  0.50400001928E-02 0.  1.
    10030    2    1    2    0    0  0.00000000000E+00  0.00000000000E+00  0.82399190153E+03  0.23181843626E+04  0.21667985798E+04 0.  0.
        5    1    3    3  502    0 -0.99290943831E+02 -0.10118488156E+04  0.81235353477E+03  0.13013981222E+04  0.46999998093E+01 0. -1.
       -5    1    3    3    0  502  0.99290943831E+02  0.10118488156E+04  0.11638366757E+02  0.10167862404E+04  0.46999998093E+01 0.  1.
</event>
<event>
 5   0  0.4200061E-05  0.2091801E+04  0.7818609E-02  0.8564864E-01
       -1   -1    0    0    0  501  0.00000000000E+00  0.00000000000E+00  0.58936607670E+03  0.58936607672E+03  0.50400001928E-02 0. -1.
        1   -1    0    0  501    0  0.00000000000E+00  0.00000000000E+00 -0.18560751887E+04  0.18560751887E+04  0.50400001928E-02 0.  1.
    10030    2    1    2    0    0  0.00000000000E+00  0.00000000000E+00 -0.12667091120E+04  0.24454412654E+04  0.20918009007E+04 0.  0.
        4    1    3    3  502    0 -0.68991114021E+03 -0.56004919574E+03 -0.12782199435E+04  0.15567531339E+04  0.12699999809E+01 0.  1.
       -4    1    3    3    0  502  0.68991114021E+03  0.56004919574E+03  0.11510831455E+02  0.88868813156E+03  0.12699999809E+01 0. -1.
</event>
<event>
 5   0  0.9012466E-05  0.2092818E+04  0.7818609E-02  0.8564413E-01
       -2   -1    0    0    0  501  0.00000000000E+00  0.00000000000E+00  0.84627972051E+03  0.84627972051E+03  0.25500000920E-02 0.  1.
        2   -1    0    0  501    0  0.00000000000E+00  0.00000000000E+00 -0.12938657081E+04  0.12938657081E+04  0.25500000920E-02 0. -1.
    10030    2    1    2    0    0  0.00000000000E+00  0.00000000000E+00 -0.44758598762E+03  0.21401454286E+04  0.20928184918E+04 0.  0.
        2    1    3    3  502    0 -0.35571416157E+03  0.52858144052E+03  0.62506370833E+03  0.89254442101E+03  0.25500000920E-02 0.  1.
       -2    1    3    3    0  502  0.35571416157E+03 -0.52858144052E+03 -0.10726496960E+04  0.12476010076E+04  0.25500000920E-02 0. -1.
</event>
<event>
 5   0  0.8872777E-05  0.1976968E+04  0.7818609E-02  0.8617465E-01
       -2   -1    0    0    0  501  0.00000000000E+00  0.00000000000E+00  0.13956721959E+04  0.13956721959E+04  0.25500000920E-02 0. -1.
        2   -1    0    0  501    0  0.00000000000E+00  0.00000000000E+00 -0.70009344123E+03  0.70009344123E+03  0.25500000920E-02 0.  1.
    10030    2    1    2    0    0  0.00000000000E+00  0.00000000000E+00  0.69557875469E+03  0.20957656372E+04  0.19769683361E+04 0.  0.
        3    1    3    3  502    0 -0.67709250909E+03 -0.70744681017E+03  0.20491021562E+03  0.10004616243E+04  0.10100000352E+00 0.  1.
       -3    1    3    3    0  502  0.67709250909E+03  0.70744681017E+03  0.49066853907E+03  0.10953040128E+04  0.10100000352E+00 0. -1.
</event>
<event>
 5   0  0.4128678E-05  0.2206731E+04  0.7818609E-02  0.8515632E-01
        1   -1    0    0  501    0  0.00000000000E+00  0.00000000000E+00  0.14265030675E+04  0.14265030675E+04  0.50400001928E-02 0.  1.
       -1   -1    0    0    0  501  0.00000000000E+00  0.00000000000E+00 -0.85342673709E+03  0.85342673710E+03  0.50400001928E-02 0. -1.
    10030    2    1    2    0    0  0.00000000000E+00  0.00000000000E+00  0.57307633037E+03  0.22799298046E+04  0.22067313913E+04 0.  0.
        5    1    3    3  502    0  0.10527537769E+04 -0.33029202671E+03  0.28987495955E+03  0.11408036289E+04  0.46999998093E+01 0. -1.
       -5    1    3    3    0  502 -0.10527537769E+04  0.33029202671E+03  0.28320137082E+03  0.11391261756E+04  0.46999998093E+01 0.  1.
</event>
<event>
 5   0  0.9086985E-05  0.2109810E+04  0.7818609E-02  0.8556934E-01
        2   -1    0    0  501    0  0.00000000000E+00  0.00000000000E+00  0.10502222467E+04  0.10502222467E+04  0.25500000920E-02 0. -1.
       -2   -1    0    0    0  501  0.00000000000E+00  0.00000000000E+00 -0.10596087455E+04  0.10596087455E+04  0.25500000920E-02 0.  1.
    10030    2    1    2    0    0  0.00000000000E+00  0.00000000000E+00 -0.93864987294E+01  0.21098309922E+04  0.21098101121E+04 0.  0.
        5    1    3    3  502    0 -0.53390560881E+03  0.17622870626E+03  0.88789097664E+03  0.10509444478E+04  0.46999998093E+01 0. -1.
       -5    1    3    3    0  502  0.53390560881E+03 -0.17622870626E+03 -0.89727747537E+03  0.10588865444E+04  0.46999998093E+01 0.  1.
</event>
<event>
 5   0  0.9086985E-05  0.2111618E+04  0.7818609E-02  0.8556143E-01
        2   -1    0    0  501    0  0.00000000000E+00  0.00000000000E+00  0.15697809812E+04  0.15697809812E+04  0.25500000920E-02 0. -1.
       -2   -1    0    0    0  501  0.00000000000E+00  0.00000000000E+00 -0.71011980584E+03  0.71011980585E+03  0.25500000920E-02 0.  1.
    10030    2    1    2    0    0  0.00000000000E+00  0.00000000000E+00  0.85966117538E+03  0.22799007871E+04  0.21116179253E+04 0.  0.
        5    1    3    3  502    0 -0.33761343674E+03 -0.94118381525E+03  0.79581440857E+03  0.12779485395E+04  0.46999998093E+01 0. -1.
       -5    1    3    3    0  502  0.33761343674E+03  0.94118381525E+03  0.63846766811E+02  0.10019522476E+04  0.46999998093E+01 0.  1.
</event>
<event>
 5   0  0.9086985E-05  0.1780776E+04  0.7818609E-02  0.8716590E-01
       -2   -1    0    0    0  501  0.00000000000E+00  0.00000000000E+00  0.30764752821E+03  0.30764752822E+03  0.25500000920E-02 0. -1.
        2   -1    0    0  501    0  0.00000000000E+00  0.00000000000E+00 -0.25769457385E+04  0.25769457385E+04  0.25500000920E-02 0.  1.
    10030    2    1    2    0    0  0.00000000000E+00  0.00000000000E+00 -0.22692982103E+04  0.28845932667E+04  0.17807762204E+04 0.  0.
        5    1    3    3  502    0 -0.88578825725E+03 -0.59557227465E+02 -0.10247735196E+04  0.13558579411E+04  0.46999998093E+01 0. -1.
       -5    1    3    3    0  502  0.88578825725E+03  0.59557227465E+02 -0.12445246907E+04  0.15287353256E+04  0.46999998093E+01 0.  1.
</event>
<event>
 5   0  0.4182977E-05  0.2035054E+04  0.7818609E-02  0.8590405E-01
       -1   -1    0    0    0  501  0.00000000000E+00  0.00000000000E+00  0.82789562223E+03  0.82789562225E+03  0.50400001928E-02 0. -1.
        1   -1    0    0  501    0  0.00000000000E+00  0.00000000000E+00 -0.12505934123E+04  0.12505934123E+04  0.50400001928E-02 0.  1.
    10030    2    1    2    0    0  0.00000000000E+00  0.00000000000E+00 -0.42269779004E+03  0.20784890345E+04  0.20350536221E+04 0.  0.
        1    1    3    3  502    0 -0.39904248127E+03  0.60764160040E+03  0.51581447863E+03  0.89136288502E+03  0.50400001928E-02 0. -1.
       -1    1    3    3    0  502  0.39904248127E+03 -0.60764160040E+03 -0.93851226867E+03  0.11871261495E+04  0.50400001928E-02 0.  1.
</event>
<event>
 5   0  0.8547605E-05  0.2172349E+04  0.7818609E-02  0.8530026E-01
       -2   -1    0    0    0  501  0.00000000000E+00  0.00000000000E+00  0.67444744922E+03  0.67444744922E+03  0.25500000920E-02 0.  1.
        2   -1    0    0  501    0  0.00000000000E+00  0.00000000000E+00 -0.17492468888E+04  0.17492468888E+04  0.25500000920E-02 0. -1.
    10030    2    1    2    0    0  0.00000000000E+00  0.00000000000E+00 -0.10747994396E+04  0.24236943380E+04  0.21723490532E+04 0.  0.
        4    1    3    3  502    0  0.43695287766E+03  0.73383947710E+03 -0.12861058859E+04  0.15438646826E+04  0.12699999809E+01 0. -1.
       -4    1    3    3    0  502 -0.43695287766E+03 -0.73383947710E+03  0.21130644633E+03  0.87982965545E+03  0.12699999809E+01 0.  1.
</event>
<event>
 5   0  0.4182977E-05  0.2100051E+04  0.7818609E-02  0.8561221E-01
       -1   -1    0    0    0  501  0.00000000000E+00  0.00000000000E+00  0.66414287189E+03  0.66414287191E+03  0.50400001928E-02 0. -1.
        1   -1    0    0  501    0  0.00000000000E+00  0.00000000000E+00 -0.16601147450E+04  0.16601147450E+04  0.50400001928E-02 0.  1.
    10030    2    1    2    0    0  0.00000000000E+00  0.00000000000E+00 -0.99597187308E+03  0.23242576169E+04  0.21000508322E+04 0.  0.
        1    1    3    3  502    0  0.78774446184E+03 -0.64094193195E+03 -0.20265349469E+03  0.10355753648E+04  0.50400001928E-02 0. -1.
       -1    1    3    3    0  502 -0.78774446184E+03  0.64094193195E+03 -0.79331837839E+03  0.12886822521E+04  0.50400001928E-02 0.  1.
</event>
<event>
 5   0  0.4182977E-05  0.2137092E+04  0.7818609E-02  0.8545078E-01
        1   -1    0    0  501    0  0.00000000000E+00  0.00000000000E+00  0.94723789594E+03  0.94723789595E+03  0.50400001928E-02 0. -1.
       -1   -1    0    0    0  501  0.00000000000E+00  0.00000000000E+00 -0.12053899332E+04  0.12053899332E+04  0.50400001928E-02 0.  1.
    10030    2    1    2    0    0  0.00000000000E+00  0.00000000000E+00 -0.25815203726E+03  0.21526278292E+04  0.21370924399E+04 0.  0.
        1    1    3    3  502    0 -0.32862103621E+03  0.73006342302E+03  0.58374530104E+03  0.99082943214E+03  0.50400001928E-02 0. -1.
       -1    1    3    3    0  502  0.32862103621E+03 -0.73006342302E+03 -0.84189733830E+03  0.11617983970E+04  0.50400001928E-02 0.  1.
</event>
<event>
 5   0  0.4050368E-05  0.2113301E+04  0.7818609E-02  0.8555407E-01
       -1   -1    0    0    0  501  0.00000000000E+00  0.00000000000E+00  0.10392717901E+04  0.10392717901E+04  0.50400001928E-02 0. -1.
        1   -1    0    0  501    0  0.00000000000E+00  0.00000000000E+00 -0.10743201426E+04  0.10743201426E+04  0.50400001928E-02 0.  1.
    10030    2    1    2    0    0  0.00000000000E+00  0.00000000000E+00 -0.35048352508E+02  0.21135919327E+04  0.21133013204E+04 0.  0.
        2    1    3    3  502    0  0.81337634925E+02  0.11935230747E+03  0.10293526993E+04  0.10394362721E+04  0.25500000920E-02 0. -1.
       -2    1    3    3    0  502 -0.81337634925E+02 -0.11935230747E+03 -0.10644010518E+04  0.10741556606E+04  0.25500000920E-02 0.  1.
</event>
<event>
 5   0  0.8547605E-05  0.2131151E+04  0.7818609E-02  0.8547644E-01
        2   -1    0    0  501    0  0.00000000000E+00  0.00000000000E+00  0.12803513673E+04  0.12803513673E+04  0.25500000920E-02 0. -1.
       -2   -1    0    0    0  501  0.00000000000E+00  0.00000000000E+00 -0.88682747767E+03  0.88682747767E+03  0.25500000920E-02 0.  1.
    10030    2    1    2    0    0  0.00000000000E+00  0.00000000000E+00  0.39352388966E+03  0.21671788450E+04  0.21311506503E+04 0.  0.
        4    1    3    3  502    0 -0.41687412711E+03  0.39714851096E+03 -0.71502197707E+03  0.91802451940E+03  0.12699999809E+01 0.  1.
       -4    1    3    3    0  502  0.41687412711E+03 -0.39714851096E+03  0.11085458667E+04  0.12491543256E+04  0.12699999809E+01 0. -1.
</event>
<event>
 5   0  0.4200061E-05  0.2095156E+04  0.7818609E-02  0.8563380E-01
       -1   -1    0    0    0  501  0.00000000000E+00  0.00000000000E+00  0.13429016021E+04  0.13429016022E+04  0.50400001928E-02 0.  1.
        1   -1    0    0  501    0  0.00000000000E+00  0.00000000000E+00 -0.81720027202E+03  0.81720027204E+03  0.50400001928E-02 0. -1.
    10030    2    1    2    0    0  0.00000000000E+00  0.00000000000E+00  0.52570133012E+03  0.21601018742E+04  0.20951558936E+04 0.  0.
        4    1    3    3  502    0  0.51001666103E+03 -0.35515520867E+02 -0.67984457432E+03  0.85062835885E+03  0.12699999809E+01 0. -1.
       -4    1    3    3    0  502 -0.51001666103E+03  0.35515520867E+02  0.12055459044E+04  0.13094735153E+04  0.12699999809E+01 0.  1.
</event>
<event>
 5   0  0.4174093E-05  0.2085428E+04  0.7818609E-02  0.8567690E-01
       -1   -1    0    0    0  501  0.00000000000E+00  0.00000000000E+00  0.11960412212E+04  0.11960412212E+04  0.50400001928E-02 0. -1.
        1   -1    0    0  501    0  0.00000000000E+00  0.00000000000E+00 -0.90904282559E+03  0.90904282561E+03  0.50400001928E-02 0.  1.
    10030    2    1    2    0    0  0.00000000000E+00  0.00000000000E+00  0.28699839557E+03  0.21050840468E+04  0.20854281970E+04 0.  0.
        3    1    3    3  502    0  0.91380627755E+02  0.83789177013E+02  0.11885745709E+04  0.11950232492E+04  0.10100000352E+00 0. -1.
       -3    1    3    3    0  502 -0.91380627755E+02 -0.83789177013E+02 -0.90157617530E+03  0.91006079763E+03  0.10100000352E+00 0.  1.
</event>
<event>
 5   0  0.8858590E-05  0.2101073E+04  0.7818609E-02  0.8560771E-01
        2   -1    0    0  501    0  0.00000000000E+00  0.00000000000E+00  0.17178873188E+04  0.17178873188E+04  0.25500000920E-02 0. -1.
       -2   -1    0    0    0  501  0.00000000000E+00  0.00000000000E+00 -0.64243273544E+03  0.64243273544E+03  0.25500000920E-02 0.  1.
    10030    2    1    2    0    0  0.00000000000E+00  0.00000000000E+00  0.10754545834E+04  0.23603200543E+04  0.21010731062E+04 0.  0.
        1    1    3    3  502    0 -0.61851371928E+03 -0.53921826832E+03 -0.19919416616E+03  0.84438964802E+03  0.50400001928E-02 0.  1.
       -1    1    3    3    0  502  0.61851371928E+03  0.53921826832E+03  0.12746487495E+04  0.15159304062E+04  0.50400001928E-02 0. -1.
</event>
<event>
 5   0  0.9086985E-05  0.2096878E+04  0.7818609E-02  0.8562620E-01
        2   -1    0    0  501    0  0.00000000000E+00  0.00000000000E+00  0.10581501615E+04  0.10581501615E+04  0.25500000920E-02 0.  1.
       -2   -1    0    0    0  501  0.00000000000E+00  0.00000000000E+00 -0.10388166144E+04  0.10388166144E+04  0.25500000920E-02 0. -1.
    10030    2    1    2    0    0  0.00000000000E+00  0.00000000000E+00  0.19333547150E+02  0.20969667759E+04  0.20968776486E+04 0.  0.
        5    1    3    3  502    0  0.48348843163E+02  0.53736011910E+03 -0.88931991622E+03  0.10401949392E+04  0.46999998093E+01 0. -1.
       -5    1    3    3    0  502 -0.48348843163E+02 -0.53736011910E+03  0.90865346337E+03  0.10567718366E+04  0.46999998093E+01 0.  1.
</event>
<event>
 5   0  0.4200061E-05  0.2106785E+04  0.7818609E-02  0.8558260E-01
        1   -1    0    0  501    0  0.00000000000E+00  0.00000000000E+00  0.83026600398E+03  0.83026600400E+03  0.50400001928E-02 0. -1.
       -1   -1    0    0    0  501  0.00000000000E+00  0.00000000000E+00 -0.13364820983E+04  0.13364820983E+04  0.50400001928E-02 0.  1.
    10030    2    1    2    0    0  0.00000000000E+00  0.00000000000E+00 -0.50621609434E+03  0.21667481023E+04  0.21067848976E+04 0.  0.
        4    1    3    3  502    0  0.90159834676E+03 -0.43146359775E+03  0.88913345981E+02  0.10034677927E+04  0.12699999809E+01 0.  1.
       -4    1    3    3    0  502 -0.90159834676E+03  0.43146359775E+03 -0.59512944032E+03  0.11632803096E+04  0.12699999809E+01 0. -1.
</event>
<event>
 5   0  0.8547605E-05  0.2100648E+04  0.7818609E-02  0.8560958E-01
        2   -1    0    0  501    0  0.00000000000E+00  0.00000000000E+00  0.10939324110E+04  0.10939324110E+04  0.25500000920E-02 0.  1.
       -2   -1    0    0    0  501  0.00000000000E+00  0.00000000000E+00 -0.10084542451E+04  0.10084542451E+04  0.25500000920E-02 0. -1.
    10030    2    1    2    0    0  0.00000000000E+00  0.00000000000E+00  0.85478165965E+02  0.21023866561E+04  0.21006482654E+04 0.  0.
        4    1    3    3  502    0  0.14373310252E+02 -0.64129472492E+03  0.87512059589E+03  0.10850360301E+04  0.12699999809E+01 0.  1.
       -4    1    3    3    0  502 -0.14373310252E+02  0.64129472492E+03 -0.78964242993E+03  0.10173506260E+04  0.12699999809E+01 0. -1.
</event>
<event>
 5   0  0.9012466E-05  0.2083137E+04  0.7818609E-02  0.8568708E-01
       -2   -1    0    0    0  501  0.00000000000E+00  0.00000000000E+00  0.10536972048E+04  0.10536972048E+04  0.25500000920E-02 0.  1.
        2   -1    0    0  501    0  0.00000000000E+00  0.00000000000E+00 -0.10295791691E+04  0.10295791691E+04  0.25500000920E-02 0. -1.
    10030    2    1    2    0    0  0.00000000000E+00  0.00000000000E+00  0.24118035651E+02  0.20832763739E+04  0.20831367623E+04 0.  0.
        2    1    3    3  502    0  0.44282780751E+03  0.67092058018E+02  0.95247669745E+03  0.10525253776E+04  0.25500000920E-02 0.  1.
       -2    1    3    3    0  502 -0.44282780751E+03 -0.67092058018E+02 -0.92835866180E+03  0.10307509963E+04  0.25500000920E-02 0. -1.
</event>
<event>
 5   0  0.4182977E-05  0.2095686E+04  0.7818609E-02  0.8563146E-01
       -1   -1    0    0    0  501  0.00000000000E+00  0.00000000000E+00  0.57913716372E+03  0.57913716374E+03  0.50400001928E-02 0.  1.
        1   -1    0    0  501    0  0.00000000000E+00  0.00000000000E+00 -0.18958815055E+04  0.18958815055E+04  0.50400001928E-02 0. -1.
    10030    2    1    2    0    0  0.00000000000E+00  0.00000000000E+00 -0.13167443418E+04  0.24750186693E+04  0.20956864631E+04 0.  0.
        1    1    3    3  502    0  0.58127406347E+03  0.63635975530E+03 -0.13621786957E+04  0.16119441907E+04  0.50400001928E-02 0. -1.
       -1    1    3    3    0  502 -0.58127406347E+03 -0.63635975530E+03  0.45434353849E+02  0.86307447857E+03  0.50400001928E-02 0.  1.
</event>
<event>
 5   0  0.9012466E-05  0.2121913E+04  0.7818609E-02  0.8551652E-01
       -2   -1    0    0    0  501  0.00000000000E+00  0.00000000000E+00  0.14315233581E+04  0.14315233581E+04  0.25500000920E-02 0.  1.
        2   -1    0    0  501    0  0.00000000000E+00  0.00000000000E+00 -0.78631500760E+03  0.78631500760E+03  0.25500000920E-02 0. -1.
    10030    2    1    2    0    0  0.00000000000E+00  0.00000000000E+00  0.64520835049E+03  0.22178383657E+04  0.21219126280E+04 0.  0.
        2    1    3    3  502    0 -0.87054002126E+03  0.57696915715E+03  0.12735744602E+03  0.10521184610E+04  0.25500000920E-02 0. -1.
       -2    1    3    3    0  502  0.87054002126E+03 -0.57696915715E+03  0.51785090448E+03  0.11657199047E+04  0.25500000920E-02 0.  1.
</event>
<event>
 5   0  0.4050368E-05  0.2041833E+04  0.7818609E-02  0.8587308E-01
       -1   -1    0    0    0  501  0.00000000000E+00  0.00000000000E+00  0.12647663159E+04  0.12647663159E+04  0.50400001928E-02 0.  1.
        1   -1    0    0  501    0  0.00000000000E+00  0.00000000000E+00 -0.82408179715E+03  0.82408179716E+03  0.50400001928E-02 0. -1.
    10030    2    1    2    0    0  0.00000000000E+00  0.00000000000E+00  0.44068451877E+03  0.20888481131E+04  0.20418333905E+04 0.  0.
        2    1    3    3  502    0  0.92250600895E+03 -0.35780104833E+03 -0.36907468047E+02  0.99015205293E+03  0.25500000920E-02 0.  1.
       -2    1    3    3    0  502 -0.92250600895E+03  0.35780104833E+03  0.47759198682E+03  0.10986960602E+04  0.25500000920E-02 0. -1.
</event>
<event>
 5   0  0.4200061E-05  0.2113379E+04  0.7818609E-02  0.8555372E-01
       -1   -1    0    0    0  501  0.00000000000E+00  0.00000000000E+00  0.65900209869E+03  0.65900209871E+03  0.50400001928E-02 0. -1.
        1   -1    0    0  501    0  0.00000000000E+00  0.00000000000E+00 -0.16943696387E+04  0.16943696387E+04  0.50400001928E-02 0.  1.
    10030    2    1    2    0    0  0.00000000000E+00  0.00000000000E+00 -0.10353675400E+04  0.23533717374E+04  0.21133794244E+04 0.  0.
        4    1    3    3  502    0 -0.13361035307E+03 -0.42159967367E+03  0.55098064147E+03  0.70652621428E+03  0.12699999809E+01 0. -1.
       -4    1    3    3    0  502  0.13361035307E+03  0.42159967367E+03 -0.15863481814E+04  0.16468455231E+04  0.12699999809E+01 0.  1.
</event>
<event>
 5   0  0.8858590E-05  0.1744585E+04  0.7818609E-02  0.8736337E-01
        2   -1    0    0  501    0  0.00000000000E+00  0.00000000000E+00  0.22379424928E+04  0.22379424928E+04  0.25500000920E-02 0.  1.
       -2   -1    0    0    0  501  0.00000000000E+00  0.00000000000E+00 -0.33999701640E+03  0.33999701641E+03  0.25500000920E-02 0. -1.
    10030    2    1    2    0    0  0.00000000000E+00  0.00000000000E+00  0.18979454764E+04  0.25779395092E+04  0.17445845012E+04 0.  0.
        1    1    3    3  502    0  0.65129062872E+03  0.55576441956E+03  0.70241600509E+03  0.11074483362E+04  0.50400001928E-02 0. -1.
       -1    1    3    3    0  502 -0.65129062872E+03 -0.55576441956E+03  0.11955294713E+04  0.14704911730E+04  0.50400001928E-02 0.  1.
</event>
<event>
 5   0  0.9012466E-05  0.2135546E+04  0.7818609E-02  0.8545745E-01
       -2   -1    0    0    0  501  0.00000000000E+00  0.00000000000E+00  0.94151852473E+03  0.94151852473E+03  0.25500000920E-02 0.  1.
        2   -1    0    0  501    0  0.00000000000E+00  0.00000000000E+00 -0.12109575916E+04  0.12109575916E+04  0.25500000920E-02 0. -1.
    10030    2    1    2    0    0  0.00000000000E+00  0.00000000000E+00 -0.26943906686E+03  0.21524761163E+04  0.21355458367E+04 0.  0.
        2    1    3    3  502    0 -0.92009034120E+03  0.41024849723E+03 -0.49145898847E+03  0.11208933949E+04  0.25500000920E-02 0. -1.
       -2    1    3    3    0  502  0.92009034120E+03 -0.41024849723E+03  0.22201992162E+03  0.10315827214E+04  0.25500000920E-02 0.  1.
</event>
<event>
 5   0  0.4182977E-05  0.2107897E+04  0.7818609E-02  0.8557773E-01
       -1   -1    0    0    0  501  0.00000000000E+00  0.00000000000E+00  0.10912311990E+04  0.10912311990E+04  0.50400001928E-02 0.  1.
        1   -1    0    0  501    0  0.00000000000E+00  0.00000000000E+00 -0.10179394475E+04  0.10179394475E+04  0.50400001928E-02 0. -1.
    10030    2    1    2    0    0  0.00000000000E+00  0.00000000000E+00  0.73291751472E+02  0.21091706465E+04  0.21078968512E+04 0.  0.
        1    1    3    3  502    0 -0.78864699478E+03 -0.42151465360E+03  0.59480784881E+03  0.10739809415E+04  0.50400001928E-02 0.  1.
       -1    1    3    3    0  502  0.78864699478E+03  0.42151465360E+03 -0.52151609734E+03  0.10351897050E+04  0.50400001928E-02 0. -1.
</event>
<event>
 5   0  0.4050368E-05  0.2081633E+04  0.7818609E-02  0.8569377E-01
       -1   -1    0    0    0  501  0.00000000000E+00  0.00000000000E+00  0.83434939763E+03  0.83434939764E+03  0.50400001928E-02 0. -1.
        1   -1    0    0  501    0  0.00000000000E+00  0.00000000000E+00 -0.12983763026E+04  0.12983763027E+04  0.50400001928E-02 0.  1.
    10030    2    1    2    0    0  0.00000000000E+00  0.00000000000E+00 -0.46402690502E+03  0.21327257003E+04  0.20816334798E+04 0.  0.
        2    1    3    3  502    0  0.79043819905E+02  0.10327996937E+04 -0.33637802817E+03  0.10890699292E+04  0.25500000920E-02 0.  1.
       -2    1    3    3    0  502 -0.79043819905E+02 -0.10327996937E+04 -0.12764887685E+03  0.10436557711E+04  0.25500000920E-02 0. -1.
</event>
<event>
 5   0  0.8858590E-05  0.2120699E+04  0.7818609E-02  0.8552180E-01
        2   -1    0    0  501    0  0.00000000000E+00  0.00000000000E+00  0.79424774902E+03  0.79424774902E+03  0.25500000920E-02 0.  1.
       -2   -1    0    0    0  501  0.00000000000E+00  0.00000000000E+00 -0.14156046789E+04  0.14156046789E+04  0.25500000920E-02 0. -1.
    10030    2    1    2    0    0  0.00000000000E+00  0.00000000000E+00 -0.62135692990E+03  0.22098524279E+04  0.21206987808E+04 0.  0.
        1    1    3    3  502    0  0.54760464471E+03  0.77091238998E+03  0.18924445722E+03  0.96436000775E+03  0.50400001928E-02 0.  1.
       -1    1    3    3    0  502 -0.54760464471E+03 -0.77091238998E+03 -0.81060138712E+03  0.12454924202E+04  0.50400001928E-02 0. -1.
</event>
<event>
 5   0  0.4050368E-05  0.2078437E+04  0.7818609E-02  0.8570802E-01
        1   -1    0    0  501    0  0.00000000000E+00  0.00000000000E+00  0.85314834979E+03  0.85314834981E+03  0.50400001928E-02 0. -1.
       -1   -1    0    0    0  501  0.00000000000E+00  0.00000000000E+00 -0.12658705902E+04  0.12658705902E+04  0.50400001928E-02 0.  1.
    10030    2    1    2    0    0  0.00000000000E+00  0.00000000000E+00 -0.41272224039E+03  0.21190189400E+04  0.20784373025E+04 0.  0.
        2    1    3    3  502    0  0.10206980800E+04  0.71150930823E+02 -0.39181488755E+03  0.10956303809E+04  0.25500000920E-02 0.  1.
       -2    1    3    3    0  502 -0.10206980800E+04 -0.71150930823E+02 -0.20907352841E+02  0.10233885591E+04  0.25500000920E-02 0. -1.
</event>
<event>
 5   0  0.4174093E-05  0.2075721E+04  0.7818609E-02  0.8572015E-01
       -1   -1    0    0    0  501  0.00000000000E+00  0.00000000000E+00  0.57495521238E+03  0.57495521240E+03  0.50400001928E-02 0. -1.
        1   -1    0    0  501    0  0.00000000000E+00  0.00000000000E+00 -0.18734577375E+04  0.18734577375E+04  0.50400001928E-02 0.  1.
    10030    2    1    2    0    0  0.00000000000E+00  0.00000000000E+00 -0.12985025252E+04  0.24484129499E+04  0.20757208785E+04 0.  0.
        3    1    3    3  502    0 -0.22468764708E+03 -0.31274056209E+03  0.48756837096E+03  0.62130034966E+03  0.10100000352E+00 0. -1.
       -3    1    3    3    0  502  0.22468764708E+03  0.31274056209E+03 -0.17860708961E+04  0.18271126003E+04  0.10100000352E+00 0.  1.
</event>
<event>
 5   0  0.8547605E-05  0.2037162E+04  0.7818609E-02  0.8589441E-01
        2   -1    0    0  501    0  0.00000000000E+00  0.00000000000E+00  0.20807225766E+04  0.20807225766E+04  0.25500000920E-02 0. -1.
       -2   -1    0    0    0  501  0.00000000000E+00  0.00000000000E+00 -0.49862823661E+03  0.49862823661E+03  0.25500000920E-02 0.  1.
    10030    2    1    2    0    0  0.00000000000E+00  0.00000000000E+00  0.15820943400E+04  0.25793508132E+04  0.20371617798E+04 0.  0.
        4    1    3    3  502    0  0.21680671812E+03  0.16746065773E+03 -0.45110729617E+03  0.52777611775E+03  0.12699999809E+01 0.  1.
       -4    1    3    3    0  502 -0.21680671812E+03 -0.16746065773E+03  0.20332016362E+04  0.20515746955E+04  0.12699999809E+01 0. -1.
</event>
<event>
 5   0  0.8547605E-05  0.2174755E+04  0.7818609E-02  0.8529010E-01
       -2   -1    0    0    0  501  0.00000000000E+00  0.00000000000E+00  0.66683783609E+03  0.66683783609E+03  0.25500000920E-02 0.  1.
        2   -1    0    0  501    0  0.00000000000E+00  0.00000000000E+00 -0.17731297922E+04  0.17731297922E+04  0.25500000920E-02 0. -1.
    10030    2    1    2    0    0  0.00000000000E+00  0.00000000000E+00 -0.11062919561E+04  0.24399676283E+04  0.21747551896E+04 0.  0.
        4    1    3    3  502    0 -0.23068530813E+03  0.98897835568E+03 -0.98925798854E+03  0.14177189003E+04  0.12699999809E+01 0. -1.
       -4    1    3    3    0  502  0.23068530813E+03 -0.98897835568E+03 -0.11703396753E+03  0.10222487280E+04  0.12699999809E+01 0.  1.
</event>
<event>
 5   0  0.8547605E-05  0.2094029E+04  0.7818609E-02  0.8563878E-01
        2   -1    0    0  501    0  0.00000000000E+00  0.00000000000E+00  0.14677122330E+04  0.14677122330E+04  0.25500000920E-02 0. -1.
       -2   -1    0    0    0  501  0.00000000000E+00  0.00000000000E+00 -0.74690327946E+03  0.74690327947E+03  0.25500000920E-02 0.  1.
    10030    2    1    2    0    0  0.00000000000E+00  0.00000000000E+00  0.72080895357E+03  0.22146155125E+04  0.20940287297E+04 0.  0.
        4    1    3    3  502    0 -0.13579117902E+02  0.75002736374E+03 -0.41207652898E+03  0.85588206982E+03  0.12699999809E+01 0.  1.
       -4    1    3    3    0  502  0.13579117902E+02 -0.75002736374E+03  0.11328854826E+04  0.13587334427E+04  0.12699999809E+01 0. -1.
</event>
<event>
 5   0  0.8872777E-05  0.2111392E+04  0.7818609E-02  0.8556242E-01
        2   -1    0    0  501    0  0.00000000000E+00  0.00000000000E+00  0.12736376449E+04  0.12736376449E+04  0.25500000920E-02 0.  1.
       -2   -1    0    0    0  501  0.00000000000E+00  0.00000000000E+00 -0.87504796339E+03  0.87504796339E+03  0.25500000920E-02 0. -1.
    10030    2    1    2    0    0  0.00000000000E+00  0.00000000000E+00  0.39858968155E+03  0.21486856083E+04  0.21113919838E+04 0.  0.
        3    1    3    3  502    0 -0.86342066147E+03 -0.10053869408E+03  0.80895124294E+03  0.11874364789E+04  0.10100000352E+00 0.  1.
       -3    1    3    3    0  502  0.86342066147E+03  0.10053869408E+03 -0.41036156139E+03  0.96124912948E+03  0.10100000352E+00 0. -1.
</event>
<event>
 5   0  0.4182977E-05  0.2098363E+04  0.7818609E-02  0.8561965E-01
        1   -1    0    0  501    0  0.00000000000E+00  0.00000000000E+00  0.10373235361E+04  0.10373235361E+04  0.50400001928E-02 0.  1.
       -1   -1    0    0    0  501  0.00000000000E+00  0.00000000000E+00 -0.10611752832E+04  0.10611752833E+04  0.50400001928E-02 0. -1.
    10030    2    1    2    0    0  0.00000000000E+00  0.00000000000E+00 -0.23851747169E+02  0.20984988193E+04  0.20983632643E+04 0.  0.
        1    1    3    3  502    0  0.52117767076E+03  0.43844529402E+03  0.78619939870E+03  0.10401778381E+04  0.50400001928E-02 0.  1.
       -1    1    3    3    0  502 -0.52117767076E+03 -0.43844529402E+03 -0.81005114587E+03  0.10583209812E+04  0.50400001928E-02 0. -1.
</event>
<event>
 5   0  0.9012466E-05  0.2098092E+04  0.7818609E-02  0.8562084E-01
       -2   -1    0    0    0  501  0.00000000000E+00  0.00000000000E+00  0.55211208489E+03  0.55211208490E+03  0.25500000920E-02 0. -1.
        2   -1    0    0  501    0  0.00000000000E+00  0.00000000000E+00 -0.19932504049E+04  0.19932504049E+04  0.25500000920E-02 0.  1.
    10030    2    1    2    0    0  0.00000000000E+00  0.00000000000E+00 -0.14411383200E+04  0.25453624898E+04  0.20980921207E+04 0.  0.
        2    1    3    3  502    0  0.23982441970E+02  0.90818851749E+03 -0.84238151572E+02  0.91240210818E+03  0.25500000920E-02 0. -1.
       -2    1    3    3    0  502 -0.23982441970E+02 -0.90818851749E+03 -0.13569001684E+04  0.16329603816E+04  0.25500000920E-02 0.  1.
</event>
<event>
 5   0  0.8858590E-05  0.2114107E+04  0.7818609E-02  0.8555054E-01
        2   -1    0    0  501    0  0.00000000000E+00  0.00000000000E+00  0.21756310707E+04  0.21756310707E+04  0.25500000920E-02 0. -1.
       -2   -1    0    0    0  501  0.00000000000E+00  0.00000000000E+00 -0.51358066475E+03  0.51358066475E+03  0.25500000920E-02 0.  1.
    10030    2    1    2    0    0  0.00000000000E+00  0.00000000000E+00  0.16620504060E+04  0.26892117355E+04  0.21141069524E+04 0.  0.
        1    1    3    3  502    0  0.74793888929E+03  0.64059588775E+03  0.34234901131E+03  0.10425826198E+04  0.50400001928E-02 0. -1.
       -1    1    3    3    0  502 -0.74793888929E+03 -0.64059588775E+03  0.13197013947E+04  0.16466291157E+04  0.50400001928E-02 0.  1.
</event>
<event>
 5   0  0.4050368E-05  0.1803562E+04  0.7818609E-02  0.8704408E-01
        1   -1    0    0  501    0  0.00000000000E+00  0.00000000000E+00  0.51900130159E+03  0.51900130162E+03  0.50400001928E-02 0.  1.
       -1   -1    0    0    0  501  0.00000000000E+00  0.00000000000E+00 -0.15668727441E+04  0.15668727441E+04  0.50400001928E-02 0. -1.
    10030    2    1    2    0    0  0.00000000000E+00  0.00000000000E+00 -0.10478714425E+04  0.20858740457E+04  0.18035620241E+04 0.  0.
        2    1    3    3  502    0  0.63424674599E+03  0.58610597150E+03 -0.22363879572E+03  0.89207816675E+03  0.25500000920E-02 0.  1.
       -2    1    3    3    0  502 -0.63424674599E+03 -0.58610597150E+03 -0.82423264680E+03  0.11937958790E+04  0.25500000920E-02 0. -1.
</event>
<event>
 5   0  0.4050368E-05  0.2107116E+04  0.7818609E-02  0.8558115E-01
        1   -1    0    0  501    0  0.00000000000E+00  0.00000000000E+00  0.11420272850E+04  0.11420272851E+04  0.50400001928E-02 0.  1.
       -1   -1    0    0    0  501  0.00000000000E+00  0.00000000000E+00 -0.97194214100E+03  0.97194214101E+03  0.50400001928E-02 0. -1.
    10030    2    1    2    0    0  0.00000000000E+00  0.00000000000E+00  0.17008514404E+03  0.21139694261E+04  0.21071159859E+04 0.  0.
        2    1    3    3  502    0 -0.99626723503E+03  0.21886706704E+03 -0.17950666774E+03  0.10356996864E+04  0.25500000920E-02 0. -1.
       -2    1    3    3    0  502  0.99626723503E+03 -0.21886706704E+03  0.34959181179E+03  0.10782697397E+04  0.25500000920E-02 0.  1.
</event>
<event>
 5   0  0.8547605E-05  0.2182961E+04  0.7818609E-02  0.8525554E-01
       -2   -1    0    0    0  501  0.00000000000E+00  0.00000000000E+00  0.63038600203E+03  0.63038600203E+03  0.25500000920E-02 0.  1.
        2   -1    0    0  501    0  0.00000000000E+00  0.00000000000E+00 -0.18898419927E+04  0.18898419927E+04  0.25500000920E-02 0. -1.
    10030    2    1    2    0    0  0.00000000000E+00  0.00000000000E+00 -0.12594559906E+04  0.25202279947E+04  0.21829612349E+04 0.  0.
        4    1    3    3  502    0 -0.46062015627E+03 -0.79326512917E+03 -0.13126297481E+04  0.16013865748E+04  0.12699999809E+01 0. -1.
       -4    1    3    3    0  502  0.46062015627E+03  0.79326512917E+03  0.53173757459E+02  0.91884141989E+03  0.12699999809E+01 0.  1.
</event>
<event>
 5   0  0.8547605E-05  0.2050676E+04  0.7818609E-02  0.8583288E-01
       -2   -1    0    0    0  501  0.00000000000E+00  0.00000000000E+00  0.89951588580E+03  0.89951588580E+03  0.25500000920E-02 0. -1.
        2   -1    0    0  501    0  0.00000000000E+00  0.00000000000E+00 -0.11687599774E+04  0.11687599774E+04  0.25500000920E-02 0.  1.
    10030    2    1    2    0    0  0.00000000000E+00  0.00000000000E+00 -0.26924409162E+03  0.20682758632E+04  0.20506761484E+04 0.  0.
        4    1    3    3  502    0 -0.42991868630E+03  0.58225040984E+01  0.80420108670E+03  0.91192377923E+03  0.12699999809E+01 0. -1.
       -4    1    3    3    0  502  0.42991868630E+03 -0.58225040984E+01 -0.10734451783E+04  0.11563520840E+04  0.12699999809E+01 0.  1.
</event>
<event>
 5   0  0.8547605E-05  0.2097552E+04  0.7818609E-02  0.8562323E-01
        2   -1    0    0  501    0  0.00000000000E+00  0.00000000000E+00  0.12268672879E+04  0.12268672879E+04  0.25500000920E-02 0. -1.
       -2   -1    0    0    0  501  0.00000000000E+00  0.00000000000E+00 -0.89653620718E+03  0.89653620719E+03  0.25500000920E-02 0.  1.
    10030    2    1    2    0    0  0.00000000000E+00  0.00000000000E+00  0.33033108067E+03  0.21234034950E+04  0.20975518539E+04 0.  0.
        4    1    3    3  502    0  0.39665477152E+03 -0.74099006419E+03 -0.46988409099E+03  0.96290911038E+03  0.12699999809E+01 0.  1.
       -4    1    3    3    0  502 -0.39665477152E+03  0.74099006419E+03  0.80021517166E+03  0.11604943847E+04  0.12699999809E+01 0. -1.
</event>
<event>
 5   0  0.4174093E-05  0.2115353E+04  0.7818609E-02  0.8554510E-01
       -1   -1    0    0    0  501  0.00000000000E+00  0.00000000000E+00  0.76720159643E+03  0.76720159645E+03  0.50400001928E-02 0. -1.
        1   -1    0    0  501    0  0.00000000000E+00  0.00000000000E+00 -0.14581298269E+04  0.14581298270E+04  0.50400001928E-02 0.  1.
    10030    2    1    2    0    0  0.00000000000E+00  0.00000000000E+00 -0.69092823051E+03  0.22253314234E+04  0.21153529550E+04 0.  0.
        3    1    3    3  502    0  0.43259156324E+03  0.94783609855E+03 -0.53700381573E+03  0.11721355888E+04  0.10100000352E+00 0.  1.
       -3    1    3    3    0  502 -0.43259156324E+03 -0.94783609855E+03 -0.15392441478E+03  0.10531958346E+04  0.10100000352E+00 0. -1.
</event>
<event>
 5   0  0.4128678E-05  0.2110854E+04  0.7818609E-02  0.8556477E-01
        1   -1    0    0  501    0  0.00000000000E+00  0.00000000000E+00  0.86943275504E+03  0.86943275505E+03  0.50400001928E-02 0.  1.
       -1   -1    0    0    0  501  0.00000000000E+00  0.00000000000E+00 -0.12812102008E+04  0.12812102008E+04  0.50400001928E-02 0. -1.
    10030    2    1    2    0    0  0.00000000000E+00  0.00000000000E+00 -0.41177744577E+03  0.21506429559E+04  0.21108539643E+04 0.  0.
        5    1    3    3  502    0  0.66633586998E+03 -0.96984554985E+02  0.62213873758E+03  0.91678143214E+03  0.46999998093E+01 0.  1.
       -5    1    3    3    0  502 -0.66633586998E+03  0.96984554985E+02 -0.10339161834E+04  0.12338615237E+04  0.46999998093E+01 0. -1.
</event>
<event>
 5   0  0.9012466E-05  0.2095684E+04  0.7818609E-02  0.8563147E-01
        2   -1    0    0  501    0  0.00000000000E+00  0.00000000000E+00  0.23258900810E+04  0.23258900810E+04  0.25500000920E-02 0.  1.
       -2   -1    0    0    0  501  0.00000000000E+00  0.00000000000E+00 -0.47206581978E+03  0.47206581979E+03  0.25500000920E-02 0. -1.
    10030    2    1    2    0    0  0.00000000000E+00  0.00000000000E+00  0.18538242612E+04  0.27979559008E+04  0.20956843348E+04 0.  0.
        2    1    3    3  502    0  0.86435663636E+03 -0.21018389096E+03  0.16662794244E+04  0.18888559455E+04  0.25500000920E-02 0. -1.
       -2    1    3    3    0  502 -0.86435663636E+03  0.21018389096E+03  0.18754483685E+03  0.90909995528E+03  0.25500000920E-02 0.  1.
</event>
<event>
 5   0  0.4050368E-05  0.2051852E+04  0.7818609E-02  0.8582755E-01
       -1   -1    0    0    0  501  0.00000000000E+00  0.00000000000E+00  0.96106373546E+03  0.96106373547E+03  0.50400001928E-02 0. -1.
        1   -1    0    0  501    0  0.00000000000E+00  0.00000000000E+00 -0.10951660482E+04  0.10951660483E+04  0.50400001928E-02 0.  1.
    10030    2    1    2    0    0  0.00000000000E+00  0.00000000000E+00 -0.13410231279E+03  0.20562297837E+04  0.20518522104E+04 0.  0.
        2    1    3    3  502    0  0.90539618033E+03  0.46515405285E+03  0.61338674779E+02  0.10197416189E+04  0.25500000920E-02 0. -1.
       -2    1    3    3    0  502 -0.90539618033E+03 -0.46515405285E+03 -0.19544098757E+03  0.10364881648E+04  0.25500000920E-02 0.  1.
</event>
<event>
 5   0  0.4050368E-05  0.2068151E+04  0.7818609E-02  0.8575404E-01
       -1   -1    0    0    0  501  0.00000000000E+00  0.00000000000E+00  0.66802138628E+03  0.66802138630E+03  0.50400001928E-02 0.  1.
        1   -1    0    0  501    0  0.00000000000E+00  0.00000000000E+00 -0.16007158550E+04  0.16007158550E+04  0.50400001928E-02 0. -1.
    10030    2    1    2    0    0  0.00000000000E+00  0.00000000000E+00 -0.93269446870E+03  0.22687372413E+04  0.20681512754E+04 0.  0.
        2    1    3    3  502    0 -0.22071136523E+03  0.24206184004E+03 -0.15422934411E+04  0.15766979734E+04  0.25500000920E-02 0. -1.
       -2    1    3    3    0  502  0.22071136523E+03 -0.24206184004E+03  0.60959897235E+03  0.69203926785E+03  0.25500000920E-02 0.  1.
</event>
<event>
 5   0  0.4182977E-05  0.2135354E+04  0.7818609E-02  0.8545827E-01
        1   -1    0    0  501    0  0.00000000000E+00  0.00000000000E+00  0.16712252673E+04  0.16712252673E+04  0.50400001928E-02 0.  1.
       -1   -1    0    0    0  501  0.00000000000E+00  0.00000000000E+00 -0.68209506447E+03  0.68209506449E+03  0.50400001928E-02 0. -1.
    10030    2    1    2    0    0  0.00000000000E+00  0.00000000000E+00  0.98913020285E+03  0.23533203318E+04  0.21353543092E+04 0.  0.
        1    1    3    3  502    0 -0.32830336678E+03 -0.72495171899E+03 -0.28984315367E+03  0.84696348756E+03  0.50400001928E-02 0. -1.
       -1    1    3    3    0  502  0.32830336678E+03  0.72495171899E+03  0.12789733565E+04  0.15063568442E+04  0.50400001928E-02 0.  1.
</event>
<event>
 5   0  0.9012466E-05  0.2098914E+04  0.7818609E-02  0.8561722E-01
       -2   -1    0    0    0  501  0.00000000000E+00  0.00000000000E+00  0.73445094066E+03  0.73445094067E+03  0.25500000920E-02 0.  1.
        2   -1    0    0  501    0  0.00000000000E+00  0.00000000000E+00 -0.14995687430E+04  0.14995687430E+04  0.25500000920E-02 0. -1.
    10030    2    1    2    0    0  0.00000000000E+00  0.00000000000E+00 -0.76511780230E+03  0.22340196836E+04  0.20989136941E+04 0.  0.
        2    1    3    3  502    0  0.82130046416E+03  0.36124897851E+03  0.19683793432E+03  0.91857522789E+03  0.25500000920E-02 0.  1.
       -2    1    3    3    0  502 -0.82130046416E+03 -0.36124897851E+03 -0.96195573663E+03  0.13154444557E+04  0.25500000920E-02 0. -1.
</event>
<event>
 5   0  0.8547605E-05  0.2103911E+04  0.7818609E-02  0.8559523E-01
        2   -1    0    0  501    0  0.00000000000E+00  0.00000000000E+00  0.10060595703E+04  0.10060595703E+04  0.25500000920E-02 0.  1.
       -2   -1    0    0    0  501  0.00000000000E+00  0.00000000000E+00 -0.10999449420E+04  0.10999449420E+04  0.25500000920E-02 0. -1.
    10030    2    1    2    0    0  0.00000000000E+00  0.00000000000E+00 -0.93885371664E+02  0.21060045123E+04  0.21039107735E+04 0.  0.
        4    1    3    3  502    0  0.98343417952E+02 -0.26310016283E+03  0.96782916551E+03  0.10077638761E+04  0.12699999809E+01 0.  1.
       -4    1    3    3    0  502 -0.98343417952E+02  0.26310016283E+03 -0.10617145372E+04  0.10982406361E+04  0.12699999809E+01 0. -1.
</event>
<event>
 5   0  0.4182977E-05  0.2084743E+04  0.7818609E-02  0.8567994E-01
       -1   -1    0    0    0  501  0.00000000000E+00  0.00000000000E+00  0.52218410027E+03  0.52218410029E+03  0.50400001928E-02 0. -1.
        1   -1    0    0  501    0  0.00000000000E+00  0.00000000000E+00 -0.20807577959E+04  0.20807577959E+04  0.50400001928E-02 0.  1.
    10030    2    1    2    0    0  0.00000000000E+00  0.00000000000E+00 -0.15585736956E+04  0.26029418962E+04  0.20847432816E+04 0.  0.
        1    1    3    3  502    0 -0.36900479234E+03 -0.81213164205E+03 -0.14526064539E+04  0.17046371611E+04  0.50400001928E-02 0.  1.
       -1    1    3    3    0  502  0.36900479234E+03  0.81213164205E+03 -0.10596724165E+03  0.89830473511E+03  0.50400001928E-02 0. -1.
</event>
<event>
 5   0  0.8858590E-05  0.2095534E+04  0.7818609E-02  0.8563213E-01
        2   -1    0    0  501    0  0.00000000000E+00  0.00000000000E+00  0.98149015592E+03  0.98149015592E+03  0.25500000920E-02 0. -1.
       -2   -1    0    0    0  501  0.00000000000E+00  0.00000000000E+00 -0.11185189330E+04  0.11185189330E+04  0.25500000920E-02 0.  1.
    10030    2    1    2    0    0  0.00000000000E+00  0.00000000000E+00 -0.13702877713E+03  0.21000090890E+04  0.20955336523E+04 0.  0.
        1    1    3    3  502    0 -0.66647823587E+03  0.24709883298E+01  0.74167745123E+03  0.99713829851E+03  0.50400001928E-02 0. -1.
       -1    1    3    3    0  502  0.66647823587E+03 -0.24709883298E+01 -0.87870622836E+03  0.11028707905E+04  0.50400001928E-02 0.  1.
</event>
<event>
 5   0  0.4050368E-05  0.2084561E+04  0.7818609E-02  0.8568075E-01
        1   -1    0    0  501    0  0.00000000000E+00  0.00000000000E+00  0.15800795936E+04  0.15800795937E+04  0.50400001928E-02 0. -1.
       -1   -1    0    0    0  501  0.00000000000E+00  0.00000000000E+00 -0.68752758542E+03  0.68752758544E+03  0.50400001928E-02 0.  1.
    10030    2    1    2    0    0  0.00000000000E+00  0.00000000000E+00  0.89255200823E+03  0.22676071791E+04  0.20845606806E+04 0.  0.
        2    1    3    3  502    0  0.41155631437E+03 -0.51611403479E+03 -0.43114692549E+03  0.78844148050E+03  0.25500000920E-02 0.  1.
       -2    1    3    3    0  502 -0.41155631437E+03  0.51611403479E+03  0.13236989337E+04  0.14791656986E+04  0.25500000920E-02 0. -1.
</event>
<event>
 5   0  0.4182977E-05  0.2064674E+04  0.7818609E-02  0.8576966E-01
       -1   -1    0    0    0  501  0.00000000000E+00  0.00000000000E+00  0.89935396399E+03  0.89935396401E+03  0.50400001928E-02 0. -1.
        1   -1    0    0  501    0  0.00000000000E+00  0.00000000000E+00 -0.11849840720E+04  0.11849840720E+04  0.50400001928E-02 0.  1.
    10030    2    1    2    0    0  0.00000000000E+00  0.00000000000E+00 -0.28563010798E+03  0.20843380360E+04  0.20646744270E+04 0.  0.
        1    1    3    3  502    0  0.75109471508E+03 -0.46642623259E+03 -0.68082914726E+03  0.11158965137E+04  0.50400001928E-02 0.  1.
       -1    1    3    3    0  502 -0.75109471508E+03  0.46642623259E+03  0.39519903928E+03  0.96844152231E+03  0.50400001928E-02 0. -1.
</event>
<event>
 5   0  0.4182977E-05  0.1795571E+04  0.7818609E-02  0.8708658E-01
        1   -1    0    0  501    0  0.00000000000E+00  0.00000000000E+00  0.18105003369E+04  0.18105003369E+04  0.50400001928E-02 0.  1.
       -1   -1    0    0    0  501  0.00000000000E+00  0.00000000000E+00 -0.44519141130E+03  0.44519141133E+03  0.50400001928E-02 0. -1.
    10030    2    1    2    0    0  0.00000000000E+00  0.00000000000E+00  0.13653089256E+04  0.22556917483E+04  0.17955714413E+04 0.  0.
        1    1    3    3  502    0 -0.30446665187E+03 -0.81233706303E+03  0.39227859498E+03  0.95208925116E+03  0.50400001928E-02 0. -1.
       -1    1    3    3    0  502  0.30446665187E+03  0.81233706303E+03  0.97303033063E+03  0.13036024971E+04  0.50400001928E-02 0.  1.
</event>
<event>
 5   0  0.4182977E-05  0.2122937E+04  0.7818609E-02  0.8551206E-01
       -1   -1    0    0    0  501  0.00000000000E+00  0.00000000000E+00  0.85407204733E+03  0.85407204735E+03  0.50400001928E-02 0.  1.
        1   -1    0    0  501    0  0.00000000000E+00  0.00000000000E+00 -0.13192271048E+04  0.13192271048E+04  0.50400001928E-02 0. -1.
    10030    2    1    2    0    0  0.00000000000E+00  0.00000000000E+00 -0.46515505742E+03  0.21732991521E+04  0.21229366399E+04 0.  0.
        1    1    3    3  502    0 -0.76126457784E+03 -0.24914425932E+03  0.48045007025E+03  0.93403901924E+03  0.50400001928E-02 0.  1.
       -1    1    3    3    0  502  0.76126457784E+03  0.24914425932E+03 -0.94560512767E+03  0.12392601329E+04  0.50400001928E-02 0. -1.
</event>
<event>
 5   0  0.4182977E-05  0.1979837E+04  0.7818609E-02  0.8616106E-01
       -1   -1    0    0    0  501  0.00000000000E+00  0.00000000000E+00  0.63860312001E+03  0.63860312003E+03  0.50400001928E-02 0. -1.
        1   -1    0    0  501    0  0.00000000000E+00  0.00000000000E+00 -0.15345039793E+04  0.15345039793E+04  0.50400001928E-02 0.  1.
    10030    2    1    2    0    0  0.00000000000E+00  0.00000000000E+00 -0.89590085926E+03  0.21731070993E+04  0.19798373962E+04 0.  0.
        1    1    3    3  502    0 -0.27681195721E+03  0.25728639152E+03 -0.14522075438E+04  0.15005758552E+04  0.50400001928E-02 0.  1.
       -1    1    3    3    0  502  0.27681195721E+03 -0.25728639152E+03  0.55630668458E+03  0.67253124407E+03  0.50400001928E-02 0. -1.
</event>
<event>
 5   0  0.4050368E-05  0.2106764E+04  0.7818609E-02  0.8558270E-01
       -1   -1    0    0    0  501  0.00000000000E+00  0.00000000000E+00  0.63819969927E+03  0.63819969929E+03  0.50400001928E-02 0.  1.
        1   -1    0    0  501    0  0.00000000000E+00  0.00000000000E+00 -0.17386612961E+04  0.17386612961E+04  0.50400001928E-02 0. -1.
    10030    2    1    2    0    0  0.00000000000E+00  0.00000000000E+00 -0.11004615969E+04  0.23768609954E+04  0.21067635049E+04 0.  0.
        2    1    3    3  502    0 -0.74990307287E+03  0.29010516985E+03  0.21752695326E+03  0.83296674824E+03  0.25500000920E-02 0. -1.
       -2    1    3    3    0  502  0.74990307287E+03 -0.29010516985E+03 -0.13179885501E+04  0.15438942472E+04  0.25500000920E-02 0.  1.
</event>
<event>
 5   0  0.4200061E-05  0.2097117E+04  0.7818609E-02  0.8562514E-01
       -1   -1    0    0    0  501  0.00000000000E+00  0.00000000000E+00  0.35975119482E+03  0.35975119486E+03  0.50400001928E-02 0.  1.
        1   -1    0    0  501    0  0.00000000000E+00  0.00000000000E+00 -0.30562089549E+04  0.30562089549E+04  0.50400001928E-02 0. -1.
    10030    2    1    2    0    0  0.00000000000E+00  0.00000000000E+00 -0.26964577601E+04  0.34159601498E+04  0.20971169001E+04 0.  0.
        4    1    3    3  502    0 -0.66694277273E+03 -0.28065907991E+03 -0.11210979382E+03  0.73222428258E+03  0.12699999809E+01 0.  1.
       -4    1    3    3    0  502  0.66694277273E+03  0.28065907991E+03 -0.25843479662E+04  0.26837358672E+04  0.12699999809E+01 0. -1.
</event>
<event>
 5   0  0.9012466E-05  0.2077674E+04  0.7818609E-02  0.8571142E-01
       -2   -1    0    0    0  501  0.00000000000E+00  0.00000000000E+00  0.89384359106E+03  0.89384359107E+03  0.25500000920E-02 0. -1.
        2   -1    0    0  501    0  0.00000000000E+00  0.00000000000E+00 -0.12073503095E+04  0.12073503095E+04  0.25500000920E-02 0.  1.
    10030    2    1    2    0    0  0.00000000000E+00  0.00000000000E+00 -0.31350671846E+03  0.21011939006E+04  0.20776740229E+04 0.  0.
        2    1    3    3  502    0  0.31413817529E+03  0.83758892350E+03 -0.69088400604E+03  0.11302914260E+04  0.25500000920E-02 0.  1.
       -2    1    3    3    0  502 -0.31413817529E+03 -0.83758892350E+03  0.37737728757E+03  0.97090247457E+03  0.25500000920E-02 0. -1.
</event>
<event>
 5   0  0.4050368E-05  0.2120088E+04  0.7818609E-02  0.8552446E-01
       -1   -1    0    0    0  501  0.00000000000E+00  0.00000000000E+00  0.46544831721E+03  0.46544831723E+03  0.50400001928E-02 0. -1.
        1   -1    0    0  501    0  0.00000000000E+00  0.00000000000E+00 -0.24142167181E+04  0.24142167181E+04  0.50400001928E-02 0.  1.
    10030    2    1    2    0    0  0.00000000000E+00  0.00000000000E+00 -0.19487684009E+04  0.28796650353E+04  0.21200878367E+04 0.  0.
        2    1    3    3  502    0 -0.39496552108E+03  0.77480337402E+03 -0.15111292229E+03  0.88269652006E+03  0.25500000920E-02 0. -1.
       -2    1    3    3    0  502  0.39496552108E+03 -0.77480337402E+03 -0.17976554786E+04  0.19969685152E+04  0.25500000920E-02 0.  1.
</event>
<event>
 5   0  0.4128678E-05  0.2060939E+04  0.7818609E-02  0.8578648E-01
        1   -1    0    0  501    0  0.00000000000E+00  0.00000000000E+00  0.11609353922E+04  0.11609353923E+04  0.50400001928E-02 0.  1.
       -1   -1    0    0    0  501  0.00000000000E+00  0.00000000000E+00 -0.91466534474E+03  0.91466534476E+03  0.50400001928E-02 0. -1.
    10030    2    1    2    0    0  0.00000000000E+00  0.00000000000E+00  0.24627004750E+03  0.20756007370E+04  0.20609389809E+04 0.  0.
        5    1    3    3  502    0 -0.53389539355E+02 -0.93080663924E+03 -0.31884218695E+03  0.98535976818E+03  0.46999998093E+01 0. -1.
       -5    1    3    3    0  502  0.53389539355E+02  0.93080663924E+03  0.56511223445E+03  0.10902409688E+04  0.46999998093E+01 0.  1.
</event>
<event>
 5   0  0.8858590E-05  0.2111472E+04  0.7818609E-02  0.8556206E-01
        2   -1    0    0  501    0  0.00000000000E+00  0.00000000000E+00  0.14382029178E+04  0.14382029178E+04  0.25500000920E-02 0. -1.
       -2   -1    0    0    0  501  0.00000000000E+00  0.00000000000E+00 -0.77498028431E+03  0.77498028431E+03  0.25500000920E-02 0.  1.
    10030    2    1    2    0    0  0.00000000000E+00  0.00000000000E+00  0.66322263345E+03  0.22131832021E+04  0.21114723831E+04 0.  0.
        1    1    3    3  502    0  0.38789486490E+03  0.41266232729E+03  0.12654991060E+04  0.13864489207E+04  0.50400001928E-02 0. -1.
       -1    1    3    3    0  502 -0.38789486490E+03 -0.41266232729E+03 -0.60227647251E+03  0.82673428134E+03  0.50400001928E-02 0.  1.
</event>
<event>
 5   0  0.8858590E-05  0.2092180E+04  0.7818609E-02  0.8564696E-01
       -2   -1    0    0    0  501  0.00000000000E+00  0.00000000000E+00  0.99461026418E+03  0.99461026418E+03  0.25500000920E-02 0. -1.
        2   -1    0    0  501    0  0.00000000000E+00  0.00000000000E+00 -0.11002341470E+04  0.11002341470E+04  0.25500000920E-02 0.  1.
    10030    2    1    2    0    0  0.00000000000E+00  0.00000000000E+00 -0.10562388279E+03  0.20948444111E+04  0.20921798924E+04 0.  0.
        1    1    3    3  502    0  0.72731538933E+03 -0.34086081101E+03 -0.72383737006E+03  0.10812558931E+04  0.50400001928E-02 0.  1.
       -1    1    3    3    0  502 -0.72731538933E+03  0.34086081101E+03  0.61821348727E+03  0.10135885180E+04  0.50400001928E-02 0. -1.
</event>
<event>
 5   0  0.9012466E-05  0.2089453E+04  0.7818609E-02  0.8565904E-01
        2   -1    0    0  501    0  0.00000000000E+00  0.00000000000E+00  0.15730278980E+04  0.15730278980E+04  0.25500000920E-02 0.  1.
       -2   -1    0    0    0  501  0.00000000000E+00  0.00000000000E+00 -0.69385512270E+03  0.69385512270E+03  0.25500000920E-02 0. -1.
    10030    2    1    2    0    0  0.00000000000E+00  0.00000000000E+00  0.87917277534E+03  0.22668830207E+04  0.20894530052E+04 0.  0.
        2    1    3    3  502    0 -0.41094833058E+03 -0.38187124408E+03 -0.51658761985E+03  0.76260536744E+03  0.25500000920E-02 0. -1.
       -2    1    3    3    0  502  0.41094833058E+03  0.38187124408E+03  0.13957603952E+04  0.15042776533E+04  0.25500000920E-02 0.  1.
</event>
<event>
 5   0  0.9086985E-05  0.2099867E+04  0.7818609E-02  0.8561302E-01
       -2   -1    0    0    0  501  0.00000000000E+00  0.00000000000E+00  0.74364492333E+03  0.74364492334E+03  0.25500000920E-02 0.  1.
        2   -1    0    0  501    0  0.00000000000E+00  0.00000000000E+00 -0.14823740115E+04  0.14823740115E+04  0.25500000920E-02 0. -1.
    10030    2    1    2    0    0  0.00000000000E+00  0.00000000000E+00 -0.73872908821E+03  0.22260189349E+04  0.20998665750E+04 0.  0.
        5    1    3    3  502    0 -0.57289002764E+03 -0.86333193773E+03 -0.54924297962E+03  0.11727041226E+04  0.46999998093E+01 0. -1.
       -5    1    3    3    0  502  0.57289002764E+03  0.86333193773E+03 -0.18948610860E+03  0.10533148123E+04  0.46999998093E+01 0.  1.
</event>
<event>
 5   0  0.4200061E-05  0.2104267E+04  0.7818609E-02  0.8559366E-01
       -1   -1    0    0    0  501  0.00000000000E+00  0.00000000000E+00  0.57621989984E+03  0.57621989986E+03  0.50400001928E-02 0.  1.
        1   -1    0    0  501    0  0.00000000000E+00  0.00000000000E+00 -0.19211158021E+04  0.19211158021E+04  0.50400001928E-02 0. -1.
    10030    2    1    2    0    0  0.00000000000E+00  0.00000000000E+00 -0.13448959023E+04  0.24973357020E+04  0.21042672407E+04 0.  0.
        4    1    3    3  502    0 -0.45645425591E+02  0.94763429199E+03 -0.12122630554E+04  0.15393757126E+04  0.12699999809E+01 0. -1.
       -4    1    3    3    0  502  0.45645425591E+02 -0.94763429199E+03 -0.13263284686E+03  0.95795998935E+03  0.12699999809E+01 0.  1.
</event>
<event>
 5   0  0.8858590E-05  0.2096106E+04  0.7818609E-02  0.8562961E-01
        2   -1    0    0  501    0  0.00000000000E+00  0.00000000000E+00  0.90124945509E+03  0.90124945509E+03  0.25500000920E-02 0. -1.
       -2   -1    0    0    0  501  0.00000000000E+00  0.00000000000E+00 -0.12187689204E+04  0.12187689204E+04  0.25500000920E-02 0.  1.
    10030    2    1    2    0    0  0.00000000000E+00  0.00000000000E+00 -0.31751946534E+03  0.21200183755E+04  0.20961057468E+04 0.  0.
        1    1    3    3  502    0  0.41541474348E+03  0.62276074014E+02  0.81238542735E+03  0.91455880133E+03  0.50400001928E-02 0. -1.
       -1    1    3    3    0  502 -0.41541474348E+03 -0.62276074014E+02 -0.11299048927E+04  0.12054595742E+04  0.50400001928E-02 0.  1.
</event>
<event>
 5   0  0.4182977E-05  0.2086788E+04  0.7818609E-02  0.8567086E-01
       -1   -1    0    0    0  501  0.00000000000E+00  0.00000000000E+00  0.12109589140E+04  0.12109589140E+04  0.50400001928E-02 0. -1.
        1   -1    0    0  501    0  0.00000000000E+00  0.00000000000E+00 -0.89901578897E+03  0.89901578899E+03  0.50400001928E-02 0.  1.
    10030    2    1    2    0    0  0.00000000000E+00  0.00000000000E+00  0.31194312499E+03  0.21099747030E+04  0.20867881382E+04 0.  0.
        1    1    3    3  502    0 -0.26299631729E+02 -0.10384605153E+04  0.25493280069E+03  0.10696179903E+04  0.50400001928E-02 0. -1.
       -1    1    3    3    0  502  0.26299631729E+02  0.10384605153E+04  0.57010324305E+02  0.10403567126E+04  0.50400001928E-02 0.  1.
</event>
<event>
 5   0  0.4050368E-05  0.2077125E+04  0.7818609E-02  0.8571388E-01
        1   -1    0    0  501    0  0.00000000000E+00  0.00000000000E+00  0.88073900648E+03  0.88073900649E+03  0.50400001928E-02 0. -1.
       -1   -1    0    0    0  501  0.00000000000E+00  0.00000000000E+00 -0.12246665852E+04  0.12246665852E+04  0.50400001928E-02 0.  1.
    10030    2    1    2    0    0  0.00000000000E+00  0.00000000000E+00 -0.34392757875E+03  0.21054055917E+04  0.20771245813E+04 0.  0.
        2    1    3    3  502    0 -0.20423658301E+03 -0.10175860721E+04 -0.21012793275E+03  0.10589370823E+04  0.25500000920E-02 0.  1.
       -2    1    3    3    0  502  0.20423658301E+03  0.10175860721E+04 -0.13379964600E+03  0.10464685095E+04  0.25500000920E-02 0. -1.
</event>
<event>
 5   0  0.4182977E-05  0.2102454E+04  0.7818609E-02  0.8560163E-01
        1   -1    0    0  501    0  0.00000000000E+00  0.00000000000E+00  0.15559820122E+04  0.15559820123E+04  0.50400001928E-02 0.  1.
       -1   -1    0    0    0  501  0.00000000000E+00  0.00000000000E+00 -0.71021273232E+03  0.71021273234E+03  0.50400001928E-02 0. -1.
    10030    2    1    2    0    0  0.00000000000E+00  0.00000000000E+00  0.84576927992E+03  0.22661947446E+04  0.21024540294E+04 0.  0.
        1    1    3    3  502    0  0.99350924704E+03  0.74470602359E+02  0.61397851128E+02  0.99818645088E+03  0.50400001928E-02 0.  1.
       -1    1    3    3    0  502 -0.99350924704E+03 -0.74470602359E+02  0.78437142879E+03  0.12680082937E+04  0.50400001928E-02 0. -1.
</event>
<event>
 5   0  0.4128678E-05  0.1790197E+04  0.7818609E-02  0.8711530E-01
       -1   -1    0    0    0  501  0.00000000000E+00  0.00000000000E+00  0.34494357247E+03  0.34494357250E+03  0.50400001928E-02 0.  1.
        1   -1    0    0  501    0  0.00000000000E+00  0.00000000000E+00 -0.23227020245E+04  0.23227020245E+04  0.50400001928E-02 0. -1.
    10030    2    1    2    0    0  0.00000000000E+00  0.00000000000E+00 -0.19777584521E+04  0.26676455970E+04  0.17901967871E+04 0.  0.
        5    1    3    3  502    0 -0.50667193908E+01  0.88633532163E+03 -0.11747773454E+04  0.14716452953E+04  0.46999998093E+01 0.  1.
       -5    1    3    3    0  502  0.50667193908E+01 -0.88633532163E+03 -0.80298110666E+03  0.11960003017E+04  0.46999998093E+01 0. -1.
</event>
<event>
 5   0  0.4050368E-05  0.2044181E+04  0.7818609E-02  0.8586239E-01
       -1   -1    0    0    0  501  0.00000000000E+00  0.00000000000E+00  0.65337665678E+03  0.65337665680E+03  0.50400001928E-02 0. -1.
        1   -1    0    0  501    0  0.00000000000E+00  0.00000000000E+00 -0.15988773878E+04  0.15988773878E+04  0.50400001928E-02 0.  1.
    10030    2    1    2    0    0  0.00000000000E+00  0.00000000000E+00 -0.94550073104E+03  0.22522540446E+04  0.20441811684E+04 0.  0.
        2    1    3    3  502    0 -0.92408378485E+03  0.32417678646E+03 -0.15030515841E+03  0.99076388254E+03  0.25500000920E-02 0. -1.
       -2    1    3    3    0  502  0.92408378485E+03 -0.32417678646E+03 -0.79519557263E+03  0.12614901621E+04  0.25500000920E-02 0.  1.
</event>
<event>
 5   0  0.8858590E-05  0.2102321E+04  0.7818609E-02  0.8560222E-01
       -2   -1    0    0    0  501  0.00000000000E+00  0.00000000000E+00  0.71552602862E+03  0.71552602862E+03  0.25500000920E-02 0. -1.
        2   -1    0    0  501    0  0.00000000000E+00  0.00000000000E+00 -0.15442319484E+04  0.15442319484E+04  0.25500000920E-02 0.  1.
    10030    2    1    2    0    0  0.00000000000E+00  0.00000000000E+00 -0.82870591974E+03  0.22597579770E+04  0.21023207684E+04 0.  0.
        1    1    3    3  502    0 -0.13978624462E+03 -0.59128435982E+03 -0.13363662106E+04  0.14680027375E+04  0.50400001928E-02 0.  1.
       -1    1    3    3    0  502  0.13978624462E+03  0.59128435982E+03  0.50766029087E+03  0.79175523951E+03  0.50400001928E-02 0. -1.
</event>
<event>
 5   0  0.8872777E-05  0.2099237E+04  0.7818609E-02  0.8561580E-01
        2   -1    0    0  501    0  0.00000000000E+00  0.00000000000E+00  0.12508869123E+04  0.12508869123E+04  0.25500000920E-02 0. -1.
       -2   -1    0    0    0  501  0.00000000000E+00  0.00000000000E+00 -0.88073437158E+03  0.88073437159E+03  0.25500000920E-02 0.  1.
    10030    2    1    2    0    0  0.00000000000E+00  0.00000000000E+00  0.37015254070E+03  0.21316212839E+04  0.20992370982E+04 0.  0.
        3    1    3    3  502    0 -0.30423764776E+03  0.58184708623E+03  0.10166062363E+04  0.12102044570E+04  0.10100000352E+00 0. -1.
       -3    1    3    3    0  502  0.30423764776E+03 -0.58184708623E+03 -0.64645369555E+03  0.92141682683E+03  0.10100000352E+00 0.  1.
</event>
<event>
 5   0  0.4182977E-05  0.2085628E+04  0.7818609E-02  0.8567601E-01
       -1   -1    0    0    0  501  0.00000000000E+00  0.00000000000E+00  0.62946026752E+03  0.62946026754E+03  0.50400001928E-02 0. -1.
        1   -1    0    0  501    0  0.00000000000E+00  0.00000000000E+00 -0.17276081136E+04  0.17276081136E+04  0.50400001928E-02 0.  1.
    10030    2    1    2    0    0  0.00000000000E+00  0.00000000000E+00 -0.10981478460E+04  0.23570683811E+04  0.20856276421E+04 0.  0.
        1    1    3    3  502    0 -0.78947797723E+03  0.22312962139E+03 -0.12765930611E+04  0.15174821739E+04  0.50400001928E-02 0.  1.
       -1    1    3    3    0  502  0.78947797723E+03 -0.22312962139E+03  0.17844521507E+03  0.83958620718E+03  0.50400001928E-02 0. -1.
</event>
<event>
 5   0  0.4050368E-05  0.2096542E+04  0.7818609E-02  0.8562768E-01
        1   -1    0    0  501    0  0.00000000000E+00  0.00000000000E+00  0.54497371879E+03  0.54497371882E+03  0.50400001928E-02 0.  1.
       -1   -1    0    0    0  501  0.00000000000E+00  0.00000000000E+00 -0.20163768804E+04  0.20163768804E+04  0.50400001928E-02 0. -1.
    10030    2    1    2    0    0  0.00000000000E+00  0.00000000000E+00 -0.14714031616E+04  0.25613505992E+04  0.20965423030E+04 0.  0.
        2    1    3    3  502    0  0.43414802171E+03 -0.95159373671E+03 -0.65055618128E+03  0.12317623511E+04  0.25500000920E-02 0. -1.
       -2    1    3    3    0  502 -0.43414802171E+03  0.95159373671E+03 -0.82084698029E+03  0.13295882481E+04  0.25500000920E-02 0.  1.
</event>
<event>
 5   0  0.3176125E-05  0.2108263E+04  0.7818609E-02  0.8557612E-01
        3   -1    0    0  501    0  0.00000000000E+00  0.00000000000E+00  0.62930992587E+03  0.62930993397E+03  0.10100000352E+00 0.  1.
       -3   -1    0    0    0  501  0.00000000000E+00  0.00000000000E+00 -0.17657334822E+04  0.17657334851E+04  0.10100000352E+00 0. -1.
    10030    2    1    2    0    0  0.00000000000E+00  0.00000000000E+00 -0.11364235563E+04  0.23950434190E+04  0.21082633801E+04 0.  0.
        5    1    3    3  502    0  0.32756648860E+03  0.83508084324E+03  0.60732342600E+02  0.89909417006E+03  0.46999998093E+01 0.  1.
       -5    1    3    3    0  502 -0.32756648860E+03 -0.83508084324E+03 -0.11971558989E+04  0.14959492490E+04  0.46999998093E+01 0. -1.
</event>
<event>
 5   0  0.4182977E-05  0.2102683E+04  0.7818609E-02  0.8560063E-01
       -1   -1    0    0    0  501  0.00000000000E+00  0.00000000000E+00  0.55635971881E+03  0.55635971883E+03  0.50400001928E-02 0. -1.
        1   -1    0    0  501    0  0.00000000000E+00  0.00000000000E+00 -0.19866979316E+04  0.19866979316E+04  0.50400001928E-02 0.  1.
    10030    2    1    2    0    0  0.00000000000E+00  0.00000000000E+00 -0.14303382128E+04  0.25430576504E+04  0.21026827651E+04 0.  0.
        1    1    3    3  502    0  0.57854180944E+03 -0.43980564387E+03 -0.16340045485E+04  0.17883261710E+04  0.50400001928E-02 0.  1.
       -1    1    3    3    0  502 -0.57854180944E+03  0.43980564387E+03  0.20366633568E+03  0.75473147938E+03  0.50400001928E-02 0. -1.
</event>
<event>
 5   0  0.4050368E-05  0.2098862E+04  0.7818609E-02  0.8561745E-01
        1   -1    0    0  501    0  0.00000000000E+00  0.00000000000E+00  0.11239377808E+04  0.11239377808E+04  0.50400001928E-02 0. -1.
       -1   -1    0    0    0  501  0.00000000000E+00  0.00000000000E+00 -0.97986313523E+03  0.97986313524E+03  0.50400001928E-02 0.  1.
    10030    2    1    2    0    0  0.00000000000E+00  0.00000000000E+00  0.14407464554E+03  0.21038009160E+04  0.20988617846E+04 0.  0.
        2    1    3    3  502    0 -0.42043614841E+03 -0.74576646072E+03  0.68040135998E+03  0.10935630661E+04  0.25500000920E-02 0. -1.
       -2    1    3    3    0  502  0.42043614841E+03  0.74576646072E+03 -0.53632671444E+03  0.10102378499E+04  0.25500000920E-02 0.  1.
</event>
<event>
 5   0  0.4174093E-05  0.2096890E+04  0.7818609E-02  0.8562615E-01
        1   -1    0    0  501    0  0.00000000000E+00  0.00000000000E+00  0.72124262597E+03  0.72124262599E+03  0.50400001928E-02 0. -1.
       -1   -1    0    0    0  501  0.00000000000E+00  0.00000000000E+00 -0.15240877295E+04  0.15240877295E+04  0.50400001928E-02 0.  1.
    10030    2    1    2    0    0  0.00000000000E+00  0.00000000000E+00 -0.80284510354E+03  0.22453303555E+04  0.20968901128E+04 0.  0.
        3    1    3    3  502    0 -0.61938653512E+03 -0.15150924536E+03 -0.12925895176E+04  0.14413127359E+04  0.10100000352E+00 0.  1.
       -3    1    3    3    0  502  0.61938653512E+03  0.15150924536E+03  0.48974441410E+03  0.80401761962E+03  0.10100000352E+00 0. -1.
</event>
<event>
 5   0  0.8858590E-05  0.2095606E+04  0.7818609E-02  0.8563182E-01
        2   -1    0    0  501    0  0.00000000000E+00  0.00000000000E+00  0.18799209357E+04  0.18799209357E+04  0.25500000920E-02 0. -1.
       -2   -1    0    0    0  501  0.00000000000E+00  0.00000000000E+00 -0.58400893042E+03  0.58400893043E+03  0.25500000920E-02 0.  1.
    10030    2    1    2    0    0  0.00000000000E+00  0.00000000000E+00  0.12959120053E+04  0.24639298661E+04  0.20956055115E+04 0.  0.
        1    1    3    3  502    0 -0.64587638753E+03 -0.81636646200E+03  0.78845865921E+03  0.13058627667E+04  0.50400001928E-02 0.  1.
       -1    1    3    3    0  502  0.64587638753E+03  0.81636646200E+03  0.50745334608E+03  0.11580670994E+04  0.50400001928E-02 0. -1.
</event>
<event>
 5   0  0.4128678E-05  0.2118108E+04  0.7818609E-02  0.8553308E-01
       -1   -1    0    0    0  501  0.00000000000E+00  0.00000000000E+00  0.10454073633E+04  0.10454073633E+04  0.50400001928E-02 0.  1.
        1   -1    0    0  501    0  0.00000000000E+00  0.00000000000E+00 -0.10728788377E+04  0.10728788377E+04  0.50400001928E-02 0. -1.
    10030    2    1    2    0    0  0.00000000000E+00  0.00000000000E+00 -0.27471474356E+02  0.21182862010E+04  0.21181080585E+04 0.  0.
        5    1    3    3  502    0  0.31021578530E+03  0.63401213777E+03  0.77586731699E+03  0.10489029545E+04  0.46999998093E+01 0.  1.
       -5    1    3    3    0  502 -0.31021578530E+03 -0.63401213777E+03 -0.80333879135E+03  0.10693832465E+04  0.46999998093E+01 0. -1.
</event>
<event>
 5   0  0.9012466E-05  0.2111764E+04  0.7818609E-02  0.8556079E-01
        2   -1    0    0  501    0  0.00000000000E+00  0.00000000000E+00  0.15120321982E+04  0.15120321982E+04  0.25500000920E-02 0. -1.
       -2   -1    0    0    0  501  0.00000000000E+00  0.00000000000E+00 -0.73734320677E+03  0.73734320677E+03  0.25500000920E-02 0.  1.
    10030    2    1    2    0    0  0.00000000000E+00  0.00000000000E+00  0.77468899147E+03  0.22493754050E+04  0.21117638786E+04 0.  0.
        2    1    3    3  502    0  0.50454016662E+03  0.92107692814E+03  0.27093815983E+03  0.10845971481E+04  0.25500000920E-02 0. -1.
       -2    1    3    3    0  502 -0.50454016662E+03 -0.92107692814E+03  0.50375083164E+03  0.11647782569E+04  0.25500000920E-02 0.  1.
</event>
<event>
 5   0  0.4050368E-05  0.2096289E+04  0.7818609E-02  0.8562880E-01
       -1   -1    0    0    0  501  0.00000000000E+00  0.00000000000E+00  0.74908259850E+03  0.74908259852E+03  0.50400001928E-02 0.  1.
        1   -1    0    0  501    0  0.00000000000E+00  0.00000000000E+00 -0.14666031818E+04  0.14666031818E+04  0.50400001928E-02 0. -1.
    10030    2    1    2    0    0  0.00000000000E+00  0.00000000000E+00 -0.71752058334E+03  0.22156857804E+04  0.20962890282E+04 0.  0.
        2    1    3    3  502    0  0.35756784710E+03  0.33603614762E+03 -0.13377048495E+04  0.14248611589E+04  0.25500000920E-02 0. -1.
       -2    1    3    3    0  502 -0.35756784710E+03 -0.33603614762E+03  0.62018426620E+03  0.79082462141E+03  0.25500000920E-02 0.  1.
</event>
<event>
 5   0  0.8872777E-05  0.2084049E+04  0.7818609E-02  0.8568302E-01
        2   -1    0    0  501    0  0.00000000000E+00  0.00000000000E+00  0.25054353893E+04  0.25054353893E+04  0.25500000920E-02 0.  1.
       -2   -1    0    0    0  501  0.00000000000E+00  0.00000000000E+00 -0.43338396553E+03  0.43338396554E+03  0.25500000920E-02 0. -1.
    10030    2    1    2    0    0  0.00000000000E+00  0.00000000000E+00  0.20720514238E+04  0.29388193548E+04  0.20840494470E+04 0.  0.
        3    1    3    3  502    0  0.17875527792E+03 -0.51629763269E+03  0.22872485779E+04  0.23516000430E+04  0.10100000352E+00 0.  1.
       -3    1    3    3    0  502 -0.17875527792E+03  0.51629763269E+03 -0.21519715411E+03  0.58721931188E+03  0.10100000352E+00 0. -1.
</event>
<event>
 5   0  0.4182977E-05  0.2021126E+04  0.7818609E-02  0.8596807E-01
       -1   -1    0    0    0  501  0.00000000000E+00  0.00000000000E+00  0.65884270945E+03  0.65884270947E+03  0.50400001928E-02 0. -1.
        1   -1    0    0  501    0  0.00000000000E+00  0.00000000000E+00 -0.15500479593E+04  0.15500479593E+04  0.50400001928E-02 0.  1.
    10030    2    1    2    0    0  0.00000000000E+00  0.00000000000E+00 -0.89120524985E+03  0.22088906688E+04  0.20211262180E+04 0.  0.
        1    1    3    3  502    0  0.11911082227E+03  0.62179972577E+03  0.41523671952E+03  0.75712866820E+03  0.50400001928E-02 0. -1.
       -1    1    3    3    0  502 -0.11911082227E+03 -0.62179972577E+03 -0.13064419694E+04  0.14517620006E+04  0.50400001928E-02 0.  1.
</event>
<event>
 5   0  0.8872777E-05  0.2085667E+04  0.7818609E-02  0.8567583E-01
       -2   -1    0    0    0  501  0.00000000000E+00  0.00000000000E+00  0.45782556132E+03  0.45782556133E+03  0.25500000920E-02 0.  1.
        2   -1    0    0  501    0  0.00000000000E+00  0.00000000000E+00 -0.23753636773E+04  0.23753636773E+04  0.25500000920E-02 0. -1.
    10030    2    1    2    0    0  0.00000000000E+00  0.00000000000E+00 -0.19175381160E+04  0.28331892386E+04  0.20856674796E+04 0.  0.
        3    1    3    3  502    0  0.74108262462E+03  0.52530839823E+03 -0.26299071494E+03  0.94568308440E+03  0.10100000352E+00 0. -1.
       -3    1    3    3    0  502 -0.74108262462E+03 -0.52530839823E+03 -0.16545474010E+04  0.18875061542E+04  0.10100000352E+00 0.  1.
</event>
<event>
 5   0  0.4174093E-05  0.2094998E+04  0.7818609E-02  0.8563450E-01
        1   -1    0    0  501    0  0.00000000000E+00  0.00000000000E+00  0.27390016838E+04  0.27390016838E+04  0.50400001928E-02 0.  1.
       -1   -1    0    0    0  501  0.00000000000E+00  0.00000000000E+00 -0.40060383979E+03  0.40060383982E+03  0.50400001928E-02 0. -1.
    10030    2    1    2    0    0  0.00000000000E+00  0.00000000000E+00  0.23383978440E+04  0.31396055237E+04  0.20949984170E+04 0.  0.
        3    1    3    3  502    0 -0.17087259897E+03 -0.51017166420E+03 -0.17771075648E+03  0.56661600331E+03  0.10100000352E+00 0. -1.
       -3    1    3    3    0  502  0.17087259897E+03  0.51017166420E+03  0.25161086005E+04  0.25729895203E+04  0.10100000352E+00 0.  1.
</event>
<event>
 5   0  0.4128678E-05  0.2105641E+04  0.7818609E-02  0.8558762E-01
        1   -1    0    0  501    0  0.00000000000E+00  0.00000000000E+00  0.92083798409E+03  0.92083798411E+03  0.50400001928E-02 0.  1.
       -1   -1    0    0    0  501  0.00000000000E+00  0.00000000000E+00 -0.12037203273E+04  0.12037203273E+04  0.50400001928E-02 0. -1.
    10030    2    1    2    0    0  0.00000000000E+00  0.00000000000E+00 -0.28288234323E+03  0.21245583114E+04  0.21056413746E+04 0.  0.
        5    1    3    3  502    0 -0.71487223037E+03  0.20671173344E+03  0.60998924717E+03  0.96222711361E+03  0.46999998093E+01 0.  1.
       -5    1    3    3    0  502  0.71487223037E+03 -0.20671173344E+03 -0.89287159041E+03  0.11623311978E+04  0.46999998093E+01 0. -1.
</event>
<event>
 5   0  0.4174093E-05  0.2099651E+04  0.7818609E-02  0.8561397E-01
        1   -1    0    0  501    0  0.00000000000E+00  0.00000000000E+00  0.13227536831E+04  0.13227536831E+04  0.50400001928E-02 0.  1.
       -1   -1    0    0    0  501  0.00000000000E+00  0.00000000000E+00 -0.83321184308E+03  0.83321184309E+03  0.50400001928E-02 0. -1.
    10030    2    1    2    0    0  0.00000000000E+00  0.00000000000E+00  0.48954184005E+03  0.21559655262E+04  0.20996514323E+04 0.  0.
        3    1    3    3  502    0  0.46730978285E+03 -0.17582399798E+03  0.11930338552E+04  0.12932989991E+04  0.10100000352E+00 0.  1.
       -3    1    3    3    0  502 -0.46730978285E+03  0.17582399798E+03 -0.70349201512E+03  0.86266652708E+03  0.10100000352E+00 0. -1.
</event>
<event>
 5   0  0.9086985E-05  0.2095119E+04  0.7818609E-02  0.8563396E-01
       -2   -1    0    0    0  501  0.00000000000E+00  0.00000000000E+00  0.19259924899E+04  0.19259924899E+04  0.25500000920E-02 0. -1.
        2   -1    0    0  501    0  0.00000000000E+00  0.00000000000E+00 -0.56977441734E+03  0.56977441735E+03  0.25500000920E-02 0.  1.
    10030    2    1    2    0    0  0.00000000000E+00  0.00000000000E+00  0.13562180726E+04  0.24957669073E+04  0.20951193272E+04 0.  0.
        5    1    3    3  502    0  0.77117278980E+03  0.62394855534E+03  0.27707000094E+03  0.10299558956E+04  0.46999998093E+01 0.  1.
       -5    1    3    3    0  502 -0.77117278980E+03 -0.62394855534E+03  0.10791480717E+04  0.14658110117E+04  0.46999998093E+01 0. -1.
</event>
<event>
 5   0  0.8858590E-05  0.2105758E+04  0.7818609E-02  0.8558711E-01
        2   -1    0    0  501    0  0.00000000000E+00  0.00000000000E+00  0.15017834117E+04  0.15017834117E+04  0.25500000920E-02 0.  1.
       -2   -1    0    0    0  501  0.00000000000E+00  0.00000000000E+00 -0.73815829265E+03  0.73815829266E+03  0.25500000920E-02 0. -1.
    10030    2    1    2    0    0  0.00000000000E+00  0.00000000000E+00  0.76362511906E+03  0.22399417044E+04  0.21057577060E+04 0.  0.
        1    1    3    3  502    0 -0.88539244804E+03 -0.45862012067E+03  0.22183631735E+02  0.99736869595E+03  0.50400001928E-02 0. -1.
       -1    1    3    3    0  502  0.88539244804E+03  0.45862012067E+03  0.74144148733E+03  0.12425730084E+04  0.50400001928E-02 0.  1.
</event>
<event>
 5   0  0.8858590E-05  0.2115158E+04  0.7818609E-02  0.8554596E-01
        2   -1    0    0  501    0  0.00000000000E+00  0.00000000000E+00  0.13764881868E+04  0.13764881868E+04  0.25500000920E-02 0.  1.
       -2   -1    0    0    0  501  0.00000000000E+00  0.00000000000E+00 -0.81255547555E+03  0.81255547556E+03  0.25500000920E-02 0. -1.
    10030    2    1    2    0    0  0.00000000000E+00  0.00000000000E+00  0.56393271126E+03  0.21890436624E+04  0.21151576899E+04 0.  0.
        1    1    3    3  502    0 -0.52346612978E+02 -0.16914914505E+03  0.13610390385E+04  0.13725082387E+04  0.50400001928E-02 0.  1.
       -1    1    3    3    0  502  0.52346612978E+02  0.16914914505E+03 -0.79710632720E+03  0.81653542364E+03  0.50400001928E-02 0. -1.
</event>
<event>
 5   0  0.4050368E-05  0.2075430E+04  0.7818609E-02  0.8572144E-01
       -1   -1    0    0    0  501  0.00000000000E+00  0.00000000000E+00  0.58613909442E+03  0.58613909444E+03  0.50400001928E-02 0. -1.
        1   -1    0    0  501    0  0.00000000000E+00  0.00000000000E+00 -0.18371962874E+04  0.18371962874E+04  0.50400001928E-02 0.  1.
    10030    2    1    2    0    0  0.00000000000E+00  0.00000000000E+00 -0.12510571930E+04  0.24233353819E+04  0.20754301417E+04 0.  0.
        2    1    3    3  502    0 -0.37079344162E+03 -0.84706414794E+03 -0.75567078293E+02  0.92774771916E+03  0.25500000920E-02 0. -1.
       -2    1    3    3    0  502  0.37079344162E+03  0.84706414794E+03 -0.11754901147E+04  0.14955876627E+04  0.25500000920E-02 0.  1.
</event>
<event>
 5   0  0.9086985E-05  0.2342295E+04  0.7818609E-02  0.8461429E-01
        2   -1    0    0  501    0  0.00000000000E+00  0.00000000000E+00  0.87168535524E+03  0.87168535524E+03  0.25500000920E-02 0. -1.
       -2   -1    0    0    0  501  0.00000000000E+00  0.00000000000E+00 -0.15734881261E+04  0.15734881261E+04  0.25500000920E-02 0.  1.
    10030    2    1    2    0    0  0.00000000000E+00  0.00000000000E+00 -0.70180277084E+03  0.24451734813E+04  0.23422950763E+04 0.  0.
        5    1    3    3  502    0  0.37936387334E+03 -0.11079922482E+04 -0.35177214989E+03  0.12228366636E+04  0.46999998093E+01 0.  1.
       -5    1    3    3    0  502 -0.37936387334E+03  0.11079922482E+04 -0.35003062095E+03  0.12223368177E+04  0.46999998093E+01 0. -1.
</event>
<event>
 5   0  0.9012466E-05  0.2107560E+04  0.7818609E-02  0.8557921E-01
       -2   -1    0    0    0  501  0.00000000000E+00  0.00000000000E+00  0.75160438831E+03  0.75160438831E+03  0.25500000920E-02 0. -1.
        2   -1    0    0  501    0  0.00000000000E+00  0.00000000000E+00 -0.14774418592E+04  0.14774418592E+04  0.25500000920E-02 0.  1.
    10030    2    1    2    0    0  0.00000000000E+00  0.00000000000E+00 -0.72583747091E+03  0.22290462475E+04  0.21075595222E+04 0.  0.
        2    1    3    3  502    0  0.16674355434E+03 -0.56982511405E+03 -0.12837050445E+04  0.14143559363E+04  0.25500000920E-02 0.  1.
       -2    1    3    3    0  502 -0.16674355434E+03  0.56982511405E+03  0.55786757355E+03  0.81469031118E+03  0.25500000920E-02 0. -1.
</event>
<event>
 5   0  0.4128678E-05  0.2017244E+04  0.7818609E-02  0.8598601E-01
       -1   -1    0    0    0  501  0.00000000000E+00  0.00000000000E+00  0.85075752222E+03  0.85075752223E+03  0.50400001928E-02 0.  1.
        1   -1    0    0  501    0  0.00000000000E+00  0.00000000000E+00 -0.11957792504E+04  0.11957792504E+04  0.50400001928E-02 0. -1.
    10030    2    1    2    0    0  0.00000000000E+00  0.00000000000E+00 -0.34502172819E+03  0.20465367726E+04  0.20172438546E+04 0.  0.
        5    1    3    3  502    0  0.86259317344E+03  0.32311234855E+03 -0.58936372288E+03  0.10935448141E+04  0.46999998093E+01 0.  1.
       -5    1    3    3    0  502 -0.86259317344E+03 -0.32311234855E+03  0.24434199470E+03  0.95299195853E+03  0.46999998093E+01 0. -1.
</event>
<event>
 5   0  0.4200061E-05  0.2109824E+04  0.7818609E-02  0.8556928E-01
       -1   -1    0    0    0  501  0.00000000000E+00  0.00000000000E+00  0.12513786049E+04  0.12513786050E+04  0.50400001928E-02 0. -1.
        1   -1    0    0  501    0  0.00000000000E+00  0.00000000000E+00 -0.88929072676E+03  0.88929072678E+03  0.50400001928E-02 0.  1.
    10030    2    1    2    0    0  0.00000000000E+00  0.00000000000E+00  0.36208787818E+03  0.21406693317E+04  0.21098240581E+04 0.  0.
        4    1    3    3  502    0  0.47201104222E+03 -0.61865312829E+03 -0.54162729611E+03  0.94809696652E+03  0.12699999809E+01 0.  1.
       -4    1    3    3    0  502 -0.47201104222E+03  0.61865312829E+03  0.90371517429E+03  0.11925723652E+04  0.12699999809E+01 0. -1.
</event>
<event>
 5   0  0.4174093E-05  0.2104681E+04  0.7818609E-02  0.8559184E-01
        1   -1    0    0  501    0  0.00000000000E+00  0.00000000000E+00  0.11740195740E+04  0.11740195740E+04  0.50400001928E-02 0.  1.
       -1   -1    0    0    0  501  0.00000000000E+00  0.00000000000E+00 -0.94327243889E+03  0.94327243890E+03  0.50400001928E-02 0. -1.
    10030    2    1    2    0    0  0.00000000000E+00  0.00000000000E+00  0.23074713507E+03  0.21172920129E+04  0.21046807899E+04 0.  0.
        3    1    3    3  502    0 -0.87885807938E+03  0.16989271185E+03  0.67201106996E+03  0.11193095843E+04  0.10100000352E+00 0.  1.
       -3    1    3    3    0  502  0.87885807938E+03 -0.16989271185E+03 -0.44126393489E+03  0.99798242854E+03  0.10100000352E+00 0. -1.
</event>
<event>
 5   0  0.4128678E-05  0.2110170E+04  0.7818609E-02  0.8556777E-01
       -1   -1    0    0    0  501  0.00000000000E+00  0.00000000000E+00  0.68765674041E+03  0.68765674043E+03  0.50400001928E-02 0. -1.
        1   -1    0    0  501    0  0.00000000000E+00  0.00000000000E+00 -0.16188370951E+04  0.16188370951E+04  0.50400001928E-02 0.  1.
    10030    2    1    2    0    0  0.00000000000E+00  0.00000000000E+00 -0.93118035470E+03  0.23064938355E+04  0.21101698890E+04 0.  0.
        5    1    3    3  502    0  0.21049383289E+03  0.99373623600E+03 -0.15381050809E+03  0.10273748697E+04  0.46999998093E+01 0. -1.
       -5    1    3    3    0  502 -0.21049383289E+03 -0.99373623600E+03 -0.77736984661E+03  0.12791189659E+04  0.46999998093E+01 0.  1.
</event>
<event>
 5   0  0.9012466E-05  0.2133163E+04  0.7818609E-02  0.8546774E-01
       -2   -1    0    0    0  501  0.00000000000E+00  0.00000000000E+00  0.10700363346E+04  0.10700363346E+04  0.25500000920E-02 0. -1.
        2   -1    0    0  501    0  0.00000000000E+00  0.00000000000E+00 -0.10631380703E+04  0.10631380703E+04  0.25500000920E-02 0.  1.
    10030    2    1    2    0    0  0.00000000000E+00  0.00000000000E+00  0.68982642664E+01  0.21331744049E+04  0.21331632511E+04 0.  0.
        2    1    3    3  502    0 -0.77840946583E+02 -0.10614449488E+04  0.73247574813E+02  0.10668129168E+04  0.25500000920E-02 0.  1.
       -2    1    3    3    0  502  0.77840946583E+02  0.10614449488E+04 -0.66349310547E+02  0.10663614881E+04  0.25500000920E-02 0. -1.
</event>
<event>
 5   0  0.9012466E-05  0.2104152E+04  0.7818609E-02  0.8559416E-01
        2   -1    0    0  501    0  0.00000000000E+00  0.00000000000E+00  0.26326175153E+04  0.26326175153E+04  0.25500000920E-02 0.  1.
       -2   -1    0    0    0  501  0.00000000000E+00  0.00000000000E+00 -0.42044247350E+03  0.42044247351E+03  0.25500000920E-02 0. -1.
    10030    2    1    2    0    0  0.00000000000E+00  0.00000000000E+00  0.22121750418E+04  0.30530599888E+04  0.21041522948E+04 0.  0.
        2    1    3    3  502    0 -0.65614583597E+03 -0.33691674283E+03  0.21946276911E+04  0.23152604502E+04  0.25500000920E-02 0.  1.
       -2    1    3    3    0  502  0.65614583597E+03  0.33691674283E+03  0.17547350690E+02  0.73779953862E+03  0.25500000920E-02 0. -1.
</event>
<event>
 5   0  0.4200061E-05  0.2111428E+04  0.7818609E-02  0.8556226E-01
        1   -1    0    0  501    0  0.00000000000E+00  0.00000000000E+00  0.73119577256E+03  0.73119577258E+03  0.50400001928E-02 0.  1.
       -1   -1    0    0    0  501  0.00000000000E+00  0.00000000000E+00 -0.15242595575E+04  0.15242595575E+04  0.50400001928E-02 0. -1.
    10030    2    1    2    0    0  0.00000000000E+00  0.00000000000E+00 -0.79306378492E+03  0.22554553301E+04  0.21114280899E+04 0.  0.
        4    1    3    3  502    0 -0.84844671689E+03 -0.32344515271E+03 -0.97183380487E+03  0.13300154719E+04  0.12699999809E+01 0. -1.
       -4    1    3    3    0  502  0.84844671689E+03  0.32344515271E+03  0.17877001995E+03  0.92543985820E+03  0.12699999809E+01 0.  1.
</event>
<event>
 5   0  0.4182977E-05  0.2105091E+04  0.7818609E-02  0.8559004E-01
        1   -1    0    0  501    0  0.00000000000E+00  0.00000000000E+00  0.12762667658E+04  0.12762667658E+04  0.50400001928E-02 0. -1.
       -1   -1    0    0    0  501  0.00000000000E+00  0.00000000000E+00 -0.86804110431E+03  0.86804110433E+03  0.50400001928E-02 0.  1.
    10030    2    1    2    0    0  0.00000000000E+00  0.00000000000E+00  0.40822566148E+03  0.21443078701E+04  0.21050909841E+04 0.  0.
        1    1    3    3  502    0 -0.10122342231E+04 -0.98809789930E+02 -0.71991241925E+02  0.10195902294E+04  0.50400001928E-02 0.  1.
       -1    1    3    3    0  502  0.10122342231E+04  0.98809789930E+02  0.48021690341E+03  0.11247176407E+04  0.50400001928E-02 0. -1.
</event>
<event>
 5   0  0.4182977E-05  0.2109868E+04  0.7818609E-02  0.8556909E-01
        1   -1    0    0  501    0  0.00000000000E+00  0.00000000000E+00  0.14478131861E+04  0.14478131861E+04  0.50400001928E-02 0. -1.
       -1   -1    0    0    0  501  0.00000000000E+00  0.00000000000E+00 -0.76866701069E+03  0.76866701070E+03  0.50400001928E-02 0.  1.
    10030    2    1    2    0    0  0.00000000000E+00  0.00000000000E+00  0.67914617542E+03  0.22164801968E+04  0.21098684640E+04 0.  0.
        1    1    3    3  502    0  0.73733855701E+03 -0.18957661058E+02  0.11319114332E+04  0.13510185170E+04  0.50400001928E-02 0. -1.
       -1    1    3    3    0  502 -0.73733855701E+03  0.18957661058E+02 -0.45276525779E+03  0.86546167983E+03  0.50400001928E-02 0.  1.
</event>
<event>
 5   0  0.4128678E-05  0.2106816E+04  0.7818609E-02  0.8558247E-01
       -1   -1    0    0    0  501  0.00000000000E+00  0.00000000000E+00  0.16746319707E+04  0.16746319707E+04  0.50400001928E-02 0. -1.
        1   -1    0    0  501    0  0.00000000000E+00  0.00000000000E+00 -0.66263433451E+03  0.66263433453E+03  0.50400001928E-02 0.  1.
    10030    2    1    2    0    0  0.00000000000E+00  0.00000000000E+00  0.10119976362E+04  0.23372663052E+04  0.21068162155E+04 0.  0.
        5    1    3    3  502    0  0.61046947720E+03 -0.75357891153E+03  0.49811108015E+02  0.97111142253E+03  0.46999998093E+01 0. -1.
       -5    1    3    3    0  502 -0.61046947720E+03  0.75357891153E+03  0.96218652814E+03  0.13661548827E+04  0.46999998093E+01 0.  1.
</event>
<event>
 5   0  0.8547605E-05  0.2087045E+04  0.7818609E-02  0.8566972E-01
        2   -1    0    0  501    0  0.00000000000E+00  0.00000000000E+00  0.15046576484E+04  0.15046576484E+04  0.25500000920E-02 0. -1.
       -2   -1    0    0    0  501  0.00000000000E+00  0.00000000000E+00 -0.72371237354E+03  0.72371237354E+03  0.25500000920E-02 0.  1.
    10030    2    1    2    0    0  0.00000000000E+00  0.00000000000E+00  0.78094527489E+03  0.22283700220E+04  0.20870451439E+04 0.  0.
        4    1    3    3  502    0  0.45859769943E+03 -0.16617557145E+03  0.13754430788E+04  0.14593736486E+04  0.12699999809E+01 0. -1.
       -4    1    3    3    0  502 -0.45859769943E+03  0.16617557145E+03 -0.59449780389E+03  0.76899637334E+03  0.12699999809E+01 0.  1.
</event>
<event>
 5   0  0.8872777E-05  0.2100670E+04  0.7818609E-02  0.8560948E-01
        2   -1    0    0  501    0  0.00000000000E+00  0.00000000000E+00  0.10219698045E+04  0.10219698045E+04  0.25500000920E-02 0. -1.
       -2   -1    0    0    0  501  0.00000000000E+00  0.00000000000E+00 -0.10794875671E+04  0.10794875672E+04  0.25500000920E-02 0.  1.
    10030    2    1    2    0    0  0.00000000000E+00  0.00000000000E+00 -0.57517762681E+02  0.21014573716E+04  0.21006700816E+04 0.  0.
        3    1    3    3  502    0 -0.31681361465E+03 -0.92976576701E+03 -0.40087737698E+03  0.10609137239E+04  0.10100000352E+00 0.  1.
       -3    1    3    3    0  502  0.31681361465E+03  0.92976576701E+03  0.34335961430E+03  0.10405436477E+04  0.10100000352E+00 0. -1.
</event>
<event>
 5   0  0.8858590E-05  0.2051658E+04  0.7818609E-02  0.8582842E-01
       -2   -1    0    0    0  501  0.00000000000E+00  0.00000000000E+00  0.73804576366E+03  0.73804576366E+03  0.25500000920E-02 0.  1.
        2   -1    0    0  501    0  0.00000000000E+00  0.00000000000E+00 -0.14258267848E+04  0.14258267848E+04  0.25500000920E-02 0. -1.
    10030    2    1    2    0    0  0.00000000000E+00  0.00000000000E+00 -0.68778102113E+03  0.21638725485E+04  0.20516582739E+04 0.  0.
        1    1    3    3  502    0 -0.43823888417E+02 -0.77048559359E+03 -0.10566929526E+04  0.13084985973E+04  0.50400001928E-02 0. -1.
       -1    1    3    3    0  502  0.43823888417E+02  0.77048559359E+03  0.36891193144E+03  0.85537395115E+03  0.50400001928E-02 0.  1.
</event>
<event>
 5   0  0.8872777E-05  0.2156164E+04  0.7818609E-02  0.8536898E-01
       -2   -1    0    0    0  501  0.00000000000E+00  0.00000000000E+00  0.10845242882E+04  0.10845242882E+04  0.25500000920E-02 0. -1.
        2   -1    0    0  501    0  0.00000000000E+00  0.00000000000E+00 -0.10716784114E+04  0.10716784114E+04  0.25500000920E-02 0.  1.
    10030    2    1    2    0    0  0.00000000000E+00  0.00000000000E+00  0.12845876882E+02  0.21562026996E+04  0.21561644337E+04 0.  0.
        3    1    3    3  502    0 -0.31266364867E+03  0.86597769328E+03  0.56731196469E+03  0.10814429240E+04  0.10100000352E+00 0. -1.
       -3    1    3    3    0  502  0.31266364867E+03 -0.86597769328E+03 -0.55446608781E+03  0.10747597756E+04  0.10100000352E+00 0.  1.
</event>
<event>
 5   0  0.9086985E-05  0.2109168E+04  0.7818609E-02  0.8557215E-01
       -2   -1    0    0    0  501  0.00000000000E+00  0.00000000000E+00  0.91943818684E+03  0.91943818684E+03  0.25500000920E-02 0.  1.
        2   -1    0    0  501    0  0.00000000000E+00  0.00000000000E+00 -0.12095948256E+04  0.12095948256E+04  0.25500000920E-02 0. -1.
    10030    2    1    2    0    0  0.00000000000E+00  0.00000000000E+00 -0.29015663873E+03  0.21290330124E+04  0.21091682467E+04 0.  0.
        5    1    3    3  502    0 -0.80120387857E+03  0.46660591187E+03  0.36212484426E+03  0.99539199557E+03  0.46999998093E+01 0. -1.
       -5    1    3    3    0  502  0.80120387857E+03 -0.46660591187E+03 -0.65228148299E+03  0.11336410168E+04  0.46999998093E+01 0.  1.
</event>
<event>
 5   0  0.9086985E-05  0.2091685E+04  0.7818609E-02  0.8564915E-01
       -2   -1    0    0    0  501  0.00000000000E+00  0.00000000000E+00  0.81706246714E+03  0.81706246714E+03  0.25500000920E-02 0.  1.
        2   -1    0    0  501    0  0.00000000000E+00  0.00000000000E+00 -0.13386815701E+04  0.13386815701E+04  0.25500000920E-02 0. -1.
    10030    2    1    2    0    0  0.00000000000E+00  0.00000000000E+00 -0.52161910292E+03  0.21557440372E+04  0.20916849345E+04 0.  0.
        5    1    3    3  502    0  0.48442863218E+03 -0.72602507869E+03 -0.85463314542E+03  0.12215577832E+04  0.46999998093E+01 0. -1.
       -5    1    3    3    0  502 -0.48442863218E+03  0.72602507869E+03  0.33301404250E+03  0.93418625395E+03  0.46999998093E+01 0.  1.
</event>
<event>
 5   0  0.4182977E-05  0.2251959E+04  0.7818609E-02  0.8497107E-01
        1   -1    0    0  501    0  0.00000000000E+00  0.00000000000E+00  0.53292152364E+03  0.53292152366E+03  0.50400001928E-02 0. -1.
       -1   -1    0    0    0  501  0.00000000000E+00  0.00000000000E+00 -0.23790184109E+04  0.23790184109E+04  0.50400001928E-02 0.  1.
    10030    2    1    2    0    0  0.00000000000E+00  0.00000000000E+00 -0.18460968873E+04  0.29119399346E+04  0.22519592504E+04 0.  0.
        1    1    3    3  502    0  0.61214428831E+03 -0.93332744882E+03 -0.11148824473E+04  0.15775879144E+04  0.50400001928E-02 0.  1.
       -1    1    3    3    0  502 -0.61214428831E+03  0.93332744882E+03 -0.73121443996E+03  0.13343520201E+04  0.50400001928E-02 0. -1.
</event>
<event>
 5   0  0.8547605E-05  0.2083380E+04  0.7818609E-02  0.8568600E-01
        2   -1    0    0  501    0  0.00000000000E+00  0.00000000000E+00  0.23270824970E+04  0.23270824970E+04  0.25500000920E-02 0.  1.
       -2   -1    0    0    0  501  0.00000000000E+00  0.00000000000E+00 -0.46629972194E+03  0.46629972195E+03  0.25500000920E-02 0. -1.
    10030    2    1    2    0    0  0.00000000000E+00  0.00000000000E+00  0.18607827751E+04  0.27933822190E+04  0.20833798706E+04 0.  0.
        4    1    3    3  502    0  0.45746711309E+03  0.42222218970E+03  0.20502297816E+04  0.21426599140E+04  0.12699999809E+01 0.  1.
       -4    1    3    3    0  502 -0.45746711309E+03 -0.42222218970E+03 -0.18944700646E+03  0.65072230498E+03  0.12699999809E+01 0. -1.
</event>
<event>
 5   0  0.4174093E-05  0.2091714E+04  0.7818609E-02  0.8564902E-01
        1   -1    0    0  501    0  0.00000000000E+00  0.00000000000E+00  0.92040423517E+03  0.92040423519E+03  0.50400001928E-02 0. -1.
       -1   -1    0    0    0  501  0.00000000000E+00  0.00000000000E+00 -0.11884087496E+04  0.11884087496E+04  0.50400001928E-02 0.  1.
    10030    2    1    2    0    0  0.00000000000E+00  0.00000000000E+00 -0.26800451445E+03  0.21088129848E+04  0.20917136002E+04 0.  0.
        3    1    3    3  502    0 -0.49883647618E+03 -0.27754070844E+03  0.74948899092E+03  0.94212548661E+03  0.10100000352E+00 0. -1.
       -3    1    3    3    0  502  0.49883647618E+03  0.27754070844E+03 -0.10174935054E+04  0.11666874982E+04  0.10100000352E+00 0.  1.
</event>
<event>
 5   0  0.4050368E-05  0.2126987E+04  0.7818609E-02  0.8549448E-01
       -1   -1    0    0    0  501  0.00000000000E+00  0.00000000000E+00  0.62205550760E+03  0.62205550762E+03  0.50400001928E-02 0.  1.
        1   -1    0    0  501    0  0.00000000000E+00  0.00000000000E+00 -0.18181948042E+04  0.18181948042E+04  0.50400001928E-02 0. -1.
    10030    2    1    2    0    0  0.00000000000E+00  0.00000000000E+00 -0.11961392966E+04  0.24402503118E+04  0.21269866872E+04 0.  0.
        2    1    3    3  502    0 -0.74744280451E+03  0.39388471192E+03  0.14297246504E+03  0.85688799622E+03  0.25500000920E-02 0.  1.
       -2    1    3    3    0  502  0.74744280451E+03 -0.39388471192E+03 -0.13391117616E+04  0.15833623156E+04  0.25500000920E-02 0. -1.
</event>
<event>
 5   0  0.4200061E-05  0.2114372E+04  0.7818609E-02  0.8554938E-01
        1   -1    0    0  501    0  0.00000000000E+00  0.00000000000E+00  0.10744831394E+04  0.10744831394E+04  0.50400001928E-02 0.  1.
       -1   -1    0    0    0  501  0.00000000000E+00  0.00000000000E+00 -0.10401677725E+04  0.10401677725E+04  0.50400001928E-02 0. -1.
    10030    2    1    2    0    0  0.00000000000E+00  0.00000000000E+00  0.34315366911E+02  0.21146509119E+04  0.21143724683E+04 0.  0.
        4    1    3    3  502    0 -0.38168757075E+03  0.38229619505E+03 -0.89170031135E+03  0.10425770190E+04  0.12699999809E+01 0. -1.
       -4    1    3    3    0  502  0.38168757075E+03 -0.38229619505E+03  0.92601567826E+03  0.10720738928E+04  0.12699999809E+01 0.  1.
</event>
<event>
 5   0  0.8547605E-05  0.2178582E+04  0.7818609E-02  0.8527396E-01
       -2   -1    0    0    0  501  0.00000000000E+00  0.00000000000E+00  0.73846360910E+03  0.73846360910E+03  0.25500000920E-02 0. -1.
        2   -1    0    0  501    0  0.00000000000E+00  0.00000000000E+00 -0.16067888164E+04  0.16067888164E+04  0.25500000920E-02 0.  1.
    10030    2    1    2    0    0  0.00000000000E+00  0.00000000000E+00 -0.86832520729E+03  0.23452524255E+04  0.21785821705E+04 0.  0.
        4    1    3    3  502    0  0.14716230386E+03 -0.42136325267E+03  0.63551068921E+03  0.77658173001E+03  0.12699999809E+01 0. -1.
       -4    1    3    3    0  502 -0.14716230386E+03  0.42136325267E+03 -0.15038358965E+04  0.15686706955E+04  0.12699999809E+01 0.  1.
</event>
<event>
 5   0  0.4128678E-05  0.1980060E+04  0.7818609E-02  0.8616001E-01
        1   -1    0    0  501    0  0.00000000000E+00  0.00000000000E+00  0.12052638420E+04  0.12052638420E+04  0.50400001928E-02 0.  1.
       -1   -1    0    0    0  501  0.00000000000E+00  0.00000000000E+00 -0.81323197100E+03  0.81323197102E+03  0.50400001928E-02 0. -1.
    10030    2    1    2    0    0  0.00000000000E+00  0.00000000000E+00  0.39203187100E+03  0.20184958130E+04  0.19800596858E+04 0.  0.
        5    1    3    3  502    0  0.35994115114E+03 -0.56032337186E+03  0.94277726425E+03  0.11542837491E+04  0.46999998093E+01 0.  1.
       -5    1    3    3    0  502 -0.35994115114E+03  0.56032337186E+03 -0.55074539325E+03  0.86421206398E+03  0.46999998093E+01 0. -1.
</event>
<event>
 5   0  0.4128678E-05  0.1960546E+04  0.7818609E-02  0.8625292E-01
        1   -1    0    0  501    0  0.00000000000E+00  0.00000000000E+00  0.11800610677E+04  0.11800610677E+04  0.50400001928E-02 0. -1.
       -1   -1    0    0    0  501  0.00000000000E+00  0.00000000000E+00 -0.81430949230E+03  0.81430949232E+03  0.50400001928E-02 0.  1.
    10030    2    1    2    0    0  0.00000000000E+00  0.00000000000E+00  0.36575157543E+03  0.19943705601E+04  0.19605457699E+04 0.  0.
        5    1    3    3  502    0 -0.81286401668E+03 -0.18126263074E+02  0.73989608834E+03  0.10993383385E+04  0.46999998093E+01 0. -1.
       -5    1    3    3    0  502  0.81286401668E+03  0.18126263074E+02 -0.37414451291E+03  0.89503222153E+03  0.46999998093E+01 0.  1.
</event>
<event>
 5   0  0.4128678E-05  0.2103751E+04  0.7818609E-02  0.8559593E-01
        1   -1    0    0  501    0  0.00000000000E+00  0.00000000000E+00  0.14901219919E+04  0.14901219919E+04  0.50400001928E-02 0.  1.
       -1   -1    0    0    0  501  0.00000000000E+00  0.00000000000E+00 -0.74251752564E+03  0.74251752565E+03  0.50400001928E-02 0. -1.
    10030    2    1    2    0    0  0.00000000000E+00  0.00000000000E+00  0.74760446626E+03  0.22326395176E+04  0.21037506453E+04 0.  0.
        5    1    3    3  502    0  0.55294627275E+03 -0.78627079525E+03 -0.79506628024E+02  0.96452824630E+03  0.46999998093E+01 0. -1.
       -5    1    3    3    0  502 -0.55294627275E+03  0.78627079525E+03  0.82711109428E+03  0.12681112713E+04  0.46999998093E+01 0.  1.
</event>
<event>
 5   0  0.9086985E-05  0.2096340E+04  0.7818609E-02  0.8562858E-01
        2   -1    0    0  501    0  0.00000000000E+00  0.00000000000E+00  0.14925591961E+04  0.14925591961E+04  0.25500000920E-02 0.  1.
       -2   -1    0    0    0  501  0.00000000000E+00  0.00000000000E+00 -0.73609132669E+03  0.73609132670E+03  0.25500000920E-02 0. -1.
    10030    2    1    2    0    0  0.00000000000E+00  0.00000000000E+00  0.75646786936E+03  0.22286505228E+04  0.20963395515E+04 0.  0.
        5    1    3    3  502    0 -0.70502736739E+02 -0.13512282182E+03 -0.72423705903E+03  0.74011500494E+03  0.46999998093E+01 0. -1.
       -5    1    3    3    0  502  0.70502736739E+02  0.13512282182E+03  0.14807049284E+04  0.14885355178E+04  0.46999998093E+01 0.  1.
</event>
<event>
 5   0  0.8858590E-05  0.2023226E+04  0.7818609E-02  0.8595838E-01
       -2   -1    0    0    0  501  0.00000000000E+00  0.00000000000E+00  0.55494465524E+03  0.55494465524E+03  0.25500000920E-02 0.  1.
        2   -1    0    0  501    0  0.00000000000E+00  0.00000000000E+00 -0.18440779363E+04  0.18440779363E+04  0.25500000920E-02 0. -1.
    10030    2    1    2    0    0  0.00000000000E+00  0.00000000000E+00 -0.12891332810E+04  0.23990225915E+04  0.20232263290E+04 0.  0.
        1    1    3    3  502    0 -0.53888644829E+03 -0.83508377798E+03 -0.42084876764E+03  0.10792947724E+04  0.50400001928E-02 0. -1.
       -1    1    3    3    0  502  0.53888644829E+03  0.83508377798E+03 -0.86828451339E+03  0.13197278191E+04  0.50400001928E-02 0.  1.
</event>
<event>
 5   0  0.4050368E-05  0.2117073E+04  0.7818609E-02  0.8553760E-01
       -1   -1    0    0    0  501  0.00000000000E+00  0.00000000000E+00  0.91903646795E+03  0.91903646796E+03  0.50400001928E-02 0. -1.
        1   -1    0    0  501    0  0.00000000000E+00  0.00000000000E+00 -0.12192109074E+04  0.12192109074E+04  0.50400001928E-02 0.  1.
    10030    2    1    2    0    0  0.00000000000E+00  0.00000000000E+00 -0.30017443946E+03  0.21382473754E+04  0.21170727773E+04 0.  0.
        2    1    3    3  502    0 -0.41500113947E+03  0.72228615816E+03 -0.80974758677E+03  0.11617290537E+04  0.25500000920E-02 0.  1.
       -2    1    3    3    0  502  0.41500113947E+03 -0.72228615816E+03  0.50957314731E+03  0.97651832164E+03  0.25500000920E-02 0. -1.
</event>
<event>
 5   0  0.9086985E-05  0.1923565E+04  0.7818609E-02  0.8643215E-01
       -2   -1    0    0    0  501  0.00000000000E+00  0.00000000000E+00  0.57247718186E+03  0.57247718187E+03  0.25500000920E-02 0.  1.
        2   -1    0    0  501    0  0.00000000000E+00  0.00000000000E+00 -0.16158297087E+04  0.16158297087E+04  0.25500000920E-02 0. -1.
    10030    2    1    2    0    0  0.00000000000E+00  0.00000000000E+00 -0.10433525269E+04  0.21883068906E+04  0.19235650631E+04 0.  0.
        5    1    3    3  502    0 -0.51999241664E+03 -0.45470617271E+03  0.23964760503E+03  0.73116542687E+03  0.46999998093E+01 0.  1.
       -5    1    3    3    0  502  0.51999241664E+03  0.45470617271E+03 -0.12830001319E+04  0.14571414637E+04  0.46999998093E+01 0. -1.
</event>
<event>
 5   0  0.8858590E-05  0.2090673E+04  0.7818609E-02  0.8565363E-01
        2   -1    0    0  501    0  0.00000000000E+00  0.00000000000E+00  0.11466198609E+04  0.11466198609E+04  0.25500000920E-02 0. -1.
       -2   -1    0    0    0  501  0.00000000000E+00  0.00000000000E+00 -0.95299977133E+03  0.95299977133E+03  0.25500000920E-02 0.  1.
    10030    2    1    2    0    0  0.00000000000E+00  0.00000000000E+00  0.19362008952E+03  0.20996196322E+04  0.20906730641E+04 0.  0.
        1    1    3    3  502    0  0.28365693022E+03  0.50166133305E+03 -0.77904765399E+03  0.96904106949E+03  0.50400001928E-02 0.  1.
       -1    1    3    3    0  502 -0.28365693022E+03 -0.50166133305E+03  0.97266774351E+03  0.11305785627E+04  0.50400001928E-02 0. -1.
</event>
<event>
 5   0  0.3176125E-05  0.1870573E+04  0.7818609E-02  0.8669644E-01
       -3   -1    0    0    0  501  0.00000000000E+00  0.00000000000E+00  0.42728014037E+03  0.42728015231E+03  0.10100000352E+00 0. -1.
        3   -1    0    0  501    0  0.00000000000E+00  0.00000000000E+00 -0.20472774271E+04  0.20472774296E+04  0.10100000352E+00 0.  1.
    10030    2    1    2    0    0  0.00000000000E+00  0.00000000000E+00 -0.16199972868E+04  0.24745575819E+04  0.18705731788E+04 0.  0.
        3    1    3    3  502    0  0.38745512910E+03  0.61218627663E+03 -0.15924811723E+04  0.17495398848E+04  0.10100000352E+00 0.  1.
       -3    1    3    3    0  502 -0.38745512910E+03 -0.61218627663E+03 -0.27516114489E+02  0.72501769711E+03  0.10100000352E+00 0. -1.
</event>
<event>
 5   0  0.8858590E-05  0.2108365E+04  0.7818609E-02  0.8557568E-01
        2   -1    0    0  501    0  0.00000000000E+00  0.00000000000E+00  0.10665258288E+04  0.10665258288E+04  0.25500000920E-02 0.  1.
       -2   -1    0    0    0  501  0.00000000000E+00  0.00000000000E+00 -0.10419816076E+04  0.10419816076E+04  0.25500000920E-02 0. -1.
    10030    2    1    2    0    0  0.00000000000E+00  0.00000000000E+00  0.24544221191E+02  0.21085074363E+04  0.21083645772E+04 0.  0.
        1    1    3    3  502    0 -0.74681521840E+03 -0.72763082329E+03 -0.14304685462E+03  0.10524457174E+04  0.50400001928E-02 0. -1.
       -1    1    3    3    0  502  0.74681521840E+03  0.72763082329E+03  0.16759107581E+03  0.10560617189E+04  0.50400001928E-02 0.  1.
</event>
<event>
 5   0  0.8872777E-05  0.2124111E+04  0.7818609E-02  0.8550696E-01
       -2   -1    0    0    0  501  0.00000000000E+00  0.00000000000E+00  0.10370789207E+04  0.10370789207E+04  0.25500000920E-02 0. -1.
        2   -1    0    0  501    0  0.00000000000E+00  0.00000000000E+00 -0.10876338051E+04  0.10876338051E+04  0.25500000920E-02 0.  1.
    10030    2    1    2    0    0  0.00000000000E+00  0.00000000000E+00 -0.50554884421E+02  0.21247127258E+04  0.21241111955E+04 0.  0.
        3    1    3    3  502    0 -0.34092545420E+03 -0.20562987054E+03  0.95960703344E+03  0.10389222675E+04  0.10100000352E+00 0. -1.
       -3    1    3    3    0  502  0.34092545420E+03  0.20562987054E+03 -0.10101619179E+04  0.10857904584E+04  0.10100000352E+00 0.  1.
</event>
<event>
 5   0  0.4200061E-05  0.2109267E+04  0.7818609E-02  0.8557172E-01
        1   -1    0    0  501    0  0.00000000000E+00  0.00000000000E+00  0.17180728947E+04  0.17180728947E+04  0.50400001928E-02 0.  1.
       -1   -1    0    0    0  501  0.00000000000E+00  0.00000000000E+00 -0.64738308979E+03  0.64738308981E+03  0.50400001928E-02 0. -1.
    10030    2    1    2    0    0  0.00000000000E+00  0.00000000000E+00  0.10706898049E+04  0.23654559845E+04  0.21092665446E+04 0.  0.
        4    1    3    3  502    0  0.31604497811E+03 -0.38515113563E+02 -0.59219939740E+03  0.67236119857E+03  0.12699999809E+01 0. -1.
       -4    1    3    3    0  502 -0.31604497811E+03  0.38515113563E+02  0.16628892023E+04  0.16930947859E+04  0.12699999809E+01 0.  1.
</event>
<event>
 5   0  0.4200061E-05  0.2093070E+04  0.7818609E-02  0.8564302E-01
       -1   -1    0    0    0  501  0.00000000000E+00  0.00000000000E+00  0.87579826771E+03  0.87579826772E+03  0.50400001928E-02 0.  1.
        1   -1    0    0  501    0  0.00000000000E+00  0.00000000000E+00 -0.12505566393E+04  0.12505566393E+04  0.50400001928E-02 0. -1.
    10030    2    1    2    0    0  0.00000000000E+00  0.00000000000E+00 -0.37475837161E+03  0.21263549071E+04  0.20930698397E+04 0.  0.
        4    1    3    3  502    0 -0.70633910089E+02 -0.10082385582E+04 -0.46317302359E+03  0.11117846024E+04  0.12699999809E+01 0. -1.
       -4    1    3    3    0  502  0.70633910089E+02  0.10082385582E+04  0.88414651984E+02  0.10145703046E+04  0.12699999809E+01 0.  1.
</event>
<event>
 5   0  0.4182977E-05  0.1866828E+04  0.7818609E-02  0.8671547E-01
        1   -1    0    0  501    0  0.00000000000E+00  0.00000000000E+00  0.10149725572E+04  0.10149725572E+04  0.50400001928E-02 0. -1.
       -1   -1    0    0    0  501  0.00000000000E+00  0.00000000000E+00 -0.85840872833E+03  0.85840872834E+03  0.50400001928E-02 0.  1.
    10030    2    1    2    0    0  0.00000000000E+00  0.00000000000E+00  0.15656382887E+03  0.18733812856E+04  0.18668275787E+04 0.  0.
        1    1    3    3  502    0  0.51275221633E+02 -0.92597618440E+03 -0.27920897482E+02  0.92781497022E+03  0.50400001928E-02 0. -1.
       -1    1    3    3    0  502 -0.51275221633E+02  0.92597618440E+03  0.18448472635E+03  0.94556631534E+03  0.50400001928E-02 0.  1.
</event>
<event>
 5   0  0.9086985E-05  0.2097677E+04  0.7818609E-02  0.8562268E-01
        2   -1    0    0  501    0  0.00000000000E+00  0.00000000000E+00  0.10148184209E+04  0.10148184209E+04  0.25500000920E-02 0.  1.
       -2   -1    0    0    0  501  0.00000000000E+00  0.00000000000E+00 -0.10839987143E+04  0.10839987143E+04  0.25500000920E-02 0. -1.
    10030    2    1    2    0    0  0.00000000000E+00  0.00000000000E+00 -0.69180293464E+02  0.20988171352E+04  0.20976766801E+04 0.  0.
        5    1    3    3  502    0 -0.11019536554E+03 -0.22631636922E+02  0.10087541175E+04  0.10150183098E+04  0.46999998093E+01 0.  1.
       -5    1    3    3    0  502  0.11019536554E+03  0.22631636922E+02 -0.10779344110E+04  0.10837988254E+04  0.46999998093E+01 0. -1.
</event>
<event>
 5   0  0.4182977E-05  0.2084547E+04  0.7818609E-02  0.8568081E-01
       -1   -1    0    0    0  501  0.00000000000E+00  0.00000000000E+00  0.10253044745E+04  0.10253044745E+04  0.50400001928E-02 0.  1.
        1   -1    0    0  501    0  0.00000000000E+00  0.00000000000E+00 -0.10595235621E+04  0.10595235622E+04  0.50400001928E-02 0. -1.
    10030    2    1    2    0    0  0.00000000000E+00  0.00000000000E+00 -0.34219087665E+02  0.20848280367E+04  0.20845471922E+04 0.  0.
        1    1    3    3  502    0  0.58697695723E+03  0.78345036382E+03  0.34070649829E+03  0.10365410454E+04  0.50400001928E-02 0.  1.
       -1    1    3    3    0  502 -0.58697695723E+03 -0.78345036382E+03 -0.37492558596E+03  0.10482869912E+04  0.50400001928E-02 0. -1.
</event>
<event>
 5   0  0.9086985E-05  0.2112249E+04  0.7818609E-02  0.8555867E-01
       -2   -1    0    0    0  501  0.00000000000E+00  0.00000000000E+00  0.10761157086E+04  0.10761157086E+04  0.25500000920E-02 0. -1.
        2   -1    0    0  501    0  0.00000000000E+00  0.00000000000E+00 -0.10365044474E+04  0.10365044474E+04  0.25500000920E-02 0.  1.
    10030    2    1    2    0    0  0.00000000000E+00  0.00000000000E+00  0.39611261254E+02  0.21126201560E+04  0.21122487713E+04 0.  0.
        5    1    3    3  502    0  0.45564210161E+03  0.86470050634E+03 -0.38033962714E+03  0.10488074239E+04  0.46999998093E+01 0.  1.
       -5    1    3    3    0  502 -0.45564210161E+03 -0.86470050634E+03  0.41995088839E+03  0.10638127321E+04  0.46999998093E+01 0. -1.
</event>
<event>
 5   0  0.8858590E-05  0.2092140E+04  0.7818609E-02  0.8564714E-01
       -2   -1    0    0    0  501  0.00000000000E+00  0.00000000000E+00  0.12138336978E+04  0.12138336978E+04  0.25500000920E-02 0. -1.
        2   -1    0    0  501    0  0.00000000000E+00  0.00000000000E+00 -0.90149252649E+03  0.90149252649E+03  0.25500000920E-02 0.  1.
    10030    2    1    2    0    0  0.00000000000E+00  0.00000000000E+00  0.31234117128E+03  0.21153262243E+04  0.20921395813E+04 0.  0.
        1    1    3    3  502    0 -0.45485478480E+03  0.84920973580E+03 -0.25603875443E+03  0.99679782023E+03  0.50400001928E-02 0.  1.
       -1    1    3    3    0  502  0.45485478480E+03 -0.84920973580E+03  0.56837992571E+03  0.11185284040E+04  0.50400001928E-02 0. -1.
</event>
<event>
 5   0  0.8547605E-05  0.2089403E+04  0.7818609E-02  0.8565926E-01
       -2   -1    0    0    0  501  0.00000000000E+00  0.00000000000E+00  0.53530448280E+03  0.53530448281E+03  0.25500000920E-02 0. -1.
        2   -1    0    0  501    0  0.00000000000E+00  0.00000000000E+00 -0.20388417937E+04  0.20388417937E+04  0.25500000920E-02 0.  1.
    10030    2    1    2    0    0  0.00000000000E+00  0.00000000000E+00 -0.15035373109E+04  0.25741462766E+04  0.20894029309E+04 0.  0.
        4    1    3    3  502    0 -0.56151754648E+03  0.84407828066E+03 -0.44099795006E+03  0.11055545684E+04  0.12699999809E+01 0.  1.
       -4    1    3    3    0  502  0.56151754648E+03 -0.84407828066E+03 -0.10625393609E+04  0.14685917081E+04  0.12699999809E+01 0. -1.
</event>
<event>
 5   0  0.9086985E-05  0.2113761E+04  0.7818609E-02  0.8555206E-01
       -2   -1    0    0    0  501  0.00000000000E+00  0.00000000000E+00  0.88169023511E+03  0.88169023511E+03  0.25500000920E-02 0. -1.
        2   -1    0    0  501    0  0.00000000000E+00  0.00000000000E+00 -0.12668804393E+04  0.12668804393E+04  0.25500000920E-02 0.  1.
    10030    2    1    2    0    0  0.00000000000E+00  0.00000000000E+00 -0.38519020420E+03  0.21485706744E+04  0.21137607361E+04 0.  0.
        5    1    3    3  502    0  0.10418496858E+04 -0.12065132972E+03 -0.32499574456E+03  0.10980217826E+04  0.46999998093E+01 0.  1.
       -5    1    3    3    0  502 -0.10418496858E+04  0.12065132972E+03 -0.60194459639E+02  0.10505488918E+04  0.46999998093E+01 0. -1.
</event>
<event>
 5   0  0.4200061E-05  0.2154723E+04  0.7818609E-02  0.8537513E-01
       -1   -1    0    0    0  501  0.00000000000E+00  0.00000000000E+00  0.52651863626E+03  0.52651863629E+03  0.50400001928E-02 0.  1.
        1   -1    0    0  501    0  0.00000000000E+00  0.00000000000E+00 -0.22044952554E+04  0.22044952554E+04  0.50400001928E-02 0. -1.
    10030    2    1    2    0    0  0.00000000000E+00  0.00000000000E+00 -0.16779766191E+04  0.27310138917E+04  0.21547230314E+04 0.  0.
        4    1    3    3  502    0 -0.28934815204E+03  0.15514166999E+03 -0.21395444317E+04  0.21645884779E+04  0.12699999809E+01 0. -1.
       -4    1    3    3    0  502  0.28934815204E+03 -0.15514166999E+03  0.46156781254E+03  0.56642541374E+03  0.12699999809E+01 0.  1.
</event>
<event>
 5   0  0.8858590E-05  0.2055053E+04  0.7818609E-02  0.8581306E-01
        2   -1    0    0  501    0  0.00000000000E+00  0.00000000000E+00  0.22485759773E+04  0.22485759773E+04  0.25500000920E-02 0. -1.
       -2   -1    0    0    0  501  0.00000000000E+00  0.00000000000E+00 -0.46954621173E+03  0.46954621174E+03  0.25500000920E-02 0.  1.
    10030    2    1    2    0    0  0.00000000000E+00  0.00000000000E+00  0.17790297656E+04  0.27181221890E+04  0.20550526338E+04 0.  0.
        1    1    3    3  502    0  0.59974966811E+02 -0.54763425242E+03  0.20367289437E+04  0.21099206291E+04  0.50400001928E-02 0. -1.
       -1    1    3    3    0  502 -0.59974966811E+02  0.54763425242E+03 -0.25769917812E+03  0.60820155993E+03  0.50400001928E-02 0.  1.
</event>
<event>
 5   0  0.4200061E-05  0.2095305E+04  0.7818609E-02  0.8563314E-01
        1   -1    0    0  501    0  0.00000000000E+00  0.00000000000E+00  0.10890046950E+04  0.10890046950E+04  0.50400001928E-02 0. -1.
       -1   -1    0    0    0  501  0.00000000000E+00  0.00000000000E+00 -0.10078706600E+04  0.10078706600E+04  0.50400001928E-02 0.  1.
    10030    2    1    2    0    0  0.00000000000E+00  0.00000000000E+00  0.81134035034E+02  0.20968753550E+04  0.20953051145E+04 0.  0.
        4    1    3    3  502    0 -0.10738376340E+03 -0.90189151138E+03  0.56310264285E+03  0.10686560580E+04  0.12699999809E+01 0. -1.
       -4    1    3    3    0  502  0.10738376340E+03  0.90189151138E+03 -0.48196860782E+03  0.10282192970E+04  0.12699999809E+01 0.  1.
</event>
<event>
 5   0  0.4050368E-05  0.2063423E+04  0.7818609E-02  0.8577529E-01
       -1   -1    0    0    0  501  0.00000000000E+00  0.00000000000E+00  0.16365786750E+04  0.16365786750E+04  0.50400001928E-02 0.  1.
        1   -1    0    0  501    0  0.00000000000E+00  0.00000000000E+00 -0.65039874285E+03  0.65039874287E+03  0.50400001928E-02 0. -1.
    10030    2    1    2    0    0  0.00000000000E+00  0.00000000000E+00  0.98617993217E+03  0.22869774179E+04  0.20634230907E+04 0.  0.
        2    1    3    3  502    0 -0.37290161708E+03 -0.57083226431E+03  0.13512667079E+04  0.15135477548E+04  0.25500000920E-02 0.  1.
       -2    1    3    3    0  502  0.37290161708E+03  0.57083226431E+03 -0.36508677574E+03  0.77342966314E+03  0.25500000920E-02 0. -1.
</event>
<event>
 5   0  0.3176125E-05  0.2049175E+04  0.7818609E-02  0.8583968E-01
        4   -1    0    0  501    0  0.00000000000E+00  0.00000000000E+00  0.92567706903E+03  0.92567794023E+03  0.12699999809E+01 0.  1.
       -4   -1    0    0    0  501  0.00000000000E+00  0.00000000000E+00 -0.11340654647E+04  0.11340661758E+04  0.12699999809E+01 0. -1.
    10030    2    1    2    0    0  0.00000000000E+00  0.00000000000E+00 -0.20838839571E+03  0.20597441161E+04  0.20491754684E+04 0.  0.
        5    1    3    3  502    0  0.74245877526E+03 -0.13505131721E+03 -0.80078651596E+03  0.11003476839E+04  0.46999998093E+01 0. -1.
       -5    1    3    3    0  502 -0.74245877526E+03  0.13505131721E+03  0.59239812026E+03  0.95939643221E+03  0.46999998093E+01 0.  1.
</event>
<event>
 5   0  0.4182977E-05  0.2118762E+04  0.7818609E-02  0.8553023E-01
        1   -1    0    0  501    0  0.00000000000E+00  0.00000000000E+00  0.82757795141E+03  0.82757795143E+03  0.50400001928E-02 0. -1.
       -1   -1    0    0    0  501  0.00000000000E+00  0.00000000000E+00 -0.13561118163E+04  0.13561118163E+04  0.50400001928E-02 0.  1.
    10030    2    1    2    0    0  0.00000000000E+00  0.00000000000E+00 -0.52853386492E+03  0.21836897678E+04  0.21187621281E+04 0.  0.
        1    1    3    3  502    0  0.62095516313E+03  0.48896702062E+03 -0.99130158325E+03  0.12678142178E+04  0.50400001928E-02 0. -1.
       -1    1    3    3    0  502 -0.62095516313E+03 -0.48896702062E+03  0.46276771833E+03  0.91587554997E+03  0.50400001928E-02 0.  1.
</event>
<event>
 5   0  0.4200061E-05  0.2099718E+04  0.7818609E-02  0.8561367E-01
        1   -1    0    0  501    0  0.00000000000E+00  0.00000000000E+00  0.93738252571E+03  0.93738252572E+03  0.50400001928E-02 0.  1.
       -1   -1    0    0    0  501  0.00000000000E+00  0.00000000000E+00 -0.11758319311E+04  0.11758319311E+04  0.50400001928E-02 0. -1.
    10030    2    1    2    0    0  0.00000000000E+00  0.00000000000E+00 -0.23844940535E+03  0.21132144568E+04  0.20997183672E+04 0.  0.
        4    1    3    3  502    0 -0.51799513192E+03 -0.47344103559E+03  0.66665109690E+03  0.96793112812E+03  0.12699999809E+01 0.  1.
       -4    1    3    3    0  502  0.51799513192E+03  0.47344103559E+03 -0.90510050226E+03  0.11452833287E+04  0.12699999809E+01 0. -1.
</event>
<event>
 5   0  0.8547605E-05  0.2074510E+04  0.7818609E-02  0.8572556E-01
        2   -1    0    0  501    0  0.00000000000E+00  0.00000000000E+00  0.57478835567E+03  0.57478835568E+03  0.25500000920E-02 0. -1.
       -2   -1    0    0    0  501  0.00000000000E+00  0.00000000000E+00 -0.18718159909E+04  0.18718159909E+04  0.25500000920E-02 0.  1.
    10030    2    1    2    0    0  0.00000000000E+00  0.00000000000E+00 -0.12970276352E+04  0.24466043466E+04  0.20745100969E+04 0.  0.
        4    1    3    3  502    0 -0.72695754867E+03  0.14608339973E+03  0.20690285770E+03  0.76981688906E+03  0.12699999809E+01 0. -1.
       -4    1    3    3    0  502  0.72695754867E+03 -0.14608339973E+03 -0.15039304929E+04  0.16767874575E+04  0.12699999809E+01 0.  1.
</event>
<event>
 5   0  0.8547605E-05  0.2127963E+04  0.7818609E-02  0.8549025E-01
       -2   -1    0    0    0  501  0.00000000000E+00  0.00000000000E+00  0.83684795813E+03  0.83684795813E+03  0.25500000920E-02 0. -1.
        2   -1    0    0  501    0  0.00000000000E+00  0.00000000000E+00 -0.13527620288E+04  0.13527620288E+04  0.25500000920E-02 0.  1.
    10030    2    1    2    0    0  0.00000000000E+00  0.00000000000E+00 -0.51591407068E+03  0.21896099869E+04  0.21279625388E+04 0.  0.
        4    1    3    3  502    0 -0.57171378883E+03  0.20543846241E+03 -0.11567569827E+04  0.13065794841E+04  0.12699999809E+01 0.  1.
       -4    1    3    3    0  502  0.57171378883E+03 -0.20543846241E+03  0.64084291205E+03  0.88303050288E+03  0.12699999809E+01 0. -1.
</event>
<event>
 5   0  0.4128678E-05  0.2094687E+04  0.7818609E-02  0.8563588E-01
       -1   -1    0    0    0  501  0.00000000000E+00  0.00000000000E+00  0.12320257174E+04  0.12320257174E+04  0.50400001928E-02 0. -1.
        1   -1    0    0  501    0  0.00000000000E+00  0.00000000000E+00 -0.89034513673E+03  0.89034513674E+03  0.50400001928E-02 0.  1.
    10030    2    1    2    0    0  0.00000000000E+00  0.00000000000E+00  0.34168058069E+03  0.21223708542E+04  0.20946867125E+04 0.  0.
        5    1    3    3  502    0 -0.13037304857E+02  0.88637817594E+03  0.73594783024E+03  0.11521621157E+04  0.46999998093E+01 0. -1.
       -5    1    3    3    0  502  0.13037304857E+02 -0.88637817594E+03 -0.39426724955E+03  0.97020873845E+03  0.46999998093E+01 0.  1.
</event>
<event>
 5   0  0.9012466E-05  0.2067727E+04  0.7818609E-02  0.8575595E-01
        2   -1    0    0  501    0  0.00000000000E+00  0.00000000000E+00  0.22116341661E+04  0.22116341661E+04  0.25500000920E-02 0.  1.
       -2   -1    0    0    0  501  0.00000000000E+00  0.00000000000E+00 -0.48329583208E+03  0.48329583209E+03  0.25500000920E-02 0. -1.
    10030    2    1    2    0    0  0.00000000000E+00  0.00000000000E+00  0.17283383340E+04  0.26949299982E+04  0.20677268433E+04 0.  0.
        2    1    3    3  502    0 -0.20632863149E+03  0.36736229787E+03  0.20946581496E+04  0.21366139861E+04  0.25500000920E-02 0.  1.
       -2    1    3    3    0  502  0.20632863149E+03 -0.36736229787E+03 -0.36631981555E+03  0.55831601208E+03  0.25500000920E-02 0. -1.
</event>
<event>
 5   0  0.4128678E-05  0.2091212E+04  0.7818609E-02  0.8565124E-01
        1   -1    0    0  501    0  0.00000000000E+00  0.00000000000E+00  0.17395665218E+04  0.17395665218E+04  0.50400001928E-02 0.  1.
       -1   -1    0    0    0  501  0.00000000000E+00  0.00000000000E+00 -0.62848529970E+03  0.62848529972E+03  0.50400001928E-02 0. -1.
    10030    2    1    2    0    0  0.00000000000E+00  0.00000000000E+00  0.11110812221E+04  0.23680518215E+04  0.20912120761E+04 0.  0.
        5    1    3    3  502    0  0.97003062532E+03 -0.77475754793E+02  0.12240175404E+03  0.98079874900E+03  0.46999998093E+01 0. -1.
       -5    1    3    3    0  502 -0.97003062532E+03  0.77475754793E+02  0.98867946802E+03  0.13872530725E+04  0.46999998093E+01 0.  1.
</event>
<event>
 5   0  0.8858590E-05  0.2085983E+04  0.7818609E-02  0.8567443E-01
        2   -1    0    0  501    0  0.00000000000E+00  0.00000000000E+00  0.17136593351E+04  0.17136593351E+04  0.25500000920E-02 0. -1.
       -2   -1    0    0    0  501  0.00000000000E+00  0.00000000000E+00 -0.63480048650E+03  0.63480048650E+03  0.25500000920E-02 0.  1.
    10030    2    1    2    0    0  0.00000000000E+00  0.00000000000E+00  0.10788588486E+04  0.23484598216E+04  0.20859834895E+04 0.  0.
        1    1    3    3  502    0  0.10107882455E+04 -0.16716314139E+03  0.75945730832E+03  0.12753085102E+04  0.50400001928E-02 0.  1.
       -1    1    3    3    0  502 -0.10107882455E+04  0.16716314139E+03  0.31940154026E+03  0.10731513113E+04  0.50400001928E-02 0. -1.
</event>
<event>
 5   0  0.8547605E-05  0.2131319E+04  0.7818609E-02  0.8547571E-01
        2   -1    0    0  501    0  0.00000000000E+00  0.00000000000E+00  0.13102649215E+04  0.13102649215E+04  0.25500000920E-02 0. -1.
       -2   -1    0    0    0  501  0.00000000000E+00  0.00000000000E+00 -0.86671831126E+03  0.86671831127E+03  0.25500000920E-02 0.  1.
    10030    2    1    2    0    0  0.00000000000E+00  0.00000000000E+00  0.44354661028E+03  0.21769832328E+04  0.21313194037E+04 0.  0.
        4    1    3    3  502    0 -0.75416294016E+03  0.21450667242E+03  0.95893812882E+03  0.12386843022E+04  0.12699999809E+01 0. -1.
       -4    1    3    3    0  502  0.75416294016E+03 -0.21450667242E+03 -0.51539151854E+03  0.93829893057E+03  0.12699999809E+01 0.  1.
</event>
<event>
 5   0  0.4174093E-05  0.2076958E+04  0.7818609E-02  0.8571462E-01
       -1   -1    0    0    0  501  0.00000000000E+00  0.00000000000E+00  0.55938081339E+03  0.55938081341E+03  0.50400001928E-02 0.  1.
        1   -1    0    0  501    0  0.00000000000E+00  0.00000000000E+00 -0.19279146608E+04  0.19279146608E+04  0.50400001928E-02 0. -1.
    10030    2    1    2    0    0  0.00000000000E+00  0.00000000000E+00 -0.13685338474E+04  0.24872954742E+04  0.20769578437E+04 0.  0.
        3    1    3    3  502    0 -0.24222861548E+03 -0.52947077401E+03 -0.17140520241E+04  0.18102453851E+04  0.10100000352E+00 0. -1.
       -3    1    3    3    0  502  0.24222861548E+03  0.52947077401E+03  0.34551817664E+03  0.67705008919E+03  0.10100000352E+00 0.  1.
</event>
<event>
 5   0  0.8547605E-05  0.2138062E+04  0.7818609E-02  0.8544659E-01
        2   -1    0    0  501    0  0.00000000000E+00  0.00000000000E+00  0.75112419870E+03  0.75112419870E+03  0.25500000920E-02 0.  1.
       -2   -1    0    0    0  501  0.00000000000E+00  0.00000000000E+00 -0.15214897363E+04  0.15214897363E+04  0.25500000920E-02 0. -1.
    10030    2    1    2    0    0  0.00000000000E+00  0.00000000000E+00 -0.77036553763E+03  0.22726139350E+04  0.21380624491E+04 0.  0.
        4    1    3    3  502    0 -0.81507800920E+03  0.35546218997E+03  0.24555814953E+03  0.92249983592E+03  0.12699999809E+01 0.  1.
       -4    1    3    3    0  502  0.81507800920E+03 -0.35546218997E+03 -0.10159236872E+04  0.13501140991E+04  0.12699999809E+01 0. -1.
</event>
<event>
 5   0  0.9086985E-05  0.2173060E+04  0.7818609E-02  0.8529725E-01
       -2   -1    0    0    0  501  0.00000000000E+00  0.00000000000E+00  0.79610222735E+03  0.79610222735E+03  0.25500000920E-02 0.  1.
        2   -1    0    0  501    0  0.00000000000E+00  0.00000000000E+00 -0.14829097995E+04  0.14829097995E+04  0.25500000920E-02 0. -1.
    10030    2    1    2    0    0  0.00000000000E+00  0.00000000000E+00 -0.68680757212E+03  0.22790120268E+04  0.21730603253E+04 0.  0.
        5    1    3    3  502    0 -0.99815991257E+03  0.30016184158E+03 -0.21680852947E+02  0.10425509539E+04  0.46999998093E+01 0.  1.
       -5    1    3    3    0  502  0.99815991257E+03 -0.30016184158E+03 -0.66512671918E+03  0.12364610729E+04  0.46999998093E+01 0. -1.
</event>
<event>
 5   0  0.8858590E-05  0.2084548E+04  0.7818609E-02  0.8568081E-01
       -2   -1    0    0    0  501  0.00000000000E+00  0.00000000000E+00  0.64970658442E+03  0.64970658442E+03  0.25500000920E-02 0.  1.
        2   -1    0    0  501    0  0.00000000000E+00  0.00000000000E+00 -0.16720396444E+04  0.16720396444E+04  0.25500000920E-02 0. -1.
    10030    2    1    2    0    0  0.00000000000E+00  0.00000000000E+00 -0.10223330600E+04  0.23217462288E+04  0.20845480723E+04 0.  0.
        1    1    3    3  502    0  0.10157860460E+03 -0.97232570848E+03 -0.10865912573E+03  0.98363728168E+03  0.50400001928E-02 0.  1.
       -1    1    3    3    0  502 -0.10157860460E+03  0.97232570848E+03 -0.91367393427E+03  0.13381089472E+04  0.50400001928E-02 0. -1.
</event>
<event>
 5   0  0.4200061E-05  0.2104417E+04  0.7818609E-02  0.8559300E-01
        1   -1    0    0  501    0  0.00000000000E+00  0.00000000000E+00  0.11133783829E+04  0.11133783829E+04  0.50400001928E-02 0. -1.
       -1   -1    0    0    0  501  0.00000000000E+00  0.00000000000E+00 -0.99439905683E+03  0.99439905685E+03  0.50400001928E-02 0.  1.
    10030    2    1    2    0    0  0.00000000000E+00  0.00000000000E+00  0.11897932609E+03  0.21077774398E+04  0.21044167020E+04 0.  0.
        4    1    3    3  502    0  0.29381044320E+03  0.73898479383E+02 -0.94976791472E+03  0.99691838508E+03  0.12699999809E+01 0.  1.
       -4    1    3    3    0  502 -0.29381044320E+03 -0.73898479383E+02  0.10687472408E+04  0.11108590547E+04  0.12699999809E+01 0. -1.
</event>
<event>
 5   0  0.8858590E-05  0.2081573E+04  0.7818609E-02  0.8569404E-01
        2   -1    0    0  501    0  0.00000000000E+00  0.00000000000E+00  0.15383520523E+04  0.15383520523E+04  0.25500000920E-02 0. -1.
       -2   -1    0    0    0  501  0.00000000000E+00  0.00000000000E+00 -0.70415402614E+03  0.70415402615E+03  0.25500000920E-02 0.  1.
    10030    2    1    2    0    0  0.00000000000E+00  0.00000000000E+00  0.83419802620E+03  0.22425060785E+04  0.20815732428E+04 0.  0.
        1    1    3    3  502    0 -0.27394983070E+03  0.50189330565E+03 -0.51978647216E+03  0.77273758590E+03  0.50400001928E-02 0.  1.
       -1    1    3    3    0  502  0.27394983070E+03 -0.50189330565E+03  0.13539844984E+04  0.14697684926E+04  0.50400001928E-02 0. -1.
</event>
<event>
 5   0  0.4050368E-05  0.2104911E+04  0.7818609E-02  0.8559083E-01
       -1   -1    0    0    0  501  0.00000000000E+00  0.00000000000E+00  0.64324206216E+03  0.64324206218E+03  0.50400001928E-02 0. -1.
        1   -1    0    0  501    0  0.00000000000E+00  0.00000000000E+00 -0.17219998898E+04  0.17219998898E+04  0.50400001928E-02 0.  1.
    10030    2    1    2    0    0  0.00000000000E+00  0.00000000000E+00 -0.10787578276E+04  0.23652419520E+04  0.21049111717E+04 0.  0.
        2    1    3    3  502    0  0.12948052599E+03  0.71590187713E+03 -0.13939519893E+04  0.15723812682E+04  0.25500000920E-02 0.  1.
       -2    1    3    3    0  502 -0.12948052599E+03 -0.71590187713E+03  0.31519416164E+03  0.79286068374E+03  0.25500000920E-02 0. -1.
</event>
<event>
 5   0  0.8872777E-05  0.2141458E+04  0.7818609E-02  0.8543198E-01
       -2   -1    0    0    0  501  0.00000000000E+00  0.00000000000E+00  0.47496931120E+03  0.47496931121E+03  0.25500000920E-02 0.  1.
        2   -1    0    0  501    0  0.00000000000E+00  0.00000000000E+00 -0.24137567196E+04  0.24137567196E+04  0.25500000920E-02 0. -1.
    10030    2    1    2    0    0  0.00000000000E+00  0.00000000000E+00 -0.19387874084E+04  0.28887260308E+04  0.21414577899E+04 0.  0.
        3    1    3    3  502    0  0.36731595228E+03 -0.25764949353E+03 -0.22808342422E+04  0.23245449277E+04  0.10100000352E+00 0. -1.
       -3    1    3    3    0  502 -0.36731595228E+03  0.25764949353E+03  0.34204683384E+03  0.56418110307E+03  0.10100000352E+00 0.  1.
</event>
<event>
 5   0  0.4200061E-05  0.2050630E+04  0.7818609E-02  0.8583309E-01
        1   -1    0    0  501    0  0.00000000000E+00  0.00000000000E+00  0.11970918933E+04  0.11970918933E+04  0.50400001928E-02 0. -1.
       -1   -1    0    0    0  501  0.00000000000E+00  0.00000000000E+00 -0.87818724264E+03  0.87818724265E+03  0.50400001928E-02 0.  1.
    10030    2    1    2    0    0  0.00000000000E+00  0.00000000000E+00  0.31890465066E+03  0.20752791360E+04  0.20506299803E+04 0.  0.
        4    1    3    3  502    0 -0.22435774670E+02 -0.37227653989E+03 -0.80710706678E+03  0.88911001360E+03  0.12699999809E+01 0.  1.
       -4    1    3    3    0  502  0.22435774670E+02  0.37227653989E+03  0.11260117174E+04  0.11861691224E+04  0.12699999809E+01 0. -1.
</event>
<event>
 5   0  0.4200061E-05  0.2093358E+04  0.7818609E-02  0.8564175E-01
       -1   -1    0    0    0  501  0.00000000000E+00  0.00000000000E+00  0.16544379128E+04  0.16544379128E+04  0.50400001928E-02 0.  1.
        1   -1    0    0  501    0  0.00000000000E+00  0.00000000000E+00 -0.66218050821E+03  0.66218050823E+03  0.50400001928E-02 0. -1.
    10030    2    1    2    0    0  0.00000000000E+00  0.00000000000E+00  0.99225740455E+03  0.23166184210E+04  0.20933576263E+04 0.  0.
        4    1    3    3  502    0 -0.29883337491E+03  0.20795002468E+02  0.16059859720E+04  0.16336849063E+04  0.12699999809E+01 0.  1.
       -4    1    3    3    0  502  0.29883337491E+03 -0.20795002468E+02 -0.61372856743E+03  0.68293351467E+03  0.12699999809E+01 0. -1.
</event>
<event>
 5   0  0.8858590E-05  0.2116836E+04  0.7818609E-02  0.8553863E-01
       -2   -1    0    0    0  501  0.00000000000E+00  0.00000000000E+00  0.89675139263E+03  0.89675139263E+03  0.25500000920E-02 0. -1.
        2   -1    0    0  501    0  0.00000000000E+00  0.00000000000E+00 -0.12492296941E+04  0.12492296941E+04  0.25500000920E-02 0.  1.
    10030    2    1    2    0    0  0.00000000000E+00  0.00000000000E+00 -0.35247830150E+03  0.21459810868E+04  0.21168358160E+04 0.  0.
        1    1    3    3  502    0 -0.30004189858E+03 -0.40128072803E+03  0.76890456377E+03  0.91775028837E+03  0.50400001928E-02 0. -1.
       -1    1    3    3    0  502  0.30004189858E+03  0.40128072803E+03 -0.11213828653E+04  0.12282307984E+04  0.50400001928E-02 0.  1.
</event>
<event>
 5   0  0.8547605E-05  0.2100700E+04  0.7818609E-02  0.8560935E-01
        2   -1    0    0  501    0  0.00000000000E+00  0.00000000000E+00  0.14941244834E+04  0.14941244834E+04  0.25500000920E-02 0. -1.
       -2   -1    0    0    0  501  0.00000000000E+00  0.00000000000E+00 -0.73838221867E+03  0.73838221867E+03  0.25500000920E-02 0.  1.
    10030    2    1    2    0    0  0.00000000000E+00  0.00000000000E+00  0.75574226478E+03  0.22325067021E+04  0.21006998368E+04 0.  0.
        4    1    3    3  502    0  0.63780356217E+03 -0.36396833698E+02  0.12639189700E+04  0.14161959218E+04  0.12699999809E+01 0. -1.
       -4    1    3    3    0  502 -0.63780356217E+03  0.36396833698E+02 -0.50817670520E+03  0.81631078029E+03  0.12699999809E+01 0.  1.
</event>
<event>
 5   0  0.4128678E-05  0.2092033E+04  0.7818609E-02  0.8564761E-01
       -1   -1    0    0    0  501  0.00000000000E+00  0.00000000000E+00  0.11748012417E+04  0.11748012417E+04  0.50400001928E-02 0.  1.
        1   -1    0    0  501    0  0.00000000000E+00  0.00000000000E+00 -0.93134980629E+03  0.93134980631E+03  0.50400001928E-02 0. -1.
    10030    2    1    2    0    0  0.00000000000E+00  0.00000000000E+00  0.24345143540E+03  0.21061510480E+04  0.20920333734E+04 0.  0.
        5    1    3    3  502    0  0.11596545113E+03 -0.65151789020E+03 -0.69380582601E+03  0.95880767692E+03  0.46999998093E+01 0. -1.
       -5    1    3    3    0  502 -0.11596545113E+03  0.65151789020E+03  0.93725726141E+03  0.11473433711E+04  0.46999998093E+01 0.  1.
</event>
<event>
 5   0  0.8858590E-05  0.2082281E+04  0.7818609E-02  0.8569089E-01
       -2   -1    0    0    0  501  0.00000000000E+00  0.00000000000E+00  0.18916880748E+04  0.18916880748E+04  0.25500000920E-02 0. -1.
        2   -1    0    0  501    0  0.00000000000E+00  0.00000000000E+00 -0.57301920955E+03  0.57301920956E+03  0.25500000920E-02 0.  1.
    10030    2    1    2    0    0  0.00000000000E+00  0.00000000000E+00  0.13186688652E+04  0.24647072843E+04  0.20822810621E+04 0.  0.
        1    1    3    3  502    0 -0.30511623790E+03  0.80426643960E+03 -0.34931994954E+02  0.86090688741E+03  0.50400001928E-02 0.  1.
       -1    1    3    3    0  502  0.30511623790E+03 -0.80426643960E+03  0.13536008602E+04  0.16038003969E+04  0.50400001928E-02 0. -1.
</event>
<event>
 5   0  0.8872777E-05  0.2059176E+04  0.7818609E-02  0.8579443E-01
        2   -1    0    0  501    0  0.00000000000E+00  0.00000000000E+00  0.12305450068E+04  0.12305450068E+04  0.25500000920E-02 0.  1.
       -2   -1    0    0    0  501  0.00000000000E+00  0.00000000000E+00 -0.86144868836E+03  0.86144868836E+03  0.25500000920E-02 0. -1.
    10030    2    1    2    0    0  0.00000000000E+00  0.00000000000E+00  0.36909631841E+03  0.20919936951E+04  0.20591759343E+04 0.  0.
        3    1    3    3  502    0  0.76500417153E+03 -0.66446084473E+03 -0.87578122248E+00  0.10132819814E+04  0.10100000352E+00 0. -1.
       -3    1    3    3    0  502 -0.76500417153E+03  0.66446084473E+03  0.36997209964E+03  0.10787117137E+04  0.10100000352E+00 0.  1.
</event>
<event>
 5   0  0.4182977E-05  0.2008189E+04  0.7818609E-02  0.8602802E-01
        1   -1    0    0  501    0  0.00000000000E+00  0.00000000000E+00  0.78410517412E+03  0.78410517414E+03  0.50400001928E-02 0. -1.
       -1   -1    0    0    0  501  0.00000000000E+00  0.00000000000E+00 -0.12858044232E+04  0.12858044232E+04  0.50400001928E-02 0.  1.
    10030    2    1    2    0    0  0.00000000000E+00  0.00000000000E+00 -0.50169924907E+03  0.20699095973E+04  0.20081891357E+04 0.  0.
        1    1    3    3  502    0 -0.67838270813E+02  0.12363267362E+03  0.77384698772E+03  0.78659152640E+03  0.50400001928E-02 0. -1.
       -1    1    3    3    0  502  0.67838270813E+02 -0.12363267362E+03 -0.12755462368E+04  0.12833180709E+04  0.50400001928E-02 0.  1.
</event>
<event>
 5   0  0.4200061E-05  0.2133406E+04  0.7818609E-02  0.8546669E-01
        1   -1    0    0  501    0  0.00000000000E+00  0.00000000000E+00  0.19708663021E+04  0.19708663021E+04  0.50400001928E-02 0.  1.
       -1   -1    0    0    0  501  0.00000000000E+00  0.00000000000E+00 -0.57733784457E+03  0.57733784460E+03  0.50400001928E-02 0. -1.
    10030    2    1    2    0    0  0.00000000000E+00  0.00000000000E+00  0.13935284575E+04  0.25482041467E+04  0.21334063868E+04 0.  0.
        4    1    3    3  502    0 -0.45424081136E+03 -0.96339222965E+03  0.62717101394E+03  0.12360438489E+04  0.12699999809E+01 0. -1.
       -4    1    3    3    0  502  0.45424081136E+03  0.96339222965E+03  0.76635744361E+03  0.13121602978E+04  0.12699999809E+01 0.  1.
</event>
<event>
 5   0  0.4174093E-05  0.1995689E+04  0.7818609E-02  0.8608639E-01
        1   -1    0    0  501    0  0.00000000000E+00  0.00000000000E+00  0.54429151033E+03  0.54429151035E+03  0.50400001928E-02 0. -1.
       -1   -1    0    0    0  501  0.00000000000E+00  0.00000000000E+00 -0.18293394424E+04  0.18293394424E+04  0.50400001928E-02 0.  1.
    10030    2    1    2    0    0  0.00000000000E+00  0.00000000000E+00 -0.12850479321E+04  0.23736309528E+04  0.19956892825E+04 0.  0.
        3    1    3    3  502    0 -0.49830376822E+03  0.77199100742E+03 -0.11053393807E+04  0.14373767487E+04  0.10100000352E+00 0.  1.
       -3    1    3    3    0  502  0.49830376822E+03 -0.77199100742E+03 -0.17970855135E+03  0.93625420404E+03  0.10100000352E+00 0. -1.
</event>
<event>
 5   0  0.4128678E-05  0.2115984E+04  0.7818609E-02  0.8554235E-01
       -1   -1    0    0    0  501  0.00000000000E+00  0.00000000000E+00  0.88809968460E+03  0.88809968461E+03  0.50400001928E-02 0.  1.
        1   -1    0    0  501    0  0.00000000000E+00  0.00000000000E+00 -0.12603847640E+04  0.12603847640E+04  0.50400001928E-02 0. -1.
    10030    2    1    2    0    0  0.00000000000E+00  0.00000000000E+00 -0.37228507941E+03  0.21484844486E+04  0.21159842262E+04 0.  0.
        5    1    3    3  502    0 -0.78905115006E+03  0.18317448114E+03  0.50487693511E+03  0.95450375461E+03  0.46999998093E+01 0.  1.
       -5    1    3    3    0  502  0.78905115006E+03 -0.18317448114E+03 -0.87716201453E+03  0.11939806940E+04  0.46999998093E+01 0. -1.
</event>
<event>
 5   0  0.4174093E-05  0.2107220E+04  0.7818609E-02  0.8558069E-01
        1   -1    0    0  501    0  0.00000000000E+00  0.00000000000E+00  0.11744740001E+04  0.11744740001E+04  0.50400001928E-02 0. -1.
       -1   -1    0    0    0  501  0.00000000000E+00  0.00000000000E+00 -0.94518443932E+03  0.94518443934E+03  0.50400001928E-02 0.  1.
    10030    2    1    2    0    0  0.00000000000E+00  0.00000000000E+00  0.22928956079E+03  0.21196584395E+04  0.21072204909E+04 0.  0.
        3    1    3    3  502    0 -0.26904799956E+03  0.60444802341E+03  0.93945437708E+03  0.11490512503E+04  0.10100000352E+00 0. -1.
       -3    1    3    3    0  502  0.26904799956E+03 -0.60444802341E+03 -0.71016481629E+03  0.97060718912E+03  0.10100000352E+00 0.  1.
</event>
<event>
 5   0  0.8547605E-05  0.2087232E+04  0.7818609E-02  0.8566889E-01
        2   -1    0    0  501    0  0.00000000000E+00  0.00000000000E+00  0.11053558846E+04  0.11053558846E+04  0.25500000920E-02 0.  1.
       -2   -1    0    0    0  501  0.00000000000E+00  0.00000000000E+00 -0.98532494750E+03  0.98532494750E+03  0.25500000920E-02 0. -1.
    10030    2    1    2    0    0  0.00000000000E+00  0.00000000000E+00  0.12003093713E+03  0.20906808321E+04  0.20872323579E+04 0.  0.
        4    1    3    3  502    0  0.94029432661E+03  0.35210459501E+03 -0.22506334497E+03  0.10289733663E+04  0.12699999809E+01 0. -1.
       -4    1    3    3    0  502 -0.94029432661E+03 -0.35210459501E+03  0.34509428210E+03  0.10617074658E+04  0.12699999809E+01 0.  1.
</event>
<event>
 5   0  0.8858590E-05  0.2093487E+04  0.7818609E-02  0.8564118E-01
        2   -1    0    0  501    0  0.00000000000E+00  0.00000000000E+00  0.14573367041E+04  0.14573367041E+04  0.25500000920E-02 0. -1.
       -2   -1    0    0    0  501  0.00000000000E+00  0.00000000000E+00 -0.75183162744E+03  0.75183162744E+03  0.25500000920E-02 0.  1.
    10030    2    1    2    0    0  0.00000000000E+00  0.00000000000E+00  0.70550507671E+03  0.22091683316E+04  0.20934868770E+04 0.  0.
        1    1    3    3  502    0 -0.30065931530E+03 -0.89138108267E+03  0.83715559759E+03  0.12592798549E+04  0.50400001928E-02 0. -1.
       -1    1    3    3    0  502  0.30065931530E+03  0.89138108267E+03 -0.13165052088E+03  0.94988847666E+03  0.50400001928E-02 0.  1.
</event>
<event>
 5   0  0.4050368E-05  0.2093493E+04  0.7818609E-02  0.8564115E-01
        1   -1    0    0  501    0  0.00000000000E+00  0.00000000000E+00  0.12609511449E+04  0.12609511449E+04  0.50400001928E-02 0.  1.
       -1   -1    0    0    0  501  0.00000000000E+00  0.00000000000E+00 -0.86893017237E+03  0.86893017238E+03  0.50400001928E-02 0. -1.
    10030    2    1    2    0    0  0.00000000000E+00  0.00000000000E+00  0.39202097254E+03  0.21298813173E+04  0.20934932488E+04 0.  0.
        2    1    3    3  502    0  0.57748541684E+03  0.34636759956E+03 -0.61930420998E+03  0.91487574303E+03  0.25500000920E-02 0. -1.
       -2    1    3    3    0  502 -0.57748541684E+03 -0.34636759956E+03  0.10113251825E+04  0.12150055743E+04  0.25500000920E-02 0.  1.
</event>
<event>
 5   0  0.9086985E-05  0.2109846E+04  0.7818609E-02  0.8556918E-01
       -2   -1    0    0    0  501  0.00000000000E+00  0.00000000000E+00  0.10902241574E+04  0.10902241574E+04  0.25500000920E-02 0. -1.
        2   -1    0    0  501    0  0.00000000000E+00  0.00000000000E+00 -0.10207650003E+04  0.10207650003E+04  0.25500000920E-02 0.  1.
    10030    2    1    2    0    0  0.00000000000E+00  0.00000000000E+00  0.69459157100E+02  0.21109891577E+04  0.21098461199E+04 0.  0.
        5    1    3    3  502    0  0.10218545046E+04 -0.20383894307E+03  0.19945056857E+03  0.10609144935E+04  0.46999998093E+01 0. -1.
       -5    1    3    3    0  502 -0.10218545046E+04  0.20383894307E+03 -0.12999141147E+03  0.10500746642E+04  0.46999998093E+01 0.  1.
</event>
<event>
 5   0  0.4050368E-05  0.2095559E+04  0.7818609E-02  0.8563202E-01
        1   -1    0    0  501    0  0.00000000000E+00  0.00000000000E+00  0.85850935873E+03  0.85850935875E+03  0.50400001928E-02 0. -1.
       -1   -1    0    0    0  501  0.00000000000E+00  0.00000000000E+00 -0.12787762851E+04  0.12787762851E+04  0.50400001928E-02 0.  1.
    10030    2    1    2    0    0  0.00000000000E+00  0.00000000000E+00 -0.42026692633E+03  0.21372856438E+04  0.20955585494E+04 0.  0.
        2    1    3    3  502    0  0.10003626990E+04  0.21399657909E+03 -0.44118655049E+03  0.11140761364E+04  0.25500000920E-02 0. -1.
       -2    1    3    3    0  502 -0.10003626990E+04 -0.21399657909E+03  0.20919624159E+02  0.10232095074E+04  0.25500000920E-02 0.  1.
</event>
<event>
 5   0  0.9012466E-05  0.2105288E+04  0.7818609E-02  0.8558917E-01
        2   -1    0    0  501    0  0.00000000000E+00  0.00000000000E+00  0.14837952346E+04  0.14837952346E+04  0.25500000920E-02 0. -1.
       -2   -1    0    0    0  501  0.00000000000E+00  0.00000000000E+00 -0.74677406651E+03  0.74677406652E+03  0.25500000920E-02 0.  1.
    10030    2    1    2    0    0  0.00000000000E+00  0.00000000000E+00  0.73702116807E+03  0.22305693011E+04  0.21052883899E+04 0.  0.
        2    1    3    3  502    0 -0.48196525778E+03 -0.78363466674E+03  0.91050444852E+03  0.12943694030E+04  0.25500000920E-02 0. -1.
       -2    1    3    3    0  502  0.48196525778E+03  0.78363466674E+03 -0.17348328045E+03  0.93619989811E+03  0.25500000920E-02 0.  1.
</event>
<event>
 5   0  0.8872777E-05  0.2173350E+04  0.7818609E-02  0.8529603E-01
       -2   -1    0    0    0  501  0.00000000000E+00  0.00000000000E+00  0.68576638746E+03  0.68576638746E+03  0.25500000920E-02 0.  1.
        2   -1    0    0  501    0  0.00000000000E+00  0.00000000000E+00 -0.17219607881E+04  0.17219607881E+04  0.25500000920E-02 0. -1.
    10030    2    1    2    0    0  0.00000000000E+00  0.00000000000E+00 -0.10361944007E+04  0.24077271756E+04  0.21733502516E+04 0.  0.
        3    1    3    3  502    0  0.52782201320E+03 -0.94923061261E+03 -0.47927553737E+03  0.11871562174E+04  0.10100000352E+00 0.  1.
       -3    1    3    3    0  502 -0.52782201320E+03  0.94923061261E+03 -0.55691886330E+03  0.12205709582E+04  0.10100000352E+00 0. -1.
</event>
<event>
 5   0  0.3176125E-05  0.1944708E+04  0.7818609E-02  0.8632917E-01
       -3   -1    0    0    0  501  0.00000000000E+00  0.00000000000E+00  0.99117669877E+03  0.99117670391E+03  0.10100000352E+00 0. -1.
        3   -1    0    0  501    0  0.00000000000E+00  0.00000000000E+00 -0.95388861190E+03  0.95388861725E+03  0.10100000352E+00 0.  1.
    10030    2    1    2    0    0  0.00000000000E+00  0.00000000000E+00  0.37288086866E+02  0.19450653212E+04  0.19447078706E+04 0.  0.
        3    1    3    3  502    0  0.75862820954E+02  0.96607598477E+03  0.98747398851E+02  0.97406829069E+03  0.10100000352E+00 0.  1.
       -3    1    3    3    0  502 -0.75862820954E+02 -0.96607598477E+03 -0.61459311985E+02  0.97099703047E+03  0.10100000352E+00 0. -1.
</event>
<event>
 5   0  0.8858590E-05  0.2110471E+04  0.7818609E-02  0.8556645E-01
       -2   -1    0    0    0  501  0.00000000000E+00  0.00000000000E+00  0.67828157688E+03  0.67828157689E+03  0.25500000920E-02 0. -1.
        2   -1    0    0  501    0  0.00000000000E+00  0.00000000000E+00 -0.16416808665E+04  0.16416808665E+04  0.25500000920E-02 0.  1.
    10030    2    1    2    0    0  0.00000000000E+00  0.00000000000E+00 -0.96339928963E+03  0.23199624434E+04  0.21104709303E+04 0.  0.
        1    1    3    3  502    0 -0.10201885802E+04  0.26560258753E+03 -0.53317066486E+03  0.11813553367E+04  0.50400001928E-02 0.  1.
       -1    1    3    3    0  502  0.10201885802E+04 -0.26560258753E+03 -0.43022862477E+03  0.11386071067E+04  0.50400001928E-02 0. -1.
</event>
<event>
 5   0  0.8547605E-05  0.1972231E+04  0.7818609E-02  0.8619715E-01
       -2   -1    0    0    0  501  0.00000000000E+00  0.00000000000E+00  0.79673378409E+03  0.79673378409E+03  0.25500000920E-02 0. -1.
        2   -1    0    0  501    0  0.00000000000E+00  0.00000000000E+00 -0.12205133775E+04  0.12205133775E+04  0.25500000920E-02 0.  1.
    10030    2    1    2    0    0  0.00000000000E+00  0.00000000000E+00 -0.42377959345E+03  0.20172471616E+04  0.19722314690E+04 0.  0.
        4    1    3    3  502    0  0.14391696976E+03  0.24302939046E+03 -0.11782547354E+04  0.12116357593E+04  0.12699999809E+01 0.  1.
       -4    1    3    3    0  502 -0.14391696976E+03 -0.24302939046E+03  0.75447514196E+03  0.80561140232E+03  0.12699999809E+01 0. -1.
</event>
<event>
 5   0  0.4128678E-05  0.2024061E+04  0.7818609E-02  0.8595453E-01
       -1   -1    0    0    0  501  0.00000000000E+00  0.00000000000E+00  0.89255293548E+03  0.89255293549E+03  0.50400001928E-02 0.  1.
        1   -1    0    0  501    0  0.00000000000E+00  0.00000000000E+00 -0.11475009410E+04  0.11475009411E+04  0.50400001928E-02 0. -1.
    10030    2    1    2    0    0  0.00000000000E+00  0.00000000000E+00 -0.25494800557E+03  0.20400538765E+04  0.20240606052E+04 0.  0.
        5    1    3    3  502    0 -0.32166651077E+03  0.64513956278E+02  0.83745785186E+03  0.89943823487E+03  0.46999998093E+01 0.  1.
       -5    1    3    3    0  502  0.32166651077E+03 -0.64513956278E+02 -0.10924058574E+04  0.11406156417E+04  0.46999998093E+01 0. -1.
</event>
<event>
 5   0  0.4200061E-05  0.2093831E+04  0.7818609E-02  0.8563966E-01
        1   -1    0    0  501    0  0.00000000000E+00  0.00000000000E+00  0.18533941952E+04  0.18533941952E+04  0.50400001928E-02 0.  1.
       -1   -1    0    0    0  501  0.00000000000E+00  0.00000000000E+00 -0.59136475875E+03  0.59136475877E+03  0.50400001928E-02 0. -1.
    10030    2    1    2    0    0  0.00000000000E+00  0.00000000000E+00  0.12620294364E+04  0.24447589540E+04  0.20938309494E+04 0.  0.
        4    1    3    3  502    0  0.94153012663E+03 -0.40353202129E+03  0.88337141192E+03  0.13526506333E+04  0.12699999809E+01 0.  1.
       -4    1    3    3    0  502 -0.94153012663E+03  0.40353202129E+03  0.37865802452E+03  0.10921083206E+04  0.12699999809E+01 0. -1.
</event>
<event>
 5   0  0.4128678E-05  0.2103616E+04  0.7818609E-02  0.8559652E-01
        1   -1    0    0  501    0  0.00000000000E+00  0.00000000000E+00  0.95774660198E+03  0.95774660199E+03  0.50400001928E-02 0. -1.
       -1   -1    0    0    0  501  0.00000000000E+00  0.00000000000E+00 -0.11551067922E+04  0.11551067923E+04  0.50400001928E-02 0.  1.
    10030    2    1    2    0    0  0.00000000000E+00  0.00000000000E+00 -0.19736019026E+03  0.21128533942E+04  0.21036155592E+04 0.  0.
        5    1    3    3  502    0  0.16282441419E+03 -0.63515314057E+03  0.72733411858E+03  0.97926927445E+03  0.46999998093E+01 0. -1.
       -5    1    3    3    0  502 -0.16282441419E+03  0.63515314057E+03 -0.92469430884E+03  0.11335841198E+04  0.46999998093E+01 0.  1.
</event>
<event>
 5   0  0.8872777E-05  0.2092529E+04  0.7818609E-02  0.8564542E-01
        2   -1    0    0  501    0  0.00000000000E+00  0.00000000000E+00  0.18800682962E+04  0.18800682962E+04  0.25500000920E-02 0. -1.
       -2   -1    0    0    0  501  0.00000000000E+00  0.00000000000E+00 -0.58224956520E+03  0.58224956520E+03  0.25500000920E-02 0.  1.
    10030    2    1    2    0    0  0.00000000000E+00  0.00000000000E+00  0.12978187310E+04  0.24623178614E+04  0.20925285642E+04 0.  0.
        3    1    3    3  502    0  0.36623334481E+03  0.33151979019E+03  0.17341968114E+04  0.18031835250E+04  0.10100000352E+00 0. -1.
       -3    1    3    3    0  502 -0.36623334481E+03 -0.33151979019E+03 -0.43637808038E+03  0.65913433637E+03  0.10100000352E+00 0.  1.
</event>
<event>
 5   0  0.9012466E-05  0.2084998E+04  0.7818609E-02  0.8567881E-01
       -2   -1    0    0    0  501  0.00000000000E+00  0.00000000000E+00  0.11953450743E+04  0.11953450743E+04  0.25500000920E-02 0.  1.
        2   -1    0    0  501    0  0.00000000000E+00  0.00000000000E+00 -0.90919688990E+03  0.90919688990E+03  0.25500000920E-02 0. -1.
    10030    2    1    2    0    0  0.00000000000E+00  0.00000000000E+00  0.28614818438E+03  0.21045419642E+04  0.20849978646E+04 0.  0.
        2    1    3    3  502    0  0.45724190268E+03 -0.69313616861E+03  0.77929675680E+03  0.11387762471E+04  0.25500000920E-02 0.  1.
       -2    1    3    3    0  502 -0.45724190268E+03  0.69313616861E+03 -0.49314857242E+03  0.96576571708E+03  0.25500000920E-02 0. -1.
</event>
<event>
 5   0  0.9086985E-05  0.1901104E+04  0.7818609E-02  0.8654307E-01
       -2   -1    0    0    0  501  0.00000000000E+00  0.00000000000E+00  0.53153613469E+03  0.53153613470E+03  0.25500000920E-02 0. -1.
        2   -1    0    0  501    0  0.00000000000E+00  0.00000000000E+00 -0.16998819362E+04  0.16998819362E+04  0.25500000920E-02 0.  1.
    10030    2    1    2    0    0  0.00000000000E+00  0.00000000000E+00 -0.11683458015E+04  0.22314180709E+04  0.19011035467E+04 0.  0.
        5    1    3    3  502    0  0.54809677917E+03  0.60987073830E+03 -0.11485181109E+04  0.14111939405E+04  0.46999998093E+01 0.  1.
       -5    1    3    3    0  502 -0.54809677917E+03 -0.60987073830E+03 -0.19827690651E+02  0.82022413040E+03  0.46999998093E+01 0. -1.
</event>
<event>
 5   0  0.4200061E-05  0.2001835E+04  0.7818609E-02  0.8605763E-01
        1   -1    0    0  501    0  0.00000000000E+00  0.00000000000E+00  0.10729872632E+04  0.10729872632E+04  0.50400001928E-02 0. -1.
       -1   -1    0    0    0  501  0.00000000000E+00  0.00000000000E+00 -0.93368875030E+03  0.93368875032E+03  0.50400001928E-02 0.  1.
    10030    2    1    2    0    0  0.00000000000E+00  0.00000000000E+00  0.13929851291E+03  0.20066760135E+04  0.20018352948E+04 0.  0.
        4    1    3    3  502    0  0.84954698837E+03  0.47709670851E+03  0.29929528736E+03  0.10192794694E+04  0.12699999809E+01 0. -1.
       -4    1    3    3    0  502 -0.84954698837E+03 -0.47709670851E+03 -0.15999677446E+03  0.98739654418E+03  0.12699999809E+01 0.  1.
</event>
<event>
 5   0  0.4182977E-05  0.2107464E+04  0.7818609E-02  0.8557963E-01
       -1   -1    0    0    0  501  0.00000000000E+00  0.00000000000E+00  0.90519389862E+03  0.90519389864E+03  0.50400001928E-02 0.  1.
        1   -1    0    0  501    0  0.00000000000E+00  0.00000000000E+00 -0.12266445297E+04  0.12266445297E+04  0.50400001928E-02 0. -1.
    10030    2    1    2    0    0  0.00000000000E+00  0.00000000000E+00 -0.32145063106E+03  0.21318384283E+04  0.21074640154E+04 0.  0.
        1    1    3    3  502    0  0.36905853998E+03 -0.96377432462E+03 -0.37599161669E+03  0.10983782821E+04  0.50400001928E-02 0.  1.
       -1    1    3    3    0  502 -0.36905853998E+03  0.96377432462E+03  0.54540985627E+02  0.10334601462E+04  0.50400001928E-02 0. -1.
</event>
<event>
 5   0  0.9012466E-05  0.2123247E+04  0.7818609E-02  0.8551071E-01
       -2   -1    0    0    0  501  0.00000000000E+00  0.00000000000E+00  0.10591122025E+04  0.10591122025E+04  0.25500000920E-02 0.  1.
        2   -1    0    0  501    0  0.00000000000E+00  0.00000000000E+00 -0.10641411842E+04  0.10641411842E+04  0.25500000920E-02 0. -1.
    10030    2    1    2    0    0  0.00000000000E+00  0.00000000000E+00 -0.50289817032E+01  0.21232533866E+04  0.21232474310E+04 0.  0.
        2    1    3    3  502    0 -0.73270872581E+03  0.51461036886E+03 -0.57291858440E+03  0.10629777105E+04  0.25500000920E-02 0. -1.
       -2    1    3    3    0  502  0.73270872581E+03 -0.51461036886E+03  0.56788960270E+03  0.10602756762E+04  0.25500000920E-02 0.  1.
</event>
<event>
 5   0  0.3176125E-05  0.2105701E+04  0.7818609E-02  0.8558736E-01
       -3   -1    0    0    0  501  0.00000000000E+00  0.00000000000E+00  0.47751690119E+03  0.47751691187E+03  0.10100000352E+00 0.  1.
        3   -1    0    0  501    0  0.00000000000E+00  0.00000000000E+00 -0.23213720720E+04  0.23213720742E+04  0.10100000352E+00 0. -1.
    10030    2    1    2    0    0  0.00000000000E+00  0.00000000000E+00 -0.18438551708E+04  0.27988889861E+04  0.21057012289E+04 0.  0.
        1    1    3    3  502    0  0.12980236112E+03  0.64377369121E+03 -0.20157524246E+04  0.21200356261E+04  0.50400001928E-02 0. -1.
       -1    1    3    3    0  502 -0.12980236112E+03 -0.64377369121E+03  0.17189725383E+03  0.67885335998E+03  0.50400001928E-02 0.  1.
</event>
<event>
 5   0  0.4200061E-05  0.2124266E+04  0.7818609E-02  0.8550629E-01
        1   -1    0    0  501    0  0.00000000000E+00  0.00000000000E+00  0.13990001094E+04  0.13990001094E+04  0.50400001928E-02 0. -1.
       -1   -1    0    0    0  501  0.00000000000E+00  0.00000000000E+00 -0.80638090819E+03  0.80638090820E+03  0.50400001928E-02 0.  1.
    10030    2    1    2    0    0  0.00000000000E+00  0.00000000000E+00  0.59261920118E+03  0.22053810176E+04  0.21242664416E+04 0.  0.
        4    1    3    3  502    0  0.35926872962E+03 -0.39171351973E+02  0.13332046143E+04  0.13813198657E+04  0.12699999809E+01 0. -1.
       -4    1    3    3    0  502 -0.35926872962E+03  0.39171351973E+02 -0.74058541315E+03  0.82406115184E+03  0.12699999809E+01 0.  1.
</event>
<event>
 5   0  0.8547605E-05  0.2108645E+04  0.7818609E-02  0.8557445E-01
        2   -1    0    0  501    0  0.00000000000E+00  0.00000000000E+00  0.13228091636E+04  0.13228091636E+04  0.25500000920E-02 0. -1.
       -2   -1    0    0    0  501  0.00000000000E+00  0.00000000000E+00 -0.84033013706E+03  0.84033013706E+03  0.25500000920E-02 0.  1.
    10030    2    1    2    0    0  0.00000000000E+00  0.00000000000E+00  0.48247902659E+03  0.21631393007E+04  0.21086454475E+04 0.  0.
        4    1    3    3  502    0 -0.83942414896E+03 -0.59050071506E+03  0.48887130655E+03  0.11368028693E+04  0.12699999809E+01 0.  1.
       -4    1    3    3    0  502  0.83942414896E+03  0.59050071506E+03 -0.63922799570E+01  0.10263364314E+04  0.12699999809E+01 0. -1.
</event>
<event>
 5   0  0.4128678E-05  0.2096595E+04  0.7818609E-02  0.8562745E-01
       -1   -1    0    0    0  501  0.00000000000E+00  0.00000000000E+00  0.55038561424E+03  0.55038561426E+03  0.50400001928E-02 0. -1.
        1   -1    0    0  501    0  0.00000000000E+00  0.00000000000E+00 -0.19966511354E+04  0.19966511354E+04  0.50400001928E-02 0.  1.
    10030    2    1    2    0    0  0.00000000000E+00  0.00000000000E+00 -0.14462655212E+04  0.25470367497E+04  0.20965953941E+04 0.  0.
        5    1    3    3  502    0  0.37009543498E+03  0.13072084004E+03  0.45773542058E+03  0.60299450600E+03  0.46999998093E+01 0. -1.
       -5    1    3    3    0  502 -0.37009543498E+03 -0.13072084004E+03 -0.19040009417E+04  0.19440422437E+04  0.46999998093E+01 0.  1.
</event>
<event>
 5   0  0.8872777E-05  0.2108289E+04  0.7818609E-02  0.8557601E-01
       -2   -1    0    0    0  501  0.00000000000E+00  0.00000000000E+00  0.12594039214E+04  0.12594039214E+04  0.25500000920E-02 0. -1.
        2   -1    0    0  501    0  0.00000000000E+00  0.00000000000E+00 -0.88233834099E+03  0.88233834099E+03  0.25500000920E-02 0.  1.
    10030    2    1    2    0    0  0.00000000000E+00  0.00000000000E+00  0.37706558039E+03  0.21417422624E+04  0.21082887531E+04 0.  0.
        3    1    3    3  502    0 -0.74652882614E+03  0.64058403270E+03 -0.19638206931E+03  0.10031047396E+04  0.10100000352E+00 0. -1.
       -3    1    3    3    0  502  0.74652882614E+03 -0.64058403270E+03  0.57344764970E+03  0.11386375228E+04  0.10100000352E+00 0.  1.
</event>
<event>
 5   0  0.8858590E-05  0.2057404E+04  0.7818609E-02  0.8580243E-01
       -2   -1    0    0    0  501  0.00000000000E+00  0.00000000000E+00  0.83641567377E+03  0.83641567378E+03  0.25500000920E-02 0.  1.
        2   -1    0    0  501    0  0.00000000000E+00  0.00000000000E+00 -0.12651931908E+04  0.12651931908E+04  0.25500000920E-02 0. -1.
    10030    2    1    2    0    0  0.00000000000E+00  0.00000000000E+00 -0.42877751704E+03  0.21016088646E+04  0.20574036212E+04 0.  0.
        1    1    3    3  502    0 -0.18983410138E+03  0.21707488112E+03  0.79428343751E+03  0.84501163849E+03  0.50400001928E-02 0.  1.
       -1    1    3    3    0  502  0.18983410138E+03 -0.21707488112E+03 -0.12230609546E+04  0.12565972261E+04  0.50400001928E-02 0. -1.
</event>
<event>
 5   0  0.4174093E-05  0.2105431E+04  0.7818609E-02  0.8558855E-01
        1   -1    0    0  501    0  0.00000000000E+00  0.00000000000E+00  0.10582828183E+04  0.10582828183E+04  0.50400001928E-02 0. -1.
       -1   -1    0    0    0  501  0.00000000000E+00  0.00000000000E+00 -0.10471773095E+04  0.10471773095E+04  0.50400001928E-02 0.  1.
    10030    2    1    2    0    0  0.00000000000E+00  0.00000000000E+00  0.11105508829E+02  0.21054601279E+04  0.21054308390E+04 0.  0.
        3    1    3    3  502    0  0.90413551486E+03 -0.42133251520E+03 -0.33094505671E+03  0.10509551648E+04  0.10100000352E+00 0.  1.
       -3    1    3    3    0  502 -0.90413551486E+03  0.42133251520E+03  0.34205056554E+03  0.10545049631E+04  0.10100000352E+00 0. -1.
</event>
<event>
 5   0  0.4050368E-05  0.2057471E+04  0.7818609E-02  0.8580213E-01
       -1   -1    0    0    0  501  0.00000000000E+00  0.00000000000E+00  0.54734405676E+03  0.54734405679E+03  0.50400001928E-02 0. -1.
        1   -1    0    0  501    0  0.00000000000E+00  0.00000000000E+00 -0.19335125765E+04  0.19335125765E+04  0.50400001928E-02 0.  1.
    10030    2    1    2    0    0  0.00000000000E+00  0.00000000000E+00 -0.13861685197E+04  0.24808566332E+04  0.20574708916E+04 0.  0.
        2    1    3    3  502    0 -0.45771862247E+03  0.42022132795E+03 -0.16816797296E+04  0.17928020010E+04  0.25500000920E-02 0.  1.
       -2    1    3    3    0  502  0.45771862247E+03 -0.42022132795E+03  0.29551120988E+03  0.68805463228E+03  0.25500000920E-02 0. -1.
</event>
<event>
 5   0  0.4200061E-05  0.2088686E+04  0.7818609E-02  0.8566244E-01
        1   -1    0    0  501    0  0.00000000000E+00  0.00000000000E+00  0.16386284302E+04  0.16386284302E+04  0.50400001928E-02 0. -1.
       -1   -1    0    0    0  501  0.00000000000E+00  0.00000000000E+00 -0.66558859120E+03  0.66558859122E+03  0.50400001928E-02 0.  1.
    10030    2    1    2    0    0  0.00000000000E+00  0.00000000000E+00  0.97303983895E+03  0.23042170214E+04  0.20886860830E+04 0.  0.
        4    1    3    3  502    0 -0.86038078729E+03  0.32976537638E+03 -0.55785609302E+02  0.92310018400E+03  0.12699999809E+01 0. -1.
       -4    1    3    3    0  502  0.86038078729E+03 -0.32976537638E+03  0.10288254483E+04  0.13811168374E+04  0.12699999809E+01 0.  1.
</event>
<event>
 5   0  0.4200061E-05  0.2063268E+04  0.7818609E-02  0.8577599E-01
       -1   -1    0    0    0  501  0.00000000000E+00  0.00000000000E+00  0.49108303983E+03  0.49108303986E+03  0.50400001928E-02 0.  1.
        1   -1    0    0  501    0  0.00000000000E+00  0.00000000000E+00 -0.21671874083E+04  0.21671874083E+04  0.50400001928E-02 0. -1.
    10030    2    1    2    0    0  0.00000000000E+00  0.00000000000E+00 -0.16761043684E+04  0.26582704481E+04  0.20632682621E+04 0.  0.
        4    1    3    3  502    0 -0.44811536642E+03  0.76386857119E+03 -0.15197551362E+04  0.17589655660E+04  0.12699999809E+01 0. -1.
       -4    1    3    3    0  502  0.44811536642E+03 -0.76386857119E+03 -0.15634923229E+03  0.89930488213E+03  0.12699999809E+01 0.  1.
</event>
<event>
 5   0  0.4182977E-05  0.1976800E+04  0.7818609E-02  0.8617545E-01
       -1   -1    0    0    0  501  0.00000000000E+00  0.00000000000E+00  0.98002855821E+03  0.98002855823E+03  0.50400001928E-02 0. -1.
        1   -1    0    0  501    0  0.00000000000E+00  0.00000000000E+00 -0.99684297365E+03  0.99684297366E+03  0.50400001928E-02 0.  1.
    10030    2    1    2    0    0  0.00000000000E+00  0.00000000000E+00 -0.16814415437E+02  0.19768715319E+04  0.19768000225E+04 0.  0.
        1    1    3    3  502    0 -0.15382999804E+03 -0.32423245565E+03  0.91257356939E+03  0.98060230123E+03  0.50400001928E-02 0. -1.
       -1    1    3    3    0  502  0.15382999804E+03  0.32423245565E+03 -0.92938798483E+03  0.99626923066E+03  0.50400001928E-02 0.  1.
</event>
<event>
 5   0  0.9086985E-05  0.2033762E+04  0.7818609E-02  0.8590996E-01
        2   -1    0    0  501    0  0.00000000000E+00  0.00000000000E+00  0.10642076339E+04  0.10642076339E+04  0.25500000920E-02 0.  1.
       -2   -1    0    0    0  501  0.00000000000E+00  0.00000000000E+00 -0.97165922538E+03  0.97165922538E+03  0.25500000920E-02 0. -1.
    10030    2    1    2    0    0  0.00000000000E+00  0.00000000000E+00  0.92548408499E+02  0.20358668593E+04  0.20337621937E+04 0.  0.
        5    1    3    3  502    0  0.89143427473E+03  0.41437834689E+03  0.30665989129E+03  0.10297702945E+04  0.46999998093E+01 0.  1.
       -5    1    3    3    0  502 -0.89143427473E+03 -0.41437834689E+03 -0.21411148279E+03  0.10060965647E+04  0.46999998093E+01 0. -1.
</event>
<event>
 5   0  0.9012466E-05  0.2109520E+04  0.7818609E-02  0.8557061E-01
       -2   -1    0    0    0  501  0.00000000000E+00  0.00000000000E+00  0.20786547631E+04  0.20786547631E+04  0.25500000920E-02 0. -1.
        2   -1    0    0  501    0  0.00000000000E+00  0.00000000000E+00 -0.53521081446E+03  0.53521081447E+03  0.25500000920E-02 0.  1.
    10030    2    1    2    0    0  0.00000000000E+00  0.00000000000E+00  0.15434439487E+04  0.26138655776E+04  0.21095198589E+04 0.  0.
        2    1    3    3  502    0 -0.42482863318E+03 -0.94955030024E+03  0.98773953082E+03  0.14344875465E+04  0.25500000920E-02 0. -1.
       -2    1    3    3    0  502  0.42482863318E+03  0.94955030024E+03  0.55570441786E+03  0.11793780311E+04  0.25500000920E-02 0.  1.
</event>
<event>
 5   0  0.4050368E-05  0.2092745E+04  0.7818609E-02  0.8564446E-01
       -1   -1    0    0    0  501  0.00000000000E+00  0.00000000000E+00  0.51879175762E+03  0.51879175764E+03  0.50400001928E-02 0. -1.
        1   -1    0    0  501    0  0.00000000000E+00  0.00000000000E+00 -0.21104723876E+04  0.21104723876E+04  0.50400001928E-02 0.  1.
    10030    2    1    2    0    0  0.00000000000E+00  0.00000000000E+00 -0.15916806300E+04  0.26292641453E+04  0.20927452587E+04 0.  0.
        2    1    3    3  502    0  0.86760709360E+02  0.84569861123E+03 -0.15622905021E+04  0.17786188953E+04  0.25500000920E-02 0.  1.
       -2    1    3    3    0  502 -0.86760709360E+02 -0.84569861123E+03 -0.29390127932E+02  0.85064525000E+03  0.25500000920E-02 0. -1.
</event>
<event>
 5   0  0.4182977E-05  0.2094353E+04  0.7818609E-02  0.8563735E-01
        1   -1    0    0  501    0  0.00000000000E+00  0.00000000000E+00  0.12920584056E+04  0.12920584056E+04  0.50400001928E-02 0.  1.
       -1   -1    0    0    0  501  0.00000000000E+00  0.00000000000E+00 -0.84870674738E+03  0.84870674739E+03  0.50400001928E-02 0. -1.
    10030    2    1    2    0    0  0.00000000000E+00  0.00000000000E+00  0.44335165824E+03  0.21407651530E+04  0.20943530618E+04 0.  0.
        1    1    3    3  502    0  0.25631630831E+02  0.83744954461E+03 -0.42041675324E+03  0.93740544413E+03  0.50400001928E-02 0. -1.
       -1    1    3    3    0  502 -0.25631630831E+02 -0.83744954461E+03  0.86376841148E+03  0.12033597089E+04  0.50400001928E-02 0.  1.
</event>
<event>
 5   0  0.4174093E-05  0.2082302E+04  0.7818609E-02  0.8569080E-01
       -1   -1    0    0    0  501  0.00000000000E+00  0.00000000000E+00  0.10788369888E+04  0.10788369888E+04  0.50400001928E-02 0. -1.
        1   -1    0    0  501    0  0.00000000000E+00  0.00000000000E+00 -0.10047817777E+04  0.10047817777E+04  0.50400001928E-02 0.  1.
    10030    2    1    2    0    0  0.00000000000E+00  0.00000000000E+00  0.74055211105E+02  0.20836187666E+04  0.20823023292E+04 0.  0.
        3    1    3    3  502    0  0.71829637227E+03  0.69301897321E+03 -0.25942099809E+03  0.10312731162E+04  0.10100000352E+00 0.  1.
       -3    1    3    3    0  502 -0.71829637227E+03 -0.69301897321E+03  0.33347620920E+03  0.10523456504E+04  0.10100000352E+00 0. -1.
</event>
<event>
 5   0  0.4182977E-05  0.2108462E+04  0.7818609E-02  0.8557525E-01
       -1   -1    0    0    0  501  0.00000000000E+00  0.00000000000E+00  0.61656379052E+03  0.61656379054E+03  0.50400001928E-02 0.  1.
        1   -1    0    0  501    0  0.00000000000E+00  0.00000000000E+00 -0.18025758194E+04  0.18025758194E+04  0.50400001928E-02 0. -1.
    10030    2    1    2    0    0  0.00000000000E+00  0.00000000000E+00 -0.11860120288E+04  0.24191396099E+04  0.21084619797E+04 0.  0.
        1    1    3    3  502    0 -0.85376291462E+03  0.44937595994E+03 -0.10548016500E+03  0.97055444618E+03  0.50400001928E-02 0.  1.
       -1    1    3    3    0  502  0.85376291462E+03 -0.44937595994E+03 -0.10805318638E+04  0.14485851637E+04  0.50400001928E-02 0. -1.
</event>
<event>
 5   0  0.4200061E-05  0.2098335E+04  0.7818609E-02  0.8561977E-01
        1   -1    0    0  501    0  0.00000000000E+00  0.00000000000E+00  0.12265948262E+04  0.12265948262E+04  0.50400001928E-02 0. -1.
       -1   -1    0    0    0  501  0.00000000000E+00  0.00000000000E+00 -0.89740487303E+03  0.89740487304E+03  0.50400001928E-02 0.  1.
    10030    2    1    2    0    0  0.00000000000E+00  0.00000000000E+00  0.32918995319E+03  0.21239996993E+04  0.20983347438E+04 0.  0.
        4    1    3    3  502    0  0.64828873361E+03 -0.37684320576E+03  0.90736949863E+03  0.11771194093E+04  0.12699999809E+01 0. -1.
       -4    1    3    3    0  502 -0.64828873361E+03  0.37684320576E+03 -0.57817954543E+03  0.94688028996E+03  0.12699999809E+01 0.  1.
</event>
<event>
 5   0  0.4200061E-05  0.2077932E+04  0.7818609E-02  0.8571027E-01
        1   -1    0    0  501    0  0.00000000000E+00  0.00000000000E+00  0.21184438301E+04  0.21184438301E+04  0.50400001928E-02 0.  1.
       -1   -1    0    0    0  501  0.00000000000E+00  0.00000000000E+00 -0.50954865572E+03  0.50954865574E+03  0.50400001928E-02 0. -1.
    10030    2    1    2    0    0  0.00000000000E+00  0.00000000000E+00  0.16088951744E+04  0.26279924858E+04  0.20779318621E+04 0.  0.
        4    1    3    3  502    0  0.12027466488E+03 -0.93880695334E+03  0.26249953523E+03  0.98220777310E+03  0.12699999809E+01 0. -1.
       -4    1    3    3    0  502 -0.12027466488E+03  0.93880695334E+03  0.13463956392E+04  0.16457847127E+04  0.12699999809E+01 0.  1.
</event>
<event>
 5   0  0.4174093E-05  0.2090400E+04  0.7818609E-02  0.8565484E-01
       -1   -1    0    0    0  501  0.00000000000E+00  0.00000000000E+00  0.99417056082E+03  0.99417056083E+03  0.50400001928E-02 0.  1.
        1   -1    0    0  501    0  0.00000000000E+00  0.00000000000E+00 -0.10988491811E+04  0.10988491811E+04  0.50400001928E-02 0. -1.
    10030    2    1    2    0    0  0.00000000000E+00  0.00000000000E+00 -0.10467862029E+03  0.20930197420E+04  0.20904004465E+04 0.  0.
        3    1    3    3  502    0  0.29934306191E+03  0.26051262970E+03 -0.10204895684E+04  0.10949301659E+04  0.10100000352E+00 0. -1.
       -3    1    3    3    0  502 -0.29934306191E+03 -0.26051262970E+03  0.91581094807E+03  0.99808957602E+03  0.10100000352E+00 0.  1.
</event>
<event>
 5   0  0.9012466E-05  0.2149396E+04  0.7818609E-02  0.8539791E-01
        2   -1    0    0  501    0  0.00000000000E+00  0.00000000000E+00  0.11717749741E+04  0.11717749742E+04  0.25500000920E-02 0. -1.
       -2   -1    0    0    0  501  0.00000000000E+00  0.00000000000E+00 -0.98566387723E+03  0.98566387724E+03  0.25500000920E-02 0.  1.
    10030    2    1    2    0    0  0.00000000000E+00  0.00000000000E+00  0.18611109692E+03  0.21574388514E+04  0.21493964402E+04 0.  0.
        2    1    3    3  502    0 -0.88808689877E+03 -0.35033242775E+03  0.58840499389E+03  0.11214506617E+04  0.25500000920E-02 0. -1.
       -2    1    3    3    0  502  0.88808689877E+03  0.35033242775E+03 -0.40229389698E+03  0.10359881897E+04  0.25500000920E-02 0.  1.
</event>
<event>
 5   0  0.4128678E-05  0.2104395E+04  0.7818609E-02  0.8559310E-01
       -1   -1    0    0    0  501  0.00000000000E+00  0.00000000000E+00  0.54155227979E+03  0.54155227982E+03  0.50400001928E-02 0.  1.
        1   -1    0    0  501    0  0.00000000000E+00  0.00000000000E+00 -0.20443449332E+04  0.20443449332E+04  0.50400001928E-02 0. -1.
    10030    2    1    2    0    0  0.00000000000E+00  0.00000000000E+00 -0.15027926534E+04  0.25858972130E+04  0.21043950763E+04 0.  0.
        5    1    3    3  502    0  0.57520034050E+03  0.83389881977E+02  0.32637973900E+03  0.66659967609E+03  0.46999998093E+01 0.  1.
       -5    1    3    3    0  502 -0.57520034050E+03 -0.83389881977E+02 -0.18291723924E+04  0.19192975369E+04  0.46999998093E+01 0. -1.
</event>
<event>
 5   0  0.8858590E-05  0.2099707E+04  0.7818609E-02  0.8561373E-01
       -2   -1    0    0    0  501  0.00000000000E+00  0.00000000000E+00  0.15289085051E+04  0.15289085051E+04  0.25500000920E-02 0.  1.
        2   -1    0    0  501    0  0.00000000000E+00  0.00000000000E+00 -0.72090120196E+03  0.72090120197E+03  0.25500000920E-02 0. -1.
    10030    2    1    2    0    0  0.00000000000E+00  0.00000000000E+00  0.80800730309E+03  0.22498097070E+04  0.20997066262E+04 0.  0.
        1    1    3    3  502    0  0.41257394733E+03  0.92898862878E+03  0.68536831874E+03  0.12259554914E+04  0.50400001928E-02 0.  1.
       -1    1    3    3    0  502 -0.41257394733E+03 -0.92898862878E+03  0.12263898435E+03  0.10238542157E+04  0.50400001928E-02 0. -1.
</event>
<event>
 5   0  0.4174093E-05  0.2068640E+04  0.7818609E-02  0.8575185E-01
       -1   -1    0    0    0  501  0.00000000000E+00  0.00000000000E+00  0.76193608916E+03  0.76193608918E+03  0.50400001928E-02 0. -1.
        1   -1    0    0  501    0  0.00000000000E+00  0.00000000000E+00 -0.14040777733E+04  0.14040777733E+04  0.50400001928E-02 0.  1.
    10030    2    1    2    0    0  0.00000000000E+00  0.00000000000E+00 -0.64214168416E+03  0.21660138625E+04  0.20686396762E+04 0.  0.
        3    1    3    3  502    0 -0.21246675696E+03 -0.76490103468E+03 -0.10153052163E+04  0.12888213252E+04  0.10100000352E+00 0.  1.
       -3    1    3    3    0  502  0.21246675696E+03  0.76490103468E+03  0.37316353216E+03  0.87719253736E+03  0.10100000352E+00 0. -1.
</event>
<event>
 5   0  0.8858590E-05  0.2061999E+04  0.7818609E-02  0.8578170E-01
       -2   -1    0    0    0  501  0.00000000000E+00  0.00000000000E+00  0.10519538122E+04  0.10519538122E+04  0.25500000920E-02 0.  1.
        2   -1    0    0  501    0  0.00000000000E+00  0.00000000000E+00 -0.10104627867E+04  0.10104627867E+04  0.25500000920E-02 0. -1.
    10030    2    1    2    0    0  0.00000000000E+00  0.00000000000E+00  0.41491025478E+02  0.20624165988E+04  0.20619992051E+04 0.  0.
        1    1    3    3  502    0  0.30976568767E+03  0.63316784382E+03  0.77329656586E+03  0.10463478764E+04  0.50400001928E-02 0.  1.
       -1    1    3    3    0  502 -0.30976568767E+03 -0.63316784382E+03 -0.73180554039E+03  0.10160687224E+04  0.50400001928E-02 0. -1.
</event>
<event>
 5   0  0.4182977E-05  0.2111241E+04  0.7818609E-02  0.8556308E-01
       -1   -1    0    0    0  501  0.00000000000E+00  0.00000000000E+00  0.92248577082E+03  0.92248577084E+03  0.50400001928E-02 0. -1.
        1   -1    0    0  501    0  0.00000000000E+00  0.00000000000E+00 -0.12079699056E+04  0.12079699056E+04  0.50400001928E-02 0.  1.
    10030    2    1    2    0    0  0.00000000000E+00  0.00000000000E+00 -0.28548413481E+03  0.21304556765E+04  0.21112413880E+04 0.  0.
        1    1    3    3  502    0 -0.91215317450E+03 -0.38381655849E+03 -0.51350460239E+03  0.11149105529E+04  0.50400001928E-02 0.  1.
       -1    1    3    3    0  502  0.91215317450E+03  0.38381655849E+03  0.22802046758E+03  0.10155451236E+04  0.50400001928E-02 0. -1.
</event>
<event>
 5   0  0.9086985E-05  0.2094485E+04  0.7818609E-02  0.8563677E-01
       -2   -1    0    0    0  501  0.00000000000E+00  0.00000000000E+00  0.12704131950E+04  0.12704131950E+04  0.25500000920E-02 0. -1.
        2   -1    0    0  501    0  0.00000000000E+00  0.00000000000E+00 -0.86327535743E+03  0.86327535744E+03  0.25500000920E-02 0.  1.
    10030    2    1    2    0    0  0.00000000000E+00  0.00000000000E+00  0.40713783761E+03  0.21336885525E+04  0.20944845715E+04 0.  0.
        5    1    3    3  502    0  0.42056255821E+02  0.23609375708E+03  0.12420542442E+04  0.12650019077E+04  0.46999998093E+01 0. -1.
       -5    1    3    3    0  502 -0.42056255821E+02 -0.23609375708E+03 -0.83491640664E+03  0.86868664480E+03  0.46999998093E+01 0.  1.
</event>
<event>
 5   0  0.4050368E-05  0.2140572E+04  0.7818609E-02  0.8543579E-01
       -1   -1    0    0    0  501  0.00000000000E+00  0.00000000000E+00  0.14886847482E+04  0.14886847482E+04  0.50400001928E-02 0. -1.
        1   -1    0    0  501    0  0.00000000000E+00  0.00000000000E+00 -0.76947932412E+03  0.76947932414E+03  0.50400001928E-02 0.  1.
    10030    2    1    2    0    0  0.00000000000E+00  0.00000000000E+00  0.71920542408E+03  0.22581640724E+04  0.21405720113E+04 0.  0.
        2    1    3    3  502    0  0.27982752696E+03  0.56553473917E+03 -0.55240001977E+03  0.83861717601E+03  0.25500000920E-02 0.  1.
       -2    1    3    3    0  502 -0.27982752696E+03 -0.56553473917E+03  0.12716054439E+04  0.14195468963E+04  0.25500000920E-02 0. -1.
</event>
<event>
 5   0  0.8872777E-05  0.2148810E+04  0.7818609E-02  0.8540042E-01
       -2   -1    0    0    0  501  0.00000000000E+00  0.00000000000E+00  0.17295489216E+04  0.17295489216E+04  0.25500000920E-02 0. -1.
        2   -1    0    0  501    0  0.00000000000E+00  0.00000000000E+00 -0.66742584731E+03  0.66742584731E+03  0.25500000920E-02 0.  1.
    10030    2    1    2    0    0  0.00000000000E+00  0.00000000000E+00  0.10621230743E+04  0.23969747689E+04  0.21488095816E+04 0.  0.
        3    1    3    3  502    0 -0.90668702898E+03  0.40018601602E+03  0.99384244291E+03  0.14035501514E+04  0.10100000352E+00 0.  1.
       -3    1    3    3    0  502  0.90668702898E+03 -0.40018601602E+03  0.68280631414E+02  0.99342461756E+03  0.10100000352E+00 0. -1.
</event>
<event>
 5   0  0.9012466E-05  0.2085104E+04  0.7818609E-02  0.8567834E-01
       -2   -1    0    0    0  501  0.00000000000E+00  0.00000000000E+00  0.72601005653E+03  0.72601005653E+03  0.25500000920E-02 0.  1.
        2   -1    0    0  501    0  0.00000000000E+00  0.00000000000E+00 -0.14971069263E+04  0.14971069263E+04  0.25500000920E-02 0. -1.
    10030    2    1    2    0    0  0.00000000000E+00  0.00000000000E+00 -0.77109686975E+03  0.22231169828E+04  0.20851040110E+04 0.  0.
        2    1    3    3  502    0 -0.73680966963E+03 -0.62494591022E+03 -0.80322936491E+03  0.12564327649E+04  0.25500000920E-02 0.  1.
       -2    1    3    3    0  502  0.73680966963E+03  0.62494591022E+03  0.32132495166E+02  0.96668421794E+03  0.25500000920E-02 0. -1.
</event>
<event>
 5   0  0.4050368E-05  0.2120845E+04  0.7818609E-02  0.8552116E-01
       -1   -1    0    0    0  501  0.00000000000E+00  0.00000000000E+00  0.82609883076E+03  0.82609883077E+03  0.50400001928E-02 0. -1.
        1   -1    0    0  501    0  0.00000000000E+00  0.00000000000E+00 -0.13612121399E+04  0.13612121400E+04  0.50400001928E-02 0.  1.
    10030    2    1    2    0    0  0.00000000000E+00  0.00000000000E+00 -0.53511330919E+03  0.21873109707E+04  0.21208448857E+04 0.  0.
        2    1    3    3  502    0  0.93239058357E+03  0.49726296662E+03 -0.17604540630E+03  0.10712677739E+04  0.25500000920E-02 0. -1.
       -2    1    3    3    0  502 -0.93239058357E+03 -0.49726296662E+03 -0.35906790289E+03  0.11160431968E+04  0.25500000920E-02 0.  1.
</event>
<event>
 5   0  0.9086985E-05  0.2104388E+04  0.7818609E-02  0.8559313E-01
        2   -1    0    0  501    0  0.00000000000E+00  0.00000000000E+00  0.96191321679E+03  0.96191321679E+03  0.25500000920E-02 0. -1.
       -2   -1    0    0    0  501  0.00000000000E+00  0.00000000000E+00 -0.11509477589E+04  0.11509477589E+04  0.25500000920E-02 0.  1.
    10030    2    1    2    0    0  0.00000000000E+00  0.00000000000E+00 -0.18903454208E+03  0.21128609757E+04  0.21043876649E+04 0.  0.
        5    1    3    3  502    0  0.64907562514E+03 -0.51243776740E+03 -0.74767346351E+03  0.11148674050E+04  0.46999998093E+01 0.  1.
       -5    1    3    3    0  502 -0.64907562514E+03  0.51243776740E+03  0.55863892144E+03  0.99799357069E+03  0.46999998093E+01 0. -1.
</event>
<event>
 5   0  0.9086985E-05  0.2097668E+04  0.7818609E-02  0.8562271E-01
       -2   -1    0    0    0  501  0.00000000000E+00  0.00000000000E+00  0.78824566331E+03  0.78824566332E+03  0.25500000920E-02 0.  1.
        2   -1    0    0  501    0  0.00000000000E+00  0.00000000000E+00 -0.13955714804E+04  0.13955714804E+04  0.25500000920E-02 0. -1.
    10030    2    1    2    0    0  0.00000000000E+00  0.00000000000E+00 -0.60732581713E+03  0.21838171438E+04  0.20976683888E+04 0.  0.
        5    1    3    3  502    0 -0.11583409438E+03  0.10422646151E+04 -0.28569091470E+03  0.10869105088E+04  0.46999998093E+01 0. -1.
       -5    1    3    3    0  502  0.11583409438E+03 -0.10422646151E+04 -0.32163490243E+03  0.10969066350E+04  0.46999998093E+01 0.  1.
</event>
<event>
 5   0  0.8872777E-05  0.2049510E+04  0.7818609E-02  0.8583817E-01
        2   -1    0    0  501    0  0.00000000000E+00  0.00000000000E+00  0.13051019737E+04  0.13051019737E+04  0.25500000920E-02 0.  1.
       -2   -1    0    0    0  501  0.00000000000E+00  0.00000000000E+00 -0.80462905456E+03  0.80462905456E+03  0.25500000920E-02 0. -1.
    10030    2    1    2    0    0  0.00000000000E+00  0.00000000000E+00  0.50047291918E+03  0.21097310283E+04  0.20495101534E+04 0.  0.
        3    1    3    3  502    0  0.70327531086E+03  0.69083793331E+03  0.53822418182E+03  0.11231823062E+04  0.10100000352E+00 0.  1.
       -3    1    3    3    0  502 -0.70327531086E+03 -0.69083793331E+03 -0.37751262643E+02  0.98654872206E+03  0.10100000352E+00 0. -1.
</event>
<event>
 5   0  0.8858590E-05  0.2078497E+04  0.7818609E-02  0.8570775E-01
       -2   -1    0    0    0  501  0.00000000000E+00  0.00000000000E+00  0.62837952374E+03  0.62837952374E+03  0.25500000920E-02 0. -1.
        2   -1    0    0  501    0  0.00000000000E+00  0.00000000000E+00 -0.17187657262E+04  0.17187657262E+04  0.25500000920E-02 0.  1.
    10030    2    1    2    0    0  0.00000000000E+00  0.00000000000E+00 -0.10903862025E+04  0.23471452499E+04  0.20784967534E+04 0.  0.
        1    1    3    3  502    0 -0.45330310299E+03 -0.86469403370E+03 -0.14298662885E+03  0.98672420217E+03  0.50400001928E-02 0. -1.
       -1    1    3    3    0  502  0.45330310299E+03  0.86469403370E+03 -0.94739957360E+03  0.13604210478E+04  0.50400001928E-02 0.  1.
</event>
<event>
 5   0  0.4128678E-05  0.2077532E+04  0.7818609E-02  0.8571206E-01
       -1   -1    0    0    0  501  0.00000000000E+00  0.00000000000E+00  0.94746897631E+03  0.94746897632E+03  0.50400001928E-02 0.  1.
        1   -1    0    0  501    0  0.00000000000E+00  0.00000000000E+00 -0.11388598456E+04  0.11388598456E+04  0.50400001928E-02 0. -1.
    10030    2    1    2    0    0  0.00000000000E+00  0.00000000000E+00 -0.19139086932E+03  0.20863288220E+04  0.20775315854E+04 0.  0.
        5    1    3    3  502    0 -0.67712389472E+03  0.54472380391E+03 -0.66713175185E+03  0.10955855310E+04  0.46999998093E+01 0. -1.
       -5    1    3    3    0  502  0.67712389472E+03 -0.54472380391E+03  0.47574088253E+03  0.99074329100E+03  0.46999998093E+01 0.  1.
</event>
<event>
 5   0  0.4182977E-05  0.1980277E+04  0.7818609E-02  0.8615898E-01
        1   -1    0    0  501    0  0.00000000000E+00  0.00000000000E+00  0.10734806844E+04  0.10734806844E+04  0.50400001928E-02 0. -1.
       -1   -1    0    0    0  501  0.00000000000E+00  0.00000000000E+00 -0.91326677227E+03  0.91326677228E+03  0.50400001928E-02 0.  1.
    10030    2    1    2    0    0  0.00000000000E+00  0.00000000000E+00  0.16021391215E+03  0.19867474567E+04  0.19802769905E+04 0.  0.
        1    1    3    3  502    0  0.32649307175E+03  0.42108281718E+03 -0.75716513346E+03  0.92585501251E+03  0.50400001928E-02 0.  1.
       -1    1    3    3    0  502 -0.32649307175E+03 -0.42108281718E+03  0.91737904562E+03  0.10608924442E+04  0.50400001928E-02 0. -1.
</event>
<event>
 5   0  0.9012466E-05  0.2106569E+04  0.7818609E-02  0.8558355E-01
        2   -1    0    0  501    0  0.00000000000E+00  0.00000000000E+00  0.14018118783E+04  0.14018118783E+04  0.25500000920E-02 0.  1.
       -2   -1    0    0    0  501  0.00000000000E+00  0.00000000000E+00 -0.79141018963E+03  0.79141018964E+03  0.25500000920E-02 0. -1.
    10030    2    1    2    0    0  0.00000000000E+00  0.00000000000E+00  0.61040168866E+03  0.21932220679E+04  0.21065689682E+04 0.  0.
        2    1    3    3  502    0 -0.67781163728E+03  0.74039621315E+03 -0.26973402700E+02  0.10041627022E+04  0.25500000920E-02 0. -1.
       -2    1    3    3    0  502  0.67781163728E+03 -0.74039621315E+03  0.63737509137E+03  0.11890593657E+04  0.25500000920E-02 0.  1.
</event>
<event>
 5   0  0.4050368E-05  0.2061948E+04  0.7818609E-02  0.8578193E-01
       -1   -1    0    0    0  501  0.00000000000E+00  0.00000000000E+00  0.44000677163E+03  0.44000677166E+03  0.50400001928E-02 0. -1.
        1   -1    0    0  501    0  0.00000000000E+00  0.00000000000E+00 -0.24156618070E+04  0.24156618070E+04  0.50400001928E-02 0.  1.
    10030    2    1    2    0    0  0.00000000000E+00  0.00000000000E+00 -0.19756550354E+04  0.28556685787E+04  0.20619481595E+04 0.  0.
        2    1    3    3  502    0  0.86283774733E+03  0.52263404745E+03 -0.69315068610E+03  0.12239661758E+04  0.25500000920E-02 0. -1.
       -2    1    3    3    0  502 -0.86283774733E+03 -0.52263404745E+03 -0.12825043493E+04  0.16317024029E+04  0.25500000920E-02 0.  1.
</event>
<event>
 5   0  0.8858590E-05  0.2098421E+04  0.7818609E-02  0.8561939E-01
        2   -1    0    0  501    0  0.00000000000E+00  0.00000000000E+00  0.93735486776E+03  0.93735486776E+03  0.25500000920E-02 0. -1.
       -2   -1    0    0    0  501  0.00000000000E+00  0.00000000000E+00 -0.11744141844E+04  0.11744141844E+04  0.25500000920E-02 0.  1.
    10030    2    1    2    0    0  0.00000000000E+00  0.00000000000E+00 -0.23705931665E+03  0.21117690522E+04  0.20984211708E+04 0.  0.
        1    1    3    3  502    0 -0.81331978991E+03 -0.33566654956E+03  0.45666678436E+03  0.99131511898E+03  0.50400001928E-02 0. -1.
       -1    1    3    3    0  502  0.81331978991E+03  0.33566654956E+03 -0.69372610102E+03  0.11204539332E+04  0.50400001928E-02 0.  1.
</event>
<event>
 5   0  0.9086985E-05  0.2192575E+04  0.7818609E-02  0.8521525E-01
        2   -1    0    0  501    0  0.00000000000E+00  0.00000000000E+00  0.14364435546E+04  0.14364435546E+04  0.25500000920E-02 0. -1.
       -2   -1    0    0    0  501  0.00000000000E+00  0.00000000000E+00 -0.83668196953E+03  0.83668196953E+03  0.25500000920E-02 0.  1.
    10030    2    1    2    0    0  0.00000000000E+00  0.00000000000E+00  0.59976158508E+03  0.22731255241E+04  0.21925751275E+04 0.  0.
        5    1    3    3  502    0 -0.42790151892E+03  0.47869005626E+03  0.12211087923E+04  0.13796277224E+04  0.46999998093E+01 0. -1.
       -5    1    3    3    0  502  0.42790151892E+03 -0.47869005626E+03 -0.62134720719E+03  0.89349780175E+03  0.46999998093E+01 0.  1.
</event>
<event>
 5   0  0.4174093E-05  0.2097924E+04  0.7818609E-02  0.8562158E-01
       -1   -1    0    0    0  501  0.00000000000E+00  0.00000000000E+00  0.10987619073E+04  0.10987619073E+04  0.50400001928E-02 0. -1.
        1   -1    0    0  501    0  0.00000000000E+00  0.00000000000E+00 -0.10014190919E+04  0.10014190919E+04  0.50400001928E-02 0.  1.
    10030    2    1    2    0    0  0.00000000000E+00  0.00000000000E+00  0.97342815336E+02  0.21001809992E+04  0.20979238799E+04 0.  0.
        3    1    3    3  502    0 -0.35398630592E+03 -0.40282509589E+03 -0.85382322346E+03  0.10082601201E+04  0.10100000352E+00 0.  1.
       -3    1    3    3    0  502  0.35398630592E+03  0.40282509589E+03  0.95116603880E+03  0.10919208791E+04  0.10100000352E+00 0. -1.
</event>
<event>
 5   0  0.4128678E-05  0.2068425E+04  0.7818609E-02  0.8575282E-01
       -1   -1    0    0    0  501  0.00000000000E+00  0.00000000000E+00  0.18329015459E+04  0.18329015459E+04  0.50400001928E-02 0. -1.
        1   -1    0    0  501    0  0.00000000000E+00  0.00000000000E+00 -0.58355295984E+03  0.58355295986E+03  0.50400001928E-02 0.  1.
    10030    2    1    2    0    0  0.00000000000E+00  0.00000000000E+00  0.12493485861E+04  0.24164545058E+04  0.20684246394E+04 0.  0.
        5    1    3    3  502    0  0.49758615753E+02  0.44712027220E+03 -0.46323751625E+03  0.64575811579E+03  0.46999998093E+01 0.  1.
       -5    1    3    3    0  502 -0.49758615753E+02 -0.44712027220E+03  0.17125861023E+04  0.17706963900E+04  0.46999998093E+01 0. -1.
</event>
<event>
 5   0  0.8858590E-05  0.2109955E+04  0.7818609E-02  0.8556871E-01
        2   -1    0    0  501    0  0.00000000000E+00  0.00000000000E+00  0.11848358666E+04  0.11848358666E+04  0.25500000920E-02 0. -1.
       -2   -1    0    0    0  501  0.00000000000E+00  0.00000000000E+00 -0.93935151666E+03  0.93935151667E+03  0.25500000920E-02 0.  1.
    10030    2    1    2    0    0  0.00000000000E+00  0.00000000000E+00  0.24548434992E+03  0.21241873833E+04  0.21099548510E+04 0.  0.
        1    1    3    3  502    0  0.81724967495E+03  0.23993484768E+03 -0.50396118013E+03  0.98966794099E+03  0.50400001928E-02 0.  1.
       -1    1    3    3    0  502 -0.81724967495E+03 -0.23993484768E+03  0.74944553005E+03  0.11345194423E+04  0.50400001928E-02 0. -1.
</event>
<event>
 5   0  0.8547605E-05  0.2086028E+04  0.7818609E-02  0.8567423E-01
       -2   -1    0    0    0  501  0.00000000000E+00  0.00000000000E+00  0.51688735236E+03  0.51688735237E+03  0.25500000920E-02 0.  1.
        2   -1    0    0  501    0  0.00000000000E+00  0.00000000000E+00 -0.21046712905E+04  0.21046712905E+04  0.25500000920E-02 0. -1.
    10030    2    1    2    0    0  0.00000000000E+00  0.00000000000E+00 -0.15877839381E+04  0.26215586429E+04  0.20860277764E+04 0.  0.
        4    1    3    3  502    0 -0.93383510038E+03  0.46060482387E+03 -0.71774286829E+03  0.12646585454E+04  0.12699999809E+01 0.  1.
       -4    1    3    3    0  502  0.93383510038E+03 -0.46060482387E+03 -0.87004106984E+03  0.13569000975E+04  0.12699999809E+01 0. -1.
</event>
<event>
 5   0  0.3176125E-05  0.2087282E+04  0.7818609E-02  0.8566867E-01
       -4   -1    0    0    0  501  0.00000000000E+00  0.00000000000E+00  0.12497666646E+04  0.12497673099E+04  0.12699999809E+01 0.  1.
        4   -1    0    0  501    0  0.00000000000E+00  0.00000000000E+00 -0.87151049702E+03  0.87151142237E+03  0.12699999809E+01 0. -1.
    10030    2    1    2    0    0  0.00000000000E+00  0.00000000000E+00  0.37825616758E+03  0.21212787323E+04  0.20872819004E+04 0.  0.
        3    1    3    3  502    0  0.17542634525E+03 -0.98816710494E+03 -0.10178199042E+03  0.10087656882E+04  0.10100000352E+00 0. -1.
       -3    1    3    3    0  502 -0.17542634525E+03  0.98816710494E+03  0.48003815799E+03  0.11125130441E+04  0.10100000352E+00 0.  1.
</event>
<event>
 5   0  0.4200061E-05  0.2125583E+04  0.7818609E-02  0.8550057E-01
       -1   -1    0    0    0  501  0.00000000000E+00  0.00000000000E+00  0.73920839669E+03  0.73920839671E+03  0.50400001928E-02 0.  1.
        1   -1    0    0  501    0  0.00000000000E+00  0.00000000000E+00 -0.15280210378E+04  0.15280210378E+04  0.50400001928E-02 0. -1.
    10030    2    1    2    0    0  0.00000000000E+00  0.00000000000E+00 -0.78881264114E+03  0.22672294345E+04  0.21255831967E+04 0.  0.
        4    1    3    3  502    0 -0.43152851453E+03  0.75593525472E+03 -0.10448543238E+04  0.13599180633E+04  0.12699999809E+01 0. -1.
       -4    1    3    3    0  502  0.43152851453E+03 -0.75593525472E+03  0.25604168264E+03  0.90731137121E+03  0.12699999809E+01 0.  1.
</event>
<event>
 5   0  0.8872777E-05  0.2096560E+04  0.7818609E-02  0.8562760E-01
       -2   -1    0    0    0  501  0.00000000000E+00  0.00000000000E+00  0.10644987566E+04  0.10644987566E+04  0.25500000920E-02 0.  1.
        2   -1    0    0  501    0  0.00000000000E+00  0.00000000000E+00 -0.10323081858E+04  0.10323081858E+04  0.25500000920E-02 0. -1.
    10030    2    1    2    0    0  0.00000000000E+00  0.00000000000E+00  0.32190570799E+02  0.20968069423E+04  0.20965598299E+04 0.  0.
        3    1    3    3  502    0  0.61728645848E+02 -0.10247637148E+04  0.22811006658E+03  0.10516583616E+04  0.10100000352E+00 0.  1.
       -3    1    3    3    0  502 -0.61728645848E+02  0.10247637148E+04 -0.19591949578E+03  0.10451485807E+04  0.10100000352E+00 0. -1.
</event>
<event>
 5   0  0.4182977E-05  0.2022375E+04  0.7818609E-02  0.8596231E-01
       -1   -1    0    0    0  501  0.00000000000E+00  0.00000000000E+00  0.14071094056E+04  0.14071094056E+04  0.50400001928E-02 0. -1.
        1   -1    0    0  501    0  0.00000000000E+00  0.00000000000E+00 -0.72666680532E+03  0.72666680533E+03  0.50400001928E-02 0.  1.
    10030    2    1    2    0    0  0.00000000000E+00  0.00000000000E+00  0.68044260025E+03  0.21337762109E+04  0.20223745415E+04 0.  0.
        1    1    3    3  502    0  0.45095260944E+03 -0.66794726369E+03 -0.30414771241E+03  0.86140445437E+03  0.50400001928E-02 0. -1.
       -1    1    3    3    0  502 -0.45095260944E+03  0.66794726369E+03  0.98459031266E+03  0.12723717565E+04  0.50400001928E-02 0.  1.
</event>
<event>
 5   0  0.8872777E-05  0.2108962E+04  0.7818609E-02  0.8557306E-01
        2   -1    0    0  501    0  0.00000000000E+00  0.00000000000E+00  0.15698222436E+04  0.15698222436E+04  0.25500000920E-02 0.  1.
       -2   -1    0    0    0  501  0.00000000000E+00  0.00000000000E+00 -0.70831599230E+03  0.70831599231E+03  0.25500000920E-02 0. -1.
    10030    2    1    2    0    0  0.00000000000E+00  0.00000000000E+00  0.86150625127E+03  0.22781382359E+04  0.21089620198E+04 0.  0.
        3    1    3    3  502    0  0.30220252410E+03 -0.62679960223E+03 -0.42509440505E+03  0.81541975101E+03  0.10100000352E+00 0. -1.
       -3    1    3    3    0  502 -0.30220252410E+03  0.62679960223E+03  0.12866006563E+04  0.14627184849E+04  0.10100000352E+00 0.  1.
</event>
<event>
 5   0  0.4050368E-05  0.2099462E+04  0.7818609E-02  0.8561480E-01
        1   -1    0    0  501    0  0.00000000000E+00  0.00000000000E+00  0.91881212969E+03  0.91881212970E+03  0.50400001928E-02 0. -1.
       -1   -1    0    0    0  501  0.00000000000E+00  0.00000000000E+00 -0.11993046383E+04  0.11993046383E+04  0.50400001928E-02 0.  1.
    10030    2    1    2    0    0  0.00000000000E+00  0.00000000000E+00 -0.28049250862E+03  0.21181167680E+04  0.20994624539E+04 0.  0.
        2    1    3    3  502    0  0.90983793458E+03  0.24577169144E+03 -0.60665999459E+03  0.11208234208E+04  0.25500000920E-02 0.  1.
       -2    1    3    3    0  502 -0.90983793458E+03 -0.24577169144E+03  0.32616748597E+03  0.99729334723E+03  0.25500000920E-02 0. -1.
</event>
<event>
 5   0  0.8858590E-05  0.2089756E+04  0.7818609E-02  0.8565769E-01
       -2   -1    0    0    0  501  0.00000000000E+00  0.00000000000E+00  0.20565354107E+04  0.20565354107E+04  0.25500000920E-02 0. -1.
        2   -1    0    0  501    0  0.00000000000E+00  0.00000000000E+00 -0.53087821635E+03  0.53087821636E+03  0.25500000920E-02 0.  1.
    10030    2    1    2    0    0  0.00000000000E+00  0.00000000000E+00  0.15256571943E+04  0.25874136270E+04  0.20897558237E+04 0.  0.
        1    1    3    3  502    0 -0.42972055334E+03 -0.90502773038E+03  0.39546360822E+03  0.10770916452E+04  0.50400001928E-02 0.  1.
       -1    1    3    3    0  502  0.42972055334E+03  0.90502773038E+03  0.11301935861E+04  0.15103219818E+04  0.50400001928E-02 0. -1.
</event>
<event>
 5   0  0.9012466E-05  0.2145229E+04  0.7818609E-02  0.8541577E-01
       -2   -1    0    0    0  501  0.00000000000E+00  0.00000000000E+00  0.15341776984E+04  0.15341776984E+04  0.25500000920E-02 0. -1.
        2   -1    0    0  501    0  0.00000000000E+00  0.00000000000E+00 -0.74991434536E+03  0.74991434536E+03  0.25500000920E-02 0.  1.
    10030    2    1    2    0    0  0.00000000000E+00  0.00000000000E+00  0.78426335303E+03  0.22840920437E+04  0.21452289988E+04 0.  0.
        2    1    3    3  502    0  0.56342282762E+03  0.91585316339E+02 -0.57476418346E+03  0.81005371393E+03  0.25500000920E-02 0.  1.
       -2    1    3    3    0  502 -0.56342282762E+03 -0.91585316339E+02  0.13590275365E+04  0.14740383298E+04  0.25500000920E-02 0. -1.
</event>
<event>
 5   0  0.3176125E-05  0.2108942E+04  0.7818609E-02  0.8557314E-01
        3   -1    0    0  501    0  0.00000000000E+00  0.00000000000E+00  0.53119872264E+03  0.53119873224E+03  0.10100000352E+00 0.  1.
       -3   -1    0    0    0  501  0.00000000000E+00  0.00000000000E+00 -0.20932081563E+04  0.20932081588E+04  0.10100000352E+00 0. -1.
    10030    2    1    2    0    0  0.00000000000E+00  0.00000000000E+00 -0.15620094337E+04  0.26244068910E+04  0.21089424029E+04 0.  0.
        2    1    3    3  502    0  0.39242512152E+03  0.36673835022E+03  0.34820821524E+03  0.64011206416E+03  0.25500000920E-02 0.  1.
       -2    1    3    3    0  502 -0.39242512152E+03 -0.36673835022E+03 -0.19102176489E+04  0.19842948268E+04  0.25500000920E-02 0. -1.
</event>
<event>
 5   0  0.4200061E-05  0.2122867E+04  0.7818609E-02  0.8551237E-01
        1   -1    0    0  501    0  0.00000000000E+00  0.00000000000E+00  0.12700368868E+04  0.12700368868E+04  0.50400001928E-02 0.  1.
       -1   -1    0    0    0  501  0.00000000000E+00  0.00000000000E+00 -0.88709327740E+03  0.88709327741E+03  0.50400001928E-02 0. -1.
    10030    2    1    2    0    0  0.00000000000E+00  0.00000000000E+00  0.38294360943E+03  0.21571301643E+04  0.21228671031E+04 0.  0.
        4    1    3    3  502    0  0.84183612070E+03  0.43216387256E+03 -0.29710654763E+03  0.99183041918E+03  0.12699999809E+01 0.  1.
       -4    1    3    3    0  502 -0.84183612070E+03 -0.43216387256E+03  0.68005015706E+03  0.11652997451E+04  0.12699999809E+01 0. -1.
</event>
<event>
 5   0  0.3176125E-05  0.2117908E+04  0.7818609E-02  0.8553395E-01
       -3   -1    0    0    0  501  0.00000000000E+00  0.00000000000E+00  0.82775055533E+03  0.82775056149E+03  0.10100000352E+00 0. -1.
        3   -1    0    0  501    0  0.00000000000E+00  0.00000000000E+00 -0.13547366145E+04  0.13547366182E+04  0.10100000352E+00 0.  1.
    10030    2    1    2    0    0  0.00000000000E+00  0.00000000000E+00 -0.52698605914E+03  0.21824871797E+04  0.21179083982E+04 0.  0.
        5    1    3    3  502    0 -0.68330617605E+03 -0.27614168942E+03  0.52008761756E+03  0.90203923573E+03  0.46999998093E+01 0. -1.
       -5    1    3    3    0  502  0.68330617605E+03  0.27614168942E+03 -0.10470736767E+04  0.12804479440E+04  0.46999998093E+01 0.  1.
</event>
<event>
 5   0  0.8547605E-05  0.2067682E+04  0.7818609E-02  0.8575615E-01
        2   -1    0    0  501    0  0.00000000000E+00  0.00000000000E+00  0.62123163611E+03  0.62123163611E+03  0.25500000920E-02 0. -1.
       -2   -1    0    0    0  501  0.00000000000E+00  0.00000000000E+00 -0.17204979070E+04  0.17204979070E+04  0.25500000920E-02 0.  1.
    10030    2    1    2    0    0  0.00000000000E+00  0.00000000000E+00 -0.10992662709E+04  0.23417295431E+04  0.20676824995E+04 0.  0.
        4    1    3    3  502    0  0.95032416005E+03 -0.35009715033E+03 -0.78486897414E+03  0.12812903431E+04  0.12699999809E+01 0.  1.
       -4    1    3    3    0  502 -0.95032416005E+03  0.35009715033E+03 -0.31439729677E+03  0.10604392000E+04  0.12699999809E+01 0. -1.
</event>
<event>
 5   0  0.9086985E-05  0.2068384E+04  0.7818609E-02  0.8575300E-01
       -2   -1    0    0    0  501  0.00000000000E+00  0.00000000000E+00  0.56601250099E+03  0.56601250100E+03  0.25500000920E-02 0. -1.
        2   -1    0    0  501    0  0.00000000000E+00  0.00000000000E+00 -0.18896272962E+04  0.18896272962E+04  0.25500000920E-02 0.  1.
    10030    2    1    2    0    0  0.00000000000E+00  0.00000000000E+00 -0.13236147952E+04  0.24556397972E+04  0.20683835929E+04 0.  0.
        5    1    3    3  502    0 -0.67444241476E+03  0.46065371885E+03  0.91362354018E+02  0.82185375174E+03  0.46999998093E+01 0. -1.
       -5    1    3    3    0  502  0.67444241476E+03 -0.46065371885E+03 -0.14149771492E+04  0.16337860455E+04  0.46999998093E+01 0.  1.
</event>
<event>
 5   0  0.4182977E-05  0.2096375E+04  0.7818609E-02  0.8562842E-01
        1   -1    0    0  501    0  0.00000000000E+00  0.00000000000E+00  0.85147676231E+03  0.85147676232E+03  0.50400001928E-02 0.  1.
       -1   -1    0    0    0  501  0.00000000000E+00  0.00000000000E+00 -0.12903425589E+04  0.12903425589E+04  0.50400001928E-02 0. -1.
    10030    2    1    2    0    0  0.00000000000E+00  0.00000000000E+00 -0.43886579657E+03  0.21418193212E+04  0.20963746844E+04 0.  0.
        1    1    3    3  502    0  0.45710738823E+03  0.75355148648E+03  0.36023727592E+03  0.95213334263E+03  0.50400001928E-02 0.  1.
       -1    1    3    3    0  502 -0.45710738823E+03 -0.75355148648E+03 -0.79910307249E+03  0.11896859786E+04  0.50400001928E-02 0. -1.
</event>
<event>
 5   0  0.8547605E-05  0.2109325E+04  0.7818609E-02  0.8557147E-01
       -2   -1    0    0    0  501  0.00000000000E+00  0.00000000000E+00  0.81951942117E+03  0.81951942117E+03  0.25500000920E-02 0.  1.
        2   -1    0    0  501    0  0.00000000000E+00  0.00000000000E+00 -0.13572746480E+04  0.13572746480E+04  0.25500000920E-02 0. -1.
    10030    2    1    2    0    0  0.00000000000E+00  0.00000000000E+00 -0.53775522679E+03  0.21767940691E+04  0.21093249478E+04 0.  0.
        4    1    3    3  502    0 -0.59465480442E+03 -0.84346752384E+03 -0.44531519226E+02  0.10329745734E+04  0.12699999809E+01 0.  1.
       -4    1    3    3    0  502  0.59465480442E+03  0.84346752384E+03 -0.49322370756E+03  0.11438194957E+04  0.12699999809E+01 0. -1.
</event>
<event>
 5   0  0.3176125E-05  0.2070684E+04  0.7818609E-02  0.8574269E-01
       -3   -1    0    0    0  501  0.00000000000E+00  0.00000000000E+00  0.24209220014E+04  0.24209220035E+04  0.10100000352E+00 0. -1.
        3   -1    0    0  501    0  0.00000000000E+00  0.00000000000E+00 -0.44277867035E+03  0.44277868187E+03  0.10100000352E+00 0.  1.
    10030    2    1    2    0    0  0.00000000000E+00  0.00000000000E+00  0.19781433311E+04  0.28637006854E+04  0.20706836014E+04 0.  0.
        3    1    3    3  502    0  0.76232714867E+03 -0.69030164389E+03  0.82384484983E+03  0.13177174917E+04  0.10100000352E+00 0.  1.
       -3    1    3    3    0  502 -0.76232714867E+03  0.69030164389E+03  0.11542984812E+04  0.15459831937E+04  0.10100000352E+00 0. -1.
</event>
<event>
 5   0  0.4174093E-05  0.2115253E+04  0.7818609E-02  0.8554554E-01
        1   -1    0    0  501    0  0.00000000000E+00  0.00000000000E+00  0.12549142356E+04  0.12549142357E+04  0.50400001928E-02 0. -1.
       -1   -1    0    0    0  501  0.00000000000E+00  0.00000000000E+00 -0.89135485335E+03  0.89135485336E+03  0.50400001928E-02 0.  1.
    10030    2    1    2    0    0  0.00000000000E+00  0.00000000000E+00  0.36355938230E+03  0.21462690890E+04  0.21152530766E+04 0.  0.
        3    1    3    3  502    0  0.35935897690E+03  0.72028556833E+02  0.11884189471E+04  0.12436505101E+04  0.10100000352E+00 0. -1.
       -3    1    3    3    0  502 -0.35935897690E+03 -0.72028556833E+02 -0.82485956476E+03  0.90261857895E+03  0.10100000352E+00 0.  1.
</event>
<event>
 5   0  0.4050368E-05  0.2117862E+04  0.7818609E-02  0.8553416E-01
       -1   -1    0    0    0  501  0.00000000000E+00  0.00000000000E+00  0.72417729034E+03  0.72417729036E+03  0.50400001928E-02 0.  1.
        1   -1    0    0  501    0  0.00000000000E+00  0.00000000000E+00 -0.15484253979E+04  0.15484253979E+04  0.50400001928E-02 0. -1.
    10030    2    1    2    0    0  0.00000000000E+00  0.00000000000E+00 -0.82424810754E+03  0.22726026883E+04  0.21178616659E+04 0.  0.
        2    1    3    3  502    0 -0.68371749148E+03  0.56516610411E+03  0.20844903611E+03  0.91122628038E+03  0.25500000920E-02 0.  1.
       -2    1    3    3    0  502  0.68371749148E+03 -0.56516610411E+03 -0.10326971437E+04  0.13613764079E+04  0.25500000920E-02 0. -1.
</event>
<event>
 5   0  0.4050368E-05  0.1755570E+04  0.7818609E-02  0.8730290E-01
       -1   -1    0    0    0  501  0.00000000000E+00  0.00000000000E+00  0.37688648128E+03  0.37688648132E+03  0.50400001928E-02 0. -1.
        1   -1    0    0  501    0  0.00000000000E+00  0.00000000000E+00 -0.20443990456E+04  0.20443990457E+04  0.50400001928E-02 0.  1.
    10030    2    1    2    0    0  0.00000000000E+00  0.00000000000E+00 -0.16675125644E+04  0.24212855270E+04  0.17555698365E+04 0.  0.
        2    1    3    3  502    0  0.18117734503E+03  0.85597964432E+03 -0.73642740072E+03  0.11436134392E+04  0.25500000920E-02 0. -1.
       -2    1    3    3    0  502 -0.18117734503E+03 -0.85597964432E+03 -0.93108516364E+03  0.12776720877E+04  0.25500000920E-02 0.  1.
</event>
<event>
 5   0  0.4182977E-05  0.1871206E+04  0.7818609E-02  0.8669323E-01
        1   -1    0    0  501    0  0.00000000000E+00  0.00000000000E+00  0.78931098279E+03  0.78931098280E+03  0.50400001928E-02 0. -1.
       -1   -1    0    0    0  501  0.00000000000E+00  0.00000000000E+00 -0.11090088142E+04  0.11090088142E+04  0.50400001928E-02 0.  1.
    10030    2    1    2    0    0  0.00000000000E+00  0.00000000000E+00 -0.31969783143E+03  0.18983197970E+04  0.18712058541E+04 0.  0.
        1    1    3    3  502    0 -0.47366012463E+03  0.71640053344E+03 -0.53639997723E+03  0.10125752187E+04  0.50400001928E-02 0. -1.
       -1    1    3    3    0  502  0.47366012463E+03 -0.71640053344E+03  0.21670214580E+03  0.88574457831E+03  0.50400001928E-02 0.  1.
</event>
<event>
 5   0  0.4128678E-05  0.2078832E+04  0.7818609E-02  0.8570626E-01
        1   -1    0    0  501    0  0.00000000000E+00  0.00000000000E+00  0.13443688887E+04  0.13443688887E+04  0.50400001928E-02 0.  1.
       -1   -1    0    0    0  501  0.00000000000E+00  0.00000000000E+00 -0.80363765328E+03  0.80363765330E+03  0.50400001928E-02 0. -1.
    10030    2    1    2    0    0  0.00000000000E+00  0.00000000000E+00  0.54073123538E+03  0.21480065420E+04  0.20788318440E+04 0.  0.
        5    1    3    3  502    0 -0.56232921891E+03  0.41241101471E+03  0.10667701520E+04  0.12744872077E+04  0.46999998093E+01 0.  1.
       -5    1    3    3    0  502  0.56232921891E+03 -0.41241101471E+03 -0.52603891661E+03  0.87351933424E+03  0.46999998093E+01 0. -1.
</event>
<event>
 5   0  0.4050368E-05  0.2058966E+04  0.7818609E-02  0.8579538E-01
        1   -1    0    0  501    0  0.00000000000E+00  0.00000000000E+00  0.14798263227E+04  0.14798263227E+04  0.50400001928E-02 0.  1.
       -1   -1    0    0    0  501  0.00000000000E+00  0.00000000000E+00 -0.71618872448E+03  0.71618872450E+03  0.50400001928E-02 0. -1.
    10030    2    1    2    0    0  0.00000000000E+00  0.00000000000E+00  0.76363759822E+03  0.21960150472E+04  0.20589656884E+04 0.  0.
        2    1    3    3  502    0  0.37729531080E+03 -0.41482865054E+03 -0.53901447266E+03  0.77779892170E+03  0.25500000920E-02 0. -1.
       -2    1    3    3    0  502 -0.37729531080E+03  0.41482865054E+03  0.13026520709E+04  0.14182161255E+04  0.25500000920E-02 0.  1.
</event>
<event>
 5   0  0.8547605E-05  0.2087142E+04  0.7818609E-02  0.8566929E-01
        2   -1    0    0  501    0  0.00000000000E+00  0.00000000000E+00  0.98818086718E+03  0.98818086719E+03  0.25500000920E-02 0.  1.
       -2   -1    0    0    0  501  0.00000000000E+00  0.00000000000E+00 -0.11020655865E+04  0.11020655865E+04  0.25500000920E-02 0. -1.
    10030    2    1    2    0    0  0.00000000000E+00  0.00000000000E+00 -0.11388471932E+03  0.20902464537E+04  0.20871417077E+04 0.  0.
        4    1    3    3  502    0  0.65435565741E+02  0.95312436701E+03 -0.47746058385E+03  0.10680346878E+04  0.12699999809E+01 0. -1.
       -4    1    3    3    0  502 -0.65435565741E+02 -0.95312436701E+03  0.36357586453E+03  0.10222117659E+04  0.12699999809E+01 0.  1.
</event>
<event>
 5   0  0.8547605E-05  0.2107768E+04  0.7818609E-02  0.8557829E-01
       -2   -1    0    0    0  501  0.00000000000E+00  0.00000000000E+00  0.77322678729E+03  0.77322678730E+03  0.25500000920E-02 0.  1.
        2   -1    0    0  501    0  0.00000000000E+00  0.00000000000E+00 -0.14364106609E+04  0.14364106609E+04  0.25500000920E-02 0. -1.
    10030    2    1    2    0    0  0.00000000000E+00  0.00000000000E+00 -0.66318387361E+03  0.22096374482E+04  0.21077677297E+04 0.  0.
        4    1    3    3  502    0  0.63515187278E+03  0.52667688109E+03  0.35573502202E+03  0.89852960850E+03  0.12699999809E+01 0.  1.
       -4    1    3    3    0  502 -0.63515187278E+03 -0.52667688109E+03 -0.10189188956E+04  0.13111078397E+04  0.12699999809E+01 0. -1.
</event>
<event>
 5   0  0.8858590E-05  0.2069970E+04  0.7818609E-02  0.8574588E-01
        2   -1    0    0  501    0  0.00000000000E+00  0.00000000000E+00  0.81061371625E+03  0.81061371626E+03  0.25500000920E-02 0.  1.
       -2   -1    0    0    0  501  0.00000000000E+00  0.00000000000E+00 -0.13214604603E+04  0.13214604603E+04  0.25500000920E-02 0. -1.
    10030    2    1    2    0    0  0.00000000000E+00  0.00000000000E+00 -0.51084674403E+03  0.21320741765E+04  0.20699700235E+04 0.  0.
        1    1    3    3  502    0 -0.42368889789E+02 -0.91463032966E+03 -0.75244647055E+03  0.11851242356E+04  0.50400001928E-02 0. -1.
       -1    1    3    3    0  502  0.42368889789E+02  0.91463032966E+03  0.24159972652E+03  0.94694994093E+03  0.50400001928E-02 0.  1.
</event>
<event>
 5   0  0.4200061E-05  0.2103672E+04  0.7818609E-02  0.8559627E-01
       -1   -1    0    0    0  501  0.00000000000E+00  0.00000000000E+00  0.99216681189E+03  0.99216681191E+03  0.50400001928E-02 0. -1.
        1   -1    0    0  501    0  0.00000000000E+00  0.00000000000E+00 -0.11150941281E+04  0.11150941281E+04  0.50400001928E-02 0.  1.
    10030    2    1    2    0    0  0.00000000000E+00  0.00000000000E+00 -0.12292731616E+03  0.21072609400E+04  0.21036723947E+04 0.  0.
        4    1    3    3  502    0  0.88897079364E+03 -0.21841520505E+03 -0.58040481395E+03  0.10839029637E+04  0.12699999809E+01 0.  1.
       -4    1    3    3    0  502 -0.88897079364E+03  0.21841520505E+03  0.45747749779E+03  0.10233579763E+04  0.12699999809E+01 0. -1.
</event>
<event>
 5   0  0.4200061E-05  0.2100118E+04  0.7818609E-02  0.8561191E-01
       -1   -1    0    0    0  501  0.00000000000E+00  0.00000000000E+00  0.12039180180E+04  0.12039180180E+04  0.50400001928E-02 0.  1.
        1   -1    0    0  501    0  0.00000000000E+00  0.00000000000E+00 -0.91586319588E+03  0.91586319589E+03  0.50400001928E-02 0. -1.
    10030    2    1    2    0    0  0.00000000000E+00  0.00000000000E+00  0.28805482210E+03  0.21197812139E+04  0.21001182858E+04 0.  0.
        4    1    3    3  502    0 -0.49317361833E+02  0.10484208800E+04  0.17601078379E+03  0.10642367936E+04  0.12699999809E+01 0.  1.
       -4    1    3    3    0  502  0.49317361833E+02 -0.10484208800E+04  0.11204403831E+03  0.10555444203E+04  0.12699999809E+01 0. -1.
</event>
<event>
 5   0  0.9086985E-05  0.2100613E+04  0.7818609E-02  0.8560973E-01
        2   -1    0    0  501    0  0.00000000000E+00  0.00000000000E+00  0.14242284438E+04  0.14242284438E+04  0.25500000920E-02 0.  1.
       -2   -1    0    0    0  501  0.00000000000E+00  0.00000000000E+00 -0.77455517383E+03  0.77455517384E+03  0.25500000920E-02 0. -1.
    10030    2    1    2    0    0  0.00000000000E+00  0.00000000000E+00  0.64967326997E+03  0.21987836176E+04  0.21006127771E+04 0.  0.
        5    1    3    3  502    0 -0.42888779377E+02  0.12180386425E+03  0.14158762520E+04  0.14217606267E+04  0.46999998093E+01 0.  1.
       -5    1    3    3    0  502  0.42888779377E+02 -0.12180386425E+03 -0.76620298203E+03  0.77702299092E+03  0.46999998093E+01 0. -1.
</event>
<event>
 5   0  0.4128678E-05  0.2118089E+04  0.7818609E-02  0.8553317E-01
       -1   -1    0    0    0  501  0.00000000000E+00  0.00000000000E+00  0.10492985462E+04  0.10492985462E+04  0.50400001928E-02 0.  1.
        1   -1    0    0  501    0  0.00000000000E+00  0.00000000000E+00 -0.10688811788E+04  0.10688811788E+04  0.50400001928E-02 0. -1.
    10030    2    1    2    0    0  0.00000000000E+00  0.00000000000E+00 -0.19582632599E+02  0.21181797251E+04  0.21180892022E+04 0.  0.
        5    1    3    3  502    0  0.10292038217E+04  0.24827629892E+03 -0.35321801139E+02  0.10593258926E+04  0.46999998093E+01 0.  1.
       -5    1    3    3    0  502 -0.10292038217E+04 -0.24827629892E+03  0.15739168540E+02  0.10588538325E+04  0.46999998093E+01 0. -1.
</event>
<event>
 5   0  0.4128678E-05  0.2105810E+04  0.7818609E-02  0.8558688E-01
       -1   -1    0    0    0  501  0.00000000000E+00  0.00000000000E+00  0.10154569631E+04  0.10154569631E+04  0.50400001928E-02 0. -1.
        1   -1    0    0  501    0  0.00000000000E+00  0.00000000000E+00 -0.10917343189E+04  0.10917343189E+04  0.50400001928E-02 0.  1.
    10030    2    1    2    0    0  0.00000000000E+00  0.00000000000E+00 -0.76277355759E+02  0.21071912820E+04  0.21058102631E+04 0.  0.
        5    1    3    3  502    0 -0.47779137884E+03  0.27413092433E+03 -0.93603130497E+03  0.10860980892E+04  0.46999998093E+01 0.  1.
       -5    1    3    3    0  502  0.47779137884E+03 -0.27413092433E+03  0.85975394921E+03  0.10210931929E+04  0.46999998093E+01 0. -1.
</event>
<event>
 5   0  0.9012466E-05  0.2105034E+04  0.7818609E-02  0.8559029E-01
       -2   -1    0    0    0  501  0.00000000000E+00  0.00000000000E+00  0.63672276651E+03  0.63672276652E+03  0.25500000920E-02 0. -1.
        2   -1    0    0  501    0  0.00000000000E+00  0.00000000000E+00 -0.17398339817E+04  0.17398339817E+04  0.25500000920E-02 0.  1.
    10030    2    1    2    0    0  0.00000000000E+00  0.00000000000E+00 -0.11031112152E+04  0.23765567483E+04  0.21050338773E+04 0.  0.
        2    1    3    3  502    0  0.96704342074E+03 -0.17861093200E+03 -0.12804676626E+03  0.99170097155E+03  0.25500000920E-02 0.  1.
       -2    1    3    3    0  502 -0.96704342074E+03  0.17861093200E+03 -0.97506444897E+03  0.13848557767E+04  0.25500000920E-02 0. -1.
</event>
<event>
 5   0  0.4174093E-05  0.2101802E+04  0.7818609E-02  0.8560450E-01
        1   -1    0    0  501    0  0.00000000000E+00  0.00000000000E+00  0.63498396109E+03  0.63498396111E+03  0.50400001928E-02 0.  1.
       -1   -1    0    0    0  501  0.00000000000E+00  0.00000000000E+00 -0.17392456069E+04  0.17392456069E+04  0.50400001928E-02 0. -1.
    10030    2    1    2    0    0  0.00000000000E+00  0.00000000000E+00 -0.11042616458E+04  0.23742295680E+04  0.21018021456E+04 0.  0.
        3    1    3    3  502    0 -0.79982858286E+03  0.34339405657E+03 -0.12173086200E+04  0.14964910713E+04  0.10100000352E+00 0. -1.
       -3    1    3    3    0  502  0.79982858286E+03 -0.34339405657E+03  0.11304697416E+03  0.87773849672E+03  0.10100000352E+00 0.  1.
</event>
<event>
 5   0  0.8872777E-05  0.2110629E+04  0.7818609E-02  0.8556575E-01
       -2   -1    0    0    0  501  0.00000000000E+00  0.00000000000E+00  0.91486862749E+03  0.91486862750E+03  0.25500000920E-02 0.  1.
        2   -1    0    0  501    0  0.00000000000E+00  0.00000000000E+00 -0.12173213117E+04  0.12173213117E+04  0.25500000920E-02 0. -1.
    10030    2    1    2    0    0  0.00000000000E+00  0.00000000000E+00 -0.30245268421E+03  0.21321899392E+04  0.21106293636E+04 0.  0.
        3    1    3    3  502    0 -0.35266616465E+03  0.63654192801E+03  0.62086498887E+03  0.95657325616E+03  0.10100000352E+00 0.  1.
       -3    1    3    3    0  502  0.35266616465E+03 -0.63654192801E+03 -0.92331767308E+03  0.11756166830E+04  0.10100000352E+00 0. -1.
</event>
<event>
 5   0  0.3176125E-05  0.2108316E+04  0.7818609E-02  0.8557589E-01
       -3   -1    0    0    0  501  0.00000000000E+00  0.00000000000E+00  0.11299132427E+04  0.11299132472E+04  0.10100000352E+00 0.  1.
        3   -1    0    0  501    0  0.00000000000E+00  0.00000000000E+00 -0.98348147696E+03  0.98348148215E+03  0.10100000352E+00 0. -1.
    10030    2    1    2    0    0  0.00000000000E+00  0.00000000000E+00  0.14643176575E+03  0.21133947294E+04  0.21083156832E+04 0.  0.
        5    1    3    3  502    0 -0.44720337758E+03  0.66068072377E+03 -0.61745543804E+03  0.10088424989E+04  0.46999998093E+01 0. -1.
       -5    1    3    3    0  502  0.44720337758E+03 -0.66068072377E+03  0.76388720379E+03  0.11045522304E+04  0.46999998093E+01 0.  1.
</event>
<event>
 5   0  0.8547605E-05  0.2148733E+04  0.7818609E-02  0.8540075E-01
        2   -1    0    0  501    0  0.00000000000E+00  0.00000000000E+00  0.10336415449E+04  0.10336415449E+04  0.25500000920E-02 0. -1.
       -2   -1    0    0    0  501  0.00000000000E+00  0.00000000000E+00 -0.11166964227E+04  0.11166964227E+04  0.25500000920E-02 0.  1.
    10030    2    1    2    0    0  0.00000000000E+00  0.00000000000E+00 -0.83054877781E+02  0.21503379677E+04  0.21487334089E+04 0.  0.
        4    1    3    3  502    0  0.71167781312E+03  0.20235644309E+03  0.73804641627E+03  0.10450586420E+04  0.12699999809E+01 0. -1.
       -4    1    3    3    0  502 -0.71167781312E+03 -0.20235644309E+03 -0.82110129405E+03  0.11052793257E+04  0.12699999809E+01 0.  1.
</event>
<event>
 5   0  0.8547605E-05  0.2084288E+04  0.7818609E-02  0.8568196E-01
       -2   -1    0    0    0  501  0.00000000000E+00  0.00000000000E+00  0.66644508082E+03  0.66644508082E+03  0.25500000920E-02 0. -1.
        2   -1    0    0  501    0  0.00000000000E+00  0.00000000000E+00 -0.16296385907E+04  0.16296385907E+04  0.25500000920E-02 0.  1.
    10030    2    1    2    0    0  0.00000000000E+00  0.00000000000E+00 -0.96319350993E+03  0.22960836716E+04  0.20842884851E+04 0.  0.
        4    1    3    3  502    0 -0.72812796251E+03  0.52754396752E+03 -0.10620026598E+04  0.13915186775E+04  0.12699999809E+01 0.  1.
       -4    1    3    3    0  502  0.72812796251E+03 -0.52754396752E+03  0.98809149911E+02  0.90456499405E+03  0.12699999809E+01 0. -1.
</event>
<event>
 5   0  0.4050368E-05  0.2067017E+04  0.7818609E-02  0.8575914E-01
       -1   -1    0    0    0  501  0.00000000000E+00  0.00000000000E+00  0.11563910476E+04  0.11563910476E+04  0.50400001928E-02 0.  1.
        1   -1    0    0  501    0  0.00000000000E+00  0.00000000000E+00 -0.92368380297E+03  0.92368380298E+03  0.50400001928E-02 0. -1.
    10030    2    1    2    0    0  0.00000000000E+00  0.00000000000E+00  0.23270724464E+03  0.20800748506E+04  0.20670168655E+04 0.  0.
        2    1    3    3  502    0  0.58553186795E+03  0.61552191553E+03 -0.47594330939E+03  0.97377452762E+03  0.25500000920E-02 0. -1.
       -2    1    3    3    0  502 -0.58553186795E+03 -0.61552191553E+03  0.70865055403E+03  0.11063003230E+04  0.25500000920E-02 0.  1.
</event>
<event>
 5   0  0.8858590E-05  0.2105877E+04  0.7818609E-02  0.8558659E-01
       -2   -1    0    0    0  501  0.00000000000E+00  0.00000000000E+00  0.52917143443E+03  0.52917143444E+03  0.25500000920E-02 0.  1.
        2   -1    0    0  501    0  0.00000000000E+00  0.00000000000E+00 -0.20951231548E+04  0.20951231548E+04  0.25500000920E-02 0. -1.
    10030    2    1    2    0    0  0.00000000000E+00  0.00000000000E+00 -0.15659517204E+04  0.26242945892E+04  0.21058768484E+04 0.  0.
        1    1    3    3  502    0  0.39025533606E+03 -0.45135742271E+03 -0.18641061742E+04  0.19572722292E+04  0.50400001928E-02 0. -1.
       -1    1    3    3    0  502 -0.39025533606E+03  0.45135742271E+03  0.29815445389E+03  0.66702236002E+03  0.50400001928E-02 0.  1.
</event>
<event>
 5   0  0.4182977E-05  0.2138932E+04  0.7818609E-02  0.8544285E-01
        1   -1    0    0  501    0  0.00000000000E+00  0.00000000000E+00  0.14568918612E+04  0.14568918612E+04  0.50400001928E-02 0. -1.
       -1   -1    0    0    0  501  0.00000000000E+00  0.00000000000E+00 -0.78506695207E+03  0.78506695209E+03  0.50400001928E-02 0.  1.
    10030    2    1    2    0    0  0.00000000000E+00  0.00000000000E+00  0.67182490914E+03  0.22419588133E+04  0.21389321196E+04 0.  0.
        1    1    3    3  502    0 -0.76612968777E+03  0.30950351392E+03  0.10475945667E+04  0.13342419196E+04  0.50400001928E-02 0.  1.
       -1    1    3    3    0  502  0.76612968777E+03 -0.30950351392E+03 -0.37576965761E+03  0.90771689376E+03  0.50400001928E-02 0. -1.
</event>
<event>
 5   0  0.4128678E-05  0.2099523E+04  0.7818609E-02  0.8561453E-01
       -1   -1    0    0    0  501  0.00000000000E+00  0.00000000000E+00  0.86912115357E+03  0.86912115358E+03  0.50400001928E-02 0. -1.
        1   -1    0    0  501    0  0.00000000000E+00  0.00000000000E+00 -0.12679471732E+04  0.12679471732E+04  0.50400001928E-02 0.  1.
    10030    2    1    2    0    0  0.00000000000E+00  0.00000000000E+00 -0.39882601963E+03  0.21370683268E+04  0.20995234791E+04 0.  0.
        5    1    3    3  502    0 -0.16331224664E+03  0.13870242850E+03  0.84661590320E+03  0.87332115005E+03  0.46999998093E+01 0. -1.
       -5    1    3    3    0  502  0.16331224664E+03 -0.13870242850E+03 -0.12454419228E+04  0.12637471767E+04  0.46999998093E+01 0.  1.
</event>
<event>
 5   0  0.8858590E-05  0.2120997E+04  0.7818609E-02  0.8552050E-01
       -2   -1    0    0    0  501  0.00000000000E+00  0.00000000000E+00  0.68270810845E+03  0.68270810845E+03  0.25500000920E-02 0. -1.
        2   -1    0    0  501    0  0.00000000000E+00  0.00000000000E+00 -0.16473463735E+04  0.16473463735E+04  0.25500000920E-02 0.  1.
    10030    2    1    2    0    0  0.00000000000E+00  0.00000000000E+00 -0.96463826508E+03  0.23300544820E+04  0.21209966776E+04 0.  0.
        1    1    3    3  502    0 -0.55708404249E+03 -0.87110362100E+03 -0.74110677670E+03  0.12721648492E+04  0.50400001928E-02 0.  1.
       -1    1    3    3    0  502  0.55708404249E+03  0.87110362100E+03 -0.22353148837E+03  0.10578896328E+04  0.50400001928E-02 0. -1.
</event>
<event>
 5   0  0.4128678E-05  0.2133685E+04  0.7818609E-02  0.8546548E-01
        1   -1    0    0  501    0  0.00000000000E+00  0.00000000000E+00  0.19847891069E+04  0.19847891069E+04  0.50400001928E-02 0. -1.
       -1   -1    0    0    0  501  0.00000000000E+00  0.00000000000E+00 -0.57343761328E+03  0.57343761330E+03  0.50400001928E-02 0.  1.
    10030    2    1    2    0    0  0.00000000000E+00  0.00000000000E+00  0.14113514936E+04  0.25582267202E+04  0.21336848205E+04 0.  0.
        5    1    3    3  502    0 -0.30668593986E+03 -0.69265962928E+03 -0.19498790862E+03  0.78222503300E+03  0.46999998093E+01 0.  1.
       -5    1    3    3    0  502  0.30668593986E+03  0.69265962928E+03  0.16063394022E+04  0.17760016872E+04  0.46999998093E+01 0. -1.
</event>
<event>
 5   0  0.4174093E-05  0.2119375E+04  0.7818609E-02  0.8552756E-01
       -1   -1    0    0    0  501  0.00000000000E+00  0.00000000000E+00  0.14907765766E+04  0.14907765766E+04  0.50400001928E-02 0. -1.
        1   -1    0    0  501    0  0.00000000000E+00  0.00000000000E+00 -0.75325649352E+03  0.75325649354E+03  0.50400001928E-02 0.  1.
    10030    2    1    2    0    0  0.00000000000E+00  0.00000000000E+00  0.73752008311E+03  0.22440330702E+04  0.21193745651E+04 0.  0.
        3    1    3    3  502    0  0.77003163252E+03 -0.69352923813E+03  0.13436715751E+03  0.10449813694E+04  0.10100000352E+00 0.  1.
       -3    1    3    3    0  502 -0.77003163252E+03  0.69352923813E+03  0.60315292560E+03  0.11990517008E+04  0.10100000352E+00 0. -1.
</event>
<event>
 5   0  0.4200061E-05  0.2050659E+04  0.7818609E-02  0.8583295E-01
        1   -1    0    0  501    0  0.00000000000E+00  0.00000000000E+00  0.12603694800E+04  0.12603694801E+04  0.50400001928E-02 0. -1.
       -1   -1    0    0    0  501  0.00000000000E+00  0.00000000000E+00 -0.83412100938E+03  0.83412100940E+03  0.50400001928E-02 0.  1.
    10030    2    1    2    0    0  0.00000000000E+00  0.00000000000E+00  0.42624847067E+03  0.20944904895E+04  0.20506590774E+04 0.  0.
        4    1    3    3  502    0  0.10820648435E+03 -0.18667804908E+03  0.12369172081E+04  0.12555967226E+04  0.12699999809E+01 0. -1.
       -4    1    3    3    0  502 -0.10820648435E+03  0.18667804908E+03 -0.81066873744E+03  0.83889376683E+03  0.12699999809E+01 0.  1.
</event>
<event>
 5   0  0.9086985E-05  0.2025076E+04  0.7818609E-02  0.8594986E-01
       -2   -1    0    0    0  501  0.00000000000E+00  0.00000000000E+00  0.10958222604E+04  0.10958222604E+04  0.25500000920E-02 0.  1.
        2   -1    0    0  501    0  0.00000000000E+00  0.00000000000E+00 -0.93558316331E+03  0.93558316331E+03  0.25500000920E-02 0. -1.
    10030    2    1    2    0    0  0.00000000000E+00  0.00000000000E+00  0.16023909710E+03  0.20314054237E+04  0.20250756597E+04 0.  0.
        5    1    3    3  502    0  0.66058674410E+03  0.16768618308E+03 -0.67103156952E+03  0.95645123230E+03  0.46999998093E+01 0. -1.
       -5    1    3    3    0  502 -0.66058674410E+03 -0.16768618308E+03  0.83127066662E+03  0.10749541914E+04  0.46999998093E+01 0.  1.
</event>
<event>
 5   0  0.8858590E-05  0.2103192E+04  0.7818609E-02  0.8559839E-01
       -2   -1    0    0    0  501  0.00000000000E+00  0.00000000000E+00  0.51116999498E+03  0.51116999499E+03  0.25500000920E-02 0.  1.
        2   -1    0    0  501    0  0.00000000000E+00  0.00000000000E+00 -0.21633785722E+04  0.21633785722E+04  0.25500000920E-02 0. -1.
    10030    2    1    2    0    0  0.00000000000E+00  0.00000000000E+00 -0.16522085772E+04  0.26745485671E+04  0.21031920634E+04 0.  0.
        1    1    3    3  502    0 -0.81594264853E+03 -0.56418302442E+03 -0.12698929099E+04  0.16114257331E+04  0.50400001928E-02 0. -1.
       -1    1    3    3    0  502  0.81594264853E+03  0.56418302442E+03 -0.38231566725E+03  0.10631228340E+04  0.50400001928E-02 0.  1.
</event>
<event>
 5   0  0.4050368E-05  0.2103866E+04  0.7818609E-02  0.8559542E-01
        1   -1    0    0  501    0  0.00000000000E+00  0.00000000000E+00  0.20112236890E+04  0.20112236890E+04  0.50400001928E-02 0. -1.
       -1   -1    0    0    0  501  0.00000000000E+00  0.00000000000E+00 -0.55019411150E+03  0.55019411152E+03  0.50400001928E-02 0.  1.
    10030    2    1    2    0    0  0.00000000000E+00  0.00000000000E+00  0.14610295775E+04  0.25614178005E+04  0.21038663747E+04 0.  0.
        2    1    3    3  502    0  0.47303829103E+03  0.13828295268E+03  0.18619708787E+04  0.19260900687E+04  0.25500000920E-02 0. -1.
       -2    1    3    3    0  502 -0.47303829103E+03 -0.13828295268E+03 -0.40094130118E+03  0.63532773179E+03  0.25500000920E-02 0.  1.
</event>
<event>
 5   0  0.4128678E-05  0.2095925E+04  0.7818609E-02  0.8563040E-01
        1   -1    0    0  501    0  0.00000000000E+00  0.00000000000E+00  0.98209211925E+03  0.98209211926E+03  0.50400001928E-02 0.  1.
       -1   -1    0    0    0  501  0.00000000000E+00  0.00000000000E+00 -0.11182514096E+04  0.11182514096E+04  0.50400001928E-02 0. -1.
    10030    2    1    2    0    0  0.00000000000E+00  0.00000000000E+00 -0.13615929035E+03  0.21003435289E+04  0.20959254727E+04 0.  0.
        5    1    3    3  502    0 -0.46226891233E+03  0.23590885387E+03 -0.98041527373E+03  0.11093158854E+04  0.46999998093E+01 0. -1.
       -5    1    3    3    0  502  0.46226891233E+03 -0.23590885387E+03  0.84425598338E+03  0.99102764347E+03  0.46999998093E+01 0.  1.
</event>
<event>
 5   0  0.8872777E-05  0.2090431E+04  0.7818609E-02  0.8565470E-01
        2   -1    0    0  501    0  0.00000000000E+00  0.00000000000E+00  0.72450015710E+03  0.72450015710E+03  0.25500000920E-02 0.  1.
       -2   -1    0    0    0  501  0.00000000000E+00  0.00000000000E+00 -0.15079018746E+04  0.15079018746E+04  0.25500000920E-02 0. -1.
    10030    2    1    2    0    0  0.00000000000E+00  0.00000000000E+00 -0.78340171752E+03  0.22324020317E+04  0.20904307164E+04 0.  0.
        3    1    3    3  502    0  0.42677493672E+02  0.37345287653E+03  0.64982370971E+03  0.75070585675E+03  0.10100000352E+00 0.  1.
       -3    1    3    3    0  502 -0.42677493672E+02 -0.37345287653E+03 -0.14332254272E+04  0.14816961750E+04  0.10100000352E+00 0. -1.
</event>
<event>
 5   0  0.8858590E-05  0.2051092E+04  0.7818609E-02  0.8583099E-01
        2   -1    0    0  501    0  0.00000000000E+00  0.00000000000E+00  0.19049778701E+04  0.19049778701E+04  0.25500000920E-02 0. -1.
       -2   -1    0    0    0  501  0.00000000000E+00  0.00000000000E+00 -0.55210346102E+03  0.55210346102E+03  0.25500000920E-02 0.  1.
    10030    2    1    2    0    0  0.00000000000E+00  0.00000000000E+00  0.13528744090E+04  0.24570813311E+04  0.20510922702E+04 0.  0.
        1    1    3    3  502    0 -0.59652827657E+02  0.10098086002E+04  0.87857661576E+03  0.13398390719E+04  0.50400001928E-02 0. -1.
       -1    1    3    3    0  502  0.59652827657E+02 -0.10098086002E+04  0.47429779328E+03  0.11172422591E+04  0.50400001928E-02 0.  1.
</event>
<event>
 5   0  0.4128678E-05  0.2102713E+04  0.7818609E-02  0.8560049E-01
        1   -1    0    0  501    0  0.00000000000E+00  0.00000000000E+00  0.47712564907E+03  0.47712564909E+03  0.50400001928E-02 0.  1.
       -1   -1    0    0    0  501  0.00000000000E+00  0.00000000000E+00 -0.23166872814E+04  0.23166872814E+04  0.50400001928E-02 0. -1.
    10030    2    1    2    0    0  0.00000000000E+00  0.00000000000E+00 -0.18395616323E+04  0.27938129305E+04  0.21027134116E+04 0.  0.
        5    1    3    3  502    0  0.76789916075E+03  0.16005352433E+03  0.10328828248E+02  0.78448392362E+03  0.46999998093E+01 0.  1.
       -5    1    3    3    0  502 -0.76789916075E+03 -0.16005352433E+03 -0.18498904606E+04  0.20093290069E+04  0.46999998093E+01 0. -1.
</event>
<event>
 5   0  0.4050368E-05  0.2102458E+04  0.7818609E-02  0.8560162E-01
        1   -1    0    0  501    0  0.00000000000E+00  0.00000000000E+00  0.94163578918E+03  0.94163578920E+03  0.50400001928E-02 0. -1.
       -1   -1    0    0    0  501  0.00000000000E+00  0.00000000000E+00 -0.11735768797E+04  0.11735768797E+04  0.50400001928E-02 0.  1.
    10030    2    1    2    0    0  0.00000000000E+00  0.00000000000E+00 -0.23194109052E+03  0.21152126689E+04  0.21024576013E+04 0.  0.
        2    1    3    3  502    0  0.68476127865E+03  0.77039174814E+03 -0.32381657349E+03  0.10803974397E+04  0.25500000920E-02 0.  1.
       -2    1    3    3    0  502 -0.68476127865E+03 -0.77039174814E+03  0.91875482973E+02  0.10348152293E+04  0.25500000920E-02 0. -1.
</event>
<event>
 5   0  0.4128678E-05  0.2104110E+04  0.7818609E-02  0.8559435E-01
       -1   -1    0    0    0  501  0.00000000000E+00  0.00000000000E+00  0.75618165558E+03  0.75618165560E+03  0.50400001928E-02 0. -1.
        1   -1    0    0  501    0  0.00000000000E+00  0.00000000000E+00 -0.14636961477E+04  0.14636961477E+04  0.50400001928E-02 0.  1.
    10030    2    1    2    0    0  0.00000000000E+00  0.00000000000E+00 -0.70751449212E+03  0.22198778033E+04  0.21041104308E+04 0.  0.
        5    1    3    3  502    0  0.15308895867E+03 -0.10399976366E+04 -0.39810288397E+03  0.11240726443E+04  0.46999998093E+01 0. -1.
       -5    1    3    3    0  502 -0.15308895867E+03  0.10399976366E+04 -0.30941160814E+03  0.10958051590E+04  0.46999998093E+01 0.  1.
</event>
<event>
 5   0  0.4050368E-05  0.2111316E+04  0.7818609E-02  0.8556275E-01
        1   -1    0    0  501    0  0.00000000000E+00  0.00000000000E+00  0.12921300307E+04  0.12921300307E+04  0.50400001928E-02 0.  1.
       -1   -1    0    0    0  501  0.00000000000E+00  0.00000000000E+00 -0.86246239695E+03  0.86246239697E+03  0.50400001928E-02 0. -1.
    10030    2    1    2    0    0  0.00000000000E+00  0.00000000000E+00  0.42966763371E+03  0.21545924276E+04  0.21113157636E+04 0.  0.
        2    1    3    3  502    0 -0.39487836890E+03 -0.10165568606E+02  0.12138697385E+04  0.12765234064E+04  0.25500000920E-02 0.  1.
       -2    1    3    3    0  502  0.39487836890E+03  0.10165568606E+02 -0.78420210476E+03  0.87806902128E+03  0.25500000920E-02 0. -1.
</event>
<event>
 5   0  0.4128678E-05  0.2102044E+04  0.7818609E-02  0.8560344E-01
        1   -1    0    0  501    0  0.00000000000E+00  0.00000000000E+00  0.79472450550E+03  0.79472450552E+03  0.50400001928E-02 0. -1.
       -1   -1    0    0    0  501  0.00000000000E+00  0.00000000000E+00 -0.13899747617E+04  0.13899747617E+04  0.50400001928E-02 0.  1.
    10030    2    1    2    0    0  0.00000000000E+00  0.00000000000E+00 -0.59525025620E+03  0.21846992672E+04  0.21020437723E+04 0.  0.
        5    1    3    3  502    0 -0.65356696988E+03 -0.78925264183E+03 -0.54038045775E+03  0.11584915390E+04  0.46999998093E+01 0.  1.
       -5    1    3    3    0  502  0.65356696988E+03  0.78925264183E+03 -0.54869798445E+02  0.10262077283E+04  0.46999998093E+01 0. -1.
</event>
<event>
 5   0  0.4050368E-05  0.2039001E+04  0.7818609E-02  0.8588600E-01
       -1   -1    0    0    0  501  0.00000000000E+00  0.00000000000E+00  0.51459150355E+03  0.51459150358E+03  0.50400001928E-02 0.  1.
        1   -1    0    0  501    0  0.00000000000E+00  0.00000000000E+00 -0.20198183900E+04  0.20198183900E+04  0.50400001928E-02 0. -1.
    10030    2    1    2    0    0  0.00000000000E+00  0.00000000000E+00 -0.15052268864E+04  0.25344098935E+04  0.20390011106E+04 0.  0.
        2    1    3    3  502    0 -0.76845410080E+03  0.58570854731E+03 -0.11569219205E+04  0.15073302683E+04  0.25500000920E-02 0. -1.
       -2    1    3    3    0  502  0.76845410080E+03 -0.58570854731E+03 -0.34830496589E+03  0.10270796253E+04  0.25500000920E-02 0.  1.
</event>
<event>
 5   0  0.8872777E-05  0.2091344E+04  0.7818609E-02  0.8565066E-01
        2   -1    0    0  501    0  0.00000000000E+00  0.00000000000E+00  0.18297847423E+04  0.18297847423E+04  0.25500000920E-02 0. -1.
       -2   -1    0    0    0  501  0.00000000000E+00  0.00000000000E+00 -0.59757314475E+03  0.59757314475E+03  0.25500000920E-02 0.  1.
    10030    2    1    2    0    0  0.00000000000E+00  0.00000000000E+00  0.12322115976E+04  0.24273578871E+04  0.20913442784E+04 0.  0.
        3    1    3    3  502    0 -0.57253745300E+03 -0.85433022714E+03  0.83556410117E+03  0.13250836387E+04  0.10100000352E+00 0.  1.
       -3    1    3    3    0  502  0.57253745300E+03  0.85433022714E+03  0.39664749638E+03  0.11022742484E+04  0.10100000352E+00 0. -1.
</event>
<event>
 5   0  0.9012466E-05  0.2079978E+04  0.7818609E-02  0.8570115E-01
        2   -1    0    0  501    0  0.00000000000E+00  0.00000000000E+00  0.16435262630E+04  0.16435262630E+04  0.25500000920E-02 0. -1.
       -2   -1    0    0    0  501  0.00000000000E+00  0.00000000000E+00 -0.65808318536E+03  0.65808318536E+03  0.25500000920E-02 0.  1.
    10030    2    1    2    0    0  0.00000000000E+00  0.00000000000E+00  0.98544307762E+03  0.23016094483E+04  0.20799778829E+04 0.  0.
        2    1    3    3  502    0 -0.56386666684E+03 -0.43484412930E+03  0.13314739697E+04  0.15099198545E+04  0.25500000920E-02 0. -1.
       -2    1    3    3    0  502  0.56386666684E+03  0.43484412930E+03 -0.34603089213E+03  0.79168959389E+03  0.25500000920E-02 0.  1.
</event>
<event>
 5   0  0.8858590E-05  0.2094647E+04  0.7818609E-02  0.8563605E-01
       -2   -1    0    0    0  501  0.00000000000E+00  0.00000000000E+00  0.16491386903E+04  0.16491386903E+04  0.25500000920E-02 0.  1.
        2   -1    0    0  501    0  0.00000000000E+00  0.00000000000E+00 -0.66512679310E+03  0.66512679311E+03  0.25500000920E-02 0. -1.
    10030    2    1    2    0    0  0.00000000000E+00  0.00000000000E+00  0.98401189716E+03  0.23142654834E+04  0.20946468232E+04 0.  0.
        1    1    3    3  502    0 -0.88271974903E+03  0.38557057650E+03  0.94624143453E+03  0.13502709644E+04  0.50400001928E-02 0.  1.
       -1    1    3    3    0  502  0.88271974903E+03 -0.38557057650E+03  0.37770462629E+02  0.96399451900E+03  0.50400001928E-02 0. -1.
</event>
<event>
 5   0  0.4050368E-05  0.2107119E+04  0.7818609E-02  0.8558114E-01
        1   -1    0    0  501    0  0.00000000000E+00  0.00000000000E+00  0.14386801764E+04  0.14386801765E+04  0.50400001928E-02 0. -1.
       -1   -1    0    0    0  501  0.00000000000E+00  0.00000000000E+00 -0.77153156550E+03  0.77153156552E+03  0.50400001928E-02 0.  1.
    10030    2    1    2    0    0  0.00000000000E+00  0.00000000000E+00  0.66714861094E+03  0.22102117420E+04  0.21071185717E+04 0.  0.
        2    1    3    3  502    0  0.15568861352E+03 -0.86919460887E+03 -0.26921513221E+03  0.92315491651E+03  0.25500000920E-02 0.  1.
       -2    1    3    3    0  502 -0.15568861352E+03  0.86919460887E+03  0.93636374315E+03  0.12870568255E+04  0.25500000920E-02 0. -1.
</event>
<event>
 5   0  0.8547605E-05  0.2107670E+04  0.7818609E-02  0.8557872E-01
        2   -1    0    0  501    0  0.00000000000E+00  0.00000000000E+00  0.10065603771E+04  0.10065603771E+04  0.25500000920E-02 0.  1.
       -2   -1    0    0    0  501  0.00000000000E+00  0.00000000000E+00 -0.11033294786E+04  0.11033294786E+04  0.25500000920E-02 0. -1.
    10030    2    1    2    0    0  0.00000000000E+00  0.00000000000E+00 -0.96769101474E+02  0.21098898557E+04  0.21076695529E+04 0.  0.
        4    1    3    3  502    0  0.51877180052E+03  0.21468266218E+03 -0.94114985742E+03  0.10958911869E+04  0.12699999809E+01 0. -1.
       -4    1    3    3    0  502 -0.51877180052E+03 -0.21468266218E+03  0.84438075594E+03  0.10139986688E+04  0.12699999809E+01 0.  1.
</event>
<event>
 5   0  0.4182977E-05  0.2076239E+04  0.7818609E-02  0.8571783E-01
       -1   -1    0    0    0  501  0.00000000000E+00  0.00000000000E+00  0.67593993743E+03  0.67593993745E+03  0.50400001928E-02 0. -1.
        1   -1    0    0  501    0  0.00000000000E+00  0.00000000000E+00 -0.15943614715E+04  0.15943614715E+04  0.50400001928E-02 0.  1.
    10030    2    1    2    0    0  0.00000000000E+00  0.00000000000E+00 -0.91842153403E+03  0.22703014089E+04  0.20762394788E+04 0.  0.
        1    1    3    3  502    0 -0.90042991990E+03  0.47437916462E+03 -0.23542896763E+03  0.10446226263E+04  0.50400001928E-02 0. -1.
       -1    1    3    3    0  502  0.90042991990E+03 -0.47437916462E+03 -0.68299256640E+03  0.12256787827E+04  0.50400001928E-02 0.  1.
</event>
<event>
 5   0  0.4200061E-05  0.2088465E+04  0.7818609E-02  0.8566342E-01
        1   -1    0    0  501    0  0.00000000000E+00  0.00000000000E+00  0.80537734294E+03  0.80537734295E+03  0.50400001928E-02 0.  1.
       -1   -1    0    0    0  501  0.00000000000E+00  0.00000000000E+00 -0.13539263961E+04  0.13539263961E+04  0.50400001928E-02 0. -1.
    10030    2    1    2    0    0  0.00000000000E+00  0.00000000000E+00 -0.54854905312E+03  0.21593037390E+04  0.20884651239E+04 0.  0.
        4    1    3    3  502    0  0.18101129087E+03  0.98258048739E+03  0.39653191266E+02  0.99990174022E+03  0.12699999809E+01 0.  1.
       -4    1    3    3    0  502 -0.18101129087E+03 -0.98258048739E+03 -0.58820224439E+03  0.11594019988E+04  0.12699999809E+01 0. -1.
</event>
<event>
 5   0  0.8872777E-05  0.2072758E+04  0.7818609E-02  0.8573340E-01
       -2   -1    0    0    0  501  0.00000000000E+00  0.00000000000E+00  0.11037257096E+04  0.11037257096E+04  0.25500000920E-02 0. -1.
        2   -1    0    0  501    0  0.00000000000E+00  0.00000000000E+00 -0.97314128384E+03  0.97314128385E+03  0.25500000920E-02 0.  1.
    10030    2    1    2    0    0  0.00000000000E+00  0.00000000000E+00  0.13058442580E+03  0.20768669935E+04  0.20727576357E+04 0.  0.
        3    1    3    3  502    0 -0.73428911510E+03  0.14459364476E+03 -0.65306234999E+03  0.99326646467E+03  0.10100000352E+00 0.  1.
       -3    1    3    3    0  502  0.73428911510E+03 -0.14459364476E+03  0.78364677579E+03  0.10836005288E+04  0.10100000352E+00 0. -1.
</event>
<event>
 5   0  0.4128678E-05  0.2044827E+04  0.7818609E-02  0.8585944E-01
        1   -1    0    0  501    0  0.00000000000E+00  0.00000000000E+00  0.16082432306E+04  0.16082432306E+04  0.50400001928E-02 0. -1.
       -1   -1    0    0    0  501  0.00000000000E+00  0.00000000000E+00 -0.64998244674E+03  0.64998244676E+03  0.50400001928E-02 0.  1.
    10030    2    1    2    0    0  0.00000000000E+00  0.00000000000E+00  0.95826078382E+03  0.22582256773E+04  0.20448274939E+04 0.  0.
        5    1    3    3  502    0  0.59500860278E+03 -0.33731952434E+03  0.13183626678E+04  0.14852346323E+04  0.46999998093E+01 0. -1.
       -5    1    3    3    0  502 -0.59500860278E+03  0.33731952434E+03 -0.36010188403E+03  0.77299104507E+03  0.46999998093E+01 0.  1.
</event>
<event>
 5   0  0.8872777E-05  0.2105057E+04  0.7818609E-02  0.8559019E-01
       -2   -1    0    0    0  501  0.00000000000E+00  0.00000000000E+00  0.72269728937E+03  0.72269728937E+03  0.25500000920E-02 0. -1.
        2   -1    0    0  501    0  0.00000000000E+00  0.00000000000E+00 -0.15328904205E+04  0.15328904205E+04  0.25500000920E-02 0.  1.
    10030    2    1    2    0    0  0.00000000000E+00  0.00000000000E+00 -0.81019313109E+03  0.22555877098E+04  0.21050565330E+04 0.  0.
        3    1    3    3  502    0  0.59109988491E+03 -0.33323999389E+03  0.45703092605E+03  0.81812300117E+03  0.10100000352E+00 0. -1.
       -3    1    3    3    0  502 -0.59109988491E+03  0.33323999389E+03 -0.12672240571E+04  0.14374647087E+04  0.10100000352E+00 0.  1.
</event>
<event>
 5   0  0.4200061E-05  0.2093875E+04  0.7818609E-02  0.8563946E-01
       -1   -1    0    0    0  501  0.00000000000E+00  0.00000000000E+00  0.92164580315E+03  0.92164580316E+03  0.50400001928E-02 0.  1.
        1   -1    0    0  501    0  0.00000000000E+00  0.00000000000E+00 -0.11892618490E+04  0.11892618490E+04  0.50400001928E-02 0. -1.
    10030    2    1    2    0    0  0.00000000000E+00  0.00000000000E+00 -0.26761604585E+03  0.21109076522E+04  0.20938750603E+04 0.  0.
        4    1    3    3  502    0 -0.76778940073E+03  0.68371298322E+03  0.65569711567E+02  0.10301771728E+04  0.12699999809E+01 0.  1.
       -4    1    3    3    0  502  0.76778940073E+03 -0.68371298322E+03 -0.33318575741E+03  0.10807304794E+04  0.12699999809E+01 0. -1.
</event>
<event>
 5   0  0.4128678E-05  0.2086548E+04  0.7818609E-02  0.8567193E-01
        1   -1    0    0  501    0  0.00000000000E+00  0.00000000000E+00  0.10681833923E+04  0.10681833923E+04  0.50400001928E-02 0.  1.
       -1   -1    0    0    0  501  0.00000000000E+00  0.00000000000E+00 -0.10189450262E+04  0.10189450262E+04  0.50400001928E-02 0. -1.
    10030    2    1    2    0    0  0.00000000000E+00  0.00000000000E+00  0.49238366060E+02  0.20871284185E+04  0.20865475357E+04 0.  0.
        5    1    3    3  502    0  0.32239692341E+03 -0.58005394802E+03 -0.78058672391E+03  0.10245682419E+04  0.46999998093E+01 0. -1.
       -5    1    3    3    0  502 -0.32239692341E+03  0.58005394802E+03  0.82982508997E+03  0.10625601765E+04  0.46999998093E+01 0.  1.
</event>
<event>
 5   0  0.8872777E-05  0.2110353E+04  0.7818609E-02  0.8556696E-01
        2   -1    0    0  501    0  0.00000000000E+00  0.00000000000E+00  0.10706942192E+04  0.10706942192E+04  0.25500000920E-02 0.  1.
       -2   -1    0    0    0  501  0.00000000000E+00  0.00000000000E+00 -0.10398837011E+04  0.10398837011E+04  0.25500000920E-02 0. -1.
    10030    2    1    2    0    0  0.00000000000E+00  0.00000000000E+00  0.30810518080E+02  0.21105779202E+04  0.21103530201E+04 0.  0.
        3    1    3    3  502    0  0.31213012373E+03  0.23794916947E+03  0.99497502321E+03  0.10695888595E+04  0.10100000352E+00 0.  1.
       -3    1    3    3    0  502 -0.31213012373E+03 -0.23794916947E+03 -0.96416450513E+03  0.10409890607E+04  0.10100000352E+00 0. -1.
</event>
<event>
 5   0  0.4182977E-05  0.2078215E+04  0.7818609E-02  0.8570901E-01
       -1   -1    0    0    0  501  0.00000000000E+00  0.00000000000E+00  0.11225646347E+04  0.11225646347E+04  0.50400001928E-02 0.  1.
        1   -1    0    0  501    0  0.00000000000E+00  0.00000000000E+00 -0.96185495176E+03  0.96185495177E+03  0.50400001928E-02 0. -1.
    10030    2    1    2    0    0  0.00000000000E+00  0.00000000000E+00  0.16070968294E+03  0.20844195865E+04  0.20782149577E+04 0.  0.
        1    1    3    3  502    0  0.56042557324E+03 -0.83845757690E+03  0.33141481090E+03  0.10615666292E+04  0.50400001928E-02 0.  1.
       -1    1    3    3    0  502 -0.56042557324E+03  0.83845757690E+03 -0.17070512796E+03  0.10228529572E+04  0.50400001928E-02 0. -1.
</event>
<event>
 5   0  0.9086985E-05  0.1723430E+04  0.7818609E-02  0.8748113E-01
       -2   -1    0    0    0  501  0.00000000000E+00  0.00000000000E+00  0.10774788395E+04  0.10774788395E+04  0.25500000920E-02 0.  1.
        2   -1    0    0  501    0  0.00000000000E+00  0.00000000000E+00 -0.68915778486E+03  0.68915778487E+03  0.25500000920E-02 0. -1.
    10030    2    1    2    0    0  0.00000000000E+00  0.00000000000E+00  0.38832105467E+03  0.17666366244E+04  0.17234302194E+04 0.  0.
        5    1    3    3  502    0  0.11371131229E+03 -0.82867074187E+03  0.40648956858E+03  0.92998995712E+03  0.46999998093E+01 0.  1.
       -5    1    3    3    0  502 -0.11371131229E+03  0.82867074187E+03 -0.18168513910E+02  0.83664666728E+03  0.46999998093E+01 0. -1.
</event>
<event>
 5   0  0.4050368E-05  0.1906201E+04  0.7818609E-02  0.8651776E-01
       -1   -1    0    0    0  501  0.00000000000E+00  0.00000000000E+00  0.84183533606E+03  0.84183533608E+03  0.50400001928E-02 0.  1.
        1   -1    0    0  501    0  0.00000000000E+00  0.00000000000E+00 -0.10790719586E+04  0.10790719586E+04  0.50400001928E-02 0. -1.
    10030    2    1    2    0    0  0.00000000000E+00  0.00000000000E+00 -0.23723662250E+03  0.19209072946E+04  0.19062013586E+04 0.  0.
        2    1    3    3  502    0  0.84638102342E+02  0.47950234156E+03  0.70704073256E+03  0.85848279041E+03  0.25500000920E-02 0.  1.
       -2    1    3    3    0  502 -0.84638102342E+02 -0.47950234156E+03 -0.94427735506E+03  0.10624245042E+04  0.25500000920E-02 0. -1.
</event>
<event>
 5   0  0.4174093E-05  0.2096604E+04  0.7818609E-02  0.8562741E-01
        1   -1    0    0  501    0  0.00000000000E+00  0.00000000000E+00  0.11806586568E+04  0.11806586568E+04  0.50400001928E-02 0.  1.
       -1   -1    0    0    0  501  0.00000000000E+00  0.00000000000E+00 -0.93078285165E+03  0.93078285166E+03  0.50400001928E-02 0. -1.
    10030    2    1    2    0    0  0.00000000000E+00  0.00000000000E+00  0.24987580512E+03  0.21114415084E+04  0.20966037598E+04 0.  0.
        3    1    3    3  502    0 -0.65805641747E+03  0.65719872198E+03  0.61208472063E+03  0.11133715122E+04  0.10100000352E+00 0.  1.
       -3    1    3    3    0  502  0.65805641747E+03 -0.65719872198E+03 -0.36220891551E+03  0.99806999625E+03  0.10100000352E+00 0. -1.
</event>
<event>
 5   0  0.4128678E-05  0.2122380E+04  0.7818609E-02  0.8551448E-01
       -1   -1    0    0    0  501  0.00000000000E+00  0.00000000000E+00  0.15302866167E+04  0.15302866167E+04  0.50400001928E-02 0. -1.
        1   -1    0    0  501    0  0.00000000000E+00  0.00000000000E+00 -0.73589129592E+03  0.73589129593E+03  0.50400001928E-02 0.  1.
    10030    2    1    2    0    0  0.00000000000E+00  0.00000000000E+00  0.79439532081E+03  0.22661779127E+04  0.21223803632E+04 0.  0.
        5    1    3    3  502    0 -0.12200754171E+03 -0.71321785589E+03  0.12260222553E+04  0.14236285368E+04  0.46999998093E+01 0. -1.
       -5    1    3    3    0  502  0.12200754171E+03  0.71321785589E+03 -0.43162693452E+03  0.84254937588E+03  0.46999998093E+01 0.  1.
</event>
<event>
 5   0  0.9012466E-05  0.2058182E+04  0.7818609E-02  0.8579892E-01
       -2   -1    0    0    0  501  0.00000000000E+00  0.00000000000E+00  0.56622335137E+03  0.56622335138E+03  0.25500000920E-02 0.  1.
        2   -1    0    0  501    0  0.00000000000E+00  0.00000000000E+00 -0.18703359542E+04  0.18703359542E+04  0.25500000920E-02 0. -1.
    10030    2    1    2    0    0  0.00000000000E+00  0.00000000000E+00 -0.13041126028E+04  0.24365593056E+04  0.20581816171E+04 0.  0.
        2    1    3    3  502    0 -0.45989673693E+03  0.80812602616E+03 -0.11740954621E+04  0.14976891656E+04  0.25500000920E-02 0. -1.
       -2    1    3    3    0  502  0.45989673693E+03 -0.80812602616E+03 -0.13001714076E+03  0.93887013995E+03  0.25500000920E-02 0.  1.
</event>
<event>
 5   0  0.8858590E-05  0.2088545E+04  0.7818609E-02  0.8566306E-01
       -2   -1    0    0    0  501  0.00000000000E+00  0.00000000000E+00  0.61434581461E+03  0.61434581461E+03  0.25500000920E-02 0.  1.
        2   -1    0    0  501    0  0.00000000000E+00  0.00000000000E+00 -0.17750676101E+04  0.17750676101E+04  0.25500000920E-02 0. -1.
    10030    2    1    2    0    0  0.00000000000E+00  0.00000000000E+00 -0.11607217955E+04  0.23894134247E+04  0.20885452898E+04 0.  0.
        1    1    3    3  502    0  0.11825196784E+02 -0.58133396669E+03 -0.15727374894E+04  0.16767803156E+04  0.50400001928E-02 0. -1.
       -1    1    3    3    0  502 -0.11825196784E+02  0.58133396669E+03  0.41201569395E+03  0.71263310910E+03  0.50400001928E-02 0.  1.
</event>
<event>
 5   0  0.4182977E-05  0.2095811E+04  0.7818609E-02  0.8563091E-01
       -1   -1    0    0    0  501  0.00000000000E+00  0.00000000000E+00  0.96333380285E+03  0.96333380286E+03  0.50400001928E-02 0. -1.
        1   -1    0    0  501    0  0.00000000000E+00  0.00000000000E+00 -0.11399016779E+04  0.11399016780E+04  0.50400001928E-02 0.  1.
    10030    2    1    2    0    0  0.00000000000E+00  0.00000000000E+00 -0.17656787510E+03  0.21032354808E+04  0.20958108868E+04 0.  0.
        1    1    3    3  502    0 -0.69843056209E+03  0.77504825126E+03  0.10046729772E+02  0.10433628221E+04  0.50400001928E-02 0. -1.
       -1    1    3    3    0  502  0.69843056209E+03 -0.77504825126E+03 -0.18661460487E+03  0.10598726587E+04  0.50400001928E-02 0.  1.
</event>
<event>
 5   0  0.4174093E-05  0.2077573E+04  0.7818609E-02  0.8571188E-01
        1   -1    0    0  501    0  0.00000000000E+00  0.00000000000E+00  0.16454003112E+04  0.16454003112E+04  0.50400001928E-02 0. -1.
       -1   -1    0    0    0  501  0.00000000000E+00  0.00000000000E+00 -0.65581421082E+03  0.65581421084E+03  0.50400001928E-02 0.  1.
    10030    2    1    2    0    0  0.00000000000E+00  0.00000000000E+00  0.98958610039E+03  0.23012145221E+04  0.20775725322E+04 0.  0.
        3    1    3    3  502    0  0.40697050765E+03 -0.80810709263E+03  0.10600341944E+04  0.13936766378E+04  0.10100000352E+00 0. -1.
       -3    1    3    3    0  502 -0.40697050765E+03  0.80810709263E+03 -0.70448093985E+02  0.90753788428E+03  0.10100000352E+00 0.  1.
</event>
<event>
 5   0  0.4174093E-05  0.2094163E+04  0.7818609E-02  0.8563819E-01
       -1   -1    0    0    0  501  0.00000000000E+00  0.00000000000E+00  0.18115115095E+04  0.18115115095E+04  0.50400001928E-02 0. -1.
        1   -1    0    0  501    0  0.00000000000E+00  0.00000000000E+00 -0.60522892838E+03  0.60522892840E+03  0.50400001928E-02 0.  1.
    10030    2    1    2    0    0  0.00000000000E+00  0.00000000000E+00  0.12062825811E+04  0.24167404379E+04  0.20941625244E+04 0.  0.
        3    1    3    3  502    0 -0.81379467524E+03 -0.56149516138E+03  0.10009753745E+04  0.14069436024E+04  0.10100000352E+00 0. -1.
       -3    1    3    3    0  502  0.81379467524E+03  0.56149516138E+03  0.20530720658E+03  0.10097968355E+04  0.10100000352E+00 0.  1.
</event>
<event>
 5   0  0.4050368E-05  0.2095095E+04  0.7818609E-02  0.8563407E-01
        1   -1    0    0  501    0  0.00000000000E+00  0.00000000000E+00  0.10063286918E+04  0.10063286918E+04  0.50400001928E-02 0.  1.
       -1   -1    0    0    0  501  0.00000000000E+00  0.00000000000E+00 -0.10904549574E+04  0.10904549574E+04  0.50400001928E-02 0. -1.
    10030    2    1    2    0    0  0.00000000000E+00  0.00000000000E+00 -0.84126265607E+02  0.20967836492E+04  0.20950953303E+04 0.  0.
        2    1    3    3  502    0 -0.56737245703E+02 -0.38816658232E+02  0.10040687662E+04  0.10064193636E+04  0.25500000920E-02 0.  1.
       -2    1    3    3    0  502  0.56737245703E+02  0.38816658232E+02 -0.10881950318E+04  0.10903642856E+04  0.25500000920E-02 0. -1.
</event>
<event>
 5   0  0.8858590E-05  0.2225213E+04  0.7818609E-02  0.8508007E-01
        2   -1    0    0  501    0  0.00000000000E+00  0.00000000000E+00  0.11946058396E+04  0.11946058396E+04  0.25500000920E-02 0. -1.
       -2   -1    0    0    0  501  0.00000000000E+00  0.00000000000E+00 -0.10362356337E+04  0.10362356337E+04  0.25500000920E-02 0.  1.
    10030    2    1    2    0    0  0.00000000000E+00  0.00000000000E+00  0.15837020587E+03  0.22308414733E+04  0.22252129240E+04 0.  0.
        1    1    3    3  502    0  0.16352783795E+03 -0.10331793464E+04  0.45921150412E+03  0.11423992827E+04  0.50400001928E-02 0. -1.
       -1    1    3    3    0  502 -0.16352783795E+03  0.10331793464E+04 -0.30084129825E+03  0.10884421906E+04  0.50400001928E-02 0.  1.
</event>
<event>
 5   0  0.8872777E-05  0.2059922E+04  0.7818609E-02  0.8579107E-01
        2   -1    0    0  501    0  0.00000000000E+00  0.00000000000E+00  0.19913689599E+04  0.19913689599E+04  0.25500000920E-02 0.  1.
       -2   -1    0    0    0  501  0.00000000000E+00  0.00000000000E+00 -0.53270852476E+03  0.53270852477E+03  0.25500000920E-02 0. -1.
    10030    2    1    2    0    0  0.00000000000E+00  0.00000000000E+00  0.14586604351E+04  0.25240774846E+04  0.20599215722E+04 0.  0.
        3    1    3    3  502    0 -0.71551202466E+03 -0.69072911752E+03  0.10575601632E+04  0.14517223151E+04  0.10100000352E+00 0.  1.
       -3    1    3    3    0  502  0.71551202466E+03  0.69072911752E+03  0.40110027185E+03  0.10723551695E+04  0.10100000352E+00 0. -1.
</event>
<event>
 5   0  0.4174093E-05  0.1899075E+04  0.7818609E-02  0.8655317E-01
        1   -1    0    0  501    0  0.00000000000E+00  0.00000000000E+00  0.91665134981E+03  0.91665134982E+03  0.50400001928E-02 0.  1.
       -1   -1    0    0    0  501  0.00000000000E+00  0.00000000000E+00 -0.98360364774E+03  0.98360364776E+03  0.50400001928E-02 0. -1.
    10030    2    1    2    0    0  0.00000000000E+00  0.00000000000E+00 -0.66952297934E+02  0.19002549976E+04  0.18990751553E+04 0.  0.
        3    1    3    3  502    0 -0.56988706208E+02 -0.93214192740E+03 -0.20529571696E+03  0.95618127311E+03  0.10100000352E+00 0. -1.
       -3    1    3    3    0  502  0.56988706208E+02  0.93214192740E+03  0.13834341902E+03  0.94407372447E+03  0.10100000352E+00 0.  1.
</event>
<event>
 5   0  0.8547605E-05  0.1799385E+04  0.7818609E-02  0.8706626E-01
        2   -1    0    0  501    0  0.00000000000E+00  0.00000000000E+00  0.62834202804E+03  0.62834202805E+03  0.25500000920E-02 0.  1.
       -2   -1    0    0    0  501  0.00000000000E+00  0.00000000000E+00 -0.12882265048E+04  0.12882265048E+04  0.25500000920E-02 0. -1.
    10030    2    1    2    0    0  0.00000000000E+00  0.00000000000E+00 -0.65988447678E+03  0.19165685329E+04  0.17993852891E+04 0.  0.
        4    1    3    3  502    0 -0.53991563275E+03  0.71515802033E+03 -0.41571850468E+03  0.98781747938E+03  0.12699999809E+01 0.  1.
       -4    1    3    3    0  502  0.53991563275E+03 -0.71515802033E+03 -0.24416597210E+03  0.92875105349E+03  0.12699999809E+01 0. -1.
</event>
<event>
 5   0  0.4174093E-05  0.2097554E+04  0.7818609E-02  0.8562322E-01
       -1   -1    0    0    0  501  0.00000000000E+00  0.00000000000E+00  0.12298536851E+04  0.12298536851E+04  0.50400001928E-02 0.  1.
        1   -1    0    0  501    0  0.00000000000E+00  0.00000000000E+00 -0.89436123512E+03  0.89436123513E+03  0.50400001928E-02 0. -1.
    10030    2    1    2    0    0  0.00000000000E+00  0.00000000000E+00  0.33549244994E+03  0.21242149202E+04  0.20975542527E+04 0.  0.
        3    1    3    3  502    0  0.40713076769E+03  0.20662181641E+03  0.11239322085E+04  0.12131247490E+04  0.10100000352E+00 0.  1.
       -3    1    3    3    0  502 -0.40713076769E+03 -0.20662181641E+03 -0.78843975857E+03  0.91109017123E+03  0.10100000352E+00 0. -1.
</event>
<event>
 5   0  0.4174093E-05  0.2052038E+04  0.7818609E-02  0.8582670E-01
        1   -1    0    0  501    0  0.00000000000E+00  0.00000000000E+00  0.18940388785E+04  0.18940388785E+04  0.50400001928E-02 0.  1.
       -1   -1    0    0    0  501  0.00000000000E+00  0.00000000000E+00 -0.55580434584E+03  0.55580434586E+03  0.50400001928E-02 0. -1.
    10030    2    1    2    0    0  0.00000000000E+00  0.00000000000E+00  0.13382345327E+04  0.24498432244E+04  0.20520380502E+04 0.  0.
        3    1    3    3  502    0 -0.11808555067E+03  0.97582463092E+01 -0.54760890626E+03  0.56028113039E+03  0.10100000352E+00 0. -1.
       -3    1    3    3    0  502  0.11808555067E+03 -0.97582463092E+01  0.18858434389E+04  0.18895620940E+04  0.10100000352E+00 0.  1.
</event>
<event>
 5   0  0.8872777E-05  0.2323659E+04  0.7818609E-02  0.8468651E-01
        2   -1    0    0  501    0  0.00000000000E+00  0.00000000000E+00  0.17739580671E+04  0.17739580671E+04  0.25500000920E-02 0.  1.
       -2   -1    0    0    0  501  0.00000000000E+00  0.00000000000E+00 -0.76092434848E+03  0.76092434849E+03  0.25500000920E-02 0. -1.
    10030    2    1    2    0    0  0.00000000000E+00  0.00000000000E+00  0.10130337187E+04  0.25348824156E+04  0.23236590856E+04 0.  0.
        3    1    3    3  502    0 -0.10626888700E+04 -0.43499827016E+03  0.69956860287E+03  0.13445918971E+04  0.10100000352E+00 0.  1.
       -3    1    3    3    0  502  0.10626888700E+04  0.43499827016E+03  0.31346511579E+03  0.11902905185E+04  0.10100000352E+00 0. -1.
</event>
<event>
 5   0  0.4200061E-05  0.2099903E+04  0.7818609E-02  0.8561286E-01
        1   -1    0    0  501    0  0.00000000000E+00  0.00000000000E+00  0.26091714107E+04  0.26091714107E+04  0.50400001928E-02 0.  1.
       -1   -1    0    0    0  501  0.00000000000E+00  0.00000000000E+00 -0.42250880919E+03  0.42250880922E+03  0.50400001928E-02 0. -1.
    10030    2    1    2    0    0  0.00000000000E+00  0.00000000000E+00  0.21866626015E+04  0.30316802199E+04  0.20999027651E+04 0.  0.
        4    1    3    3  502    0  0.71322151058E+03 -0.76302539744E+03  0.12481777775E+04  0.16275263615E+04  0.12699999809E+01 0.  1.
       -4    1    3    3    0  502 -0.71322151058E+03  0.76302539744E+03  0.93848482404E+03  0.14041538584E+04  0.12699999809E+01 0. -1.
</event>
<event>
 5   0  0.4174093E-05  0.2151626E+04  0.7818609E-02  0.8538837E-01
        1   -1    0    0  501    0  0.00000000000E+00  0.00000000000E+00  0.17037891630E+04  0.17037891630E+04  0.50400001928E-02 0.  1.
       -1   -1    0    0    0  501  0.00000000000E+00  0.00000000000E+00 -0.67929360548E+03  0.67929360549E+03  0.50400001928E-02 0. -1.
    10030    2    1    2    0    0  0.00000000000E+00  0.00000000000E+00  0.10244955575E+04  0.23830827685E+04  0.21516255097E+04 0.  0.
        3    1    3    3  502    0  0.69148942092E+03 -0.36791183776E+03  0.13290455369E+04  0.15426855768E+04  0.10100000352E+00 0.  1.
       -3    1    3    3    0  502 -0.69148942092E+03  0.36791183776E+03 -0.30454997939E+03  0.84039719166E+03  0.10100000352E+00 0. -1.
</event>
<event>
 5   0  0.9012466E-05  0.2111534E+04  0.7818609E-02  0.8556180E-01
       -2   -1    0    0    0  501  0.00000000000E+00  0.00000000000E+00  0.12489560654E+04  0.12489560654E+04  0.25500000920E-02 0. -1.
        2   -1    0    0  501    0  0.00000000000E+00  0.00000000000E+00 -0.89246042412E+03  0.89246042412E+03  0.25500000920E-02 0.  1.
    10030    2    1    2    0    0  0.00000000000E+00  0.00000000000E+00  0.35649564124E+03  0.21414164895E+04  0.21115339067E+04 0.  0.
        2    1    3    3  502    0 -0.15823107773E+03  0.42045381912E+03 -0.79069228942E+03  0.90940243265E+03  0.25500000920E-02 0.  1.
       -2    1    3    3    0  502  0.15823107773E+03 -0.42045381912E+03  0.11471879307E+04  0.12320140568E+04  0.25500000920E-02 0. -1.
</event>
<event>
 5   0  0.4200061E-05  0.2121508E+04  0.7818609E-02  0.8551828E-01
        1   -1    0    0  501    0  0.00000000000E+00  0.00000000000E+00  0.91165551456E+03  0.91165551457E+03  0.50400001928E-02 0. -1.
       -1   -1    0    0    0  501  0.00000000000E+00  0.00000000000E+00 -0.12342367463E+04  0.12342367463E+04  0.50400001928E-02 0.  1.
    10030    2    1    2    0    0  0.00000000000E+00  0.00000000000E+00 -0.32258123169E+03  0.21458922608E+04  0.21215077054E+04 0.  0.
        4    1    3    3  502    0 -0.77385946501E+03  0.44566374008E+03 -0.74034108506E+03  0.11599918862E+04  0.12699999809E+01 0.  1.
       -4    1    3    3    0  502  0.77385946501E+03 -0.44566374008E+03  0.41775985337E+03  0.98590037468E+03  0.12699999809E+01 0. -1.
</event>
<event>
 5   0  0.8858590E-05  0.2207940E+04  0.7818609E-02  0.8515131E-01
       -2   -1    0    0    0  501  0.00000000000E+00  0.00000000000E+00  0.63480862788E+03  0.63480862788E+03  0.25500000920E-02 0.  1.
        2   -1    0    0  501    0  0.00000000000E+00  0.00000000000E+00 -0.19198697033E+04  0.19198697033E+04  0.25500000920E-02 0. -1.
    10030    2    1    2    0    0  0.00000000000E+00  0.00000000000E+00 -0.12850610754E+04  0.25546783311E+04  0.22079400825E+04 0.  0.
        1    1    3    3  502    0 -0.18198067613E+03  0.86750399987E+02  0.61332983116E+03  0.64561294922E+03  0.50400001928E-02 0.  1.
       -1    1    3    3    0  502  0.18198067613E+03 -0.86750399987E+02 -0.18983909065E+04  0.19090653819E+04  0.50400001928E-02 0. -1.
</event>
<event>
 5   0  0.4050368E-05  0.2070241E+04  0.7818609E-02  0.8574467E-01
        1   -1    0    0  501    0  0.00000000000E+00  0.00000000000E+00  0.10395601049E+04  0.10395601049E+04  0.50400001928E-02 0.  1.
       -1   -1    0    0    0  501  0.00000000000E+00  0.00000000000E+00 -0.10307000083E+04  0.10307000083E+04  0.50400001928E-02 0. -1.
    10030    2    1    2    0    0  0.00000000000E+00  0.00000000000E+00  0.88600965835E+01  0.20702601132E+04  0.20702411539E+04 0.  0.
        2    1    3    3  502    0 -0.55487214453E+03  0.85973235196E+03  0.16080217770E+03  0.10357992827E+04  0.25500000920E-02 0. -1.
       -2    1    3    3    0  502  0.55487214453E+03 -0.85973235196E+03 -0.15194208112E+03  0.10344608305E+04  0.25500000920E-02 0.  1.
</event>
<event>
 5   0  0.4200061E-05  0.2099042E+04  0.7818609E-02  0.8561665E-01
        1   -1    0    0  501    0  0.00000000000E+00  0.00000000000E+00  0.17404673093E+04  0.17404673093E+04  0.50400001928E-02 0.  1.
       -1   -1    0    0    0  501  0.00000000000E+00  0.00000000000E+00 -0.63287284941E+03  0.63287284943E+03  0.50400001928E-02 0. -1.
    10030    2    1    2    0    0  0.00000000000E+00  0.00000000000E+00  0.11075944599E+04  0.23733401587E+04  0.20990421676E+04 0.  0.
        4    1    3    3  502    0 -0.70097247322E+03  0.35928229889E+03 -0.23041290522E+03  0.82069354713E+03  0.12699999809E+01 0. -1.
       -4    1    3    3    0  502  0.70097247322E+03 -0.35928229889E+03  0.13380073651E+04  0.15526466116E+04  0.12699999809E+01 0.  1.
</event>
<event>
 5   0  0.8872777E-05  0.2161232E+04  0.7818609E-02  0.8534740E-01
       -2   -1    0    0    0  501  0.00000000000E+00  0.00000000000E+00  0.71120739912E+03  0.71120739912E+03  0.25500000920E-02 0. -1.
        2   -1    0    0  501    0  0.00000000000E+00  0.00000000000E+00 -0.16418994590E+04  0.16418994590E+04  0.25500000920E-02 0.  1.
    10030    2    1    2    0    0  0.00000000000E+00  0.00000000000E+00 -0.93069205992E+03  0.23531068582E+04  0.21612320966E+04 0.  0.
        3    1    3    3  502    0  0.55849100421E+03  0.51932835081E+03 -0.12988973842E+04  0.15062365560E+04  0.10100000352E+00 0.  1.
       -3    1    3    3    0  502 -0.55849100421E+03 -0.51932835081E+03  0.36820532424E+03  0.84687030220E+03  0.10100000352E+00 0. -1.
</event>
<event>
 5   0  0.4174093E-05  0.2108063E+04  0.7818609E-02  0.8557700E-01
        1   -1    0    0  501    0  0.00000000000E+00  0.00000000000E+00  0.28612731557E+04  0.28612731557E+04  0.50400001928E-02 0.  1.
       -1   -1    0    0    0  501  0.00000000000E+00  0.00000000000E+00 -0.38828238033E+03  0.38828238036E+03  0.50400001928E-02 0. -1.
    10030    2    1    2    0    0  0.00000000000E+00  0.00000000000E+00  0.24729907754E+04  0.32495555361E+04  0.21080625719E+04 0.  0.
        3    1    3    3  502    0 -0.42593287036E+03 -0.24243636041E+03 -0.20196073686E+03  0.53007768141E+03  0.10100000352E+00 0. -1.
       -3    1    3    3    0  502  0.42593287036E+03  0.24243636041E+03  0.26749515123E+04  0.27194778547E+04  0.10100000352E+00 0.  1.
</event>
<event>
 5   0  0.9012466E-05  0.2114836E+04  0.7818609E-02  0.8554736E-01
        2   -1    0    0  501    0  0.00000000000E+00  0.00000000000E+00  0.20073224077E+04  0.20073224077E+04  0.25500000920E-02 0.  1.
       -2   -1    0    0    0  501  0.00000000000E+00  0.00000000000E+00 -0.55702690084E+03  0.55702690085E+03  0.25500000920E-02 0. -1.
    10030    2    1    2    0    0  0.00000000000E+00  0.00000000000E+00  0.14502955069E+04  0.25643493086E+04  0.21148357665E+04 0.  0.
        2    1    3    3  502    0  0.10267043413E+04 -0.13065347504E+03  0.98785626069E+03  0.14307522940E+04  0.25500000920E-02 0. -1.
       -2    1    3    3    0  502 -0.10267043413E+04  0.13065347504E+03  0.46243924621E+03  0.11335970146E+04  0.25500000920E-02 0.  1.
</event>
<event>
 5   0  0.8872777E-05  0.2079572E+04  0.7818609E-02  0.8570296E-01
       -2   -1    0    0    0  501  0.00000000000E+00  0.00000000000E+00  0.37246820519E+03  0.37246820520E+03  0.25500000920E-02 0. -1.
        2   -1    0    0  501    0  0.00000000000E+00  0.00000000000E+00 -0.29026780499E+04  0.29026780499E+04  0.25500000920E-02 0.  1.
    10030    2    1    2    0    0  0.00000000000E+00  0.00000000000E+00 -0.25302098447E+04  0.32751462551E+04  0.20795723440E+04 0.  0.
        3    1    3    3  502    0 -0.83046165743E+03 -0.62494087647E+03 -0.13133294210E+04  0.16748288993E+04  0.10100000352E+00 0. -1.
       -3    1    3    3    0  502  0.83046165743E+03  0.62494087647E+03 -0.12168804236E+04  0.16003173558E+04  0.10100000352E+00 0.  1.
</event>
<event>
 5   0  0.9012466E-05  0.2097748E+04  0.7818609E-02  0.8562236E-01
       -2   -1    0    0    0  501  0.00000000000E+00  0.00000000000E+00  0.63232242437E+03  0.63232242438E+03  0.25500000920E-02 0. -1.
        2   -1    0    0  501    0  0.00000000000E+00  0.00000000000E+00 -0.17398352317E+04  0.17398352317E+04  0.25500000920E-02 0.  1.
    10030    2    1    2    0    0  0.00000000000E+00  0.00000000000E+00 -0.11075128073E+04  0.23721576561E+04  0.20977481562E+04 0.  0.
        2    1    3    3  502    0  0.50092847811E+03 -0.48602892012E+03 -0.14391055057E+04  0.15994305574E+04  0.25500000920E-02 0.  1.
       -2    1    3    3    0  502 -0.50092847811E+03  0.48602892012E+03  0.33159269840E+03  0.77272709866E+03  0.25500000920E-02 0. -1.
</event>
<event>
 5   0  0.9012466E-05  0.2157440E+04  0.7818609E-02  0.8536354E-01
       -2   -1    0    0    0  501  0.00000000000E+00  0.00000000000E+00  0.10932677053E+04  0.10932677053E+04  0.25500000920E-02 0. -1.
        2   -1    0    0  501    0  0.00000000000E+00  0.00000000000E+00 -0.10643657644E+04  0.10643657644E+04  0.25500000920E-02 0.  1.
    10030    2    1    2    0    0  0.00000000000E+00  0.00000000000E+00  0.28901940883E+02  0.21576334697E+04  0.21574398873E+04 0.  0.
        2    1    3    3  502    0 -0.75621659244E+03 -0.53714828780E+03  0.56517714603E+03  0.10861938244E+04  0.25500000920E-02 0. -1.
       -2    1    3    3    0  502  0.75621659244E+03  0.53714828780E+03 -0.53627520514E+03  0.10714396453E+04  0.25500000920E-02 0.  1.
</event>
<event>
 5   0  0.4128678E-05  0.1994223E+04  0.7818609E-02  0.8609326E-01
        1   -1    0    0  501    0  0.00000000000E+00  0.00000000000E+00  0.21851345160E+04  0.21851345160E+04  0.50400001928E-02 0. -1.
       -1   -1    0    0    0  501  0.00000000000E+00  0.00000000000E+00 -0.45499780318E+03  0.45499780321E+03  0.50400001928E-02 0.  1.
    10030    2    1    2    0    0  0.00000000000E+00  0.00000000000E+00  0.17301367128E+04  0.26401323192E+04  0.19942230612E+04 0.  0.
        5    1    3    3  502    0  0.50525358370E+03  0.84917402489E+03  0.10418540799E+04  0.14359177282E+04  0.46999998093E+01 0. -1.
       -5    1    3    3    0  502 -0.50525358370E+03 -0.84917402489E+03  0.68828263290E+03  0.12042145910E+04  0.46999998093E+01 0.  1.
</event>
<event>
 5   0  0.4200061E-05  0.1982080E+04  0.7818609E-02  0.8615045E-01
        1   -1    0    0  501    0  0.00000000000E+00  0.00000000000E+00  0.95886063090E+03  0.95886063091E+03  0.50400001928E-02 0.  1.
       -1   -1    0    0    0  501  0.00000000000E+00  0.00000000000E+00 -0.10242993084E+04  0.10242993084E+04  0.50400001928E-02 0. -1.
    10030    2    1    2    0    0  0.00000000000E+00  0.00000000000E+00 -0.65438677490E+02  0.19831599393E+04  0.19820799995E+04 0.  0.
        4    1    3    3  502    0  0.74442209755E+03 -0.38497790487E+03 -0.56195594835E+03  0.10090432832E+04  0.12699999809E+01 0. -1.
       -4    1    3    3    0  502 -0.74442209755E+03  0.38497790487E+03  0.49651727086E+03  0.97411665612E+03  0.12699999809E+01 0.  1.
</event>
<event>
 5   0  0.9012466E-05  0.1967674E+04  0.7818609E-02  0.8621885E-01
       -2   -1    0    0    0  501  0.00000000000E+00  0.00000000000E+00  0.41061564690E+03  0.41061564691E+03  0.25500000920E-02 0.  1.
        2   -1    0    0  501    0  0.00000000000E+00  0.00000000000E+00 -0.23572786808E+04  0.23572786808E+04  0.25500000920E-02 0. -1.
    10030    2    1    2    0    0  0.00000000000E+00  0.00000000000E+00 -0.19466630339E+04  0.27678943277E+04  0.19676742723E+04 0.  0.
        2    1    3    3  502    0 -0.12106007626E+03 -0.70935178270E+03 -0.19170681493E+04  0.20476781443E+04  0.25500000920E-02 0. -1.
       -2    1    3    3    0  502  0.12106007626E+03  0.70935178270E+03 -0.29594884655E+02  0.72021618344E+03  0.25500000920E-02 0.  1.
</event>
<event>
 5   0  0.9012466E-05  0.2132413E+04  0.7818609E-02  0.8547098E-01
        2   -1    0    0  501    0  0.00000000000E+00  0.00000000000E+00  0.10161433609E+04  0.10161433609E+04  0.25500000920E-02 0. -1.
       -2   -1    0    0    0  501  0.00000000000E+00  0.00000000000E+00 -0.11187358384E+04  0.11187358384E+04  0.25500000920E-02 0.  1.
    10030    2    1    2    0    0  0.00000000000E+00  0.00000000000E+00 -0.10259247750E+03  0.21348791993E+04  0.21324127132E+04 0.  0.
        2    1    3    3  502    0  0.10137237128E+04  0.28790743835E+03  0.11097002708E+03  0.10596418291E+04  0.25500000920E-02 0. -1.
       -2    1    3    3    0  502 -0.10137237128E+04 -0.28790743835E+03 -0.21356250458E+03  0.10752373703E+04  0.25500000920E-02 0.  1.
</event>
<event>
 5   0  0.3176125E-05  0.2094884E+04  0.7818609E-02  0.8563501E-01
        3   -1    0    0  501    0  0.00000000000E+00  0.00000000000E+00  0.79967369997E+03  0.79967370634E+03  0.10100000352E+00 0.  1.
       -3   -1    0    0    0  501  0.00000000000E+00  0.00000000000E+00 -0.13719775385E+04  0.13719775422E+04  0.10100000352E+00 0. -1.
    10030    2    1    2    0    0  0.00000000000E+00  0.00000000000E+00 -0.57230383854E+03  0.21716512486E+04  0.20948836392E+04 0.  0.
        1    1    3    3  502    0  0.89780480523E+03 -0.52558124801E+03 -0.41245790087E+03  0.11191115389E+04  0.50400001928E-02 0.  1.
       -1    1    3    3    0  502 -0.89780480523E+03  0.52558124801E+03 -0.15984593768E+03  0.10525397096E+04  0.50400001928E-02 0. -1.
</event>
<event>
 5   0  0.8872777E-05  0.2069345E+04  0.7818609E-02  0.8574869E-01
        2   -1    0    0  501    0  0.00000000000E+00  0.00000000000E+00  0.21590884980E+04  0.21590884980E+04  0.25500000920E-02 0. -1.
       -2   -1    0    0    0  501  0.00000000000E+00  0.00000000000E+00 -0.49583281758E+03  0.49583281758E+03  0.25500000920E-02 0.  1.
    10030    2    1    2    0    0  0.00000000000E+00  0.00000000000E+00  0.16632556804E+04  0.26549213156E+04  0.20693447594E+04 0.  0.
        3    1    3    3  502    0 -0.98113206981E+03 -0.97916097164E+02  0.12339576281E+04  0.15795123104E+04  0.10100000352E+00 0.  1.
       -3    1    3    3    0  502  0.98113206981E+03  0.97916097164E+02  0.42929805226E+03  0.10754090052E+04  0.10100000352E+00 0. -1.
</event>
<event>
 5   0  0.3176125E-05  0.2152325E+04  0.7818609E-02  0.8538538E-01
       -4   -1    0    0    0  501  0.00000000000E+00  0.00000000000E+00  0.17001923603E+04  0.17001928346E+04  0.12699999809E+01 0.  1.
        4   -1    0    0  501    0  0.00000000000E+00  0.00000000000E+00 -0.68117219445E+03  0.68117337837E+03  0.12699999809E+01 0. -1.
    10030    2    1    2    0    0  0.00000000000E+00  0.00000000000E+00  0.10190201658E+04  0.23813662130E+04  0.21523250084E+04 0.  0.
        3    1    3    3  502    0 -0.63680763872E+03 -0.70304305950E+03 -0.52841106237E+02  0.95004510680E+03  0.10100000352E+00 0. -1.
       -3    1    3    3    0  502  0.63680763872E+03  0.70304305950E+03  0.10718612721E+04  0.14313211062E+04  0.10100000352E+00 0.  1.
</event>
<event>
 5   0  0.4182977E-05  0.2080116E+04  0.7818609E-02  0.8570053E-01
        1   -1    0    0  501    0  0.00000000000E+00  0.00000000000E+00  0.77422100960E+03  0.77422100962E+03  0.50400001928E-02 0.  1.
       -1   -1    0    0    0  501  0.00000000000E+00  0.00000000000E+00 -0.13971732255E+04  0.13971732255E+04  0.50400001928E-02 0. -1.
    10030    2    1    2    0    0  0.00000000000E+00  0.00000000000E+00 -0.62295221589E+03  0.21713942351E+04  0.20801162133E+04 0.  0.
        1    1    3    3  502    0 -0.63096610709E+03 -0.70660438368E+03 -0.75963180973E+03  0.12142686975E+04  0.50400001928E-02 0. -1.
       -1    1    3    3    0  502  0.63096610709E+03  0.70660438368E+03  0.13667959385E+03  0.95712553761E+03  0.50400001928E-02 0.  1.
</event>
<event>
 5   0  0.9012466E-05  0.2076482E+04  0.7818609E-02  0.8571675E-01
       -2   -1    0    0    0  501  0.00000000000E+00  0.00000000000E+00  0.88475378231E+03  0.88475378232E+03  0.25500000920E-02 0. -1.
        2   -1    0    0  501    0  0.00000000000E+00  0.00000000000E+00 -0.12183553667E+04  0.12183553668E+04  0.25500000920E-02 0.  1.
    10030    2    1    2    0    0  0.00000000000E+00  0.00000000000E+00 -0.33360158444E+03  0.21031091491E+04  0.20764821395E+04 0.  0.
        2    1    3    3  502    0 -0.34160964742E+03 -0.14359928130E+03  0.81549491018E+03  0.89573983575E+03  0.25500000920E-02 0. -1.
       -2    1    3    3    0  502  0.34160964742E+03  0.14359928130E+03 -0.11490964946E+04  0.12073693133E+04  0.25500000920E-02 0.  1.
</event>
<event>
 5   0  0.9086985E-05  0.2111789E+04  0.7818609E-02  0.8556068E-01
        2   -1    0    0  501    0  0.00000000000E+00  0.00000000000E+00  0.10738597154E+04  0.10738597154E+04  0.25500000920E-02 0.  1.
       -2   -1    0    0    0  501  0.00000000000E+00  0.00000000000E+00 -0.10382300298E+04  0.10382300298E+04  0.25500000920E-02 0. -1.
    10030    2    1    2    0    0  0.00000000000E+00  0.00000000000E+00  0.35629685529E+02  0.21120897452E+04  0.21117891981E+04 0.  0.
        5    1    3    3  502    0  0.10152236117E+04  0.18251352997E+03  0.24345977019E+03  0.10598513670E+04  0.46999998093E+01 0.  1.
       -5    1    3    3    0  502 -0.10152236117E+04 -0.18251352997E+03 -0.20783008466E+03  0.10522383782E+04  0.46999998093E+01 0. -1.
</event>
<event>
 5   0  0.3176125E-05  0.2101954E+04  0.7818609E-02  0.8560383E-01
        4   -1    0    0  501    0  0.00000000000E+00  0.00000000000E+00  0.75919130843E+03  0.75919237068E+03  0.12699999809E+01 0.  1.
       -4   -1    0    0    0  501  0.00000000000E+00  0.00000000000E+00 -0.14549038509E+04  0.14549044052E+04  0.12699999809E+01 0. -1.
    10030    2    1    2    0    0  0.00000000000E+00  0.00000000000E+00 -0.69571254251E+03  0.22140967759E+04  0.21019535179E+04 0.  0.
        1    1    3    3  502    0  0.18148249110E+03  0.17803395024E+03 -0.14220274402E+04  0.14445739935E+04  0.50400001928E-02 0. -1.
       -1    1    3    3    0  502 -0.18148249110E+03 -0.17803395024E+03  0.72631489769E+03  0.76952278241E+03  0.50400001928E-02 0.  1.
</event>
<event>
 5   0  0.4128678E-05  0.2088450E+04  0.7818609E-02  0.8566348E-01
        1   -1    0    0  501    0  0.00000000000E+00  0.00000000000E+00  0.10697174508E+04  0.10697174508E+04  0.50400001928E-02 0. -1.
       -1   -1    0    0    0  501  0.00000000000E+00  0.00000000000E+00 -0.10193404978E+04  0.10193404978E+04  0.50400001928E-02 0.  1.
    10030    2    1    2    0    0  0.00000000000E+00  0.00000000000E+00  0.50376952972E+02  0.20890579486E+04  0.20884504483E+04 0.  0.
        5    1    3    3  502    0 -0.19078266216E+03  0.88235799991E+03 -0.49977897539E+03  0.10318695549E+04  0.46999998093E+01 0.  1.
       -5    1    3    3    0  502  0.19078266216E+03 -0.88235799991E+03  0.55015592836E+03  0.10571883937E+04  0.46999998093E+01 0. -1.
</event>
<event>
 5   0  0.8547605E-05  0.2093536E+04  0.7818609E-02  0.8564096E-01
       -2   -1    0    0    0  501  0.00000000000E+00  0.00000000000E+00  0.64411267072E+03  0.64411267072E+03  0.25500000920E-02 0.  1.
        2   -1    0    0  501    0  0.00000000000E+00  0.00000000000E+00 -0.17011354559E+04  0.17011354559E+04  0.25500000920E-02 0. -1.
    10030    2    1    2    0    0  0.00000000000E+00  0.00000000000E+00 -0.10570227851E+04  0.23452481266E+04  0.20935356713E+04 0.  0.
        4    1    3    3  502    0 -0.56406878489E+02 -0.99644493083E+03 -0.17490600866E+03  0.10132511835E+04  0.12699999809E+01 0.  1.
       -4    1    3    3    0  502  0.56406878489E+02  0.99644493083E+03 -0.88211677649E+03  0.13319969431E+04  0.12699999809E+01 0. -1.
</event>
<event>
 5   0  0.4174093E-05  0.2100893E+04  0.7818609E-02  0.8560850E-01
        1   -1    0    0  501    0  0.00000000000E+00  0.00000000000E+00  0.57419380527E+03  0.57419380529E+03  0.50400001928E-02 0.  1.
       -1   -1    0    0    0  501  0.00000000000E+00  0.00000000000E+00 -0.19217168547E+04  0.19217168547E+04  0.50400001928E-02 0. -1.
    10030    2    1    2    0    0  0.00000000000E+00  0.00000000000E+00 -0.13475230494E+04  0.24959106599E+04  0.21008930610E+04 0.  0.
        3    1    3    3  502    0  0.98632639961E+02  0.57291883458E+03  0.36565633218E+03  0.68678158984E+03  0.10100000352E+00 0.  1.
       -3    1    3    3    0  502 -0.98632639961E+02 -0.57291883458E+03 -0.17131793816E+04  0.18091290701E+04  0.10100000352E+00 0. -1.
</event>
<event>
 5   0  0.4050368E-05  0.2096719E+04  0.7818609E-02  0.8562690E-01
        1   -1    0    0  501    0  0.00000000000E+00  0.00000000000E+00  0.19444506910E+04  0.19444506910E+04  0.50400001928E-02 0. -1.
       -1   -1    0    0    0  501  0.00000000000E+00  0.00000000000E+00 -0.56522793430E+03  0.56522793433E+03  0.50400001928E-02 0.  1.
    10030    2    1    2    0    0  0.00000000000E+00  0.00000000000E+00  0.13792227567E+04  0.25096786253E+04  0.20967191967E+04 0.  0.
        2    1    3    3  502    0 -0.67067518627E+02 -0.10401065732E+04  0.82470360800E+03  0.13290808014E+04  0.25500000920E-02 0.  1.
       -2    1    3    3    0  502  0.67067518627E+02  0.10401065732E+04  0.55451914868E+03  0.11805978239E+04  0.25500000920E-02 0. -1.
</event>
<event>
 5   0  0.9012466E-05  0.2112562E+04  0.7818609E-02  0.8555730E-01
        2   -1    0    0  501    0  0.00000000000E+00  0.00000000000E+00  0.23672978933E+04  0.23672978933E+04  0.25500000920E-02 0.  1.
       -2   -1    0    0    0  501  0.00000000000E+00  0.00000000000E+00 -0.47130952478E+03  0.47130952479E+03  0.25500000920E-02 0. -1.
    10030    2    1    2    0    0  0.00000000000E+00  0.00000000000E+00  0.18959883686E+04  0.28386074181E+04  0.21125624679E+04 0.  0.
        2    1    3    3  502    0 -0.17484053621E+03  0.53483323568E+03 -0.25316401179E+03  0.61701525100E+03  0.25500000920E-02 0. -1.
       -2    1    3    3    0  502  0.17484053621E+03 -0.53483323568E+03  0.21491523803E+04  0.22215921671E+04  0.25500000920E-02 0.  1.
</event>
<event>
 5   0  0.8872777E-05  0.2060703E+04  0.7818609E-02  0.8578754E-01
       -2   -1    0    0    0  501  0.00000000000E+00  0.00000000000E+00  0.65299207240E+03  0.65299207241E+03  0.25500000920E-02 0.  1.
        2   -1    0    0  501    0  0.00000000000E+00  0.00000000000E+00 -0.16257848860E+04  0.16257848860E+04  0.25500000920E-02 0. -1.
    10030    2    1    2    0    0  0.00000000000E+00  0.00000000000E+00 -0.97279281358E+03  0.22787769584E+04  0.20607034158E+04 0.  0.
        3    1    3    3  502    0 -0.57350970301E+03  0.72333191462E+03 -0.99254800890E+03  0.13554608066E+04  0.10100000352E+00 0. -1.
       -3    1    3    3    0  502  0.57350970301E+03 -0.72333191462E+03  0.19755195321E+02  0.92331615176E+03  0.10100000352E+00 0.  1.
</event>
<event>
 5   0  0.4200061E-05  0.2081084E+04  0.7818609E-02  0.8569622E-01
        1   -1    0    0  501    0  0.00000000000E+00  0.00000000000E+00  0.11494633290E+04  0.11494633290E+04  0.50400001928E-02 0.  1.
       -1   -1    0    0    0  501  0.00000000000E+00  0.00000000000E+00 -0.94194148320E+03  0.94194148321E+03  0.50400001928E-02 0. -1.
    10030    2    1    2    0    0  0.00000000000E+00  0.00000000000E+00  0.20752184584E+03  0.20914048123E+04  0.20810835573E+04 0.  0.
        4    1    3    3  502    0 -0.19132358829E+03 -0.32054631866E+03  0.10798508433E+04  0.11425559568E+04  0.12699999809E+01 0.  1.
       -4    1    3    3    0  502  0.19132358829E+03  0.32054631866E+03 -0.87232899743E+03  0.94884885545E+03  0.12699999809E+01 0. -1.
</event>
<event>
 5   0  0.8872777E-05  0.2066336E+04  0.7818609E-02  0.8576219E-01
        2   -1    0    0  501    0  0.00000000000E+00  0.00000000000E+00  0.20367950008E+04  0.20367950008E+04  0.25500000920E-02 0. -1.
       -2   -1    0    0    0  501  0.00000000000E+00  0.00000000000E+00 -0.52407642662E+03  0.52407642663E+03  0.25500000920E-02 0.  1.
    10030    2    1    2    0    0  0.00000000000E+00  0.00000000000E+00  0.15127185742E+04  0.25608714274E+04  0.20663361254E+04 0.  0.
        3    1    3    3  502    0 -0.13331240849E+03  0.16608548922E+03 -0.49657754530E+03  0.54032014277E+03  0.10100000352E+00 0.  1.
       -3    1    3    3    0  502  0.13331240849E+03 -0.16608548922E+03  0.20092961195E+04  0.20205512847E+04  0.10100000352E+00 0. -1.
</event>
<event>
 5   0  0.4174093E-05  0.2086087E+04  0.7818609E-02  0.8567397E-01
        1   -1    0    0  501    0  0.00000000000E+00  0.00000000000E+00  0.27599491722E+04  0.27599491723E+04  0.50400001928E-02 0.  1.
       -1   -1    0    0    0  501  0.00000000000E+00  0.00000000000E+00 -0.39418824208E+03  0.39418824211E+03  0.50400001928E-02 0. -1.
    10030    2    1    2    0    0  0.00000000000E+00  0.00000000000E+00  0.23657609302E+04  0.31541374144E+04  0.20860867791E+04 0.  0.
        3    1    3    3  502    0 -0.10137747067E+04 -0.24283142683E+03  0.12359778131E+04  0.16168943758E+04  0.10100000352E+00 0. -1.
       -3    1    3    3    0  502  0.10137747067E+04  0.24283142683E+03  0.11297831171E+04  0.15372430386E+04  0.10100000352E+00 0.  1.
</event>
<event>
 5   0  0.9012466E-05  0.2087716E+04  0.7818609E-02  0.8566674E-01
       -2   -1    0    0    0  501  0.00000000000E+00  0.00000000000E+00  0.67839185612E+03  0.67839185612E+03  0.25500000920E-02 0. -1.
        2   -1    0    0  501    0  0.00000000000E+00  0.00000000000E+00 -0.16062097258E+04  0.16062097258E+04  0.25500000920E-02 0.  1.
    10030    2    1    2    0    0  0.00000000000E+00  0.00000000000E+00 -0.92781786964E+03  0.22846015819E+04  0.20877160699E+04 0.  0.
        2    1    3    3  502    0  0.47328524621E+03 -0.48909322590E+03  0.40220452815E+03  0.79055650675E+03  0.25500000920E-02 0. -1.
       -2    1    3    3    0  502 -0.47328524621E+03  0.48909322590E+03 -0.13300223978E+04  0.14940450751E+04  0.25500000920E-02 0.  1.
</event>
<event>
 5   0  0.8872777E-05  0.2135440E+04  0.7818609E-02  0.8545790E-01
        2   -1    0    0  501    0  0.00000000000E+00  0.00000000000E+00  0.13845398282E+04  0.13845398282E+04  0.25500000920E-02 0. -1.
       -2   -1    0    0    0  501  0.00000000000E+00  0.00000000000E+00 -0.82339738830E+03  0.82339738831E+03  0.25500000920E-02 0.  1.
    10030    2    1    2    0    0  0.00000000000E+00  0.00000000000E+00  0.56114243986E+03  0.22079372165E+04  0.21354404497E+04 0.  0.
        3    1    3    3  502    0 -0.44630273005E+03  0.54905172333E+02  0.12818622708E+04  0.13584445504E+04  0.10100000352E+00 0. -1.
       -3    1    3    3    0  502  0.44630273005E+03 -0.54905172333E+02 -0.72071983099E+03  0.84949266611E+03  0.10100000352E+00 0.  1.
</event>
<event>
 5   0  0.8858590E-05  0.2097866E+04  0.7818609E-02  0.8562184E-01
        2   -1    0    0  501    0  0.00000000000E+00  0.00000000000E+00  0.15091467152E+04  0.15091467152E+04  0.25500000920E-02 0. -1.
       -2   -1    0    0    0  501  0.00000000000E+00  0.00000000000E+00 -0.72906156469E+03  0.72906156469E+03  0.25500000920E-02 0.  1.
    10030    2    1    2    0    0  0.00000000000E+00  0.00000000000E+00  0.78008515051E+03  0.22382082799E+04  0.20978664071E+04 0.  0.
        1    1    3    3  502    0  0.73441376025E+03  0.64729047483E+03  0.79195621302E+03  0.12591835344E+04  0.50400001928E-02 0.  1.
       -1    1    3    3    0  502 -0.73441376025E+03 -0.64729047483E+03 -0.11871062511E+02  0.97902474545E+03  0.50400001928E-02 0. -1.
</event>
<event>
 5   0  0.4182977E-05  0.2091389E+04  0.7818609E-02  0.8565046E-01
       -1   -1    0    0    0  501  0.00000000000E+00  0.00000000000E+00  0.17959357322E+04  0.17959357322E+04  0.50400001928E-02 0. -1.
        1   -1    0    0  501    0  0.00000000000E+00  0.00000000000E+00 -0.60886222398E+03  0.60886222400E+03  0.50400001928E-02 0.  1.
    10030    2    1    2    0    0  0.00000000000E+00  0.00000000000E+00  0.11870735082E+04  0.24047979562E+04  0.20913894176E+04 0.  0.
        1    1    3    3  502    0  0.78871167433E+02 -0.20576896486E+03  0.17689331535E+04  0.17826065268E+04  0.50400001928E-02 0. -1.
       -1    1    3    3    0  502 -0.78871167433E+02  0.20576896486E+03 -0.58185964528E+03  0.62219142937E+03  0.50400001928E-02 0.  1.
</event>
<event>
 5   0  0.8872777E-05  0.2101265E+04  0.7818609E-02  0.8560686E-01
        2   -1    0    0  501    0  0.00000000000E+00  0.00000000000E+00  0.17736912101E+04  0.17736912101E+04  0.25500000920E-02 0. -1.
       -2   -1    0    0    0  501  0.00000000000E+00  0.00000000000E+00 -0.62233423336E+03  0.62233423336E+03  0.25500000920E-02 0.  1.
    10030    2    1    2    0    0  0.00000000000E+00  0.00000000000E+00  0.11513569767E+04  0.23960254434E+04  0.21012651041E+04 0.  0.
        3    1    3    3  502    0  0.93299528439E+03 -0.19232668632E+03  0.10809629891E+04  0.14408160011E+04  0.10100000352E+00 0. -1.
       -3    1    3    3    0  502 -0.93299528439E+03  0.19232668632E+03  0.70393987548E+02  0.95520944230E+03  0.10100000352E+00 0.  1.
</event>
<event>
 5   0  0.4200061E-05  0.2030539E+04  0.7818609E-02  0.8592474E-01
       -1   -1    0    0    0  501  0.00000000000E+00  0.00000000000E+00  0.78182430285E+03  0.78182430286E+03  0.50400001928E-02 0. -1.
        1   -1    0    0  501    0  0.00000000000E+00  0.00000000000E+00 -0.13184197906E+04  0.13184197906E+04  0.50400001928E-02 0.  1.
    10030    2    1    2    0    0  0.00000000000E+00  0.00000000000E+00 -0.53659548777E+03  0.21002440935E+04  0.20305394689E+04 0.  0.
        4    1    3    3  502    0 -0.27770398771E+03 -0.22674726469E+02  0.74150392890E+03  0.79212583438E+03  0.12699999809E+01 0. -1.
       -4    1    3    3    0  502  0.27770398771E+03  0.22674726469E+02 -0.12780994167E+04  0.13081182591E+04  0.12699999809E+01 0.  1.
</event>
<event>
 5   0  0.9086985E-05  0.2151887E+04  0.7818609E-02  0.8538725E-01
        2   -1    0    0  501    0  0.00000000000E+00  0.00000000000E+00  0.13592040914E+04  0.13592040914E+04  0.25500000920E-02 0. -1.
       -2   -1    0    0    0  501  0.00000000000E+00  0.00000000000E+00 -0.85171525041E+03  0.85171525041E+03  0.25500000920E-02 0.  1.
    10030    2    1    2    0    0  0.00000000000E+00  0.00000000000E+00  0.50748884099E+03  0.22109193418E+04  0.21518874070E+04 0.  0.
        5    1    3    3  502    0 -0.44827125805E+03  0.60604373672E+03 -0.53503792146E+03  0.92440456458E+03  0.46999998093E+01 0.  1.
       -5    1    3    3    0  502  0.44827125805E+03 -0.60604373672E+03  0.10425267624E+04  0.12865147772E+04  0.46999998093E+01 0. -1.
</event>
<event>
 5   0  0.4200061E-05  0.2081086E+04  0.7818609E-02  0.8569621E-01
        1   -1    0    0  501    0  0.00000000000E+00  0.00000000000E+00  0.99302057821E+03  0.99302057822E+03  0.50400001928E-02 0.  1.
       -1   -1    0    0    0  501  0.00000000000E+00  0.00000000000E+00 -0.10903396962E+04  0.10903396962E+04  0.50400001928E-02 0. -1.
    10030    2    1    2    0    0  0.00000000000E+00  0.00000000000E+00 -0.97319118011E+02  0.20833602745E+04  0.20810860200E+04 0.  0.
        4    1    3    3  502    0  0.82127509857E+03 -0.48801784198E+03  0.36419134017E+03  0.10223948096E+04  0.12699999809E+01 0.  1.
       -4    1    3    3    0  502 -0.82127509857E+03  0.48801784198E+03 -0.46151045818E+03  0.10609654648E+04  0.12699999809E+01 0. -1.
</event>
<event>
 5   0  0.4174093E-05  0.2130008E+04  0.7818609E-02  0.8548139E-01
        1   -1    0    0  501    0  0.00000000000E+00  0.00000000000E+00  0.17562616141E+04  0.17562616141E+04  0.50400001928E-02 0. -1.
       -1   -1    0    0    0  501  0.00000000000E+00  0.00000000000E+00 -0.64582261983E+03  0.64582261985E+03  0.50400001928E-02 0.  1.
    10030    2    1    2    0    0  0.00000000000E+00  0.00000000000E+00  0.11104389943E+04  0.24020842340E+04  0.21300079594E+04 0.  0.
        3    1    3    3  502    0  0.33717942096E+03  0.22628000838E+03 -0.55509309912E+03  0.68776519468E+03  0.10100000352E+00 0.  1.
       -3    1    3    3    0  502 -0.33717942096E+03 -0.22628000838E+03  0.16655320934E+04  0.17143190393E+04  0.10100000352E+00 0. -1.
</event>
<event>
 5   0  0.8858590E-05  0.2073428E+04  0.7818609E-02  0.8573040E-01
       -2   -1    0    0    0  501  0.00000000000E+00  0.00000000000E+00  0.54081925601E+03  0.54081925602E+03  0.25500000920E-02 0. -1.
        2   -1    0    0  501    0  0.00000000000E+00  0.00000000000E+00 -0.19873116677E+04  0.19873116677E+04  0.25500000920E-02 0.  1.
    10030    2    1    2    0    0  0.00000000000E+00  0.00000000000E+00 -0.14464924117E+04  0.25281309238E+04  0.20734284821E+04 0.  0.
        1    1    3    3  502    0  0.77375435626E+03 -0.51446712389E+03 -0.16262786924E+03  0.94330273469E+03  0.50400001928E-02 0. -1.
       -1    1    3    3    0  502 -0.77375435626E+03  0.51446712389E+03 -0.12838645425E+04  0.15848281891E+04  0.50400001928E-02 0.  1.
</event>
<event>
 5   0  0.8547605E-05  0.2095639E+04  0.7818609E-02  0.8563167E-01
       -2   -1    0    0    0  501  0.00000000000E+00  0.00000000000E+00  0.13095588530E+04  0.13095588530E+04  0.25500000920E-02 0. -1.
        2   -1    0    0  501    0  0.00000000000E+00  0.00000000000E+00 -0.83839364193E+03  0.83839364193E+03  0.25500000920E-02 0.  1.
    10030    2    1    2    0    0  0.00000000000E+00  0.00000000000E+00  0.47116521105E+03  0.21479524949E+04  0.20956391064E+04 0.  0.
        4    1    3    3  502    0 -0.94974512343E+03 -0.42525886585E+03  0.10978619449E+03  0.10463821118E+04  0.12699999809E+01 0.  1.
       -4    1    3    3    0  502  0.94974512343E+03  0.42525886585E+03  0.36137901656E+03  0.11015703831E+04  0.12699999809E+01 0. -1.
</event>
<event>
 5   0  0.8872777E-05  0.2090673E+04  0.7818609E-02  0.8565363E-01
        2   -1    0    0  501    0  0.00000000000E+00  0.00000000000E+00  0.12816099704E+04  0.12816099704E+04  0.25500000920E-02 0.  1.
       -2   -1    0    0    0  501  0.00000000000E+00  0.00000000000E+00 -0.85262180377E+03  0.85262180377E+03  0.25500000920E-02 0. -1.
    10030    2    1    2    0    0  0.00000000000E+00  0.00000000000E+00  0.42898816663E+03  0.21342317742E+04  0.20906731975E+04 0.  0.
        3    1    3    3  502    0 -0.18915069025E+03  0.84010417293E+03 -0.39045328225E+03  0.94551931806E+03  0.10100000352E+00 0.  1.
       -3    1    3    3    0  502  0.18915069025E+03 -0.84010417293E+03  0.81944144888E+03  0.11887124561E+04  0.10100000352E+00 0. -1.
</event>
<event>
 5   0  0.4050368E-05  0.2091942E+04  0.7818609E-02  0.8564801E-01
       -1   -1    0    0    0  501  0.00000000000E+00  0.00000000000E+00  0.13146054303E+04  0.13146054303E+04  0.50400001928E-02 0. -1.
        1   -1    0    0  501    0  0.00000000000E+00  0.00000000000E+00 -0.83223121689E+03  0.83223121690E+03  0.50400001928E-02 0.  1.
    10030    2    1    2    0    0  0.00000000000E+00  0.00000000000E+00  0.48237421343E+03  0.21468366472E+04  0.20919423291E+04 0.  0.
        2    1    3    3  502    0 -0.47094189063E+03 -0.19686821872E+03  0.11781131339E+04  0.12839368817E+04  0.25500000920E-02 0. -1.
       -2    1    3    3    0  502  0.47094189063E+03  0.19686821872E+03 -0.69573892047E+03  0.86289976553E+03  0.25500000920E-02 0.  1.
</event>
<event>
 5   0  0.4050368E-05  0.2113445E+04  0.7818609E-02  0.8555344E-01
        1   -1    0    0  501    0  0.00000000000E+00  0.00000000000E+00  0.19769283229E+04  0.19769283229E+04  0.50400001928E-02 0.  1.
       -1   -1    0    0    0  501  0.00000000000E+00  0.00000000000E+00 -0.56484699632E+03  0.56484699634E+03  0.50400001928E-02 0. -1.
    10030    2    1    2    0    0  0.00000000000E+00  0.00000000000E+00  0.14120813265E+04  0.25417753192E+04  0.21134446055E+04 0.  0.
        2    1    3    3  502    0  0.64084564544E+03  0.53334674970E+03  0.14868687884E+04  0.17046761249E+04  0.25500000920E-02 0.  1.
       -2    1    3    3    0  502 -0.64084564544E+03 -0.53334674970E+03 -0.74787461879E+02  0.83709919434E+03  0.25500000920E-02 0. -1.
</event>
<event>
 5   0  0.9086985E-05  0.2108900E+04  0.7818609E-02  0.8557333E-01
       -2   -1    0    0    0  501  0.00000000000E+00  0.00000000000E+00  0.72872018154E+03  0.72872018154E+03  0.25500000920E-02 0. -1.
        2   -1    0    0  501    0  0.00000000000E+00  0.00000000000E+00 -0.15257779246E+04  0.15257779246E+04  0.25500000920E-02 0.  1.
    10030    2    1    2    0    0  0.00000000000E+00  0.00000000000E+00 -0.79705774308E+03  0.22544981062E+04  0.21089003449E+04 0.  0.
        5    1    3    3  502    0  0.49791177861E+03 -0.15480239365E+03  0.58124067229E+03  0.78086024965E+03  0.46999998093E+01 0. -1.
       -5    1    3    3    0  502 -0.49791177861E+03  0.15480239365E+03 -0.13782984154E+04  0.14736378565E+04  0.46999998093E+01 0.  1.
</event>
<event>
 5   0  0.4182977E-05  0.2079770E+04  0.7818609E-02  0.8570208E-01
       -1   -1    0    0    0  501  0.00000000000E+00  0.00000000000E+00  0.13160663821E+04  0.13160663821E+04  0.50400001928E-02 0. -1.
        1   -1    0    0  501    0  0.00000000000E+00  0.00000000000E+00 -0.82166124601E+03  0.82166124603E+03  0.50400001928E-02 0.  1.
    10030    2    1    2    0    0  0.00000000000E+00  0.00000000000E+00  0.49440513609E+03  0.21377276281E+04  0.20797699328E+04 0.  0.
        1    1    3    3  502    0  0.62053504700E+03  0.13923854403E+03  0.10928754805E+04  0.12644476788E+04  0.50400001928E-02 0. -1.
       -1    1    3    3    0  502 -0.62053504700E+03 -0.13923854403E+03 -0.59847034438E+03  0.87327994929E+03  0.50400001928E-02 0.  1.
</event>
<event>
 5   0  0.8872777E-05  0.2088255E+04  0.7818609E-02  0.8566435E-01
       -2   -1    0    0    0  501  0.00000000000E+00  0.00000000000E+00  0.45303684361E+03  0.45303684362E+03  0.25500000920E-02 0.  1.
        2   -1    0    0  501    0  0.00000000000E+00  0.00000000000E+00 -0.24064309788E+04  0.24064309788E+04  0.25500000920E-02 0. -1.
    10030    2    1    2    0    0  0.00000000000E+00  0.00000000000E+00 -0.19533941352E+04  0.28594678224E+04  0.20882546732E+04 0.  0.
        3    1    3    3  502    0  0.84529660170E+03 -0.23437030798E+03 -0.17521982123E+04  0.19595036033E+04  0.10100000352E+00 0. -1.
       -3    1    3    3    0  502 -0.84529660170E+03  0.23437030798E+03 -0.20119592294E+03  0.89996421913E+03  0.10100000352E+00 0.  1.
</event>
<event>
 5   0  0.4050368E-05  0.2100843E+04  0.7818609E-02  0.8560872E-01
       -1   -1    0    0    0  501  0.00000000000E+00  0.00000000000E+00  0.55190237033E+03  0.55190237035E+03  0.50400001928E-02 0. -1.
        1   -1    0    0  501    0  0.00000000000E+00  0.00000000000E+00 -0.19992401355E+04  0.19992401355E+04  0.50400001928E-02 0.  1.
    10030    2    1    2    0    0  0.00000000000E+00  0.00000000000E+00 -0.14473377652E+04  0.25511425059E+04  0.21008430400E+04 0.  0.
        2    1    3    3  502    0  0.69251343881E+03  0.49994967144E+03 -0.14661682656E+04  0.16968128712E+04  0.25500000920E-02 0.  1.
       -2    1    3    3    0  502 -0.69251343881E+03 -0.49994967144E+03  0.18830500398E+02  0.85432963466E+03  0.25500000920E-02 0. -1.
</event>
<event>
 5   0  0.4200061E-05  0.2092427E+04  0.7818609E-02  0.8564587E-01
       -1   -1    0    0    0  501  0.00000000000E+00  0.00000000000E+00  0.74171395916E+03  0.74171395918E+03  0.50400001928E-02 0. -1.
        1   -1    0    0  501    0  0.00000000000E+00  0.00000000000E+00 -0.14757213039E+04  0.14757213039E+04  0.50400001928E-02 0.  1.
    10030    2    1    2    0    0  0.00000000000E+00  0.00000000000E+00 -0.73400734471E+03  0.22174352631E+04  0.20924273855E+04 0.  0.
        4    1    3    3  502    0 -0.28584461941E+03 -0.61407520575E+03 -0.12119890517E+04  0.13884216143E+04  0.12699999809E+01 0.  1.
       -4    1    3    3    0  502  0.28584461941E+03  0.61407520575E+03  0.47798170696E+03  0.82901364877E+03  0.12699999809E+01 0. -1.
</event>
<event>
 5   0  0.4128678E-05  0.2101709E+04  0.7818609E-02  0.8560491E-01
       -1   -1    0    0    0  501  0.00000000000E+00  0.00000000000E+00  0.56946340372E+03  0.56946340374E+03  0.50400001928E-02 0. -1.
        1   -1    0    0  501    0  0.00000000000E+00  0.00000000000E+00 -0.19391863573E+04  0.19391863573E+04  0.50400001928E-02 0.  1.
    10030    2    1    2    0    0  0.00000000000E+00  0.00000000000E+00 -0.13697229535E+04  0.25086497610E+04  0.21017094599E+04 0.  0.
        5    1    3    3  502    0  0.26850840115E+02  0.10276450965E+04 -0.42472230498E+03  0.11122888736E+04  0.46999998093E+01 0.  1.
       -5    1    3    3    0  502 -0.26850840115E+02 -0.10276450965E+04 -0.94500064857E+03  0.13963608874E+04  0.46999998093E+01 0. -1.
</event>
<event>
 5   0  0.8547605E-05  0.2133457E+04  0.7818609E-02  0.8546647E-01
       -2   -1    0    0    0  501  0.00000000000E+00  0.00000000000E+00  0.56758881325E+03  0.56758881326E+03  0.25500000920E-02 0.  1.
        2   -1    0    0  501    0  0.00000000000E+00  0.00000000000E+00 -0.20048130163E+04  0.20048130163E+04  0.25500000920E-02 0. -1.
    10030    2    1    2    0    0  0.00000000000E+00  0.00000000000E+00 -0.14372242030E+04  0.25724018296E+04  0.21334567638E+04 0.  0.
        4    1    3    3  502    0  0.80663268504E+02 -0.10635749134E+04 -0.70115301166E+03  0.12764463631E+04  0.12699999809E+01 0.  1.
       -4    1    3    3    0  502 -0.80663268504E+02  0.10635749134E+04 -0.73607119139E+03  0.12959554664E+04  0.12699999809E+01 0. -1.
</event>
<event>
 5   0  0.4128678E-05  0.2095295E+04  0.7818609E-02  0.8563319E-01
       -1   -1    0    0    0  501  0.00000000000E+00  0.00000000000E+00  0.15577171519E+04  0.15577171519E+04  0.50400001928E-02 0. -1.
        1   -1    0    0  501    0  0.00000000000E+00  0.00000000000E+00 -0.70459838112E+03  0.70459838114E+03  0.50400001928E-02 0.  1.
    10030    2    1    2    0    0  0.00000000000E+00  0.00000000000E+00  0.85311877077E+03  0.22623155330E+04  0.20952947129E+04 0.  0.
        5    1    3    3  502    0 -0.98225937446E+02 -0.31942659501E+03 -0.64549285706E+03  0.72688706338E+03  0.46999998093E+01 0.  1.
       -5    1    3    3    0  502  0.98225937446E+02  0.31942659501E+03  0.14986116278E+04  0.15354284697E+04  0.46999998093E+01 0. -1.
</event>
<event>
 5   0  0.9012466E-05  0.2049360E+04  0.7818609E-02  0.8583885E-01
        2   -1    0    0  501    0  0.00000000000E+00  0.00000000000E+00  0.97039045052E+03  0.97039045053E+03  0.25500000920E-02 0. -1.
       -2   -1    0    0    0  501  0.00000000000E+00  0.00000000000E+00 -0.10820069007E+04  0.10820069007E+04  0.25500000920E-02 0.  1.
    10030    2    1    2    0    0  0.00000000000E+00  0.00000000000E+00 -0.11161645018E+03  0.20523973512E+04  0.20493600600E+04 0.  0.
        2    1    3    3  502    0 -0.71127853255E+03 -0.11869001484E+03 -0.78487389086E+03  0.10658477823E+04  0.25500000920E-02 0.  1.
       -2    1    3    3    0  502  0.71127853255E+03  0.11869001484E+03  0.67325744068E+03  0.98654956892E+03  0.25500000920E-02 0. -1.
</event>
<event>
 5   0  0.4050368E-05  0.2093326E+04  0.7818609E-02  0.8564189E-01
        1   -1    0    0  501    0  0.00000000000E+00  0.00000000000E+00  0.14866698668E+04  0.14866698668E+04  0.50400001928E-02 0.  1.
       -1   -1    0    0    0  501  0.00000000000E+00  0.00000000000E+00 -0.73688419988E+03  0.73688419990E+03  0.50400001928E-02 0. -1.
    10030    2    1    2    0    0  0.00000000000E+00  0.00000000000E+00  0.74978566687E+03  0.22235540667E+04  0.20933260953E+04 0.  0.
        2    1    3    3  502    0  0.56899480588E+03 -0.47196157405E+03  0.11619336633E+04  0.13771683464E+04  0.25500000920E-02 0.  1.
       -2    1    3    3    0  502 -0.56899480588E+03  0.47196157405E+03 -0.41214799640E+03  0.84638572025E+03  0.25500000920E-02 0. -1.
</event>
<event>
 5   0  0.4182977E-05  0.2084536E+04  0.7818609E-02  0.8568086E-01
       -1   -1    0    0    0  501  0.00000000000E+00  0.00000000000E+00  0.72317654453E+03  0.72317654454E+03  0.50400001928E-02 0. -1.
        1   -1    0    0  501    0  0.00000000000E+00  0.00000000000E+00 -0.15021536928E+04  0.15021536928E+04  0.50400001928E-02 0.  1.
    10030    2    1    2    0    0  0.00000000000E+00  0.00000000000E+00 -0.77897714827E+03  0.22253302373E+04  0.20845357439E+04 0.  0.
        1    1    3    3  502    0 -0.87051695873E+03  0.39896849589E+03 -0.82880097939E+03  0.12664464851E+04  0.50400001928E-02 0.  1.
       -1    1    3    3    0  502  0.87051695873E+03 -0.39896849589E+03  0.49823831125E+02  0.95888375225E+03  0.50400001928E-02 0. -1.
</event>
<event>
 5   0  0.9012466E-05  0.2063657E+04  0.7818609E-02  0.8577424E-01
        2   -1    0    0  501    0  0.00000000000E+00  0.00000000000E+00  0.17147077314E+04  0.17147077314E+04  0.25500000920E-02 0. -1.
       -2   -1    0    0    0  501  0.00000000000E+00  0.00000000000E+00 -0.62090444420E+03  0.62090444421E+03  0.25500000920E-02 0.  1.
    10030    2    1    2    0    0  0.00000000000E+00  0.00000000000E+00  0.10938032872E+04  0.23356121756E+04  0.20636566100E+04 0.  0.
        2    1    3    3  502    0  0.99613497069E+03  0.12183509634E+03  0.81839044889E+03  0.12949484922E+04  0.25500000920E-02 0. -1.
       -2    1    3    3    0  502 -0.99613497069E+03 -0.12183509634E+03  0.27541283832E+03  0.10406636835E+04  0.25500000920E-02 0.  1.
</event>
<event>
 5   0  0.8547605E-05  0.2015345E+04  0.7818609E-02  0.8599480E-01
       -2   -1    0    0    0  501  0.00000000000E+00  0.00000000000E+00  0.85783697861E+03  0.85783697861E+03  0.25500000920E-02 0. -1.
        2   -1    0    0  501    0  0.00000000000E+00  0.00000000000E+00 -0.11836789465E+04  0.11836789465E+04  0.25500000920E-02 0.  1.
    10030    2    1    2    0    0  0.00000000000E+00  0.00000000000E+00 -0.32584196787E+03  0.20415159251E+04  0.20153447061E+04 0.  0.
        4    1    3    3  502    0 -0.42616996180E+03 -0.10301004362E+03 -0.10819901883E+04  0.11674486224E+04  0.12699999809E+01 0.  1.
       -4    1    3    3    0  502  0.42616996180E+03  0.10301004362E+03  0.75614822045E+03  0.87406730268E+03  0.12699999809E+01 0. -1.
</event>
<event>
 5   0  0.4050368E-05  0.2113078E+04  0.7818609E-02  0.8555504E-01
        1   -1    0    0  501    0  0.00000000000E+00  0.00000000000E+00  0.15585225479E+04  0.15585225479E+04  0.50400001928E-02 0.  1.
       -1   -1    0    0    0  501  0.00000000000E+00  0.00000000000E+00 -0.71623902205E+03  0.71623902206E+03  0.50400001928E-02 0. -1.
    10030    2    1    2    0    0  0.00000000000E+00  0.00000000000E+00  0.84228352588E+03  0.22747615700E+04  0.21130780067E+04 0.  0.
        2    1    3    3  502    0 -0.82318650963E+02  0.26313590315E+03  0.15191126974E+04  0.15439301316E+04  0.25500000920E-02 0.  1.
       -2    1    3    3    0  502  0.82318650963E+02 -0.26313590315E+03 -0.67682917156E+03  0.73083143837E+03  0.25500000920E-02 0. -1.
</event>
<event>
 5   0  0.4182977E-05  0.2088424E+04  0.7818609E-02  0.8566360E-01
       -1   -1    0    0    0  501  0.00000000000E+00  0.00000000000E+00  0.61415040208E+03  0.61415040210E+03  0.50400001928E-02 0.  1.
        1   -1    0    0  501    0  0.00000000000E+00  0.00000000000E+00 -0.17754258642E+04  0.17754258642E+04  0.50400001928E-02 0. -1.
    10030    2    1    2    0    0  0.00000000000E+00  0.00000000000E+00 -0.11612754621E+04  0.23895762663E+04  0.20884238156E+04 0.  0.
        1    1    3    3  502    0 -0.43814689797E+03 -0.62731566580E+03 -0.13936492752E+04  0.15898918049E+04  0.50400001928E-02 0. -1.
       -1    1    3    3    0  502  0.43814689797E+03  0.62731566580E+03  0.23237381315E+03  0.79968446141E+03  0.50400001928E-02 0.  1.
</event>
<event>
 5   0  0.4200061E-05  0.2109695E+04  0.7818609E-02  0.8556985E-01
       -1   -1    0    0    0  501  0.00000000000E+00  0.00000000000E+00  0.61546157900E+03  0.61546157902E+03  0.50400001928E-02 0.  1.
        1   -1    0    0  501    0  0.00000000000E+00  0.00000000000E+00 -0.18079169287E+04  0.18079169287E+04  0.50400001928E-02 0. -1.
    10030    2    1    2    0    0  0.00000000000E+00  0.00000000000E+00 -0.11924553497E+04  0.24233785078E+04  0.21096951511E+04 0.  0.
        4    1    3    3  502    0  0.22707140325E+03  0.10257789464E+04 -0.48775172159E+03  0.11583122307E+04  0.12699999809E+01 0. -1.
       -4    1    3    3    0  502 -0.22707140325E+03 -0.10257789464E+04 -0.70470362815E+03  0.12650662771E+04  0.12699999809E+01 0.  1.
</event>
<event>
 5   0  0.8547605E-05  0.2048365E+04  0.7818609E-02  0.8584337E-01
        2   -1    0    0  501    0  0.00000000000E+00  0.00000000000E+00  0.16422052686E+04  0.16422052686E+04  0.25500000920E-02 0.  1.
       -2   -1    0    0    0  501  0.00000000000E+00  0.00000000000E+00 -0.63874433902E+03  0.63874433902E+03  0.25500000920E-02 0. -1.
    10030    2    1    2    0    0  0.00000000000E+00  0.00000000000E+00  0.10034609296E+04  0.22809496076E+04  0.20483645367E+04 0.  0.
        4    1    3    3  502    0  0.95110284344E+03 -0.25115384804E+02  0.79579771559E+02  0.95475753691E+03  0.12699999809E+01 0.  1.
       -4    1    3    3    0  502 -0.95110284344E+03  0.25115384804E+02  0.92388115799E+03  0.13261920707E+04  0.12699999809E+01 0. -1.
</event>
<event>
 5   0  0.4174093E-05  0.2090005E+04  0.7818609E-02  0.8565659E-01
        1   -1    0    0  501    0  0.00000000000E+00  0.00000000000E+00  0.23963517139E+04  0.23963517139E+04  0.50400001928E-02 0.  1.
       -1   -1    0    0    0  501  0.00000000000E+00  0.00000000000E+00 -0.45570539701E+03  0.45570539704E+03  0.50400001928E-02 0. -1.
    10030    2    1    2    0    0  0.00000000000E+00  0.00000000000E+00  0.19406463169E+04  0.28520571109E+04  0.20900051763E+04 0.  0.
        3    1    3    3  502    0 -0.59884954884E+03  0.21979519433E+03 -0.15918075865E+03  0.65747185013E+03  0.10100000352E+00 0. -1.
       -3    1    3    3    0  502  0.59884954884E+03 -0.21979519433E+03  0.20998270755E+04  0.21945852608E+04  0.10100000352E+00 0.  1.
</event>
<event>
 5   0  0.4182977E-05  0.2084540E+04  0.7818609E-02  0.8568084E-01
        1   -1    0    0  501    0  0.00000000000E+00  0.00000000000E+00  0.13915976229E+04  0.13915976229E+04  0.50400001928E-02 0.  1.
       -1   -1    0    0    0  501  0.00000000000E+00  0.00000000000E+00 -0.78063312785E+03  0.78063312786E+03  0.50400001928E-02 0. -1.
    10030    2    1    2    0    0  0.00000000000E+00  0.00000000000E+00  0.61096449506E+03  0.21722307508E+04  0.20845404339E+04 0.  0.
        1    1    3    3  502    0  0.12343418838E+03  0.79013122951E+03  0.10020195268E+04  0.12820243721E+04  0.50400001928E-02 0.  1.
       -1    1    3    3    0  502 -0.12343418838E+03 -0.79013122951E+03 -0.39105503171E+03  0.89020637864E+03  0.50400001928E-02 0. -1.
</event>
<event>
 5   0  0.4182977E-05  0.2100220E+04  0.7818609E-02  0.8561146E-01
       -1   -1    0    0    0  501  0.00000000000E+00  0.00000000000E+00  0.54760460625E+03  0.54760460628E+03  0.50400001928E-02 0. -1.
        1   -1    0    0  501    0  0.00000000000E+00  0.00000000000E+00 -0.20137365787E+04  0.20137365787E+04  0.50400001928E-02 0.  1.
    10030    2    1    2    0    0  0.00000000000E+00  0.00000000000E+00 -0.14661319725E+04  0.25613411850E+04  0.21002203945E+04 0.  0.
        1    1    3    3  502    0  0.94746403154E+03 -0.43093683880E+03 -0.90265378252E+03  0.13777439897E+04  0.50400001928E-02 0. -1.
       -1    1    3    3    0  502 -0.94746403154E+03  0.43093683880E+03 -0.56347818993E+03  0.11835971953E+04  0.50400001928E-02 0.  1.
</event>
<event>
 5   0  0.8547605E-05  0.2079773E+04  0.7818609E-02  0.8570206E-01
       -2   -1    0    0    0  501  0.00000000000E+00  0.00000000000E+00  0.69245718288E+03  0.69245718288E+03  0.25500000920E-02 0.  1.
        2   -1    0    0  501    0  0.00000000000E+00  0.00000000000E+00 -0.15616324272E+04  0.15616324272E+04  0.25500000920E-02 0. -1.
    10030    2    1    2    0    0  0.00000000000E+00  0.00000000000E+00 -0.86917524428E+03  0.22540896100E+04  0.20797726714E+04 0.  0.
        4    1    3    3  502    0 -0.67119564337E+03  0.51061313347E+03  0.22478967122E+03  0.87278942073E+03  0.12699999809E+01 0.  1.
       -4    1    3    3    0  502  0.67119564337E+03 -0.51061313347E+03 -0.10939649155E+04  0.13813001893E+04  0.12699999809E+01 0. -1.
</event>
<event>
 5   0  0.8872777E-05  0.2217925E+04  0.7818609E-02  0.8511004E-01
        2   -1    0    0  501    0  0.00000000000E+00  0.00000000000E+00  0.15303088375E+04  0.15303088375E+04  0.25500000920E-02 0. -1.
       -2   -1    0    0    0  501  0.00000000000E+00  0.00000000000E+00 -0.80362694034E+03  0.80362694034E+03  0.25500000920E-02 0.  1.
    10030    2    1    2    0    0  0.00000000000E+00  0.00000000000E+00  0.72668189711E+03  0.23339357778E+04  0.22179246235E+04 0.  0.
        3    1    3    3  502    0  0.66395648644E+03 -0.84841006440E+03  0.86603339852E+02  0.10808043310E+04  0.10100000352E+00 0.  1.
       -3    1    3    3    0  502 -0.66395648644E+03  0.84841006440E+03  0.64007855726E+03  0.12531314468E+04  0.10100000352E+00 0. -1.
</event>
<event>
 5   0  0.9086985E-05  0.2075974E+04  0.7818609E-02  0.8571902E-01
        2   -1    0    0  501    0  0.00000000000E+00  0.00000000000E+00  0.77175409323E+03  0.77175409324E+03  0.25500000920E-02 0.  1.
       -2   -1    0    0    0  501  0.00000000000E+00  0.00000000000E+00 -0.13960623067E+04  0.13960623067E+04  0.25500000920E-02 0. -1.
    10030    2    1    2    0    0  0.00000000000E+00  0.00000000000E+00 -0.62430821345E+03  0.21678163999E+04  0.20759737952E+04 0.  0.
        5    1    3    3  502    0  0.99903208242E+03 -0.13171831434E+03 -0.57212578831E+03  0.11587772969E+04  0.46999998093E+01 0.  1.
       -5    1    3    3    0  502 -0.99903208242E+03  0.13171831434E+03 -0.52182425136E+02  0.10090391031E+04  0.46999998093E+01 0. -1.
</event>
<event>
 5   0  0.8872777E-05  0.2113808E+04  0.7818609E-02  0.8555185E-01
        2   -1    0    0  501    0  0.00000000000E+00  0.00000000000E+00  0.97749072767E+03  0.97749072767E+03  0.25500000920E-02 0. -1.
       -2   -1    0    0    0  501  0.00000000000E+00  0.00000000000E+00 -0.11427686391E+04  0.11427686391E+04  0.25500000920E-02 0.  1.
    10030    2    1    2    0    0  0.00000000000E+00  0.00000000000E+00 -0.16527791147E+03  0.21202593668E+04  0.21138077005E+04 0.  0.
        3    1    3    3  502    0  0.14339358070E+03  0.40953386268E+03 -0.10493054755E+04  0.11354830227E+04  0.10100000352E+00 0.  1.
       -3    1    3    3    0  502 -0.14339358070E+03 -0.40953386268E+03  0.88402756407E+03  0.98477634410E+03  0.10100000352E+00 0. -1.
</event>
<event>
 5   0  0.4128678E-05  0.2103765E+04  0.7818609E-02  0.8559587E-01
        1   -1    0    0  501    0  0.00000000000E+00  0.00000000000E+00  0.11886287645E+04  0.11886287645E+04  0.50400001928E-02 0. -1.
       -1   -1    0    0    0  501  0.00000000000E+00  0.00000000000E+00 -0.93086821636E+03  0.93086821638E+03  0.50400001928E-02 0.  1.
    10030    2    1    2    0    0  0.00000000000E+00  0.00000000000E+00  0.25776054811E+03  0.21194969809E+04  0.21037649469E+04 0.  0.
        5    1    3    3  502    0  0.42796466093E+03  0.21843483529E+03  0.10715950403E+04  0.11743958228E+04  0.46999998093E+01 0. -1.
       -5    1    3    3    0  502 -0.42796466093E+03 -0.21843483529E+03 -0.81383449218E+03  0.94510115804E+03  0.46999998093E+01 0.  1.
</event>
<event>
 5   0  0.9086985E-05  0.2086330E+04  0.7818609E-02  0.8567289E-01
       -2   -1    0    0    0  501  0.00000000000E+00  0.00000000000E+00  0.82327134516E+03  0.82327134516E+03  0.25500000920E-02 0. -1.
        2   -1    0    0  501    0  0.00000000000E+00  0.00000000000E+00 -0.13217915016E+04  0.13217915016E+04  0.25500000920E-02 0.  1.
    10030    2    1    2    0    0  0.00000000000E+00  0.00000000000E+00 -0.49852015642E+03  0.21450628467E+04  0.20863298565E+04 0.  0.
        5    1    3    3  502    0 -0.97797775418E+03 -0.28483638210E+03 -0.48053409095E+03  0.11262803180E+04  0.46999998093E+01 0.  1.
       -5    1    3    3    0  502  0.97797775418E+03  0.28483638210E+03 -0.17986065465E+02  0.10187825287E+04  0.46999998093E+01 0. -1.
</event>
<event>
 5   0  0.9012466E-05  0.2104195E+04  0.7818609E-02  0.8559398E-01
       -2   -1    0    0    0  501  0.00000000000E+00  0.00000000000E+00  0.11013838420E+04  0.11013838420E+04  0.25500000920E-02 0. -1.
        2   -1    0    0  501    0  0.00000000000E+00  0.00000000000E+00 -0.10050168665E+04  0.10050168665E+04  0.25500000920E-02 0.  1.
    10030    2    1    2    0    0  0.00000000000E+00  0.00000000000E+00  0.96366975503E+02  0.21064007086E+04  0.21041951790E+04 0.  0.
        2    1    3    3  502    0 -0.72139663004E+03  0.13040068545E+03 -0.70725437347E+03  0.10186393795E+04  0.25500000920E-02 0.  1.
       -2    1    3    3    0  502  0.72139663004E+03 -0.13040068545E+03  0.80362134897E+03  0.10877613291E+04  0.25500000920E-02 0. -1.
</event>
<event>
 5   0  0.9086985E-05  0.2095673E+04  0.7818609E-02  0.8563152E-01
        2   -1    0    0  501    0  0.00000000000E+00  0.00000000000E+00  0.17256300257E+04  0.17256300257E+04  0.25500000920E-02 0.  1.
       -2   -1    0    0    0  501  0.00000000000E+00  0.00000000000E+00 -0.63626722901E+03  0.63626722902E+03  0.25500000920E-02 0. -1.
    10030    2    1    2    0    0  0.00000000000E+00  0.00000000000E+00  0.10893627967E+04  0.23618972547E+04  0.20956734810E+04 0.  0.
        5    1    3    3  502    0 -0.14348378467E+03  0.10355754255E+04  0.62386060868E+03  0.12174679492E+04  0.46999998093E+01 0.  1.
       -5    1    3    3    0  502  0.14348378467E+03 -0.10355754255E+04  0.46550218801E+03  0.11444293055E+04  0.46999998093E+01 0. -1.
</event>
<event>
 5   0  0.4182977E-05  0.2097835E+04  0.7818609E-02  0.8562198E-01
        1   -1    0    0  501    0  0.00000000000E+00  0.00000000000E+00  0.10113048150E+04  0.10113048150E+04  0.50400001928E-02 0. -1.
       -1   -1    0    0    0  501  0.00000000000E+00  0.00000000000E+00 -0.10879291109E+04  0.10879291109E+04  0.50400001928E-02 0.  1.
    10030    2    1    2    0    0  0.00000000000E+00  0.00000000000E+00 -0.76624295901E+02  0.20992339259E+04  0.20978350252E+04 0.  0.
        1    1    3    3  502    0  0.54061123600E+03 -0.52691259359E+03  0.69041144545E+03  0.10230177681E+04  0.50400001928E-02 0. -1.
       -1    1    3    3    0  502 -0.54061123600E+03  0.52691259359E+03 -0.76703574135E+03  0.10762161578E+04  0.50400001928E-02 0.  1.
</event>
<event>
 5   0  0.9012466E-05  0.2089859E+04  0.7818609E-02  0.8565724E-01
       -2   -1    0    0    0  501  0.00000000000E+00  0.00000000000E+00  0.10829357971E+04  0.10829357971E+04  0.25500000920E-02 0. -1.
        2   -1    0    0  501    0  0.00000000000E+00  0.00000000000E+00 -0.10082572751E+04  0.10082572751E+04  0.25500000920E-02 0.  1.
    10030    2    1    2    0    0  0.00000000000E+00  0.00000000000E+00  0.74678522004E+02  0.20911930723E+04  0.20898592258E+04 0.  0.
        2    1    3    3  502    0 -0.10041226400E+03  0.81704960232E+03 -0.60667482681E+03  0.10225981718E+04  0.25500000920E-02 0.  1.
       -2    1    3    3    0  502  0.10041226400E+03 -0.81704960232E+03  0.68135334882E+03  0.10685949005E+04  0.25500000920E-02 0. -1.
</event>
<event>
 5   0  0.4128678E-05  0.2115483E+04  0.7818609E-02  0.8554454E-01
        1   -1    0    0  501    0  0.00000000000E+00  0.00000000000E+00  0.10518904990E+04  0.10518904991E+04  0.50400001928E-02 0. -1.
       -1   -1    0    0    0  501  0.00000000000E+00  0.00000000000E+00 -0.10636249600E+04  0.10636249600E+04  0.50400001928E-02 0.  1.
    10030    2    1    2    0    0  0.00000000000E+00  0.00000000000E+00 -0.11734460960E+02  0.21155154591E+04  0.21154829141E+04 0.  0.
        5    1    3    3  502    0 -0.63312854616E+03  0.84631101844E+03 -0.47108671267E+02  0.10579864899E+04  0.46999998093E+01 0.  1.
       -5    1    3    3    0  502  0.63312854616E+03 -0.84631101844E+03  0.35374210307E+02  0.10575289692E+04  0.46999998093E+01 0. -1.
</event>
<event>
 5   0  0.4174093E-05  0.2154904E+04  0.7818609E-02  0.8537436E-01
       -1   -1    0    0    0  501  0.00000000000E+00  0.00000000000E+00  0.10397177522E+04  0.10397177522E+04  0.50400001928E-02 0. -1.
        1   -1    0    0  501    0  0.00000000000E+00  0.00000000000E+00 -0.11165555073E+04  0.11165555073E+04  0.50400001928E-02 0.  1.
    10030    2    1    2    0    0  0.00000000000E+00  0.00000000000E+00 -0.76837755117E+02  0.21562732595E+04  0.21549037865E+04 0.  0.
        3    1    3    3  502    0 -0.10381826579E+04  0.43078313436E+02 -0.32359754117E+03  0.10882988336E+04  0.10100000352E+00 0. -1.
       -3    1    3    3    0  502  0.10381826579E+04 -0.43078313436E+02  0.24675978605E+03  0.10679744259E+04  0.10100000352E+00 0.  1.
</event>
<event>
 5   0  0.8547605E-05  0.2113587E+04  0.7818609E-02  0.8555282E-01
        2   -1    0    0  501    0  0.00000000000E+00  0.00000000000E+00  0.97692551961E+03  0.97692551961E+03  0.25500000920E-02 0. -1.
       -2   -1    0    0    0  501  0.00000000000E+00  0.00000000000E+00 -0.11431912229E+04  0.11431912229E+04  0.25500000920E-02 0.  1.
    10030    2    1    2    0    0  0.00000000000E+00  0.00000000000E+00 -0.16626570326E+03  0.21201167425E+04  0.21135871682E+04 0.  0.
        4    1    3    3  502    0  0.81655807233E+03 -0.36856439648E+03 -0.64540380816E+03  0.11041532902E+04  0.12699999809E+01 0.  1.
       -4    1    3    3    0  502 -0.81655807233E+03  0.36856439648E+03  0.47913810490E+03  0.10159634523E+04  0.12699999809E+01 0. -1.
</event>
<event>
 5   0  0.4174093E-05  0.2108936E+04  0.7818609E-02  0.8557317E-01
       -1   -1    0    0    0  501  0.00000000000E+00  0.00000000000E+00  0.86209085008E+03  0.86209085010E+03  0.50400001928E-02 0.  1.
        1   -1    0    0  501    0  0.00000000000E+00  0.00000000000E+00 -0.12897738913E+04  0.12897738913E+04  0.50400001928E-02 0. -1.
    10030    2    1    2    0    0  0.00000000000E+00  0.00000000000E+00 -0.42768304121E+03  0.21518647414E+04  0.21089355328E+04 0.  0.
        3    1    3    3  502    0 -0.64183467388E+03  0.58124522555E+03  0.40015883982E+03  0.95389982079E+03  0.10100000352E+00 0.  1.
       -3    1    3    3    0  502  0.64183467388E+03 -0.58124522555E+03 -0.82784188103E+03  0.11979649206E+04  0.10100000352E+00 0. -1.
</event>
<event>
 5   0  0.4200061E-05  0.2038916E+04  0.7818609E-02  0.8588639E-01
       -1   -1    0    0    0  501  0.00000000000E+00  0.00000000000E+00  0.67874290549E+03  0.67874290551E+03  0.50400001928E-02 0. -1.
        1   -1    0    0  501    0  0.00000000000E+00  0.00000000000E+00 -0.15312044510E+04  0.15312044510E+04  0.50400001928E-02 0.  1.
    10030    2    1    2    0    0  0.00000000000E+00  0.00000000000E+00 -0.85246154552E+03  0.22099473565E+04  0.20389155529E+04 0.  0.
        4    1    3    3  502    0  0.88552020605E+03  0.24403209780E+03  0.53128786118E+02  0.92006629157E+03  0.12699999809E+01 0. -1.
       -4    1    3    3    0  502 -0.88552020605E+03 -0.24403209780E+03 -0.90559033164E+03  0.12898810650E+04  0.12699999809E+01 0.  1.
</event>
<event>
 5   0  0.4174093E-05  0.2112041E+04  0.7818609E-02  0.8555958E-01
       -1   -1    0    0    0  501  0.00000000000E+00  0.00000000000E+00  0.58229717433E+03  0.58229717435E+03  0.50400001928E-02 0. -1.
        1   -1    0    0  501    0  0.00000000000E+00  0.00000000000E+00 -0.19151380643E+04  0.19151380643E+04  0.50400001928E-02 0.  1.
    10030    2    1    2    0    0  0.00000000000E+00  0.00000000000E+00 -0.13328408900E+04  0.24974352386E+04  0.21120411770E+04 0.  0.
        3    1    3    3  502    0  0.38774778772E+03  0.92239981783E+03 -0.10656868414E+04  0.14617996528E+04  0.10100000352E+00 0. -1.
       -3    1    3    3    0  502 -0.38774778772E+03 -0.92239981783E+03 -0.26715404858E+03  0.10356355859E+04  0.10100000352E+00 0.  1.
</event>
<event>
 5   0  0.8872777E-05  0.2090823E+04  0.7818609E-02  0.8565297E-01
       -2   -1    0    0    0  501  0.00000000000E+00  0.00000000000E+00  0.78657949556E+03  0.78657949557E+03  0.25500000920E-02 0.  1.
        2   -1    0    0  501    0  0.00000000000E+00  0.00000000000E+00 -0.13894142347E+04  0.13894142347E+04  0.25500000920E-02 0. -1.
    10030    2    1    2    0    0  0.00000000000E+00  0.00000000000E+00 -0.60283473914E+03  0.21759937303E+04  0.20908225634E+04 0.  0.
        3    1    3    3  502    0  0.89073283529E+03  0.22195317085E+03  0.21917580751E+03  0.94377234475E+03  0.10100000352E+00 0.  1.
       -3    1    3    3    0  502 -0.89073283529E+03 -0.22195317085E+03 -0.82201054665E+03  0.12322213855E+04  0.10100000352E+00 0. -1.
</event>
<event>
 5   0  0.4200061E-05  0.2078224E+04  0.7818609E-02  0.8570897E-01
       -1   -1    0    0    0  501  0.00000000000E+00  0.00000000000E+00  0.95674864007E+03  0.95674864008E+03  0.50400001928E-02 0. -1.
        1   -1    0    0  501    0  0.00000000000E+00  0.00000000000E+00 -0.11285656087E+04  0.11285656087E+04  0.50400001928E-02 0.  1.
    10030    2    1    2    0    0  0.00000000000E+00  0.00000000000E+00 -0.17181696861E+03  0.20853142488E+04  0.20782238680E+04 0.  0.
        4    1    3    3  502    0 -0.49406981525E+03 -0.48194252720E+02 -0.10018889530E+04  0.11181282375E+04  0.12699999809E+01 0.  1.
       -4    1    3    3    0  502  0.49406981525E+03  0.48194252720E+02  0.83007198439E+03  0.96718601133E+03  0.12699999809E+01 0. -1.
</event>
<event>
 5   0  0.4128678E-05  0.2111171E+04  0.7818609E-02  0.8556338E-01
        1   -1    0    0  501    0  0.00000000000E+00  0.00000000000E+00  0.69445348745E+03  0.69445348747E+03  0.50400001928E-02 0. -1.
       -1   -1    0    0    0  501  0.00000000000E+00  0.00000000000E+00 -0.16045150871E+04  0.16045150871E+04  0.50400001928E-02 0.  1.
    10030    2    1    2    0    0  0.00000000000E+00  0.00000000000E+00 -0.91006159969E+03  0.22989685746E+04  0.21111713317E+04 0.  0.
        5    1    3    3  502    0  0.67073940170E+03 -0.38633594176E+03 -0.12365722979E+04  0.14588625510E+04  0.46999998093E+01 0.  1.
       -5    1    3    3    0  502 -0.67073940170E+03  0.38633594176E+03  0.32651069818E+03  0.84010602361E+03  0.46999998093E+01 0. -1.
</event>
<event>
 5   0  0.9086985E-05  0.2117479E+04  0.7818609E-02  0.8553583E-01
        2   -1    0    0  501    0  0.00000000000E+00  0.00000000000E+00  0.13046162248E+04  0.13046162248E+04  0.25500000920E-02 0. -1.
       -2   -1    0    0    0  501  0.00000000000E+00  0.00000000000E+00 -0.85920215236E+03  0.85920215236E+03  0.25500000920E-02 0.  1.
    10030    2    1    2    0    0  0.00000000000E+00  0.00000000000E+00  0.44541407240E+03  0.21638183771E+04  0.21174787539E+04 0.  0.
        5    1    3    3  502    0 -0.85685988472E+03 -0.56439134917E+03  0.48949620560E+03  0.11368267600E+04  0.46999998093E+01 0. -1.
       -5    1    3    3    0  502  0.85685988472E+03  0.56439134917E+03 -0.44082133196E+02  0.10269916171E+04  0.46999998093E+01 0.  1.
</event>
<event>
 5   0  0.4128678E-05  0.2111963E+04  0.7818609E-02  0.8555992E-01
        1   -1    0    0  501    0  0.00000000000E+00  0.00000000000E+00  0.14380885546E+04  0.14380885546E+04  0.50400001928E-02 0. -1.
       -1   -1    0    0    0  501  0.00000000000E+00  0.00000000000E+00 -0.77540242628E+03  0.77540242630E+03  0.50400001928E-02 0.  1.
    10030    2    1    2    0    0  0.00000000000E+00  0.00000000000E+00  0.66268612829E+03  0.22134909809E+04  0.21119634035E+04 0.  0.
        5    1    3    3  502    0  0.92586504192E+03 -0.46307004266E+03  0.11296304859E+03  0.10413657766E+04  0.46999998093E+01 0.  1.
       -5    1    3    3    0  502 -0.92586504192E+03  0.46307004266E+03  0.54972307970E+03  0.11721252043E+04  0.46999998093E+01 0. -1.
</event>
<event>
 5   0  0.8547605E-05  0.2121121E+04  0.7818609E-02  0.8551996E-01
        2   -1    0    0  501    0  0.00000000000E+00  0.00000000000E+00  0.11543716089E+04  0.11543716089E+04  0.25500000920E-02 0. -1.
       -2   -1    0    0    0  501  0.00000000000E+00  0.00000000000E+00 -0.97437266413E+03  0.97437266413E+03  0.25500000920E-02 0.  1.
    10030    2    1    2    0    0  0.00000000000E+00  0.00000000000E+00  0.17999894475E+03  0.21287442730E+04  0.21211205906E+04 0.  0.
        4    1    3    3  502    0  0.42979238819E+03 -0.96810001249E+03  0.36446687248E+02  0.10598439060E+04  0.12699999809E+01 0.  1.
       -4    1    3    3    0  502 -0.42979238819E+03  0.96810001249E+03  0.14355225751E+03  0.10689003670E+04  0.12699999809E+01 0. -1.
</event>
<event>
 5   0  0.4200061E-05  0.2094169E+04  0.7818609E-02  0.8563816E-01
       -1   -1    0    0    0  501  0.00000000000E+00  0.00000000000E+00  0.42871309433E+03  0.42871309436E+03  0.50400001928E-02 0. -1.
        1   -1    0    0  501    0  0.00000000000E+00  0.00000000000E+00 -0.25573881571E+04  0.25573881571E+04  0.50400001928E-02 0.  1.
    10030    2    1    2    0    0  0.00000000000E+00  0.00000000000E+00 -0.21286750628E+04  0.29861012515E+04  0.20941688473E+04 0.  0.
        4    1    3    3  502    0  0.91224617989E+03  0.43123451518E+03 -0.66552058080E+03  0.12087495837E+04  0.12699999809E+01 0.  1.
       -4    1    3    3    0  502 -0.91224617989E+03 -0.43123451518E+03 -0.14631544820E+04  0.17773516678E+04  0.12699999809E+01 0. -1.
</event>
<event>
 5   0  0.4050368E-05  0.2092624E+04  0.7818609E-02  0.8564499E-01
       -1   -1    0    0    0  501  0.00000000000E+00  0.00000000000E+00  0.84580700379E+03  0.84580700380E+03  0.50400001928E-02 0.  1.
        1   -1    0    0  501    0  0.00000000000E+00  0.00000000000E+00 -0.12943487321E+04  0.12943487321E+04  0.50400001928E-02 0. -1.
    10030    2    1    2    0    0  0.00000000000E+00  0.00000000000E+00 -0.44854172831E+03  0.21401557359E+04  0.20926244030E+04 0.  0.
        2    1    3    3  502    0  0.81744596534E+02  0.10100582029E+04  0.42164165165E+02  0.10142374324E+04  0.25500000920E-02 0. -1.
       -2    1    3    3    0  502 -0.81744596534E+02 -0.10100582029E+04 -0.49070589347E+03  0.11259183035E+04  0.25500000920E-02 0.  1.
</event>
<event>
 5   0  0.4174093E-05  0.2101231E+04  0.7818609E-02  0.8560701E-01
       -1   -1    0    0    0  501  0.00000000000E+00  0.00000000000E+00  0.66399236152E+03  0.66399236154E+03  0.50400001928E-02 0.  1.
        1   -1    0    0  501    0  0.00000000000E+00  0.00000000000E+00 -0.16623577896E+04  0.16623577897E+04  0.50400001928E-02 0. -1.
    10030    2    1    2    0    0  0.00000000000E+00  0.00000000000E+00 -0.99836542813E+03  0.23263501512E+04  0.21012309482E+04 0.  0.
        3    1    3    3  502    0  0.88763152304E+03  0.15291195685E+02  0.12285609883E+03  0.89622384067E+03  0.10100000352E+00 0.  1.
       -3    1    3    3    0  502 -0.88763152304E+03 -0.15291195685E+02 -0.11212215270E+04  0.14301263105E+04  0.10100000352E+00 0. -1.
</event>
<event>
 5   0  0.8872777E-05  0.2075383E+04  0.7818609E-02  0.8572165E-01
        2   -1    0    0  501    0  0.00000000000E+00  0.00000000000E+00  0.21677230311E+04  0.21677230311E+04  0.25500000920E-02 0. -1.
       -2   -1    0    0    0  501  0.00000000000E+00  0.00000000000E+00 -0.49674417870E+03  0.49674417870E+03  0.25500000920E-02 0.  1.
    10030    2    1    2    0    0  0.00000000000E+00  0.00000000000E+00  0.16709788524E+04  0.26644672098E+04  0.20753831422E+04 0.  0.
        3    1    3    3  502    0 -0.10184764703E+04  0.96350114009E+02  0.61228474046E+03  0.11922542844E+04  0.10100000352E+00 0. -1.
       -3    1    3    3    0  502  0.10184764703E+04 -0.96350114009E+02  0.10586941119E+04  0.14722129254E+04  0.10100000352E+00 0.  1.
</event>
<event>
 5   0  0.4050368E-05  0.2046734E+04  0.7818609E-02  0.8585077E-01
       -1   -1    0    0    0  501  0.00000000000E+00  0.00000000000E+00  0.11469911296E+04  0.11469911296E+04  0.50400001928E-02 0. -1.
        1   -1    0    0  501    0  0.00000000000E+00  0.00000000000E+00 -0.91306742017E+03  0.91306742018E+03  0.50400001928E-02 0.  1.
    10030    2    1    2    0    0  0.00000000000E+00  0.00000000000E+00  0.23392370940E+03  0.20600585498E+04  0.20467342101E+04 0.  0.
        2    1    3    3  502    0 -0.30824012955E+02 -0.73165625347E+03 -0.60254094988E+03  0.94832831304E+03  0.25500000920E-02 0.  1.
       -2    1    3    3    0  502  0.30824012955E+02  0.73165625347E+03  0.83646465928E+03  0.11117302367E+04  0.25500000920E-02 0. -1.
</event>
<event>
 5   0  0.4050368E-05  0.2102236E+04  0.7818609E-02  0.8560259E-01
       -1   -1    0    0    0  501  0.00000000000E+00  0.00000000000E+00  0.13909106977E+04  0.13909106978E+04  0.50400001928E-02 0. -1.
        1   -1    0    0  501    0  0.00000000000E+00  0.00000000000E+00 -0.79433525894E+03  0.79433525896E+03  0.50400001928E-02 0.  1.
    10030    2    1    2    0    0  0.00000000000E+00  0.00000000000E+00  0.59657543880E+03  0.21852459567E+04  0.21022363419E+04 0.  0.
        2    1    3    3  502    0 -0.68877451408E+03 -0.41145761121E+03  0.10041760293E+04  0.12853315505E+04  0.25500000920E-02 0. -1.
       -2    1    3    3    0  502  0.68877451408E+03  0.41145761121E+03 -0.40760059046E+03  0.89991440617E+03  0.25500000920E-02 0.  1.
</event>
<event>
 5   0  0.9086985E-05  0.2104643E+04  0.7818609E-02  0.8559201E-01
        2   -1    0    0  501    0  0.00000000000E+00  0.00000000000E+00  0.20356070325E+04  0.20356070325E+04  0.25500000920E-02 0.  1.
       -2   -1    0    0    0  501  0.00000000000E+00  0.00000000000E+00 -0.54400482809E+03  0.54400482810E+03  0.25500000920E-02 0. -1.
    10030    2    1    2    0    0  0.00000000000E+00  0.00000000000E+00  0.14916022044E+04  0.25796118606E+04  0.21046425386E+04 0.  0.
        5    1    3    3  502    0  0.32274432624E+03  0.10015569434E+04  0.75660882076E+03  0.12960552491E+04  0.46999998093E+01 0. -1.
       -5    1    3    3    0  502 -0.32274432624E+03 -0.10015569434E+04  0.73499338366E+03  0.12835566115E+04  0.46999998093E+01 0.  1.
</event>
<event>
 5   0  0.8547605E-05  0.2102141E+04  0.7818609E-02  0.8560301E-01
        2   -1    0    0  501    0  0.00000000000E+00  0.00000000000E+00  0.14386863688E+04  0.14386863688E+04  0.25500000920E-02 0.  1.
       -2   -1    0    0    0  501  0.00000000000E+00  0.00000000000E+00 -0.76788773714E+03  0.76788773714E+03  0.25500000920E-02 0. -1.
    10030    2    1    2    0    0  0.00000000000E+00  0.00000000000E+00  0.67079863169E+03  0.22065741060E+04  0.21021414036E+04 0.  0.
        4    1    3    3  502    0  0.30456214722E+03  0.26001494112E+03 -0.68467185331E+03  0.79318536972E+03  0.12699999809E+01 0. -1.
       -4    1    3    3    0  502 -0.30456214722E+03 -0.26001494112E+03  0.13554704850E+04  0.14133887362E+04  0.12699999809E+01 0.  1.
</event>
<event>
 5   0  0.4050368E-05  0.1957139E+04  0.7818609E-02  0.8626926E-01
       -1   -1    0    0    0  501  0.00000000000E+00  0.00000000000E+00  0.84487033945E+03  0.84487033946E+03  0.50400001928E-02 0. -1.
        1   -1    0    0  501    0  0.00000000000E+00  0.00000000000E+00 -0.11334260326E+04  0.11334260326E+04  0.50400001928E-02 0.  1.
    10030    2    1    2    0    0  0.00000000000E+00  0.00000000000E+00 -0.28855569313E+03  0.19782963720E+04  0.19571387656E+04 0.  0.
        2    1    3    3  502    0  0.67509830590E+03  0.31490639596E+03  0.49714832872E+03  0.89558931526E+03  0.25500000920E-02 0. -1.
       -2    1    3    3    0  502 -0.67509830590E+03 -0.31490639596E+03 -0.78570402185E+03  0.10827070568E+04  0.25500000920E-02 0.  1.
</event>
<event>
 5   0  0.4182977E-05  0.2077740E+04  0.7818609E-02  0.8571113E-01
        1   -1    0    0  501    0  0.00000000000E+00  0.00000000000E+00  0.15633452702E+04  0.15633452702E+04  0.50400001928E-02 0. -1.
       -1   -1    0    0    0  501  0.00000000000E+00  0.00000000000E+00 -0.69034720683E+03  0.69034720685E+03  0.50400001928E-02 0.  1.
    10030    2    1    2    0    0  0.00000000000E+00  0.00000000000E+00  0.87299806335E+03  0.22536924770E+04  0.20777401576E+04 0.  0.
        1    1    3    3  502    0 -0.24361991306E+03  0.21441237982E+03 -0.63395194442E+03  0.71219266952E+03  0.50400001928E-02 0.  1.
       -1    1    3    3    0  502  0.24361991306E+03 -0.21441237982E+03  0.15069500078E+04  0.15414998075E+04  0.50400001928E-02 0. -1.
</event>
<event>
 5   0  0.4174093E-05  0.2102199E+04  0.7818609E-02  0.8560275E-01
       -1   -1    0    0    0  501  0.00000000000E+00  0.00000000000E+00  0.95665081391E+03  0.95665081392E+03  0.50400001928E-02 0.  1.
        1   -1    0    0  501    0  0.00000000000E+00  0.00000000000E+00 -0.11548725567E+04  0.11548725567E+04  0.50400001928E-02 0. -1.
    10030    2    1    2    0    0  0.00000000000E+00  0.00000000000E+00 -0.19822174275E+03  0.21115233706E+04  0.21021986313E+04 0.  0.
        3    1    3    3  502    0  0.23306123544E+03  0.85788730014E+03  0.46419902759E+03  0.10028803052E+04  0.10100000352E+00 0.  1.
       -3    1    3    3    0  502 -0.23306123544E+03 -0.85788730014E+03 -0.66242077035E+03  0.11086430654E+04  0.10100000352E+00 0. -1.
</event>
<event>
 5   0  0.9012466E-05  0.2110976E+04  0.7818609E-02  0.8556424E-01
        2   -1    0    0  501    0  0.00000000000E+00  0.00000000000E+00  0.10447612986E+04  0.10447612986E+04  0.25500000920E-02 0. -1.
       -2   -1    0    0    0  501  0.00000000000E+00  0.00000000000E+00 -0.10663243728E+04  0.10663243728E+04  0.25500000920E-02 0.  1.
    10030    2    1    2    0    0  0.00000000000E+00  0.00000000000E+00 -0.21563074240E+02  0.21110856714E+04  0.21109755436E+04 0.  0.
        2    1    3    3  502    0  0.44192942090E+03 -0.57560827175E+02  0.94605444277E+03  0.10457695112E+04  0.25500000920E-02 0. -1.
       -2    1    3    3    0  502 -0.44192942090E+03  0.57560827175E+02 -0.96761751701E+03  0.10653161602E+04  0.25500000920E-02 0.  1.
</event>
<event>
 5   0  0.4182977E-05  0.2106184E+04  0.7818609E-02  0.8558524E-01
        1   -1    0    0  501    0  0.00000000000E+00  0.00000000000E+00  0.11737131458E+04  0.11737131458E+04  0.50400001928E-02 0.  1.
       -1   -1    0    0    0  501  0.00000000000E+00  0.00000000000E+00 -0.94486717198E+03  0.94486717200E+03  0.50400001928E-02 0. -1.
    10030    2    1    2    0    0  0.00000000000E+00  0.00000000000E+00  0.22884597382E+03  0.21185803178E+04  0.21061842472E+04 0.  0.
        1    1    3    3  502    0  0.31967691147E+03  0.31462147592E+03  0.10728282027E+04  0.11628157006E+04  0.50400001928E-02 0.  1.
       -1    1    3    3    0  502 -0.31967691147E+03 -0.31462147592E+03 -0.84398222892E+03  0.95576461725E+03  0.50400001928E-02 0. -1.
</event>
<event>
 5   0  0.9086985E-05  0.2049814E+04  0.7818609E-02  0.8583679E-01
        2   -1    0    0  501    0  0.00000000000E+00  0.00000000000E+00  0.11774566760E+04  0.11774566760E+04  0.25500000920E-02 0.  1.
       -2   -1    0    0    0  501  0.00000000000E+00  0.00000000000E+00 -0.89212162395E+03  0.89212162396E+03  0.25500000920E-02 0. -1.
    10030    2    1    2    0    0  0.00000000000E+00  0.00000000000E+00  0.28533505200E+03  0.20695782999E+04  0.20498141983E+04 0.  0.
        5    1    3    3  502    0 -0.76053773327E+03 -0.84919856609E+02 -0.54565612275E+03  0.93988920627E+03  0.46999998093E+01 0. -1.
       -5    1    3    3    0  502  0.76053773327E+03  0.84919856609E+02  0.83099117475E+03  0.11296890936E+04  0.46999998093E+01 0.  1.
</event>
<event>
 5   0  0.4174093E-05  0.2130303E+04  0.7818609E-02  0.8548011E-01
        1   -1    0    0  501    0  0.00000000000E+00  0.00000000000E+00  0.15898442659E+04  0.15898442659E+04  0.50400001928E-02 0.  1.
       -1   -1    0    0    0  501  0.00000000000E+00  0.00000000000E+00 -0.71362175676E+03  0.71362175678E+03  0.50400001928E-02 0. -1.
    10030    2    1    2    0    0  0.00000000000E+00  0.00000000000E+00  0.87622250910E+03  0.23034660227E+04  0.21303027560E+04 0.  0.
        3    1    3    3  502    0 -0.21056613067E+03 -0.90791935556E+03  0.99567297602E+03  0.13638256256E+04  0.10100000352E+00 0.  1.
       -3    1    3    3    0  502  0.21056613067E+03  0.90791935556E+03 -0.11945046692E+03  0.93964039709E+03  0.10100000352E+00 0. -1.
</event>
<event>
 5   0  0.9012466E-05  0.2111528E+04  0.7818609E-02  0.8556182E-01
       -2   -1    0    0    0  501  0.00000000000E+00  0.00000000000E+00  0.10555252992E+04  0.10555252992E+04  0.25500000920E-02 0. -1.
        2   -1    0    0  501    0  0.00000000000E+00  0.00000000000E+00 -0.10560025495E+04  0.10560025495E+04  0.25500000920E-02 0.  1.
    10030    2    1    2    0    0  0.00000000000E+00  0.00000000000E+00 -0.47725027970E+00  0.21115278486E+04  0.21115277947E+04 0.  0.
        2    1    3    3  502    0 -0.86632038963E+03 -0.60073029097E+03  0.56765823241E+02  0.10557510401E+04  0.25500000920E-02 0.  1.
       -2    1    3    3    0  502  0.86632038963E+03  0.60073029097E+03 -0.57243073520E+02  0.10557768085E+04  0.25500000920E-02 0. -1.
</event>
<event>
 5   0  0.3176125E-05  0.2092331E+04  0.7818609E-02  0.8564629E-01
        3   -1    0    0  501    0  0.00000000000E+00  0.00000000000E+00  0.61501146734E+03  0.61501147564E+03  0.10100000352E+00 0. -1.
       -3   -1    0    0    0  501  0.00000000000E+00  0.00000000000E+00 -0.17795807999E+04  0.17795808028E+04  0.10100000352E+00 0.  1.
    10030    2    1    2    0    0  0.00000000000E+00  0.00000000000E+00 -0.11645693326E+04  0.23945922784E+04  0.20923313432E+04 0.  0.
        1    1    3    3  502    0 -0.13416472151E+03 -0.67882225850E+03  0.31570753883E+03  0.76057286386E+03  0.50400001928E-02 0. -1.
       -1    1    3    3    0  502  0.13416472151E+03  0.67882225850E+03 -0.14802768714E+04  0.16340194146E+04  0.50400001928E-02 0.  1.
</event>
<event>
 5   0  0.9086985E-05  0.2100738E+04  0.7818609E-02  0.8560918E-01
        2   -1    0    0  501    0  0.00000000000E+00  0.00000000000E+00  0.14198948474E+04  0.14198948474E+04  0.25500000920E-02 0. -1.
       -2   -1    0    0    0  501  0.00000000000E+00  0.00000000000E+00 -0.77701179053E+03  0.77701179054E+03  0.25500000920E-02 0.  1.
    10030    2    1    2    0    0  0.00000000000E+00  0.00000000000E+00  0.64288305682E+03  0.21969066379E+04  0.21007380015E+04 0.  0.
        5    1    3    3  502    0 -0.77030097871E+03 -0.70125613447E+03  0.46225001644E+03  0.11396582521E+04  0.46999998093E+01 0. -1.
       -5    1    3    3    0  502  0.77030097871E+03  0.70125613447E+03  0.18063304038E+03  0.10572483858E+04  0.46999998093E+01 0.  1.
</event>
<event>
 5   0  0.4182977E-05  0.2100618E+04  0.7818609E-02  0.8560971E-01
       -1   -1    0    0    0  501  0.00000000000E+00  0.00000000000E+00  0.21630094308E+04  0.21630094308E+04  0.50400001928E-02 0.  1.
        1   -1    0    0  501    0  0.00000000000E+00  0.00000000000E+00 -0.51000665446E+03  0.51000665448E+03  0.50400001928E-02 0. -1.
    10030    2    1    2    0    0  0.00000000000E+00  0.00000000000E+00  0.16530027763E+04  0.26730160852E+04  0.21006181979E+04 0.  0.
        1    1    3    3  502    0 -0.75811889365E+03 -0.72348916226E+03  0.91619505669E+03  0.13919749304E+04  0.50400001928E-02 0. -1.
       -1    1    3    3    0  502  0.75811889365E+03  0.72348916226E+03  0.73680771961E+03  0.12810411549E+04  0.50400001928E-02 0.  1.
</event>
<event>
 5   0  0.4050368E-05  0.2068979E+04  0.7818609E-02  0.8575033E-01
        1   -1    0    0  501    0  0.00000000000E+00  0.00000000000E+00  0.20503056850E+04  0.20503056850E+04  0.50400001928E-02 0. -1.
       -1   -1    0    0    0  501  0.00000000000E+00  0.00000000000E+00 -0.52195557691E+03  0.52195557694E+03  0.50400001928E-02 0.  1.
    10030    2    1    2    0    0  0.00000000000E+00  0.00000000000E+00  0.15283501081E+04  0.25722612619E+04  0.20689789624E+04 0.  0.
        2    1    3    3  502    0  0.73264607251E+03 -0.51403842651E+03  0.11916504648E+03  0.90288763410E+03  0.25500000920E-02 0.  1.
       -2    1    3    3    0  502 -0.73264607251E+03  0.51403842651E+03  0.14091850616E+04  0.16693736278E+04  0.25500000920E-02 0. -1.
</event>
<event>
 5   0  0.8872777E-05  0.2079804E+04  0.7818609E-02  0.8570193E-01
       -2   -1    0    0    0  501  0.00000000000E+00  0.00000000000E+00  0.41175782939E+03  0.41175782940E+03  0.25500000920E-02 0. -1.
        2   -1    0    0  501    0  0.00000000000E+00  0.00000000000E+00 -0.26262910311E+04  0.26262910311E+04  0.25500000920E-02 0.  1.
    10030    2    1    2    0    0  0.00000000000E+00  0.00000000000E+00 -0.22145332017E+04  0.30380488605E+04  0.20798037353E+04 0.  0.
        3    1    3    3  502    0  0.70699750801E+03  0.74606175301E+03 -0.13379627660E+04  0.16871864120E+04  0.10100000352E+00 0. -1.
       -3    1    3    3    0  502 -0.70699750801E+03 -0.74606175301E+03 -0.87657043570E+03  0.13508624484E+04  0.10100000352E+00 0.  1.
</event>
<event>
 5   0  0.4128678E-05  0.2049245E+04  0.7818609E-02  0.8583937E-01
        1   -1    0    0  501    0  0.00000000000E+00  0.00000000000E+00  0.11666556351E+04  0.11666556351E+04  0.50400001928E-02 0.  1.
       -1   -1    0    0    0  501  0.00000000000E+00  0.00000000000E+00 -0.89988090945E+03  0.89988090947E+03  0.50400001928E-02 0. -1.
    10030    2    1    2    0    0  0.00000000000E+00  0.00000000000E+00  0.26677472563E+03  0.20665365446E+04  0.20492448696E+04 0.  0.
        5    1    3    3  502    0 -0.83434414654E+03  0.60737235376E+02  0.72999578985E+03  0.11102860486E+04  0.46999998093E+01 0.  1.
       -5    1    3    3    0  502  0.83434414654E+03 -0.60737235376E+02 -0.46322106421E+03  0.95625049592E+03  0.46999998093E+01 0. -1.
</event>
<event>
 5   0  0.8858590E-05  0.2111690E+04  0.7818609E-02  0.8556111E-01
        2   -1    0    0  501    0  0.00000000000E+00  0.00000000000E+00  0.12945756370E+04  0.12945756370E+04  0.25500000920E-02 0.  1.
       -2   -1    0    0    0  501  0.00000000000E+00  0.00000000000E+00 -0.86113810803E+03  0.86113810804E+03  0.25500000920E-02 0. -1.
    10030    2    1    2    0    0  0.00000000000E+00  0.00000000000E+00  0.43343752898E+03  0.21557137451E+04  0.21116897639E+04 0.  0.
        1    1    3    3  502    0 -0.76397240371E+03 -0.45242446810E+03 -0.36656569902E+03  0.96057906738E+03  0.50400001928E-02 0. -1.
       -1    1    3    3    0  502  0.76397240371E+03  0.45242446810E+03  0.80000322800E+03  0.11951346777E+04  0.50400001928E-02 0.  1.
</event>
<event>
 5   0  0.4182977E-05  0.2089310E+04  0.7818609E-02  0.8565967E-01
        1   -1    0    0  501    0  0.00000000000E+00  0.00000000000E+00  0.68814589781E+03  0.68814589783E+03  0.50400001928E-02 0.  1.
       -1   -1    0    0    0  501  0.00000000000E+00  0.00000000000E+00 -0.15858612818E+04  0.15858612818E+04  0.50400001928E-02 0. -1.
    10030    2    1    2    0    0  0.00000000000E+00  0.00000000000E+00 -0.89771538399E+03  0.22740071796E+04  0.20893098723E+04 0.  0.
        1    1    3    3  502    0  0.19731707556E+03  0.84880176992E+03  0.17818364957E+03  0.88946494361E+03  0.50400001928E-02 0.  1.
       -1    1    3    3    0  502 -0.19731707556E+03 -0.84880176992E+03 -0.10758990336E+04  0.13845422360E+04  0.50400001928E-02 0. -1.
</event>
<event>
 5   0  0.9012466E-05  0.2120060E+04  0.7818609E-02  0.8552458E-01
        2   -1    0    0  501    0  0.00000000000E+00  0.00000000000E+00  0.87737072343E+03  0.87737072344E+03  0.25500000920E-02 0. -1.
       -2   -1    0    0    0  501  0.00000000000E+00  0.00000000000E+00 -0.12807165328E+04  0.12807165328E+04  0.25500000920E-02 0.  1.
    10030    2    1    2    0    0  0.00000000000E+00  0.00000000000E+00 -0.40334580941E+03  0.21580872563E+04  0.21200596133E+04 0.  0.
        2    1    3    3  502    0 -0.60530737825E+03 -0.52858386996E+03  0.50200458348E+03  0.94752653345E+03  0.25500000920E-02 0. -1.
       -2    1    3    3    0  502  0.60530737825E+03  0.52858386996E+03 -0.90535039289E+03  0.12105607228E+04  0.25500000920E-02 0.  1.
</event>
<event>
 5   0  0.4174093E-05  0.2089337E+04  0.7818609E-02  0.8565955E-01
        1   -1    0    0  501    0  0.00000000000E+00  0.00000000000E+00  0.15742047335E+04  0.15742047335E+04  0.50400001928E-02 0.  1.
       -1   -1    0    0    0  501  0.00000000000E+00  0.00000000000E+00 -0.69325938295E+03  0.69325938297E+03  0.50400001928E-02 0. -1.
    10030    2    1    2    0    0  0.00000000000E+00  0.00000000000E+00  0.88094535055E+03  0.22674641165E+04  0.20893369304E+04 0.  0.
        3    1    3    3  502    0 -0.19761225984E+03  0.10120774892E+04  0.25893717726E+03  0.10632026718E+04  0.10100000352E+00 0.  1.
       -3    1    3    3    0  502  0.19761225984E+03 -0.10120774892E+04  0.62200817329E+03  0.12042614447E+04  0.10100000352E+00 0. -1.
</event>
<event>
 5   0  0.8547605E-05  0.2078344E+04  0.7818609E-02  0.8570844E-01
        2   -1    0    0  501    0  0.00000000000E+00  0.00000000000E+00  0.18575278097E+04  0.18575278097E+04  0.25500000920E-02 0.  1.
       -2   -1    0    0    0  501  0.00000000000E+00  0.00000000000E+00 -0.58135227580E+03  0.58135227581E+03  0.25500000920E-02 0. -1.
    10030    2    1    2    0    0  0.00000000000E+00  0.00000000000E+00  0.12761755339E+04  0.24388800855E+04  0.20783435900E+04 0.  0.
        4    1    3    3  502    0  0.32425345654E+03  0.31533386662E+03  0.17359598147E+04  0.17939157847E+04  0.12699999809E+01 0.  1.
       -4    1    3    3    0  502 -0.32425345654E+03 -0.31533386662E+03 -0.45978428081E+03  0.64496430079E+03  0.12699999809E+01 0. -1.
</event>
<event>
 5   0  0.8858590E-05  0.2127288E+04  0.7818609E-02  0.8549317E-01
       -2   -1    0    0    0  501  0.00000000000E+00  0.00000000000E+00  0.80941693697E+03  0.80941693698E+03  0.25500000920E-02 0. -1.
        2   -1    0    0  501    0  0.00000000000E+00  0.00000000000E+00 -0.13977209431E+04  0.13977209431E+04  0.25500000920E-02 0.  1.
    10030    2    1    2    0    0  0.00000000000E+00  0.00000000000E+00 -0.58830400614E+03  0.22071378801E+04  0.21272884191E+04 0.  0.
        1    1    3    3  502    0 -0.41996836662E+03  0.20883756047E+03  0.69632927517E+03  0.83956001281E+03  0.50400001928E-02 0. -1.
       -1    1    3    3    0  502  0.41996836662E+03 -0.20883756047E+03 -0.12846332813E+04  0.13675778673E+04  0.50400001928E-02 0.  1.
</event>
<event>
 5   0  0.4174093E-05  0.2096614E+04  0.7818609E-02  0.8562737E-01
        1   -1    0    0  501    0  0.00000000000E+00  0.00000000000E+00  0.13503763586E+04  0.13503763586E+04  0.50400001928E-02 0. -1.
       -1   -1    0    0    0  501  0.00000000000E+00  0.00000000000E+00 -0.81380810535E+03  0.81380810537E+03  0.50400001928E-02 0.  1.
    10030    2    1    2    0    0  0.00000000000E+00  0.00000000000E+00  0.53656825325E+03  0.21641844640E+04  0.20966136754E+04 0.  0.
        3    1    3    3  502    0 -0.40869001671E+02 -0.25028141851E+03  0.13182367077E+04  0.13424079453E+04  0.10100000352E+00 0. -1.
       -3    1    3    3    0  502  0.40869001671E+02  0.25028141851E+03 -0.78166845448E+03  0.82177651870E+03  0.10100000352E+00 0.  1.
</event>
<event>
 5   0  0.4128678E-05  0.2125677E+04  0.7818609E-02  0.8550016E-01
        1   -1    0    0  501    0  0.00000000000E+00  0.00000000000E+00  0.22162763449E+04  0.22162763449E+04  0.50400001928E-02 0.  1.
       -1   -1    0    0    0  501  0.00000000000E+00  0.00000000000E+00 -0.50969547954E+03  0.50969547957E+03  0.50400001928E-02 0. -1.
    10030    2    1    2    0    0  0.00000000000E+00  0.00000000000E+00  0.17065808653E+04  0.27259718244E+04  0.21256773362E+04 0.  0.
        5    1    3    3  502    0 -0.72695186679E+02  0.53001303189E+03  0.20310109615E+04  0.21002918892E+04  0.46999998093E+01 0.  1.
       -5    1    3    3    0  502  0.72695186679E+02 -0.53001303189E+03 -0.32443009613E+03  0.62567993528E+03  0.46999998093E+01 0. -1.
</event>
<event>
 5   0  0.4174093E-05  0.2087357E+04  0.7818609E-02  0.8566833E-01
       -1   -1    0    0    0  501  0.00000000000E+00  0.00000000000E+00  0.99292979977E+03  0.99292979978E+03  0.50400001928E-02 0.  1.
        1   -1    0    0  501    0  0.00000000000E+00  0.00000000000E+00 -0.10970212272E+04  0.10970212273E+04  0.50400001928E-02 0. -1.
    10030    2    1    2    0    0  0.00000000000E+00  0.00000000000E+00 -0.10409142748E+03  0.20899510270E+04  0.20873572455E+04 0.  0.
        3    1    3    3  502    0  0.33089713939E+03  0.33452522289E+03 -0.98479605553E+03  0.10914317765E+04  0.10100000352E+00 0. -1.
       -3    1    3    3    0  502 -0.33089713939E+03 -0.33452522289E+03  0.88070462805E+03  0.99851925053E+03  0.10100000352E+00 0.  1.
</event>
<event>
 5   0  0.4128678E-05  0.2111177E+04  0.7818609E-02  0.8556336E-01
        1   -1    0    0  501    0  0.00000000000E+00  0.00000000000E+00  0.11332766721E+04  0.11332766721E+04  0.50400001928E-02 0. -1.
       -1   -1    0    0    0  501  0.00000000000E+00  0.00000000000E+00 -0.98322628879E+03  0.98322628880E+03  0.50400001928E-02 0.  1.
    10030    2    1    2    0    0  0.00000000000E+00  0.00000000000E+00  0.15005038328E+03  0.21165029609E+04  0.21111773175E+04 0.  0.
        5    1    3    3  502    0 -0.22835546318E+03 -0.73704880339E+03  0.79716036539E+03  0.11094475627E+04  0.46999998093E+01 0. -1.
       -5    1    3    3    0  502  0.22835546318E+03  0.73704880339E+03 -0.64710998211E+03  0.10070553982E+04  0.46999998093E+01 0.  1.
</event>
<event>
 5   0  0.9012466E-05  0.2089952E+04  0.7818609E-02  0.8565683E-01
        2   -1    0    0  501    0  0.00000000000E+00  0.00000000000E+00  0.61719611220E+03  0.61719611221E+03  0.25500000920E-02 0.  1.
       -2   -1    0    0    0  501  0.00000000000E+00  0.00000000000E+00 -0.17692503019E+04  0.17692503019E+04  0.25500000920E-02 0. -1.
    10030    2    1    2    0    0  0.00000000000E+00  0.00000000000E+00 -0.11520541897E+04  0.23864464141E+04  0.20899515859E+04 0.  0.
        2    1    3    3  502    0 -0.46226374179E+03  0.65699251074E+03  0.18710181463E+03  0.82482362672E+03  0.25500000920E-02 0.  1.
       -2    1    3    3    0  502  0.46226374179E+03 -0.65699251074E+03 -0.13391560043E+04  0.15616227874E+04  0.25500000920E-02 0. -1.
</event>
<event>
 5   0  0.4174093E-05  0.1999800E+04  0.7818609E-02  0.8606714E-01
       -1   -1    0    0    0  501  0.00000000000E+00  0.00000000000E+00  0.13112932702E+04  0.13112932702E+04  0.50400001928E-02 0. -1.
        1   -1    0    0  501    0  0.00000000000E+00  0.00000000000E+00 -0.76245337926E+03  0.76245337927E+03  0.50400001928E-02 0.  1.
    10030    2    1    2    0    0  0.00000000000E+00  0.00000000000E+00  0.54883989090E+03  0.20737466494E+04  0.19997999751E+04 0.  0.
        3    1    3    3  502    0 -0.16377162790E+03 -0.45764034315E+03 -0.63170109368E+03  0.79705841175E+03  0.10100000352E+00 0.  1.
       -3    1    3    3    0  502  0.16377162790E+03  0.45764034315E+03  0.11805409846E+04  0.12766882377E+04  0.10100000352E+00 0. -1.
</event>
<event>
 5   0  0.8858590E-05  0.2099940E+04  0.7818609E-02  0.8561270E-01
        2   -1    0    0  501    0  0.00000000000E+00  0.00000000000E+00  0.66411961342E+03  0.66411961342E+03  0.25500000920E-02 0.  1.
       -2   -1    0    0    0  501  0.00000000000E+00  0.00000000000E+00 -0.16599971141E+04  0.16599971141E+04  0.25500000920E-02 0. -1.
    10030    2    1    2    0    0  0.00000000000E+00  0.00000000000E+00 -0.99587750068E+03  0.23241167275E+04  0.20999396579E+04 0.  0.
        1    1    3    3  502    0 -0.78542400371E+03  0.27779879241E+03 -0.12052001467E+04  0.14651178889E+04  0.50400001928E-02 0. -1.
       -1    1    3    3    0  502  0.78542400371E+03 -0.27779879241E+03  0.20932264601E+03  0.85899883866E+03  0.50400001928E-02 0.  1.
</event>
<event>
 5   0  0.8547605E-05  0.2112265E+04  0.7818609E-02  0.8555860E-01
       -2   -1    0    0    0  501  0.00000000000E+00  0.00000000000E+00  0.63528604564E+03  0.63528604565E+03  0.25500000920E-02 0. -1.
        2   -1    0    0  501    0  0.00000000000E+00  0.00000000000E+00 -0.17557695290E+04  0.17557695290E+04  0.25500000920E-02 0.  1.
    10030    2    1    2    0    0  0.00000000000E+00  0.00000000000E+00 -0.11204834834E+04  0.23910555747E+04  0.21122650223E+04 0.  0.
        4    1    3    3  502    0 -0.76879013801E+03 -0.55064390077E+03 -0.27886287735E+02  0.94605826443E+03  0.12699999809E+01 0. -1.
       -4    1    3    3    0  502  0.76879013801E+03  0.55064390077E+03 -0.10925971956E+04  0.14449973102E+04  0.12699999809E+01 0.  1.
</event>
<event>
 5   0  0.4174093E-05  0.2071445E+04  0.7818609E-02  0.8573927E-01
       -1   -1    0    0    0  501  0.00000000000E+00  0.00000000000E+00  0.14142020659E+04  0.14142020659E+04  0.50400001928E-02 0.  1.
        1   -1    0    0  501    0  0.00000000000E+00  0.00000000000E+00 -0.75853461235E+03  0.75853461237E+03  0.50400001928E-02 0. -1.
    10030    2    1    2    0    0  0.00000000000E+00  0.00000000000E+00  0.65566745354E+03  0.21727366783E+04  0.20714451148E+04 0.  0.
        3    1    3    3  502    0 -0.64761538425E+03  0.76839829498E+03  0.64813903677E+02  0.10069967616E+04  0.10100000352E+00 0. -1.
       -3    1    3    3    0  502  0.64761538425E+03 -0.76839829498E+03  0.59085354986E+03  0.11657399166E+04  0.10100000352E+00 0.  1.
</event>
<event>
 5   0  0.8872777E-05  0.2111773E+04  0.7818609E-02  0.8556075E-01
       -2   -1    0    0    0  501  0.00000000000E+00  0.00000000000E+00  0.92655829121E+03  0.92655829121E+03  0.25500000920E-02 0.  1.
        2   -1    0    0  501    0  0.00000000000E+00  0.00000000000E+00 -0.12032658512E+04  0.12032658512E+04  0.25500000920E-02 0. -1.
    10030    2    1    2    0    0  0.00000000000E+00  0.00000000000E+00 -0.27670755999E+03  0.21298241424E+04  0.21117726686E+04 0.  0.
        3    1    3    3  502    0  0.41235383925E+03  0.57600062241E+03 -0.92804335959E+03  0.11675088408E+04  0.10100000352E+00 0. -1.
       -3    1    3    3    0  502 -0.41235383925E+03 -0.57600062241E+03  0.65133579960E+03  0.96231530166E+03  0.10100000352E+00 0.  1.
</event>
<event>
 5   0  0.8858590E-05  0.2077332E+04  0.7818609E-02  0.8571295E-01
        2   -1    0    0  501    0  0.00000000000E+00  0.00000000000E+00  0.16928733198E+04  0.16928733198E+04  0.25500000920E-02 0.  1.
       -2   -1    0    0    0  501  0.00000000000E+00  0.00000000000E+00 -0.63727589735E+03  0.63727589736E+03  0.25500000920E-02 0. -1.
    10030    2    1    2    0    0  0.00000000000E+00  0.00000000000E+00  0.10555974224E+04  0.23301492172E+04  0.20773322931E+04 0.  0.
        1    1    3    3  502    0 -0.34066606815E+03  0.72188026233E+03  0.12732567649E+04  0.15027798483E+04  0.50400001928E-02 0.  1.
       -1    1    3    3    0  502  0.34066606815E+03 -0.72188026233E+03 -0.21765934244E+03  0.82736936885E+03  0.50400001928E-02 0. -1.
</event>
<event>
 5   0  0.4050368E-05  0.2068596E+04  0.7818609E-02  0.8575204E-01
       -1   -1    0    0    0  501  0.00000000000E+00  0.00000000000E+00  0.36680559822E+03  0.36680559826E+03  0.50400001928E-02 0.  1.
        1   -1    0    0  501    0  0.00000000000E+00  0.00000000000E+00 -0.29164571801E+04  0.29164571801E+04  0.50400001928E-02 0. -1.
    10030    2    1    2    0    0  0.00000000000E+00  0.00000000000E+00 -0.25496515819E+04  0.32832627784E+04  0.20685964524E+04 0.  0.
        2    1    3    3  502    0 -0.22580100667E+03  0.44640448706E+03 -0.27116609044E+04  0.27574205194E+04  0.25500000920E-02 0. -1.
       -2    1    3    3    0  502  0.22580100667E+03 -0.44640448706E+03  0.16200932250E+03  0.52584225892E+03  0.25500000920E-02 0.  1.
</event>
<event>
 5   0  0.4128678E-05  0.2103130E+04  0.7818609E-02  0.8559866E-01
        1   -1    0    0  501    0  0.00000000000E+00  0.00000000000E+00  0.11536048350E+04  0.11536048351E+04  0.50400001928E-02 0. -1.
       -1   -1    0    0    0  501  0.00000000000E+00  0.00000000000E+00 -0.95855063444E+03  0.95855063445E+03  0.50400001928E-02 0.  1.
    10030    2    1    2    0    0  0.00000000000E+00  0.00000000000E+00  0.19505420060E+03  0.21121554695E+04  0.21031297122E+04 0.  0.
        5    1    3    3  502    0  0.32569760517E+03  0.64744806910E+03 -0.66764728031E+03  0.98541509685E+03  0.46999998093E+01 0.  1.
       -5    1    3    3    0  502 -0.32569760517E+03 -0.64744806910E+03  0.86270148092E+03  0.11267403727E+04  0.46999998093E+01 0. -1.
</event>
<event>
 5   0  0.4182977E-05  0.2104219E+04  0.7818609E-02  0.8559387E-01
       -1   -1    0    0    0  501  0.00000000000E+00  0.00000000000E+00  0.61788911975E+03  0.61788911977E+03  0.50400001928E-02 0.  1.
        1   -1    0    0  501    0  0.00000000000E+00  0.00000000000E+00 -0.17914769758E+04  0.17914769758E+04  0.50400001928E-02 0. -1.
    10030    2    1    2    0    0  0.00000000000E+00  0.00000000000E+00 -0.11735878560E+04  0.24093660956E+04  0.21042187450E+04 0.  0.
        1    1    3    3  502    0  0.40411902907E+03  0.76907064026E+03 -0.12662746967E+04  0.15356540779E+04  0.50400001928E-02 0. -1.
       -1    1    3    3    0  502 -0.40411902907E+03 -0.76907064026E+03  0.92686840685E+02  0.87371201767E+03  0.50400001928E-02 0.  1.
</event>
<event>
 5   0  0.9086985E-05  0.2094178E+04  0.7818609E-02  0.8563812E-01
        2   -1    0    0  501    0  0.00000000000E+00  0.00000000000E+00  0.17070945777E+04  0.17070945777E+04  0.25500000920E-02 0. -1.
       -2   -1    0    0    0  501  0.00000000000E+00  0.00000000000E+00 -0.64225793277E+03  0.64225793278E+03  0.25500000920E-02 0.  1.
    10030    2    1    2    0    0  0.00000000000E+00  0.00000000000E+00  0.10648366449E+04  0.23493525104E+04  0.20941776758E+04 0.  0.
        5    1    3    3  502    0 -0.27891747332E+03  0.15410849362E+03 -0.58652678677E+03  0.66751789963E+03  0.46999998093E+01 0.  1.
       -5    1    3    3    0  502  0.27891747332E+03 -0.15410849362E+03  0.16513634317E+04  0.16818346108E+04  0.46999998093E+01 0. -1.
</event>
<event>
 5   0  0.8872777E-05  0.1992312E+04  0.7818609E-02  0.8610223E-01
        2   -1    0    0  501    0  0.00000000000E+00  0.00000000000E+00  0.96089022022E+03  0.96089022022E+03  0.25500000920E-02 0. -1.
       -2   -1    0    0    0  501  0.00000000000E+00  0.00000000000E+00 -0.10327164798E+04  0.10327164798E+04  0.25500000920E-02 0.  1.
    10030    2    1    2    0    0  0.00000000000E+00  0.00000000000E+00 -0.71826259535E+02  0.19936067000E+04  0.19923123908E+04 0.  0.
        3    1    3    3  502    0 -0.57797017871E+03  0.78535447002E+03 -0.23975109924E+03  0.10041472854E+04  0.10100000352E+00 0.  1.
       -3    1    3    3    0  502  0.57797017871E+03 -0.78535447002E+03  0.16792483970E+03  0.98945941455E+03  0.10100000352E+00 0. -1.
</event>
<event>
 5   0  0.8547605E-05  0.2144875E+04  0.7818609E-02  0.8541729E-01
        2   -1    0    0  501    0  0.00000000000E+00  0.00000000000E+00  0.14887919814E+04  0.14887919814E+04  0.25500000920E-02 0.  1.
       -2   -1    0    0    0  501  0.00000000000E+00  0.00000000000E+00 -0.77252061449E+03  0.77252061449E+03  0.25500000920E-02 0. -1.
    10030    2    1    2    0    0  0.00000000000E+00  0.00000000000E+00  0.71627136694E+03  0.22613125959E+04  0.21448752843E+04 0.  0.
        4    1    3    3  502    0  0.10721216835E+04  0.25229856141E+02  0.36475618702E+03  0.11327533442E+04  0.12699999809E+01 0.  1.
       -4    1    3    3    0  502 -0.10721216835E+04 -0.25229856141E+02  0.35151517992E+03  0.11285592517E+04  0.12699999809E+01 0. -1.
</event>
<event>
 5   0  0.8872777E-05  0.2106995E+04  0.7818609E-02  0.8558168E-01
       -2   -1    0    0    0  501  0.00000000000E+00  0.00000000000E+00  0.81043811068E+03  0.81043811068E+03  0.25500000920E-02 0. -1.
        2   -1    0    0  501    0  0.00000000000E+00  0.00000000000E+00 -0.13694525246E+04  0.13694525246E+04  0.25500000920E-02 0.  1.
    10030    2    1    2    0    0  0.00000000000E+00  0.00000000000E+00 -0.55901441396E+03  0.21798906353E+04  0.21069945579E+04 0.  0.
        3    1    3    3  502    0  0.98705859388E+03  0.36426426517E+03 -0.22395228692E+03  0.10756987309E+04  0.10100000352E+00 0. -1.
       -3    1    3    3    0  502 -0.98705859388E+03 -0.36426426517E+03 -0.33506212704E+03  0.11041919044E+04  0.10100000352E+00 0.  1.
</event>
<event>
 5   0  0.4128678E-05  0.2082588E+04  0.7818609E-02  0.8568953E-01
        1   -1    0    0  501    0  0.00000000000E+00  0.00000000000E+00  0.13629016985E+04  0.13629016985E+04  0.50400001928E-02 0.  1.
       -1   -1    0    0    0  501  0.00000000000E+00  0.00000000000E+00 -0.79557696882E+03  0.79557696884E+03  0.50400001928E-02 0. -1.
    10030    2    1    2    0    0  0.00000000000E+00  0.00000000000E+00  0.56732472965E+03  0.21584786673E+04  0.20825880074E+04 0.  0.
        5    1    3    3  502    0  0.23753877893E+03  0.84960640202E+03 -0.28968264974E+03  0.92854393402E+03  0.46999998093E+01 0. -1.
       -5    1    3    3    0  502 -0.23753877893E+03 -0.84960640202E+03  0.85700737940E+03  0.12299347333E+04  0.46999998093E+01 0.  1.
</event>
<event>
 5   0  0.4200061E-05  0.2101037E+04  0.7818609E-02  0.8560787E-01
        1   -1    0    0  501    0  0.00000000000E+00  0.00000000000E+00  0.65745126526E+03  0.65745126528E+03  0.50400001928E-02 0. -1.
       -1   -1    0    0    0  501  0.00000000000E+00  0.00000000000E+00 -0.16785864064E+04  0.16785864064E+04  0.50400001928E-02 0.  1.
    10030    2    1    2    0    0  0.00000000000E+00  0.00000000000E+00 -0.10211351411E+04  0.23360376717E+04  0.21010366553E+04 0.  0.
        4    1    3    3  502    0  0.22086691904E+03 -0.58988092901E+02 -0.16505936371E+04  0.16663501310E+04  0.12699999809E+01 0.  1.
       -4    1    3    3    0  502 -0.22086691904E+03  0.58988092901E+02  0.62945849604E+03  0.66968754070E+03  0.12699999809E+01 0. -1.
</event>
<event>
 5   0  0.4128678E-05  0.2244094E+04  0.7818609E-02  0.8500296E-01
       -1   -1    0    0    0  501  0.00000000000E+00  0.00000000000E+00  0.57923020506E+03  0.57923020509E+03  0.50400001928E-02 0.  1.
        1   -1    0    0  501    0  0.00000000000E+00  0.00000000000E+00 -0.21735562803E+04  0.21735562803E+04  0.50400001928E-02 0. -1.
    10030    2    1    2    0    0  0.00000000000E+00  0.00000000000E+00 -0.15943260752E+04  0.27527864854E+04  0.22440939820E+04 0.  0.
        5    1    3    3  502    0 -0.78301742423E+03 -0.27462753711E+03 -0.17236364610E+04  0.19129770804E+04  0.46999998093E+01 0. -1.
       -5    1    3    3    0  502  0.78301742423E+03  0.27462753711E+03  0.12931038572E+03  0.83980940495E+03  0.46999998093E+01 0.  1.
</event>
<event>
 5   0  0.4200061E-05  0.2098103E+04  0.7818609E-02  0.8562079E-01
       -1   -1    0    0    0  501  0.00000000000E+00  0.00000000000E+00  0.76636277621E+03  0.76636277623E+03  0.50400001928E-02 0. -1.
        1   -1    0    0  501    0  0.00000000000E+00  0.00000000000E+00 -0.14360161798E+04  0.14360161799E+04  0.50400001928E-02 0.  1.
    10030    2    1    2    0    0  0.00000000000E+00  0.00000000000E+00 -0.66965340363E+03  0.22023789561E+04  0.20981032828E+04 0.  0.
        4    1    3    3  502    0  0.30374445187E+03  0.23717548317E+03 -0.13590212994E+04  0.14126051844E+04  0.12699999809E+01 0.  1.
       -4    1    3    3    0  502 -0.30374445187E+03 -0.23717548317E+03  0.68936789576E+03  0.78977377170E+03  0.12699999809E+01 0. -1.
</event>
<event>
 5   0  0.8872777E-05  0.2095475E+04  0.7818609E-02  0.8563239E-01
        2   -1    0    0  501    0  0.00000000000E+00  0.00000000000E+00  0.19360689810E+04  0.19360689810E+04  0.25500000920E-02 0. -1.
       -2   -1    0    0    0  501  0.00000000000E+00  0.00000000000E+00 -0.56700157706E+03  0.56700157706E+03  0.25500000920E-02 0.  1.
    10030    2    1    2    0    0  0.00000000000E+00  0.00000000000E+00  0.13690674040E+04  0.25030705581E+04  0.20954752831E+04 0.  0.
        3    1    3    3  502    0  0.47806581262E+02 -0.34584329569E+03  0.18645406183E+04  0.18969461726E+04  0.10100000352E+00 0. -1.
       -3    1    3    3    0  502 -0.47806581262E+02  0.34584329569E+03 -0.49547321430E+03  0.60612438548E+03  0.10100000352E+00 0.  1.
</event>
<event>
 5   0  0.4174093E-05  0.2037888E+04  0.7818609E-02  0.8589109E-01
       -1   -1    0    0    0  501  0.00000000000E+00  0.00000000000E+00  0.10858563676E+04  0.10858563676E+04  0.50400001928E-02 0. -1.
        1   -1    0    0  501    0  0.00000000000E+00  0.00000000000E+00 -0.95615521977E+03  0.95615521978E+03  0.50400001928E-02 0.  1.
    10030    2    1    2    0    0  0.00000000000E+00  0.00000000000E+00  0.12970114784E+03  0.20420115874E+04  0.20378883520E+04 0.  0.
        3    1    3    3  502    0  0.73468310324E+03  0.67532359924E+03 -0.14154189561E+03  0.10078964948E+04  0.10100000352E+00 0.  1.
       -3    1    3    3    0  502 -0.73468310324E+03 -0.67532359924E+03  0.27124304345E+03  0.10341150926E+04  0.10100000352E+00 0. -1.
</event>
<event>
 5   0  0.9086985E-05  0.2166007E+04  0.7818609E-02  0.8532712E-01
        2   -1    0    0  501    0  0.00000000000E+00  0.00000000000E+00  0.87953453262E+03  0.87953453262E+03  0.25500000920E-02 0.  1.
       -2   -1    0    0    0  501  0.00000000000E+00  0.00000000000E+00 -0.13335420265E+04  0.13335420265E+04  0.25500000920E-02 0. -1.
    10030    2    1    2    0    0  0.00000000000E+00  0.00000000000E+00 -0.45400749383E+03  0.22130765591E+04  0.21660067063E+04 0.  0.
        5    1    3    3  502    0  0.76609388017E+03 -0.76481543539E+03 -0.25982167447E+03  0.11132708008E+04  0.46999998093E+01 0.  1.
       -5    1    3    3    0  502 -0.76609388017E+03  0.76481543539E+03 -0.19418581936E+03  0.10998057583E+04  0.46999998093E+01 0. -1.
</event>
<event>
 5   0  0.8872777E-05  0.2085130E+04  0.7818609E-02  0.8567822E-01
       -2   -1    0    0    0  501  0.00000000000E+00  0.00000000000E+00  0.64261946483E+03  0.64261946483E+03  0.25500000920E-02 0. -1.
        2   -1    0    0  501    0  0.00000000000E+00  0.00000000000E+00 -0.16914230670E+04  0.16914230670E+04  0.25500000920E-02 0.  1.
    10030    2    1    2    0    0  0.00000000000E+00  0.00000000000E+00 -0.10488036022E+04  0.23340425318E+04  0.20851296230E+04 0.  0.
        3    1    3    3  502    0 -0.55171860059E+03  0.21151411514E+03  0.43709512410E+03  0.73497196739E+03  0.10100000352E+00 0. -1.
       -3    1    3    3    0  502  0.55171860059E+03 -0.21151411514E+03 -0.14858987263E+04  0.15990705644E+04  0.10100000352E+00 0.  1.
</event>
<event>
 5   0  0.4174093E-05  0.2094282E+04  0.7818609E-02  0.8563766E-01
       -1   -1    0    0    0  501  0.00000000000E+00  0.00000000000E+00  0.10098195205E+04  0.10098195205E+04  0.50400001928E-02 0. -1.
        1   -1    0    0  501    0  0.00000000000E+00  0.00000000000E+00 -0.10858419714E+04  0.10858419714E+04  0.50400001928E-02 0.  1.
    10030    2    1    2    0    0  0.00000000000E+00  0.00000000000E+00 -0.76022450889E+02  0.20956614919E+04  0.20942821385E+04 0.  0.
        3    1    3    3  502    0 -0.41754582711E+03 -0.11236530029E+03 -0.99233423907E+03  0.10824498744E+04  0.10100000352E+00 0.  1.
       -3    1    3    3    0  502  0.41754582711E+03  0.11236530029E+03  0.91631178818E+03  0.10132116175E+04  0.10100000352E+00 0. -1.
</event>
<event>
 5   0  0.8547605E-05  0.2031062E+04  0.7818609E-02  0.8592234E-01
        2   -1    0    0  501    0  0.00000000000E+00  0.00000000000E+00  0.16463068148E+04  0.16463068148E+04  0.25500000920E-02 0.  1.
       -2   -1    0    0    0  501  0.00000000000E+00  0.00000000000E+00 -0.62643464862E+03  0.62643464862E+03  0.25500000920E-02 0. -1.
    10030    2    1    2    0    0  0.00000000000E+00  0.00000000000E+00  0.10198721662E+04  0.22727414634E+04  0.20310624127E+04 0.  0.
        4    1    3    3  502    0 -0.81254073581E+03 -0.76967930222E+02 -0.16624916903E+03  0.83293871848E+03  0.12699999809E+01 0. -1.
       -4    1    3    3    0  502  0.81254073581E+03  0.76967930222E+02  0.11861213352E+04  0.14398027450E+04  0.12699999809E+01 0.  1.
</event>
<event>
 5   0  0.9086985E-05  0.2094620E+04  0.7818609E-02  0.8563617E-01
        2   -1    0    0  501    0  0.00000000000E+00  0.00000000000E+00  0.12690598630E+04  0.12690598631E+04  0.25500000920E-02 0.  1.
       -2   -1    0    0    0  501  0.00000000000E+00  0.00000000000E+00 -0.86430747771E+03  0.86430747772E+03  0.25500000920E-02 0. -1.
    10030    2    1    2    0    0  0.00000000000E+00  0.00000000000E+00  0.40475238533E+03  0.21333673408E+04  0.20946197071E+04 0.  0.
        5    1    3    3  502    0 -0.65838129890E+03  0.76433374003E+03 -0.84189290820E+02  0.10123151325E+04  0.46999998093E+01 0.  1.
       -5    1    3    3    0  502  0.65838129890E+03 -0.76433374003E+03  0.48894167615E+03  0.11210522082E+04  0.46999998093E+01 0. -1.
</event>
<event>
 5   0  0.4050368E-05  0.2096520E+04  0.7818609E-02  0.8562778E-01
        1   -1    0    0  501    0  0.00000000000E+00  0.00000000000E+00  0.18547071738E+04  0.18547071738E+04  0.50400001928E-02 0.  1.
       -1   -1    0    0    0  501  0.00000000000E+00  0.00000000000E+00 -0.59246469971E+03  0.59246469973E+03  0.50400001928E-02 0. -1.
    10030    2    1    2    0    0  0.00000000000E+00  0.00000000000E+00  0.12622424740E+04  0.24471718735E+04  0.20965195241E+04 0.  0.
        2    1    3    3  502    0  0.69134614520E+03  0.14207285663E+03 -0.27356075573E+03  0.75695421008E+03  0.25500000920E-02 0. -1.
       -2    1    3    3    0  502 -0.69134614520E+03 -0.14207285663E+03  0.15358032298E+04  0.16902176634E+04  0.25500000920E-02 0.  1.
</event>
<event>
 5   0  0.4200061E-05  0.2113814E+04  0.7818609E-02  0.8555183E-01
       -1   -1    0    0    0  501  0.00000000000E+00  0.00000000000E+00  0.17273612044E+04  0.17273612044E+04  0.50400001928E-02 0.  1.
        1   -1    0    0  501    0  0.00000000000E+00  0.00000000000E+00 -0.64668120857E+03  0.64668120859E+03  0.50400001928E-02 0. -1.
    10030    2    1    2    0    0  0.00000000000E+00  0.00000000000E+00  0.10806799959E+04  0.23740424130E+04  0.21138136449E+04 0.  0.
        4    1    3    3  502    0  0.55901867482E+03 -0.48834166128E+03  0.13853409824E+04  0.15716713103E+04  0.12699999809E+01 0.  1.
       -4    1    3    3    0  502 -0.55901867482E+03  0.48834166128E+03 -0.30466098657E+03  0.80237110278E+03  0.12699999809E+01 0. -1.
</event>
<event>
 5   0  0.4174093E-05  0.2108077E+04  0.7818609E-02  0.8557694E-01
       -1   -1    0    0    0  501  0.00000000000E+00  0.00000000000E+00  0.54028048897E+03  0.54028048899E+03  0.50400001928E-02 0. -1.
        1   -1    0    0  501    0  0.00000000000E+00  0.00000000000E+00 -0.20563348757E+04  0.20563348757E+04  0.50400001928E-02 0.  1.
    10030    2    1    2    0    0  0.00000000000E+00  0.00000000000E+00 -0.15160543868E+04  0.25966153647E+04  0.21080774295E+04 0.  0.
        3    1    3    3  502    0 -0.16950182439E+03  0.68604327654E+03 -0.17213211473E+04  0.18607344647E+04  0.10100000352E+00 0.  1.
       -3    1    3    3    0  502  0.16950182439E+03 -0.68604327654E+03  0.20526676059E+03  0.73588089999E+03  0.10100000352E+00 0. -1.
</event>
<event>
 5   0  0.4128678E-05  0.2139495E+04  0.7818609E-02  0.8544042E-01
       -1   -1    0    0    0  501  0.00000000000E+00  0.00000000000E+00  0.13936361259E+04  0.13936361259E+04  0.50400001928E-02 0.  1.
        1   -1    0    0  501    0  0.00000000000E+00  0.00000000000E+00 -0.82113240560E+03  0.82113240562E+03  0.50400001928E-02 0. -1.
    10030    2    1    2    0    0  0.00000000000E+00  0.00000000000E+00  0.57250372026E+03  0.22147685315E+04  0.21394950662E+04 0.  0.
        5    1    3    3  502    0 -0.66680343792E+03 -0.32051819034E+03  0.10860797931E+04  0.13141347503E+04  0.46999998093E+01 0.  1.
       -5    1    3    3    0  502  0.66680343792E+03  0.32051819034E+03 -0.51357607281E+03  0.90063378114E+03  0.46999998093E+01 0. -1.
</event>
<event>
 5   0  0.8858590E-05  0.2110270E+04  0.7818609E-02  0.8556733E-01
        2   -1    0    0  501    0  0.00000000000E+00  0.00000000000E+00  0.18852420433E+04  0.18852420433E+04  0.25500000920E-02 0.  1.
       -2   -1    0    0    0  501  0.00000000000E+00  0.00000000000E+00 -0.59053925766E+03  0.59053925766E+03  0.25500000920E-02 0. -1.
    10030    2    1    2    0    0  0.00000000000E+00  0.00000000000E+00  0.12947027856E+04  0.24757813010E+04  0.21102695911E+04 0.  0.
        1    1    3    3  502    0  0.38813416161E+03 -0.20288711369E+03 -0.47886427889E+03  0.64893937000E+03  0.50400001928E-02 0. -1.
       -1    1    3    3    0  502 -0.38813416161E+03  0.20288711369E+03  0.17735670645E+04  0.18268419310E+04  0.50400001928E-02 0.  1.
</event>
<event>
 5   0  0.4182977E-05  0.2086579E+04  0.7818609E-02  0.8567178E-01
        1   -1    0    0  501    0  0.00000000000E+00  0.00000000000E+00  0.16236429597E+04  0.16236429597E+04  0.50400001928E-02 0. -1.
       -1   -1    0    0    0  501  0.00000000000E+00  0.00000000000E+00 -0.67037715924E+03  0.67037715926E+03  0.50400001928E-02 0.  1.
    10030    2    1    2    0    0  0.00000000000E+00  0.00000000000E+00  0.95326580046E+03  0.22940201190E+04  0.20865791669E+04 0.  0.
        1    1    3    3  502    0  0.25524177353E+03  0.47988712490E+03  0.14556776596E+04  0.15538460234E+04  0.50400001928E-02 0. -1.
       -1    1    3    3    0  502 -0.25524177353E+03 -0.47988712490E+03 -0.50241185914E+03  0.74017409562E+03  0.50400001928E-02 0.  1.
</event>
<event>
 5   0  0.8858590E-05  0.2075330E+04  0.7818609E-02  0.8572189E-01
        2   -1    0    0  501    0  0.00000000000E+00  0.00000000000E+00  0.99545875433E+03  0.99545875433E+03  0.25500000920E-02 0. -1.
       -2   -1    0    0    0  501  0.00000000000E+00  0.00000000000E+00 -0.10816604479E+04  0.10816604479E+04  0.25500000920E-02 0.  1.
    10030    2    1    2    0    0  0.00000000000E+00  0.00000000000E+00 -0.86201693603E+02  0.20771192023E+04  0.20753297204E+04 0.  0.
        1    1    3    3  502    0 -0.87077835596E+03  0.15806849792E+03  0.49912986734E+03  0.10160567010E+04  0.50400001928E-02 0. -1.
       -1    1    3    3    0  502  0.87077835596E+03 -0.15806849792E+03 -0.58533156094E+03  0.10610625012E+04  0.50400001928E-02 0.  1.
</event>
<event>
 5   0  0.4174093E-05  0.2100960E+04  0.7818609E-02  0.8560821E-01
       -1   -1    0    0    0  501  0.00000000000E+00  0.00000000000E+00  0.54072159714E+03  0.54072159716E+03  0.50400001928E-02 0. -1.
        1   -1    0    0  501    0  0.00000000000E+00  0.00000000000E+00 -0.20408066405E+04  0.20408066405E+04  0.50400001928E-02 0.  1.
    10030    2    1    2    0    0  0.00000000000E+00  0.00000000000E+00 -0.15000850434E+04  0.25815282377E+04  0.21009599960E+04 0.  0.
        3    1    3    3  502    0 -0.19168791239E+03  0.78239863098E+03 -0.15785217391E+04  0.17721802292E+04  0.10100000352E+00 0.  1.
       -3    1    3    3    0  502  0.19168791239E+03 -0.78239863098E+03  0.78436695726E+02  0.80934800856E+03  0.10100000352E+00 0. -1.
</event>
<event>
 5   0  0.4050368E-05  0.2104986E+04  0.7818609E-02  0.8559050E-01
       -1   -1    0    0    0  501  0.00000000000E+00  0.00000000000E+00  0.73892393618E+03  0.73892393620E+03  0.50400001928E-02 0.  1.
        1   -1    0    0  501    0  0.00000000000E+00  0.00000000000E+00 -0.14991281672E+04  0.14991281672E+04  0.50400001928E-02 0. -1.
    10030    2    1    2    0    0  0.00000000000E+00  0.00000000000E+00 -0.76020423102E+03  0.22380521034E+04  0.21049861626E+04 0.  0.
        2    1    3    3  502    0  0.37139456837E+03  0.95941670274E+03 -0.14396467833E+03  0.10388167132E+04  0.25500000920E-02 0.  1.
       -2    1    3    3    0  502 -0.37139456837E+03 -0.95941670274E+03 -0.61623955269E+03  0.11992353903E+04  0.25500000920E-02 0. -1.
</event>
<event>
 5   0  0.4128678E-05  0.2096424E+04  0.7818609E-02  0.8562820E-01
       -1   -1    0    0    0  501  0.00000000000E+00  0.00000000000E+00  0.91810647507E+03  0.91810647508E+03  0.50400001928E-02 0. -1.
        1   -1    0    0  501    0  0.00000000000E+00  0.00000000000E+00 -0.11967552725E+04  0.11967552725E+04  0.50400001928E-02 0.  1.
    10030    2    1    2    0    0  0.00000000000E+00  0.00000000000E+00 -0.27864879745E+03  0.21148617476E+04  0.20964243509E+04 0.  0.
        5    1    3    3  502    0  0.76493450671E+03  0.42020244601E+03 -0.72497448717E+03  0.11345946378E+04  0.46999998093E+01 0.  1.
       -5    1    3    3    0  502 -0.76493450671E+03 -0.42020244601E+03  0.44632568972E+03  0.98026710976E+03  0.46999998093E+01 0. -1.
</event>
<event>
 5   0  0.9086985E-05  0.2099202E+04  0.7818609E-02  0.8561595E-01
        2   -1    0    0  501    0  0.00000000000E+00  0.00000000000E+00  0.11367824392E+04  0.11367824392E+04  0.25500000920E-02 0.  1.
       -2   -1    0    0    0  501  0.00000000000E+00  0.00000000000E+00 -0.96910562320E+03  0.96910562321E+03  0.25500000920E-02 0. -1.
    10030    2    1    2    0    0  0.00000000000E+00  0.00000000000E+00  0.16767681596E+03  0.21058880624E+04  0.20992019952E+04 0.  0.
        5    1    3    3  502    0 -0.82456063890E+03 -0.27591213537E+02 -0.56705681409E+03  0.10011178965E+04  0.46999998093E+01 0.  1.
       -5    1    3    3    0  502  0.82456063890E+03  0.27591213537E+02  0.73473363004E+03  0.11047701659E+04  0.46999998093E+01 0. -1.
</event>
<event>
 5   0  0.9086985E-05  0.2079291E+04  0.7818609E-02  0.8570421E-01
       -2   -1    0    0    0  501  0.00000000000E+00  0.00000000000E+00  0.77747478893E+03  0.77747478893E+03  0.25500000920E-02 0. -1.
        2   -1    0    0  501    0  0.00000000000E+00  0.00000000000E+00 -0.13902217672E+04  0.13902217672E+04  0.25500000920E-02 0.  1.
    10030    2    1    2    0    0  0.00000000000E+00  0.00000000000E+00 -0.61274697829E+03  0.21676965561E+04  0.20792906243E+04 0.  0.
        5    1    3    3  502    0 -0.60719822878E+03 -0.67886809409E+03  0.21622695928E+03  0.93612379850E+03  0.46999998093E+01 0. -1.
       -5    1    3    3    0  502  0.60719822878E+03  0.67886809409E+03 -0.82897393756E+03  0.12315727576E+04  0.46999998093E+01 0.  1.
</event>
<event>
 5   0  0.9086985E-05  0.2045940E+04  0.7818609E-02  0.8585438E-01
       -2   -1    0    0    0  501  0.00000000000E+00  0.00000000000E+00  0.75967100028E+03  0.75967100028E+03  0.25500000920E-02 0. -1.
        2   -1    0    0  501    0  0.00000000000E+00  0.00000000000E+00 -0.13775271069E+04  0.13775271069E+04  0.25500000920E-02 0.  1.
    10030    2    1    2    0    0  0.00000000000E+00  0.00000000000E+00 -0.61785610659E+03  0.21371981071E+04  0.20459397794E+04 0.  0.
        5    1    3    3  502    0  0.10130107103E+04 -0.85747580370E+01 -0.45732471516E+03  0.11114999823E+04  0.46999998093E+01 0.  1.
       -5    1    3    3    0  502 -0.10130107103E+04  0.85747580370E+01 -0.16053139142E+03  0.10256981248E+04  0.46999998093E+01 0. -1.
</event>
<event>
 5   0  0.4200061E-05  0.1926727E+04  0.7818609E-02  0.8641666E-01
        1   -1    0    0  501    0  0.00000000000E+00  0.00000000000E+00  0.12199477776E+04  0.12199477776E+04  0.50400001928E-02 0. -1.
       -1   -1    0    0    0  501  0.00000000000E+00  0.00000000000E+00 -0.76074509438E+03  0.76074509440E+03  0.50400001928E-02 0.  1.
    10030    2    1    2    0    0  0.00000000000E+00  0.00000000000E+00  0.45920268322E+03  0.19806928720E+04  0.19267270562E+04 0.  0.
        4    1    3    3  502    0  0.75287421811E+03 -0.35541994550E+03 -0.26866474381E+03  0.87482871661E+03  0.12699999809E+01 0. -1.
       -4    1    3    3    0  502 -0.75287421811E+03  0.35541994550E+03  0.72786742703E+03  0.11058641554E+04  0.12699999809E+01 0.  1.
</event>
<event>
 5   0  0.9012466E-05  0.2108683E+04  0.7818609E-02  0.8557428E-01
       -2   -1    0    0    0  501  0.00000000000E+00  0.00000000000E+00  0.11036710250E+04  0.11036710250E+04  0.25500000920E-02 0.  1.
        2   -1    0    0  501    0  0.00000000000E+00  0.00000000000E+00 -0.10072164732E+04  0.10072164732E+04  0.25500000920E-02 0. -1.
    10030    2    1    2    0    0  0.00000000000E+00  0.00000000000E+00  0.96454551773E+02  0.21108874982E+04  0.21086826573E+04 0.  0.
        2    1    3    3  502    0 -0.27468415721E+03  0.45522495626E+03 -0.86319409097E+03  0.10137974086E+04  0.25500000920E-02 0. -1.
       -2    1    3    3    0  502  0.27468415721E+03 -0.45522495626E+03  0.95964864275E+03  0.10970900895E+04  0.25500000920E-02 0.  1.
</event>
<event>
 5   0  0.8872777E-05  0.2110695E+04  0.7818609E-02  0.8556547E-01
        2   -1    0    0  501    0  0.00000000000E+00  0.00000000000E+00  0.28476291048E+04  0.28476291048E+04  0.25500000920E-02 0. -1.
       -2   -1    0    0    0  501  0.00000000000E+00  0.00000000000E+00 -0.39111777635E+03  0.39111777636E+03  0.25500000920E-02 0.  1.
    10030    2    1    2    0    0  0.00000000000E+00  0.00000000000E+00  0.24565113285E+04  0.32387468812E+04  0.21106950167E+04 0.  0.
        3    1    3    3  502    0  0.77795942396E+03  0.25956136251E+03  0.20907250572E+03  0.84634761716E+03  0.10100000352E+00 0. -1.
       -3    1    3    3    0  502 -0.77795942396E+03 -0.25956136251E+03  0.22474388228E+04  0.23923992640E+04  0.10100000352E+00 0.  1.
</event>
<event>
 5   0  0.4182977E-05  0.2097392E+04  0.7818609E-02  0.8562393E-01
       -1   -1    0    0    0  501  0.00000000000E+00  0.00000000000E+00  0.42080320775E+03  0.42080320778E+03  0.50400001928E-02 0.  1.
        1   -1    0    0  501    0  0.00000000000E+00  0.00000000000E+00 -0.26134869458E+04  0.26134869458E+04  0.50400001928E-02 0. -1.
    10030    2    1    2    0    0  0.00000000000E+00  0.00000000000E+00 -0.21926837380E+04  0.30342901536E+04  0.20973923717E+04 0.  0.
        1    1    3    3  502    0  0.65847749257E+03  0.33340266198E+03 -0.21741198178E+04  0.22959849576E+04  0.50400001928E-02 0. -1.
       -1    1    3    3    0  502 -0.65847749257E+03 -0.33340266198E+03 -0.18563920210E+02  0.73830519597E+03  0.50400001928E-02 0.  1.
</event>
<event>
 5   0  0.8872777E-05  0.2104961E+04  0.7818609E-02  0.8559061E-01
        2   -1    0    0  501    0  0.00000000000E+00  0.00000000000E+00  0.72924502855E+03  0.72924502856E+03  0.25500000920E-02 0.  1.
       -2   -1    0    0    0  501  0.00000000000E+00  0.00000000000E+00 -0.15189883649E+04  0.15189883649E+04  0.25500000920E-02 0. -1.
    10030    2    1    2    0    0  0.00000000000E+00  0.00000000000E+00 -0.78974333634E+03  0.22482333935E+04  0.21049605351E+04 0.  0.
        3    1    3    3  502    0  0.38501453770E+03  0.40790122879E+01  0.65132009527E+03  0.75661794143E+03  0.10100000352E+00 0.  1.
       -3    1    3    3    0  502 -0.38501453770E+03 -0.40790122879E+01 -0.14410634316E+04  0.14916154520E+04  0.10100000352E+00 0. -1.
</event>
<event>
 5   0  0.4200061E-05  0.2113927E+04  0.7818609E-02  0.8555133E-01
        1   -1    0    0  501    0  0.00000000000E+00  0.00000000000E+00  0.22280741391E+04  0.22280741391E+04  0.50400001928E-02 0. -1.
       -1   -1    0    0    0  501  0.00000000000E+00  0.00000000000E+00 -0.50140714054E+03  0.50140714056E+03  0.50400001928E-02 0.  1.
    10030    2    1    2    0    0  0.00000000000E+00  0.00000000000E+00  0.17266669985E+04  0.27294812796E+04  0.21139274188E+04 0.  0.
        4    1    3    3  502    0  0.96406643591E+03 -0.20061578629E+03  0.36744288678E+03  0.10510407578E+04  0.12699999809E+01 0.  1.
       -4    1    3    3    0  502 -0.96406643591E+03  0.20061578629E+03  0.13592241118E+04  0.16784405219E+04  0.12699999809E+01 0. -1.
</event>
<event>
 5   0  0.9086985E-05  0.2099235E+04  0.7818609E-02  0.8561581E-01
        2   -1    0    0  501    0  0.00000000000E+00  0.00000000000E+00  0.21400911971E+04  0.21400911971E+04  0.25500000920E-02 0.  1.
       -2   -1    0    0    0  501  0.00000000000E+00  0.00000000000E+00 -0.51478956896E+03  0.51478956897E+03  0.25500000920E-02 0. -1.
    10030    2    1    2    0    0  0.00000000000E+00  0.00000000000E+00  0.16253016281E+04  0.26548807660E+04  0.20992347414E+04 0.  0.
        5    1    3    3  502    0 -0.54621163556E+03 -0.37929954880E+03  0.18396686683E+04  0.19561743782E+04  0.46999998093E+01 0.  1.
       -5    1    3    3    0  502  0.54621163556E+03  0.37929954880E+03 -0.21436704021E+03  0.69870638789E+03  0.46999998093E+01 0. -1.
</event>
<event>
 5   0  0.4174093E-05  0.2119127E+04  0.7818609E-02  0.8552864E-01
        1   -1    0    0  501    0  0.00000000000E+00  0.00000000000E+00  0.14530298679E+04  0.14530298679E+04  0.50400001928E-02 0.  1.
       -1   -1    0    0    0  501  0.00000000000E+00  0.00000000000E+00 -0.77264413194E+03  0.77264413196E+03  0.50400001928E-02 0. -1.
    10030    2    1    2    0    0  0.00000000000E+00  0.00000000000E+00  0.68038573596E+03  0.22256739999E+04  0.21191271798E+04 0.  0.
        3    1    3    3  502    0  0.93010965395E+02  0.10519669179E+04  0.43047746522E+03  0.11404368875E+04  0.10100000352E+00 0.  1.
       -3    1    3    3    0  502 -0.93010965395E+02 -0.10519669179E+04  0.24990827074E+03  0.10852371124E+04  0.10100000352E+00 0. -1.
</event>
<event>
 5   0  0.9012466E-05  0.2128305E+04  0.7818609E-02  0.8548876E-01
       -2   -1    0    0    0  501  0.00000000000E+00  0.00000000000E+00  0.93555532264E+03  0.93555532264E+03  0.25500000920E-02 0. -1.
        2   -1    0    0  501    0  0.00000000000E+00  0.00000000000E+00 -0.12104259197E+04  0.12104259197E+04  0.25500000920E-02 0.  1.
    10030    2    1    2    0    0  0.00000000000E+00  0.00000000000E+00 -0.27487059710E+03  0.21459812424E+04  0.21283048765E+04 0.  0.
        2    1    3    3  502    0  0.63673331845E+03 -0.84543220912E+03 -0.24896806128E+03  0.10872764297E+04  0.25500000920E-02 0.  1.
       -2    1    3    3    0  502 -0.63673331845E+03  0.84543220912E+03 -0.25902535814E+02  0.10587048127E+04  0.25500000920E-02 0. -1.
</event>
<event>
 5   0  0.4128678E-05  0.2089361E+04  0.7818609E-02  0.8565945E-01
        1   -1    0    0  501    0  0.00000000000E+00  0.00000000000E+00  0.16278391661E+04  0.16278391661E+04  0.50400001928E-02 0. -1.
       -1   -1    0    0    0  501  0.00000000000E+00  0.00000000000E+00 -0.67043298240E+03  0.67043298242E+03  0.50400001928E-02 0.  1.
    10030    2    1    2    0    0  0.00000000000E+00  0.00000000000E+00  0.95740618372E+03  0.22982721485E+04  0.20893607319E+04 0.  0.
        5    1    3    3  502    0 -0.85897927293E+03 -0.44074221799E+03  0.39759719278E+02  0.96628257736E+03  0.46999998093E+01 0.  1.
       -5    1    3    3    0  502  0.85897927293E+03  0.44074221799E+03  0.91764646444E+03  0.13319895712E+04  0.46999998093E+01 0. -1.
</event>
<event>
 5   0  0.4050368E-05  0.2096657E+04  0.7818609E-02  0.8562717E-01
       -1   -1    0    0    0  501  0.00000000000E+00  0.00000000000E+00  0.10504811400E+04  0.10504811400E+04  0.50400001928E-02 0.  1.
        1   -1    0    0  501    0  0.00000000000E+00  0.00000000000E+00 -0.10461801370E+04  0.10461801370E+04  0.50400001928E-02 0. -1.
    10030    2    1    2    0    0  0.00000000000E+00  0.00000000000E+00  0.43010030112E+01  0.20966612770E+04  0.20966568655E+04 0.  0.
        2    1    3    3  502    0  0.22422939589E+03  0.78374261966E+02  0.10232163873E+04  0.10504252102E+04  0.25500000920E-02 0.  1.
       -2    1    3    3    0  502 -0.22422939589E+03 -0.78374261966E+02 -0.10189153843E+04  0.10462360667E+04  0.25500000920E-02 0. -1.
</event>
<event>
 5   0  0.4128678E-05  0.2111925E+04  0.7818609E-02  0.8556009E-01
        1   -1    0    0  501    0  0.00000000000E+00  0.00000000000E+00  0.13114128536E+04  0.13114128536E+04  0.50400001928E-02 0.  1.
       -1   -1    0    0    0  501  0.00000000000E+00  0.00000000000E+00 -0.85027120323E+03  0.85027120324E+03  0.50400001928E-02 0. -1.
    10030    2    1    2    0    0  0.00000000000E+00  0.00000000000E+00  0.46114165033E+03  0.21616840568E+04  0.21119247950E+04 0.  0.
        5    1    3    3  502    0 -0.65570588490E+03 -0.55023810307E+03  0.86346135236E+03  0.12158535169E+04  0.46999998093E+01 0.  1.
       -5    1    3    3    0  502  0.65570588490E+03  0.55023810307E+03 -0.40231970203E+03  0.94583053990E+03  0.46999998093E+01 0. -1.
</event>
<event>
 5   0  0.9086985E-05  0.2082639E+04  0.7818609E-02  0.8568930E-01
       -2   -1    0    0    0  501  0.00000000000E+00  0.00000000000E+00  0.55233028528E+03  0.55233028529E+03  0.25500000920E-02 0. -1.
        2   -1    0    0  501    0  0.00000000000E+00  0.00000000000E+00 -0.19632202242E+04  0.19632202242E+04  0.25500000920E-02 0.  1.
    10030    2    1    2    0    0  0.00000000000E+00  0.00000000000E+00 -0.14108899389E+04  0.25155505095E+04  0.20826386979E+04 0.  0.
        5    1    3    3  502    0  0.33993283141E+03  0.95019873166E+03 -0.10154974750E+04  0.14316735561E+04  0.46999998093E+01 0.  1.
       -5    1    3    3    0  502 -0.33993283141E+03 -0.95019873166E+03 -0.39539246389E+03  0.10838769534E+04  0.46999998093E+01 0. -1.
</event>
<event>
 5   0  0.4128678E-05  0.1999648E+04  0.7818609E-02  0.8606785E-01
       -1   -1    0    0    0  501  0.00000000000E+00  0.00000000000E+00  0.76378671831E+03  0.76378671833E+03  0.50400001928E-02 0.  1.
        1   -1    0    0  501    0  0.00000000000E+00  0.00000000000E+00 -0.13088054888E+04  0.13088054888E+04  0.50400001928E-02 0. -1.
    10030    2    1    2    0    0  0.00000000000E+00  0.00000000000E+00 -0.54501877052E+03  0.20725922072E+04  0.19996482183E+04 0.  0.
        5    1    3    3  502    0 -0.87748624160E+03  0.14510493580E+03  0.20086587638E+03  0.91181507823E+03  0.46999998093E+01 0.  1.
       -5    1    3    3    0  502  0.87748624160E+03 -0.14510493580E+03 -0.74588464690E+03  0.11607771289E+04  0.46999998093E+01 0. -1.
</event>
<event>
 5   0  0.8858590E-05  0.2223372E+04  0.7818609E-02  0.8508763E-01
       -2   -1    0    0    0  501  0.00000000000E+00  0.00000000000E+00  0.58273474245E+03  0.58273474245E+03  0.25500000920E-02 0. -1.
        2   -1    0    0  501    0  0.00000000000E+00  0.00000000000E+00 -0.21207687059E+04  0.21207687059E+04  0.25500000920E-02 0.  1.
    10030    2    1    2    0    0  0.00000000000E+00  0.00000000000E+00 -0.15380339635E+04  0.27035034484E+04  0.22233718588E+04 0.  0.
        1    1    3    3  502    0  0.73569836095E+03 -0.83031084853E+03 -0.68152432348E+03  0.13019767997E+04  0.50400001928E-02 0. -1.
       -1    1    3    3    0  502 -0.73569836095E+03  0.83031084853E+03 -0.85650964002E+03  0.14015266487E+04  0.50400001928E-02 0.  1.
</event>
<event>
 5   0  0.9086985E-05  0.1687652E+04  0.7818609E-02  0.8768438E-01
       -2   -1    0    0    0  501  0.00000000000E+00  0.00000000000E+00  0.41647184119E+03  0.41647184119E+03  0.25500000920E-02 0. -1.
        2   -1    0    0  501    0  0.00000000000E+00  0.00000000000E+00 -0.17097011200E+04  0.17097011200E+04  0.25500000920E-02 0.  1.
    10030    2    1    2    0    0  0.00000000000E+00  0.00000000000E+00 -0.12932292788E+04  0.21261729612E+04  0.16876520652E+04 0.  0.
        5    1    3    3  502    0  0.16269267879E+03  0.82382704105E+03 -0.75096400815E+03  0.11265562271E+04  0.46999998093E+01 0. -1.
       -5    1    3    3    0  502 -0.16269267879E+03 -0.82382704105E+03 -0.54226527065E+03  0.99961673408E+03  0.46999998093E+01 0.  1.
</event>
<event>
 5   0  0.9086985E-05  0.2034447E+04  0.7818609E-02  0.8590683E-01
        2   -1    0    0  501    0  0.00000000000E+00  0.00000000000E+00  0.12846923531E+04  0.12846923531E+04  0.25500000920E-02 0. -1.
       -2   -1    0    0    0  501  0.00000000000E+00  0.00000000000E+00 -0.80544090295E+03  0.80544090295E+03  0.25500000920E-02 0.  1.
    10030    2    1    2    0    0  0.00000000000E+00  0.00000000000E+00  0.47925145012E+03  0.20901332560E+04  0.20344471179E+04 0.  0.
        5    1    3    3  502    0  0.12723727254E+03  0.10073682395E+04  0.30246850616E+03  0.10594759935E+04  0.46999998093E+01 0. -1.
       -5    1    3    3    0  502 -0.12723727254E+03 -0.10073682395E+04  0.17678294396E+03  0.10306572625E+04  0.46999998093E+01 0.  1.
</event>
<event>
 5   0  0.4128678E-05  0.2096676E+04  0.7818609E-02  0.8562709E-01
       -1   -1    0    0    0  501  0.00000000000E+00  0.00000000000E+00  0.74851238933E+03  0.74851238935E+03  0.50400001928E-02 0. -1.
        1   -1    0    0  501    0  0.00000000000E+00  0.00000000000E+00 -0.14682618682E+04  0.14682618683E+04  0.50400001928E-02 0.  1.
    10030    2    1    2    0    0  0.00000000000E+00  0.00000000000E+00 -0.71974947892E+03  0.22167742576E+04  0.20966756537E+04 0.  0.
        5    1    3    3  502    0  0.32631034642E+03  0.41750970094E+03  0.59648050261E+03  0.79787459701E+03  0.46999998093E+01 0. -1.
       -5    1    3    3    0  502 -0.32631034642E+03 -0.41750970094E+03 -0.13162299815E+04  0.14188996606E+04  0.46999998093E+01 0.  1.
</event>
<event>
 5   0  0.4128678E-05  0.2104653E+04  0.7818609E-02  0.8559197E-01
        1   -1    0    0  501    0  0.00000000000E+00  0.00000000000E+00  0.19321613508E+04  0.19321613508E+04  0.50400001928E-02 0.  1.
       -1   -1    0    0    0  501  0.00000000000E+00  0.00000000000E+00 -0.57313583870E+03  0.57313583872E+03  0.50400001928E-02 0. -1.
    10030    2    1    2    0    0  0.00000000000E+00  0.00000000000E+00  0.13590255121E+04  0.25052971895E+04  0.21046528610E+04 0.  0.
        5    1    3    3  502    0 -0.94706726439E+03 -0.25050289417E+03  0.11369596490E+04  0.15007956013E+04  0.46999998093E+01 0.  1.
       -5    1    3    3    0  502  0.94706726439E+03  0.25050289417E+03  0.22206586306E+03  0.10045015883E+04  0.46999998093E+01 0. -1.
</event>
<event>
 5   0  0.9086985E-05  0.2096901E+04  0.7818609E-02  0.8562610E-01
       -2   -1    0    0    0  501  0.00000000000E+00  0.00000000000E+00  0.82616168654E+03  0.82616168655E+03  0.25500000920E-02 0.  1.
        2   -1    0    0  501    0  0.00000000000E+00  0.00000000000E+00 -0.13305483237E+04  0.13305483237E+04  0.25500000920E-02 0. -1.
    10030    2    1    2    0    0  0.00000000000E+00  0.00000000000E+00 -0.50438663713E+03  0.21567100102E+04  0.20969006148E+04 0.  0.
        5    1    3    3  502    0  0.39786113925E+03 -0.83753397370E+03 -0.75550712300E+03  0.11960642734E+04  0.46999998093E+01 0. -1.
       -5    1    3    3    0  502 -0.39786113925E+03  0.83753397370E+03  0.25112048587E+03  0.96064573681E+03  0.46999998093E+01 0.  1.
</event>
<event>
 5   0  0.4200061E-05  0.2083454E+04  0.7818609E-02  0.8568567E-01
       -1   -1    0    0    0  501  0.00000000000E+00  0.00000000000E+00  0.11745645242E+04  0.11745645242E+04  0.50400001928E-02 0. -1.
        1   -1    0    0  501    0  0.00000000000E+00  0.00000000000E+00 -0.92391245855E+03  0.92391245856E+03  0.50400001928E-02 0.  1.
    10030    2    1    2    0    0  0.00000000000E+00  0.00000000000E+00  0.25065206564E+03  0.20984769828E+04  0.20834536686E+04 0.  0.
        4    1    3    3  502    0  0.41308488357E+03  0.20240506680E+02  0.10883293008E+04  0.11642641792E+04  0.12699999809E+01 0. -1.
       -4    1    3    3    0  502 -0.41308488357E+03 -0.20240506680E+02 -0.83767723514E+03  0.93421280355E+03  0.12699999809E+01 0.  1.
</event>
<event>
 5   0  0.8858590E-05  0.2097462E+04  0.7818609E-02  0.8562362E-01
        2   -1    0    0  501    0  0.00000000000E+00  0.00000000000E+00  0.16118833714E+04  0.16118833714E+04  0.25500000920E-02 0.  1.
       -2   -1    0    0    0  501  0.00000000000E+00  0.00000000000E+00 -0.68233029515E+03  0.68233029515E+03  0.25500000920E-02 0. -1.
    10030    2    1    2    0    0  0.00000000000E+00  0.00000000000E+00  0.92955307623E+03  0.22942136665E+04  0.20974621394E+04 0.  0.
        1    1    3    3  502    0  0.73195116653E+03 -0.15779762608E+03  0.12679481192E+04  0.14725301471E+04  0.50400001928E-02 0.  1.
       -1    1    3    3    0  502 -0.73195116653E+03  0.15779762608E+03 -0.33839504300E+03  0.82168351945E+03  0.50400001928E-02 0. -1.
</event>
<event>
 5   0  0.4128678E-05  0.2094985E+04  0.7818609E-02  0.8563456E-01
        1   -1    0    0  501    0  0.00000000000E+00  0.00000000000E+00  0.12416776641E+04  0.12416776641E+04  0.50400001928E-02 0.  1.
       -1   -1    0    0    0  501  0.00000000000E+00  0.00000000000E+00 -0.88367610914E+03  0.88367610916E+03  0.50400001928E-02 0. -1.
    10030    2    1    2    0    0  0.00000000000E+00  0.00000000000E+00  0.35800155497E+03  0.21253537733E+04  0.20949853337E+04 0.  0.
        5    1    3    3  502    0 -0.22744576084E+02  0.67311270762E+02  0.12392195727E+04  0.12412636152E+04  0.46999998093E+01 0.  1.
       -5    1    3    3    0  502  0.22744576084E+02 -0.67311270762E+02 -0.88121801774E+03  0.88409015813E+03  0.46999998093E+01 0. -1.
</event>
<event>
 5   0  0.4182977E-05  0.2107038E+04  0.7818609E-02  0.8558149E-01
       -1   -1    0    0    0  501  0.00000000000E+00  0.00000000000E+00  0.68290207058E+03  0.68290207060E+03  0.50400001928E-02 0.  1.
        1   -1    0    0  501    0  0.00000000000E+00  0.00000000000E+00 -0.16252735818E+04  0.16252735818E+04  0.50400001928E-02 0. -1.
    10030    2    1    2    0    0  0.00000000000E+00  0.00000000000E+00 -0.94237151120E+03  0.23081756524E+04  0.21070383901E+04 0.  0.
        1    1    3    3  502    0 -0.33006759117E+03  0.88660041978E+03  0.36637244382E+02  0.94675614959E+03  0.50400001928E-02 0. -1.
       -1    1    3    3    0  502  0.33006759117E+03 -0.88660041978E+03 -0.97900875558E+03  0.13614195028E+04  0.50400001928E-02 0.  1.
</event>
<event>
 5   0  0.4182977E-05  0.2108157E+04  0.7818609E-02  0.8557658E-01
        1   -1    0    0  501    0  0.00000000000E+00  0.00000000000E+00  0.18299374443E+04  0.18299374443E+04  0.50400001928E-02 0.  1.
       -1   -1    0    0    0  501  0.00000000000E+00  0.00000000000E+00 -0.60716934501E+03  0.60716934503E+03  0.50400001928E-02 0. -1.
    10030    2    1    2    0    0  0.00000000000E+00  0.00000000000E+00  0.12227680993E+04  0.24371067894E+04  0.21081574130E+04 0.  0.
        1    1    3    3  502    0  0.18297662898E+03  0.10070388391E+03 -0.58300928049E+03  0.61929115943E+03  0.50400001928E-02 0. -1.
       -1    1    3    3    0  502 -0.18297662898E+03 -0.10070388391E+03  0.18057773798E+04  0.18178156299E+04  0.50400001928E-02 0.  1.
</event>
<event>
 5   0  0.4200061E-05  0.2146851E+04  0.7818609E-02  0.8540882E-01
       -1   -1    0    0    0  501  0.00000000000E+00  0.00000000000E+00  0.10857041102E+04  0.10857041102E+04  0.50400001928E-02 0. -1.
        1   -1    0    0  501    0  0.00000000000E+00  0.00000000000E+00 -0.10612854203E+04  0.10612854203E+04  0.50400001928E-02 0.  1.
    10030    2    1    2    0    0  0.00000000000E+00  0.00000000000E+00  0.24418689915E+02  0.21469895305E+04  0.21468506636E+04 0.  0.
        4    1    3    3  502    0 -0.65479022330E+03 -0.80849184680E+03 -0.25206335761E+03  0.10704890714E+04  0.12699999809E+01 0. -1.
       -4    1    3    3    0  502  0.65479022330E+03  0.80849184680E+03  0.27648204752E+03  0.10765004591E+04  0.12699999809E+01 0.  1.
</event>
<event>
 5   0  0.8547605E-05  0.1951662E+04  0.7818609E-02  0.8629560E-01
        2   -1    0    0  501    0  0.00000000000E+00  0.00000000000E+00  0.15677809061E+04  0.15677809061E+04  0.25500000920E-02 0. -1.
       -2   -1    0    0    0  501  0.00000000000E+00  0.00000000000E+00 -0.60738491169E+03  0.60738491169E+03  0.25500000920E-02 0.  1.
    10030    2    1    2    0    0  0.00000000000E+00  0.00000000000E+00  0.96039599436E+03  0.21751658177E+04  0.19516623347E+04 0.  0.
        4    1    3    3  502    0 -0.21434556352E+03  0.44328507383E+03 -0.45878004134E+03  0.67299808061E+03  0.12699999809E+01 0.  1.
       -4    1    3    3    0  502  0.21434556352E+03 -0.44328507383E+03  0.14191760357E+04  0.15021677371E+04  0.12699999809E+01 0. -1.
</event>
<event>
 5   0  0.8858590E-05  0.1953294E+04  0.7818609E-02  0.8628774E-01
        2   -1    0    0  501    0  0.00000000000E+00  0.00000000000E+00  0.15729856285E+04  0.15729856285E+04  0.25500000920E-02 0.  1.
       -2   -1    0    0    0  501  0.00000000000E+00  0.00000000000E+00 -0.60638786190E+03  0.60638786191E+03  0.25500000920E-02 0. -1.
    10030    2    1    2    0    0  0.00000000000E+00  0.00000000000E+00  0.96659776659E+03  0.21793734904E+04  0.19532940302E+04 0.  0.
        1    1    3    3  502    0 -0.55350083069E+03  0.43887576796E+03  0.12357962062E+04  0.14234350609E+04  0.50400001928E-02 0.  1.
       -1    1    3    3    0  502  0.55350083069E+03 -0.43887576796E+03 -0.26919843963E+03  0.75593842950E+03  0.50400001928E-02 0. -1.
</event>
<event>
 5   0  0.4200061E-05  0.2097189E+04  0.7818609E-02  0.8562483E-01
        1   -1    0    0  501    0  0.00000000000E+00  0.00000000000E+00  0.15751328394E+04  0.15751328394E+04  0.50400001928E-02 0.  1.
       -1   -1    0    0    0  501  0.00000000000E+00  0.00000000000E+00 -0.69806857992E+03  0.69806857993E+03  0.50400001928E-02 0. -1.
    10030    2    1    2    0    0  0.00000000000E+00  0.00000000000E+00  0.87706425947E+03  0.22732014193E+04  0.20971893042E+04 0.  0.
        4    1    3    3  502    0  0.26171856641E+02 -0.10462613633E+04  0.36827451032E+03  0.11094933683E+04  0.12699999809E+01 0.  1.
       -4    1    3    3    0  502 -0.26171856641E+02  0.10462613633E+04  0.50878974915E+03  0.11637080511E+04  0.12699999809E+01 0. -1.
</event>
<event>
 5   0  0.9086985E-05  0.2110800E+04  0.7818609E-02  0.8556501E-01
       -2   -1    0    0    0  501  0.00000000000E+00  0.00000000000E+00  0.56180228942E+03  0.56180228942E+03  0.25500000920E-02 0. -1.
        2   -1    0    0  501    0  0.00000000000E+00  0.00000000000E+00 -0.19826714366E+04  0.19826714366E+04  0.25500000920E-02 0.  1.
    10030    2    1    2    0    0  0.00000000000E+00  0.00000000000E+00 -0.14208691472E+04  0.25444737260E+04  0.21108001822E+04 0.  0.
        5    1    3    3  502    0  0.75538988516E+02 -0.38670063996E+03 -0.18906747844E+04  0.19312992399E+04  0.46999998093E+01 0.  1.
       -5    1    3    3    0  502 -0.75538988516E+02  0.38670063996E+03  0.46980563718E+03  0.61317448614E+03  0.46999998093E+01 0. -1.
</event>
<event>
 5   0  0.8872777E-05  0.2106041E+04  0.7818609E-02  0.8558587E-01
       -2   -1    0    0    0  501  0.00000000000E+00  0.00000000000E+00  0.10156458784E+04  0.10156458784E+04  0.25500000920E-02 0. -1.
        2   -1    0    0  501    0  0.00000000000E+00  0.00000000000E+00 -0.10917704917E+04  0.10917704917E+04  0.25500000920E-02 0.  1.
    10030    2    1    2    0    0  0.00000000000E+00  0.00000000000E+00 -0.76124613255E+02  0.21074163701E+04  0.21060410253E+04 0.  0.
        3    1    3    3  502    0  0.54874097090E+03  0.89872510789E+03 -0.43424649236E+02  0.10539018849E+04  0.10100000352E+00 0.  1.
       -3    1    3    3    0  502 -0.54874097090E+03 -0.89872510789E+03 -0.32699964019E+02  0.10535144852E+04  0.10100000352E+00 0. -1.
</event>
<event>
 5   0  0.8547605E-05  0.2087472E+04  0.7818609E-02  0.8566782E-01
       -2   -1    0    0    0  501  0.00000000000E+00  0.00000000000E+00  0.48898347636E+03  0.48898347636E+03  0.25500000920E-02 0. -1.
        2   -1    0    0  501    0  0.00000000000E+00  0.00000000000E+00 -0.22278555967E+04  0.22278555967E+04  0.25500000920E-02 0.  1.
    10030    2    1    2    0    0  0.00000000000E+00  0.00000000000E+00 -0.17388721203E+04  0.27168390730E+04  0.20874717478E+04 0.  0.
        4    1    3    3  502    0  0.60659633737E+03 -0.45427739544E+03  0.64614721993E+02  0.76059433584E+03  0.12699999809E+01 0. -1.
       -4    1    3    3    0  502 -0.60659633737E+03  0.45427739544E+03 -0.18034868423E+04  0.19562447372E+04  0.12699999809E+01 0.  1.
</event>
<event>
 5   0  0.9012466E-05  0.2089946E+04  0.7818609E-02  0.8565685E-01
        2   -1    0    0  501    0  0.00000000000E+00  0.00000000000E+00  0.17530380460E+04  0.17530380460E+04  0.25500000920E-02 0.  1.
       -2   -1    0    0    0  501  0.00000000000E+00  0.00000000000E+00 -0.62290066938E+03  0.62290066938E+03  0.25500000920E-02 0. -1.
    10030    2    1    2    0    0  0.00000000000E+00  0.00000000000E+00  0.11301373766E+04  0.23759387154E+04  0.20899460015E+04 0.  0.
        2    1    3    3  502    0  0.38720760014E+03  0.94243511212E+03  0.82889178010E+03  0.13134592682E+04  0.25500000920E-02 0.  1.
       -2    1    3    3    0  502 -0.38720760014E+03 -0.94243511212E+03  0.30124559649E+03  0.10624794471E+04  0.25500000920E-02 0. -1.
</event>
<event>
 5   0  0.9012466E-05  0.2195347E+04  0.7818609E-02  0.8520367E-01
       -2   -1    0    0    0  501  0.00000000000E+00  0.00000000000E+00  0.86780226051E+03  0.86780226052E+03  0.25500000920E-02 0. -1.
        2   -1    0    0  501    0  0.00000000000E+00  0.00000000000E+00 -0.13884346141E+04  0.13884346141E+04  0.25500000920E-02 0.  1.
    10030    2    1    2    0    0  0.00000000000E+00  0.00000000000E+00 -0.52063235355E+03  0.22562368746E+04  0.21953466211E+04 0.  0.
        2    1    3    3  502    0  0.52973356827E+03  0.25458697003E+03  0.69246472215E+03  0.90826184005E+03  0.25500000920E-02 0. -1.
       -2    1    3    3    0  502 -0.52973356827E+03 -0.25458697003E+03 -0.12130970757E+04  0.13479750345E+04  0.25500000920E-02 0.  1.
</event>
<event>
 5   0  0.9012466E-05  0.2027472E+04  0.7818609E-02  0.8593883E-01
        2   -1    0    0  501    0  0.00000000000E+00  0.00000000000E+00  0.21870900789E+04  0.21870900789E+04  0.25500000920E-02 0.  1.
       -2   -1    0    0    0  501  0.00000000000E+00  0.00000000000E+00 -0.46987590512E+03  0.46987590513E+03  0.25500000920E-02 0. -1.
    10030    2    1    2    0    0  0.00000000000E+00  0.00000000000E+00  0.17172141738E+04  0.26569659840E+04  0.20274722493E+04 0.  0.
        2    1    3    3  502    0  0.95971219294E+03  0.69137564640E+02  0.12767996169E+04  0.15987635090E+04  0.25500000920E-02 0.  1.
       -2    1    3    3    0  502 -0.95971219294E+03 -0.69137564640E+02  0.44041455685E+03  0.10582024750E+04  0.25500000920E-02 0. -1.
</event>
<event>
 5   0  0.8872777E-05  0.2112695E+04  0.7818609E-02  0.8555672E-01
        2   -1    0    0  501    0  0.00000000000E+00  0.00000000000E+00  0.23458572000E+04  0.23458572000E+04  0.25500000920E-02 0.  1.
       -2   -1    0    0    0  501  0.00000000000E+00  0.00000000000E+00 -0.47567667698E+03  0.47567667699E+03  0.25500000920E-02 0. -1.
    10030    2    1    2    0    0  0.00000000000E+00  0.00000000000E+00  0.18701805230E+04  0.28215338769E+04  0.21126945426E+04 0.  0.
        3    1    3    3  502    0  0.89345045394E+03 -0.49171494959E+03  0.13028595900E+04  0.16545332958E+04  0.10100000352E+00 0. -1.
       -3    1    3    3    0  502 -0.89345045394E+03  0.49171494959E+03  0.56732093292E+03  0.11670005812E+04  0.10100000352E+00 0.  1.
</event>
<event>
 5   0  0.8547605E-05  0.2088206E+04  0.7818609E-02  0.8566457E-01
       -2   -1    0    0    0  501  0.00000000000E+00  0.00000000000E+00  0.83468273415E+03  0.83468273415E+03  0.25500000920E-02 0.  1.
        2   -1    0    0  501    0  0.00000000000E+00  0.00000000000E+00 -0.13060666160E+04  0.13060666160E+04  0.25500000920E-02 0. -1.
    10030    2    1    2    0    0  0.00000000000E+00  0.00000000000E+00 -0.47138388185E+03  0.21407493502E+04  0.20882061718E+04 0.  0.
        4    1    3    3  502    0 -0.28856199302E+03 -0.31267867671E+03  0.74177378493E+03  0.85514088874E+03  0.12699999809E+01 0.  1.
       -4    1    3    3    0  502  0.28856199302E+03  0.31267867671E+03 -0.12131576668E+04  0.12856084614E+04  0.12699999809E+01 0. -1.
</event>
<event>
 5   0  0.8858590E-05  0.2156423E+04  0.7818609E-02  0.8536788E-01
        2   -1    0    0  501    0  0.00000000000E+00  0.00000000000E+00  0.15930446933E+04  0.15930446933E+04  0.25500000920E-02 0. -1.
       -2   -1    0    0    0  501  0.00000000000E+00  0.00000000000E+00 -0.72975951334E+03  0.72975951335E+03  0.25500000920E-02 0.  1.
    10030    2    1    2    0    0  0.00000000000E+00  0.00000000000E+00  0.86328517998E+03  0.23228042067E+04  0.21564225190E+04 0.  0.
        1    1    3    3  502    0  0.49663514750E+03 -0.91866127035E+03  0.72058266946E+03  0.12687885493E+04  0.50400001928E-02 0. -1.
       -1    1    3    3    0  502 -0.49663514750E+03  0.91866127035E+03  0.14270251052E+03  0.10540156573E+04  0.50400001928E-02 0.  1.
</event>
<event>
 5   0  0.4182977E-05  0.2117724E+04  0.7818609E-02  0.8553476E-01
        1   -1    0    0  501    0  0.00000000000E+00  0.00000000000E+00  0.87236088222E+03  0.87236088224E+03  0.50400001928E-02 0. -1.
       -1   -1    0    0    0  501  0.00000000000E+00  0.00000000000E+00 -0.12852354216E+04  0.12852354216E+04  0.50400001928E-02 0.  1.
    10030    2    1    2    0    0  0.00000000000E+00  0.00000000000E+00 -0.41287453942E+03  0.21575963039E+04  0.21177243506E+04 0.  0.
        1    1    3    3  502    0  0.70698702198E+03 -0.24193945896E+03  0.55790340058E+03  0.93253501568E+03  0.50400001928E-02 0. -1.
       -1    1    3    3    0  502 -0.70698702198E+03  0.24193945896E+03 -0.97077794000E+03  0.12250612882E+04  0.50400001928E-02 0.  1.
</event>
<event>
 5   0  0.4174093E-05  0.2066276E+04  0.7818609E-02  0.8576246E-01
       -1   -1    0    0    0  501  0.00000000000E+00  0.00000000000E+00  0.10024507517E+04  0.10024507517E+04  0.50400001928E-02 0.  1.
        1   -1    0    0  501    0  0.00000000000E+00  0.00000000000E+00 -0.10647642806E+04  0.10647642806E+04  0.50400001928E-02 0. -1.
    10030    2    1    2    0    0  0.00000000000E+00  0.00000000000E+00 -0.62313528871E+02  0.20672150323E+04  0.20662756384E+04 0.  0.
        3    1    3    3  502    0  0.57260268994E+03  0.42929251482E+03 -0.77661822157E+03  0.10560784895E+04  0.10100000352E+00 0. -1.
       -3    1    3    3    0  502 -0.57260268994E+03 -0.42929251482E+03  0.71430469270E+03  0.10111365427E+04  0.10100000352E+00 0.  1.
</event>
<event>
 5   0  0.4182977E-05  0.2100072E+04  0.7818609E-02  0.8561212E-01
        1   -1    0    0  501    0  0.00000000000E+00  0.00000000000E+00  0.50906571789E+03  0.50906571792E+03  0.50400001928E-02 0. -1.
       -1   -1    0    0    0  501  0.00000000000E+00  0.00000000000E+00 -0.21658808825E+04  0.21658808825E+04  0.50400001928E-02 0.  1.
    10030    2    1    2    0    0  0.00000000000E+00  0.00000000000E+00 -0.16568151646E+04  0.26749466004E+04  0.21000721001E+04 0.  0.
        1    1    3    3  502    0  0.67033206274E+03 -0.78466500772E+03 -0.58164538577E+03  0.11846331092E+04  0.50400001928E-02 0.  1.
       -1    1    3    3    0  502 -0.67033206274E+03  0.78466500772E+03 -0.10751697789E+04  0.14903134912E+04  0.50400001928E-02 0. -1.
</event>
<event>
 5   0  0.8547605E-05  0.2080252E+04  0.7818609E-02  0.8569993E-01
       -2   -1    0    0    0  501  0.00000000000E+00  0.00000000000E+00  0.12407067720E+04  0.12407067720E+04  0.25500000920E-02 0. -1.
        2   -1    0    0  501    0  0.00000000000E+00  0.00000000000E+00 -0.87197225267E+03  0.87197225267E+03  0.25500000920E-02 0.  1.
    10030    2    1    2    0    0  0.00000000000E+00  0.00000000000E+00  0.36873451930E+03  0.21126790246E+04  0.20802517914E+04 0.  0.
        4    1    3    3  502    0  0.89930147195E+02  0.47554474346E+03  0.11193870079E+04  0.12195323369E+04  0.12699999809E+01 0. -1.
       -4    1    3    3    0  502 -0.89930147195E+02 -0.47554474346E+03 -0.75065248856E+03  0.89314668778E+03  0.12699999809E+01 0.  1.
</event>
<event>
 5   0  0.9012466E-05  0.2096287E+04  0.7818609E-02  0.8562881E-01
       -2   -1    0    0    0  501  0.00000000000E+00  0.00000000000E+00  0.59932312951E+03  0.59932312952E+03  0.25500000920E-02 0. -1.
        2   -1    0    0  501    0  0.00000000000E+00  0.00000000000E+00 -0.18330754278E+04  0.18330754278E+04  0.25500000920E-02 0.  1.
    10030    2    1    2    0    0  0.00000000000E+00  0.00000000000E+00 -0.12337522983E+04  0.24323985573E+04  0.20962867190E+04 0.  0.
        2    1    3    3  502    0  0.17947943584E+03 -0.10297055718E+04 -0.70748700638E+03  0.12621585862E+04  0.25500000920E-02 0.  1.
       -2    1    3    3    0  502 -0.17947943584E+03  0.10297055718E+04 -0.52626529193E+03  0.11702399711E+04  0.25500000920E-02 0. -1.
</event>
<event>
 5   0  0.9012466E-05  0.2101212E+04  0.7818609E-02  0.8560710E-01
       -2   -1    0    0    0  501  0.00000000000E+00  0.00000000000E+00  0.64545026754E+03  0.64545026754E+03  0.25500000920E-02 0. -1.
        2   -1    0    0  501    0  0.00000000000E+00  0.00000000000E+00 -0.17100823112E+04  0.17100823112E+04  0.25500000920E-02 0.  1.
    10030    2    1    2    0    0  0.00000000000E+00  0.00000000000E+00 -0.10646320437E+04  0.23555325787E+04  0.21012121124E+04 0.  0.
        2    1    3    3  502    0  0.28999350730E+02 -0.99066701955E+03 -0.92309120933E+03  0.13543852800E+04  0.25500000920E-02 0. -1.
       -2    1    3    3    0  502 -0.28999350730E+02  0.99066701955E+03 -0.14154083433E+03  0.10011472987E+04  0.25500000920E-02 0.  1.
</event>
<event>
 5   0  0.8858590E-05  0.2090892E+04  0.7818609E-02  0.8565266E-01
       -2   -1    0    0    0  501  0.00000000000E+00  0.00000000000E+00  0.54513810742E+03  0.54513810742E+03  0.25500000920E-02 0.  1.
        2   -1    0    0  501    0  0.00000000000E+00  0.00000000000E+00 -0.20049184202E+04  0.20049184202E+04  0.25500000920E-02 0. -1.
    10030    2    1    2    0    0  0.00000000000E+00  0.00000000000E+00 -0.14597803128E+04  0.25500565276E+04  0.20908920901E+04 0.  0.
        1    1    3    3  502    0 -0.27962227078E+03 -0.76670072735E+03  0.67004670074E+02  0.81884567867E+03  0.50400001928E-02 0. -1.
       -1    1    3    3    0  502  0.27962227078E+03  0.76670072735E+03 -0.15267849828E+04  0.17312108489E+04  0.50400001928E-02 0.  1.
</event>
<event>
 5   0  0.9086985E-05  0.2103813E+04  0.7818609E-02  0.8559565E-01
       -2   -1    0    0    0  501  0.00000000000E+00  0.00000000000E+00  0.70369949827E+03  0.70369949828E+03  0.25500000920E-02 0. -1.
        2   -1    0    0  501    0  0.00000000000E+00  0.00000000000E+00 -0.15724147716E+04  0.15724147716E+04  0.25500000920E-02 0.  1.
    10030    2    1    2    0    0  0.00000000000E+00  0.00000000000E+00 -0.86871527333E+03  0.22761142699E+04  0.21038131912E+04 0.  0.
        5    1    3    3  502    0  0.29245948576E+02 -0.78678095983E+02 -0.15687743606E+04  0.15710253507E+04  0.46999998093E+01 0.  1.
       -5    1    3    3    0  502 -0.29245948576E+02  0.78678095983E+02  0.70005908723E+03  0.70508891915E+03  0.46999998093E+01 0. -1.
</event>
<event>
 5   0  0.4050368E-05  0.2090136E+04  0.7818609E-02  0.8565601E-01
       -1   -1    0    0    0  501  0.00000000000E+00  0.00000000000E+00  0.10255053094E+04  0.10255053094E+04  0.50400001928E-02 0.  1.
        1   -1    0    0  501    0  0.00000000000E+00  0.00000000000E+00 -0.10650036822E+04  0.10650036822E+04  0.50400001928E-02 0. -1.
    10030    2    1    2    0    0  0.00000000000E+00  0.00000000000E+00 -0.39498372845E+02  0.20905089916E+04  0.20901358143E+04 0.  0.
        2    1    3    3  502    0  0.44434323513E+03  0.37721643911E+02  0.92556669225E+03  0.10273935637E+04  0.25500000920E-02 0.  1.
       -2    1    3    3    0  502 -0.44434323513E+03 -0.37721643911E+02 -0.96506506509E+03  0.10631154278E+04  0.25500000920E-02 0. -1.
</event>
<event>
 5   0  0.4174093E-05  0.2194401E+04  0.7818609E-02  0.8520762E-01
        1   -1    0    0  501    0  0.00000000000E+00  0.00000000000E+00  0.10168193895E+04  0.10168193895E+04  0.50400001928E-02 0.  1.
       -1   -1    0    0    0  501  0.00000000000E+00  0.00000000000E+00 -0.11839358404E+04  0.11839358404E+04  0.50400001928E-02 0. -1.
    10030    2    1    2    0    0  0.00000000000E+00  0.00000000000E+00 -0.16711645091E+03  0.22007552298E+04  0.21944009828E+04 0.  0.
        3    1    3    3  502    0 -0.71175383420E+03  0.76048469245E+03 -0.42940228397E+03  0.11266396139E+04  0.10100000352E+00 0. -1.
       -3    1    3    3    0  502  0.71175383420E+03 -0.76048469245E+03  0.26228583306E+03  0.10741156159E+04  0.10100000352E+00 0.  1.
</event>
<event>
 5   0  0.4182977E-05  0.2101414E+04  0.7818609E-02  0.8560621E-01
        1   -1    0    0  501    0  0.00000000000E+00  0.00000000000E+00  0.70412835025E+03  0.70412835027E+03  0.50400001928E-02 0.  1.
       -1   -1    0    0    0  501  0.00000000000E+00  0.00000000000E+00 -0.15678747887E+04  0.15678747887E+04  0.50400001928E-02 0. -1.
    10030    2    1    2    0    0  0.00000000000E+00  0.00000000000E+00 -0.86374643846E+03  0.22720031390E+04  0.21014138939E+04 0.  0.
        1    1    3    3  502    0 -0.64124844350E+03  0.82787047907E+03 -0.52498013770E+03  0.11713979859E+04  0.50400001928E-02 0.  1.
       -1    1    3    3    0  502  0.64124844350E+03 -0.82787047907E+03 -0.33876630076E+03  0.11006051531E+04  0.50400001928E-02 0. -1.
</event>
<event>
 5   0  0.4050368E-05  0.2080133E+04  0.7818609E-02  0.8570046E-01
        1   -1    0    0  501    0  0.00000000000E+00  0.00000000000E+00  0.18435248985E+04  0.18435248985E+04  0.50400001928E-02 0.  1.
       -1   -1    0    0    0  501  0.00000000000E+00  0.00000000000E+00 -0.58677741880E+03  0.58677741882E+03  0.50400001928E-02 0. -1.
    10030    2    1    2    0    0  0.00000000000E+00  0.00000000000E+00  0.12567474797E+04  0.24303023173E+04  0.20801334394E+04 0.  0.
        2    1    3    3  502    0  0.87138526441E+01 -0.63200954439E+03  0.15933874619E+04  0.17141749033E+04  0.25500000920E-02 0.  1.
       -2    1    3    3    0  502 -0.87138526441E+01  0.63200954439E+03 -0.33663998222E+03  0.71612741399E+03  0.25500000920E-02 0. -1.
</event>
<event>
 5   0  0.8872777E-05  0.2106850E+04  0.7818609E-02  0.8558232E-01
        2   -1    0    0  501    0  0.00000000000E+00  0.00000000000E+00  0.13521328573E+04  0.13521328573E+04  0.25500000920E-02 0.  1.
       -2   -1    0    0    0  501  0.00000000000E+00  0.00000000000E+00 -0.82070689240E+03  0.82070689240E+03  0.25500000920E-02 0. -1.
    10030    2    1    2    0    0  0.00000000000E+00  0.00000000000E+00  0.53142596487E+03  0.21728397497E+04  0.21068504982E+04 0.  0.
        3    1    3    3  502    0  0.45250563925E+03 -0.93283278370E+03  0.45801054210E+03  0.11334513765E+04  0.10100000352E+00 0.  1.
       -3    1    3    3    0  502 -0.45250563925E+03  0.93283278370E+03  0.73415422769E+02  0.10393883732E+04  0.10100000352E+00 0. -1.
</event>
<event>
 5   0  0.4050368E-05  0.2069285E+04  0.7818609E-02  0.8574896E-01
        1   -1    0    0  501    0  0.00000000000E+00  0.00000000000E+00  0.69214130350E+03  0.69214130352E+03  0.50400001928E-02 0. -1.
       -1   -1    0    0    0  501  0.00000000000E+00  0.00000000000E+00 -0.15466275424E+04  0.15466275424E+04  0.50400001928E-02 0.  1.
    10030    2    1    2    0    0  0.00000000000E+00  0.00000000000E+00 -0.85448623885E+03  0.22387688459E+04  0.20692847104E+04 0.  0.
        2    1    3    3  502    0 -0.10318582227E+04 -0.35126837697E+02 -0.35450953285E+03  0.10916236968E+04  0.25500000920E-02 0.  1.
       -2    1    3    3    0  502  0.10318582227E+04  0.35126837697E+02 -0.49997670600E+03  0.11471451491E+04  0.25500000920E-02 0. -1.
</event>
<event>
 5   0  0.9086985E-05  0.2112587E+04  0.7818609E-02  0.8555719E-01
       -2   -1    0    0    0  501  0.00000000000E+00  0.00000000000E+00  0.59590736038E+03  0.59590736039E+03  0.25500000920E-02 0. -1.
        2   -1    0    0  501    0  0.00000000000E+00  0.00000000000E+00 -0.18723639830E+04  0.18723639830E+04  0.25500000920E-02 0.  1.
    10030    2    1    2    0    0  0.00000000000E+00  0.00000000000E+00 -0.12764566226E+04  0.24682713433E+04  0.21125865462E+04 0.  0.
        5    1    3    3  502    0  0.77669541831E+03 -0.66236814500E+03 -0.32094458888E+03  0.10700536676E+04  0.46999998093E+01 0. -1.
       -5    1    3    3    0  502 -0.77669541831E+03  0.66236814500E+03 -0.95551203369E+03  0.13982176758E+04  0.46999998093E+01 0.  1.
</event>
<event>
 5   0  0.8547605E-05  0.2077981E+04  0.7818609E-02  0.8571005E-01
       -2   -1    0    0    0  501  0.00000000000E+00  0.00000000000E+00  0.71239499070E+03  0.71239499071E+03  0.25500000920E-02 0.  1.
        2   -1    0    0  501    0  0.00000000000E+00  0.00000000000E+00 -0.15153129640E+04  0.15153129640E+04  0.25500000920E-02 0. -1.
    10030    2    1    2    0    0  0.00000000000E+00  0.00000000000E+00 -0.80291797331E+03  0.22277079547E+04  0.20779811019E+04 0.  0.
        4    1    3    3  502    0  0.61533027911E+03  0.46676489095E+03 -0.11465164152E+04  0.13823900749E+04  0.12699999809E+01 0. -1.
       -4    1    3    3    0  502 -0.61533027911E+03 -0.46676489095E+03  0.34359844191E+03  0.84531787985E+03  0.12699999809E+01 0.  1.
</event>
<event>
 5   0  0.4128678E-05  0.2120076E+04  0.7818609E-02  0.8552451E-01
       -1   -1    0    0    0  501  0.00000000000E+00  0.00000000000E+00  0.11516760711E+04  0.11516760711E+04  0.50400001928E-02 0. -1.
        1   -1    0    0  501    0  0.00000000000E+00  0.00000000000E+00 -0.97569130577E+03  0.97569130578E+03  0.50400001928E-02 0.  1.
    10030    2    1    2    0    0  0.00000000000E+00  0.00000000000E+00  0.17598476532E+03  0.21273673769E+04  0.21200757813E+04 0.  0.
        5    1    3    3  502    0  0.89805930895E+02  0.25858013860E+03  0.11155894149E+04  0.11486908313E+04  0.46999998093E+01 0. -1.
       -5    1    3    3    0  502 -0.89805930895E+02 -0.25858013860E+03 -0.93960464959E+03  0.97867654556E+03  0.46999998093E+01 0.  1.
</event>
<event>
 5   0  0.4174093E-05  0.1974885E+04  0.7818609E-02  0.8618453E-01
       -1   -1    0    0    0  501  0.00000000000E+00  0.00000000000E+00  0.90461562040E+03  0.90461562041E+03  0.50400001928E-02 0.  1.
        1   -1    0    0  501    0  0.00000000000E+00  0.00000000000E+00 -0.10778534787E+04  0.10778534788E+04  0.50400001928E-02 0. -1.
    10030    2    1    2    0    0  0.00000000000E+00  0.00000000000E+00 -0.17323785834E+03  0.19824690992E+04  0.19748854077E+04 0.  0.
        3    1    3    3  502    0  0.35293565969E+03  0.32747689376E+03 -0.95204224583E+03  0.10668594771E+04  0.10100000352E+00 0. -1.
       -3    1    3    3    0  502 -0.35293565969E+03 -0.32747689376E+03  0.77880438749E+03  0.91560962206E+03  0.10100000352E+00 0.  1.
</event>
<event>
 5   0  0.4200061E-05  0.2049120E+04  0.7818609E-02  0.8583994E-01
       -1   -1    0    0    0  501  0.00000000000E+00  0.00000000000E+00  0.13464684737E+04  0.13464684737E+04  0.50400001928E-02 0. -1.
        1   -1    0    0  501    0  0.00000000000E+00  0.00000000000E+00 -0.77961184704E+03  0.77961184706E+03  0.50400001928E-02 0.  1.
    10030    2    1    2    0    0  0.00000000000E+00  0.00000000000E+00  0.56685662668E+03  0.21260803208E+04  0.20491195903E+04 0.  0.
        4    1    3    3  502    0 -0.10076526129E+04 -0.54704492267E+02  0.46718094248E+03  0.11120323807E+04  0.12699999809E+01 0. -1.
       -4    1    3    3    0  502  0.10076526129E+04  0.54704492267E+02  0.99675684197E+02  0.10140479401E+04  0.12699999809E+01 0.  1.
</event>
<event>
 5   0  0.4128678E-05  0.2092289E+04  0.7818609E-02  0.8564648E-01
       -1   -1    0    0    0  501  0.00000000000E+00  0.00000000000E+00  0.35927458610E+03  0.35927458614E+03  0.50400001928E-02 0.  1.
        1   -1    0    0  501    0  0.00000000000E+00  0.00000000000E+00 -0.30461904352E+04  0.30461904352E+04  0.50400001928E-02 0. -1.
    10030    2    1    2    0    0  0.00000000000E+00  0.00000000000E+00 -0.26869158491E+04  0.34054650213E+04  0.20922894712E+04 0.  0.
        5    1    3    3  502    0  0.34106444140E+03  0.74837420808E+03 -0.29114028104E+03  0.87245267021E+03  0.46999998093E+01 0.  1.
       -5    1    3    3    0  502 -0.34106444140E+03 -0.74837420808E+03 -0.23957755680E+04  0.25330123511E+04  0.46999998093E+01 0. -1.
</event>
<event>
 5   0  0.9012466E-05  0.2084120E+04  0.7818609E-02  0.8568271E-01
       -2   -1    0    0    0  501  0.00000000000E+00  0.00000000000E+00  0.70985030918E+03  0.70985030919E+03  0.25500000920E-02 0.  1.
        2   -1    0    0  501    0  0.00000000000E+00  0.00000000000E+00 -0.15297440880E+04  0.15297440880E+04  0.25500000920E-02 0. -1.
    10030    2    1    2    0    0  0.00000000000E+00  0.00000000000E+00 -0.81989377881E+03  0.22395943972E+04  0.20841202593E+04 0.  0.
        2    1    3    3  502    0 -0.18623922580E+03  0.50756742785E+03 -0.13672331740E+04  0.14702504192E+04  0.25500000920E-02 0. -1.
       -2    1    3    3    0  502  0.18623922580E+03 -0.50756742785E+03  0.54733939515E+03  0.76934397803E+03  0.25500000920E-02 0.  1.
</event>
<event>
 5   0  0.4050368E-05  0.2101278E+04  0.7818609E-02  0.8560681E-01
       -1   -1    0    0    0  501  0.00000000000E+00  0.00000000000E+00  0.58077436269E+03  0.58077436271E+03  0.50400001928E-02 0.  1.
        1   -1    0    0  501    0  0.00000000000E+00  0.00000000000E+00 -0.19006380351E+04  0.19006380352E+04  0.50400001928E-02 0. -1.
    10030    2    1    2    0    0  0.00000000000E+00  0.00000000000E+00 -0.13198636725E+04  0.24814123979E+04  0.21012775577E+04 0.  0.
        2    1    3    3  502    0 -0.59228783296E+03 -0.51673262954E+03 -0.14832061060E+04  0.16786059217E+04  0.25500000920E-02 0. -1.
       -2    1    3    3    0  502  0.59228783296E+03  0.51673262954E+03  0.16334243358E+03  0.80280647613E+03  0.25500000920E-02 0.  1.
</event>
<event>
 5   0  0.9086985E-05  0.1885081E+04  0.7818609E-02  0.8662318E-01
       -2   -1    0    0    0  501  0.00000000000E+00  0.00000000000E+00  0.53067461539E+03  0.53067461540E+03  0.25500000920E-02 0.  1.
        2   -1    0    0  501    0  0.00000000000E+00  0.00000000000E+00 -0.16740622029E+04  0.16740622029E+04  0.25500000920E-02 0. -1.
    10030    2    1    2    0    0  0.00000000000E+00  0.00000000000E+00 -0.11433875875E+04  0.22047368183E+04  0.18850807045E+04 0.  0.
        5    1    3    3  502    0 -0.81023744281E+03 -0.48127359518E+03 -0.55315549321E+03  0.10927543534E+04  0.46999998093E+01 0. -1.
       -5    1    3    3    0  502  0.81023744281E+03  0.48127359518E+03 -0.59023209426E+03  0.11119824649E+04  0.46999998093E+01 0.  1.
</event>
<event>
 5   0  0.4182977E-05  0.2122398E+04  0.7818609E-02  0.8551441E-01
        1   -1    0    0  501    0  0.00000000000E+00  0.00000000000E+00  0.16523623774E+04  0.16523623774E+04  0.50400001928E-02 0. -1.
       -1   -1    0    0    0  501  0.00000000000E+00  0.00000000000E+00 -0.68153528097E+03  0.68153528099E+03  0.50400001928E-02 0.  1.
    10030    2    1    2    0    0  0.00000000000E+00  0.00000000000E+00  0.97082709642E+03  0.23338976584E+04  0.21223979431E+04 0.  0.
        1    1    3    3  502    0  0.57037165581E+03  0.88511603826E+03  0.63042178545E+03  0.12272676377E+04  0.50400001928E-02 0.  1.
       -1    1    3    3    0  502 -0.57037165581E+03 -0.88511603826E+03  0.34040531097E+03  0.11066300207E+04  0.50400001928E-02 0. -1.
</event>
<event>
 5   0  0.8872777E-05  0.2150226E+04  0.7818609E-02  0.8539436E-01
        2   -1    0    0  501    0  0.00000000000E+00  0.00000000000E+00  0.12290879830E+04  0.12290879830E+04  0.25500000920E-02 0. -1.
       -2   -1    0    0    0  501  0.00000000000E+00  0.00000000000E+00 -0.94042732481E+03  0.94042732481E+03  0.25500000920E-02 0.  1.
    10030    2    1    2    0    0  0.00000000000E+00  0.00000000000E+00  0.28866065814E+03  0.21695153078E+04  0.21502259637E+04 0.  0.
        3    1    3    3  502    0  0.63733699263E+03  0.73539531344E+03  0.60544568531E+03  0.11461104647E+04  0.10100000352E+00 0. -1.
       -3    1    3    3    0  502 -0.63733699263E+03 -0.73539531344E+03 -0.31678502717E+03  0.10234048431E+04  0.10100000352E+00 0.  1.
</event>
<event>
 5   0  0.9086985E-05  0.2159312E+04  0.7818609E-02  0.8535557E-01
        2   -1    0    0  501    0  0.00000000000E+00  0.00000000000E+00  0.84086692705E+03  0.84086692705E+03  0.25500000920E-02 0. -1.
       -2   -1    0    0    0  501  0.00000000000E+00  0.00000000000E+00 -0.13862566045E+04  0.13862566045E+04  0.25500000920E-02 0.  1.
    10030    2    1    2    0    0  0.00000000000E+00  0.00000000000E+00 -0.54538967747E+03  0.22271235316E+04  0.21593122342E+04 0.  0.
        5    1    3    3  502    0 -0.65430888245E+03  0.37058649982E+03  0.52634770048E+03  0.91788804290E+03  0.46999998093E+01 0. -1.
       -5    1    3    3    0  502  0.65430888245E+03 -0.37058649982E+03 -0.10717373780E+04  0.13092354887E+04  0.46999998093E+01 0.  1.
</event>
<event>
 5   0  0.9086985E-05  0.1992114E+04  0.7818609E-02  0.8610316E-01
        2   -1    0    0  501    0  0.00000000000E+00  0.00000000000E+00  0.57633357049E+03  0.57633357049E+03  0.25500000920E-02 0.  1.
       -2   -1    0    0    0  501  0.00000000000E+00  0.00000000000E+00 -0.17214506835E+04  0.17214506835E+04  0.25500000920E-02 0. -1.
    10030    2    1    2    0    0  0.00000000000E+00  0.00000000000E+00 -0.11451171130E+04  0.22977842540E+04  0.19921142727E+04 0.  0.
        5    1    3    3  502    0 -0.40199614409E+03 -0.49781538334E+03  0.30790735161E+03  0.71010568434E+03  0.46999998093E+01 0.  1.
       -5    1    3    3    0  502  0.40199614409E+03  0.49781538334E+03 -0.14530244646E+04  0.15876785696E+04  0.46999998093E+01 0. -1.
</event>
<event>
 5   0  0.8872777E-05  0.2353392E+04  0.7818609E-02  0.8457162E-01
        2   -1    0    0  501    0  0.00000000000E+00  0.00000000000E+00  0.16570001792E+04  0.16570001792E+04  0.25500000920E-02 0.  1.
       -2   -1    0    0    0  501  0.00000000000E+00  0.00000000000E+00 -0.83561439602E+03  0.83561439603E+03  0.25500000920E-02 0. -1.
    10030    2    1    2    0    0  0.00000000000E+00  0.00000000000E+00  0.82138578323E+03  0.24926145753E+04  0.23533917685E+04 0.  0.
        3    1    3    3  502    0  0.56770891092E+03  0.98939853971E+03  0.71658676799E+03  0.13471078220E+04  0.10100000352E+00 0.  1.
       -3    1    3    3    0  502 -0.56770891092E+03 -0.98939853971E+03  0.10479901524E+03  0.11455067532E+04  0.10100000352E+00 0. -1.
</event>
<event>
 5   0  0.4182977E-05  0.2089202E+04  0.7818609E-02  0.8566015E-01
        1   -1    0    0  501    0  0.00000000000E+00  0.00000000000E+00  0.14046147227E+04  0.14046147227E+04  0.50400001928E-02 0. -1.
       -1   -1    0    0    0  501  0.00000000000E+00  0.00000000000E+00 -0.77686184704E+03  0.77686184706E+03  0.50400001928E-02 0.  1.
    10030    2    1    2    0    0  0.00000000000E+00  0.00000000000E+00  0.62775287568E+03  0.21814765698E+04  0.20892023242E+04 0.  0.
        1    1    3    3  502    0  0.87614877803E+03  0.46765097331E+03 -0.24242696003E+02  0.99343939041E+03  0.50400001928E-02 0.  1.
       -1    1    3    3    0  502 -0.87614877803E+03 -0.46765097331E+03  0.65199557168E+03  0.11880371794E+04  0.50400001928E-02 0. -1.
</event>
<event>
 5   0  0.4050368E-05  0.2103804E+04  0.7818609E-02  0.8559569E-01
       -1   -1    0    0    0  501  0.00000000000E+00  0.00000000000E+00  0.81794197922E+03  0.81794197924E+03  0.50400001928E-02 0. -1.
        1   -1    0    0  501    0  0.00000000000E+00  0.00000000000E+00 -0.13527830299E+04  0.13527830299E+04  0.50400001928E-02 0.  1.
    10030    2    1    2    0    0  0.00000000000E+00  0.00000000000E+00 -0.53484105065E+03  0.21707250091E+04  0.21038042009E+04 0.  0.
        2    1    3    3  502    0 -0.44876593951E+03  0.68459952298E+03 -0.94906373870E+03  0.12533113562E+04  0.25500000920E-02 0.  1.
       -2    1    3    3    0  502  0.44876593951E+03 -0.68459952298E+03  0.41422268806E+03  0.91741365296E+03  0.25500000920E-02 0. -1.
</event>
<event>
 5   0  0.4128678E-05  0.2099947E+04  0.7818609E-02  0.8561267E-01
        1   -1    0    0  501    0  0.00000000000E+00  0.00000000000E+00  0.14730571576E+04  0.14730571576E+04  0.50400001928E-02 0. -1.
       -1   -1    0    0    0  501  0.00000000000E+00  0.00000000000E+00 -0.74840578652E+03  0.74840578654E+03  0.50400001928E-02 0.  1.
    10030    2    1    2    0    0  0.00000000000E+00  0.00000000000E+00  0.72465137107E+03  0.22214629441E+04  0.20999471428E+04 0.  0.
        5    1    3    3  502    0 -0.93576545485E+02  0.90587924870E+03  0.91510363286E+03  0.12910501663E+04  0.46999998093E+01 0. -1.
       -5    1    3    3    0  502  0.93576545485E+02 -0.90587924870E+03 -0.19045226179E+03  0.93041277781E+03  0.46999998093E+01 0.  1.
</event>
<event>
 5   0  0.9012466E-05  0.2050784E+04  0.7818609E-02  0.8583239E-01
       -2   -1    0    0    0  501  0.00000000000E+00  0.00000000000E+00  0.57546146110E+03  0.57546146111E+03  0.25500000920E-02 0. -1.
        2   -1    0    0  501    0  0.00000000000E+00  0.00000000000E+00 -0.18271058402E+04  0.18271058402E+04  0.25500000920E-02 0.  1.
    10030    2    1    2    0    0  0.00000000000E+00  0.00000000000E+00 -0.12516443791E+04  0.24025673013E+04  0.20507842367E+04 0.  0.
        2    1    3    3  502    0  0.26701277404E+02  0.98192709644E+03 -0.28119302185E+03  0.10217452209E+04  0.25500000920E-02 0. -1.
       -2    1    3    3    0  502 -0.26701277404E+02 -0.98192709644E+03 -0.97045135727E+03  0.13808220804E+04  0.25500000920E-02 0.  1.
</event>
<event>
 5   0  0.4174093E-05  0.2133979E+04  0.7818609E-02  0.8546421E-01
       -1   -1    0    0    0  501  0.00000000000E+00  0.00000000000E+00  0.75427147880E+03  0.75427147881E+03  0.50400001928E-02 0.  1.
        1   -1    0    0  501    0  0.00000000000E+00  0.00000000000E+00 -0.15093589084E+04  0.15093589085E+04  0.50400001928E-02 0. -1.
    10030    2    1    2    0    0  0.00000000000E+00  0.00000000000E+00 -0.75508742965E+03  0.22636303873E+04  0.21339787965E+04 0.  0.
        3    1    3    3  502    0  0.60374136170E+03  0.87160716632E+03 -0.50423047575E+03  0.11740745577E+04  0.10100000352E+00 0.  1.
       -3    1    3    3    0  502 -0.60374136170E+03 -0.87160716632E+03 -0.25085695390E+03  0.10895558296E+04  0.10100000352E+00 0. -1.
</event>
<event>
 5   0  0.4200061E-05  0.2127361E+04  0.7818609E-02  0.8549285E-01
       -1   -1    0    0    0  501  0.00000000000E+00  0.00000000000E+00  0.11828998675E+04  0.11828998675E+04  0.50400001928E-02 0. -1.
        1   -1    0    0  501    0  0.00000000000E+00  0.00000000000E+00 -0.95647717450E+03  0.95647717451E+03  0.50400001928E-02 0.  1.
    10030    2    1    2    0    0  0.00000000000E+00  0.00000000000E+00  0.22642269303E+03  0.21393770421E+04  0.21273614860E+04 0.  0.
        4    1    3    3  502    0 -0.92534463972E+03  0.51713861807E+03  0.20157146872E+03  0.10790401858E+04  0.12699999809E+01 0.  1.
       -4    1    3    3    0  502  0.92534463972E+03 -0.51713861807E+03  0.24851224318E+02  0.10603368563E+04  0.12699999809E+01 0. -1.
</event>
<event>
 5   0  0.8547605E-05  0.2065627E+04  0.7818609E-02  0.8576538E-01
        2   -1    0    0  501    0  0.00000000000E+00  0.00000000000E+00  0.40799393204E+03  0.40799393204E+03  0.25500000920E-02 0. -1.
       -2   -1    0    0    0  501  0.00000000000E+00  0.00000000000E+00 -0.26145087063E+04  0.26145087063E+04  0.25500000920E-02 0.  1.
    10030    2    1    2    0    0  0.00000000000E+00  0.00000000000E+00 -0.22065147743E+04  0.30225026384E+04  0.20656269629E+04 0.  0.
        4    1    3    3  502    0  0.65133717512E+02  0.72118929449E+03 -0.21808457317E+04  0.22979221306E+04  0.12699999809E+01 0.  1.
       -4    1    3    3    0  502 -0.65133717512E+02 -0.72118929449E+03 -0.25669042563E+02  0.72458050781E+03  0.12699999809E+01 0. -1.
</event>
<event>
 5   0  0.4200061E-05  0.2083164E+04  0.7818609E-02  0.8568696E-01
       -1   -1    0    0    0  501  0.00000000000E+00  0.00000000000E+00  0.58902156343E+03  0.58902156345E+03  0.50400001928E-02 0.  1.
        1   -1    0    0  501    0  0.00000000000E+00  0.00000000000E+00 -0.18418568673E+04  0.18418568673E+04  0.50400001928E-02 0. -1.
    10030    2    1    2    0    0  0.00000000000E+00  0.00000000000E+00 -0.12528353039E+04  0.24308784307E+04  0.20831643350E+04 0.  0.
        4    1    3    3  502    0 -0.64387800584E+03  0.19585295342E+03 -0.15540643974E+04  0.16935332975E+04  0.12699999809E+01 0.  1.
       -4    1    3    3    0  502  0.64387800584E+03 -0.19585295342E+03  0.30122909353E+03  0.73734513320E+03  0.12699999809E+01 0. -1.
</event>
<event>
 5   0  0.4200061E-05  0.2087027E+04  0.7818609E-02  0.8566980E-01
       -1   -1    0    0    0  501  0.00000000000E+00  0.00000000000E+00  0.91818342598E+03  0.91818342599E+03  0.50400001928E-02 0. -1.
        1   -1    0    0  501    0  0.00000000000E+00  0.00000000000E+00 -0.11859507647E+04  0.11859507647E+04  0.50400001928E-02 0.  1.
    10030    2    1    2    0    0  0.00000000000E+00  0.00000000000E+00 -0.26776733876E+03  0.21041341907E+04  0.20870269152E+04 0.  0.
        4    1    3    3  502    0 -0.15752561152E+03  0.12032795702E+03 -0.11667939218E+04  0.11835129084E+04  0.12699999809E+01 0.  1.
       -4    1    3    3    0  502  0.15752561152E+03 -0.12032795702E+03  0.89902658305E+03  0.92062128232E+03  0.12699999809E+01 0. -1.
</event>
<event>
 5   0  0.4182977E-05  0.2158532E+04  0.7818609E-02  0.8535889E-01
       -1   -1    0    0    0  501  0.00000000000E+00  0.00000000000E+00  0.92755545184E+03  0.92755545185E+03  0.50400001928E-02 0. -1.
        1   -1    0    0  501    0  0.00000000000E+00  0.00000000000E+00 -0.12557901282E+04  0.12557901282E+04  0.50400001928E-02 0.  1.
    10030    2    1    2    0    0  0.00000000000E+00  0.00000000000E+00 -0.32823467637E+03  0.21833455801E+04  0.21585318898E+04 0.  0.
        1    1    3    3  502    0  0.73659272141E+03  0.22980102074E+03  0.59916830716E+03  0.97692374661E+03  0.50400001928E-02 0. -1.
       -1    1    3    3    0  502 -0.73659272141E+03 -0.22980102074E+03 -0.92740298354E+03  0.12064218335E+04  0.50400001928E-02 0.  1.
</event>
<event>
 5   0  0.8858590E-05  0.2080241E+04  0.7818609E-02  0.8569998E-01
       -2   -1    0    0    0  501  0.00000000000E+00  0.00000000000E+00  0.12201233985E+04  0.12201233985E+04  0.25500000920E-02 0.  1.
        2   -1    0    0  501    0  0.00000000000E+00  0.00000000000E+00 -0.88667298563E+03  0.88667298563E+03  0.25500000920E-02 0. -1.
    10030    2    1    2    0    0  0.00000000000E+00  0.00000000000E+00  0.33345041287E+03  0.21067963841E+04  0.20802408097E+04 0.  0.
        1    1    3    3  502    0 -0.39282642685E+03  0.32593059493E+03 -0.75110372132E+03  0.90813003174E+03  0.50400001928E-02 0. -1.
       -1    1    3    3    0  502  0.39282642685E+03 -0.32593059493E+03  0.10845541342E+04  0.11986663524E+04  0.50400001928E-02 0.  1.
</event>
<event>
 5   0  0.4174093E-05  0.2086683E+04  0.7818609E-02  0.8567132E-01
        1   -1    0    0  501    0  0.00000000000E+00  0.00000000000E+00  0.10758174958E+04  0.10758174958E+04  0.50400001928E-02 0.  1.
       -1   -1    0    0    0  501  0.00000000000E+00  0.00000000000E+00 -0.10118463360E+04  0.10118463360E+04  0.50400001928E-02 0. -1.
    10030    2    1    2    0    0  0.00000000000E+00  0.00000000000E+00  0.63971159822E+02  0.20876638318E+04  0.20866834847E+04 0.  0.
        3    1    3    3  502    0 -0.63831865747E+00  0.45400185073E+03 -0.90784060181E+03  0.10150333277E+04  0.10100000352E+00 0. -1.
       -3    1    3    3    0  502  0.63831865747E+00 -0.45400185073E+03  0.97181176163E+03  0.10726305040E+04  0.10100000352E+00 0.  1.
</event>
<event>
 5   0  0.9012466E-05  0.2109656E+04  0.7818609E-02  0.8557002E-01
       -2   -1    0    0    0  501  0.00000000000E+00  0.00000000000E+00  0.15461901033E+04  0.15461901033E+04  0.25500000920E-02 0. -1.
        2   -1    0    0  501    0  0.00000000000E+00  0.00000000000E+00 -0.71961516595E+03  0.71961516596E+03  0.25500000920E-02 0.  1.
    10030    2    1    2    0    0  0.00000000000E+00  0.00000000000E+00  0.82657493732E+03  0.22658052692E+04  0.21096557518E+04 0.  0.
        2    1    3    3  502    0  0.35173586421E+03 -0.20523507863E+03 -0.63178215756E+03  0.75165700309E+03  0.25500000920E-02 0.  1.
       -2    1    3    3    0  502 -0.35173586421E+03  0.20523507863E+03  0.14583570949E+04  0.15141482661E+04  0.25500000920E-02 0. -1.
</event>
<event>
 5   0  0.8872777E-05  0.2104292E+04  0.7818609E-02  0.8559355E-01
       -2   -1    0    0    0  501  0.00000000000E+00  0.00000000000E+00  0.10743562777E+04  0.10743562777E+04  0.25500000920E-02 0. -1.
        2   -1    0    0  501    0  0.00000000000E+00  0.00000000000E+00 -0.10303948102E+04  0.10303948102E+04  0.25500000920E-02 0.  1.
    10030    2    1    2    0    0  0.00000000000E+00  0.00000000000E+00  0.43961467532E+02  0.21047510879E+04  0.21042919312E+04 0.  0.
        3    1    3    3  502    0 -0.37100523544E+03 -0.43867729861E+03  0.90360852054E+03  0.10707899073E+04  0.10100000352E+00 0. -1.
       -3    1    3    3    0  502  0.37100523544E+03  0.43867729861E+03 -0.85964705301E+03  0.10339611806E+04  0.10100000352E+00 0.  1.
</event>
<event>
 5   0  0.3176125E-05  0.2100139E+04  0.7818609E-02  0.8561182E-01
        3   -1    0    0  501    0  0.00000000000E+00  0.00000000000E+00  0.11822439891E+04  0.11822439934E+04  0.10100000352E+00 0. -1.
       -3   -1    0    0    0  501  0.00000000000E+00  0.00000000000E+00 -0.93267184756E+03  0.93267185303E+03  0.10100000352E+00 0.  1.
    10030    2    1    2    0    0  0.00000000000E+00  0.00000000000E+00  0.24957214152E+03  0.21149158464E+04  0.21001387534E+04 0.  0.
        3    1    3    3  502    0 -0.67211959614E+03  0.97292110937E+02  0.93131786028E+03  0.11526332779E+04  0.10100000352E+00 0. -1.
       -3    1    3    3    0  502  0.67211959614E+03 -0.97292110937E+02 -0.68174571875E+03  0.96228256848E+03  0.10100000352E+00 0.  1.
</event>
<event>
 5   0  0.4128678E-05  0.2073828E+04  0.7818609E-02  0.8572861E-01
       -1   -1    0    0    0  501  0.00000000000E+00  0.00000000000E+00  0.10959468655E+04  0.10959468655E+04  0.50400001928E-02 0. -1.
        1   -1    0    0  501    0  0.00000000000E+00  0.00000000000E+00 -0.98106075302E+03  0.98106075303E+03  0.50400001928E-02 0.  1.
    10030    2    1    2    0    0  0.00000000000E+00  0.00000000000E+00  0.11488611252E+03  0.20770076186E+04  0.20738278204E+04 0.  0.
        5    1    3    3  502    0  0.55737433468E+03  0.42188247631E+03 -0.70957544835E+03  0.99607749682E+03  0.46999998093E+01 0.  1.
       -5    1    3    3    0  502 -0.55737433468E+03 -0.42188247631E+03  0.82446156087E+03  0.10809301218E+04  0.46999998093E+01 0. -1.
</event>
<event>
 5   0  0.8547605E-05  0.2197622E+04  0.7818609E-02  0.8519419E-01
        2   -1    0    0  501    0  0.00000000000E+00  0.00000000000E+00  0.14488411428E+04  0.14488411428E+04  0.25500000920E-02 0.  1.
       -2   -1    0    0    0  501  0.00000000000E+00  0.00000000000E+00 -0.83334579163E+03  0.83334579164E+03  0.25500000920E-02 0. -1.
    10030    2    1    2    0    0  0.00000000000E+00  0.00000000000E+00  0.61549535115E+03  0.22821869344E+04  0.21976220504E+04 0.  0.
        4    1    3    3  502    0 -0.26902253959E+02  0.68415961725E+03 -0.58473281139E+03  0.90039557238E+03  0.12699999809E+01 0. -1.
       -4    1    3    3    0  502  0.26902253959E+02 -0.68415961725E+03  0.12002281625E+04  0.13817913620E+04  0.12699999809E+01 0.  1.
</event>
<event>
 5   0  0.8547605E-05  0.2089493E+04  0.7818609E-02  0.8565886E-01
       -2   -1    0    0    0  501  0.00000000000E+00  0.00000000000E+00  0.92628868359E+03  0.92628868359E+03  0.25500000920E-02 0. -1.
        2   -1    0    0  501    0  0.00000000000E+00  0.00000000000E+00 -0.11783535681E+04  0.11783535681E+04  0.25500000920E-02 0.  1.
    10030    2    1    2    0    0  0.00000000000E+00  0.00000000000E+00 -0.25206488455E+03  0.21046422517E+04  0.20894933122E+04 0.  0.
        4    1    3    3  502    0 -0.91258058844E+03 -0.49658492991E+03 -0.23680265542E+03  0.10655876470E+04  0.12699999809E+01 0.  1.
       -4    1    3    3    0  502  0.91258058844E+03  0.49658492991E+03 -0.15262229131E+02  0.10390546047E+04  0.12699999809E+01 0. -1.
</event>
<event>
 5   0  0.9012466E-05  0.2130420E+04  0.7818609E-02  0.8547960E-01
       -2   -1    0    0    0  501  0.00000000000E+00  0.00000000000E+00  0.11621768935E+04  0.11621768935E+04  0.25500000920E-02 0.  1.
        2   -1    0    0  501    0  0.00000000000E+00  0.00000000000E+00 -0.97633339960E+03  0.97633339960E+03  0.25500000920E-02 0. -1.
    10030    2    1    2    0    0  0.00000000000E+00  0.00000000000E+00  0.18584349392E+03  0.21385102931E+04  0.21304197872E+04 0.  0.
        2    1    3    3  502    0 -0.35347747358E+03 -0.10040012511E+04  0.51445577576E+02  0.10656507327E+04  0.25500000920E-02 0. -1.
       -2    1    3    3    0  502  0.35347747358E+03  0.10040012511E+04  0.13439791634E+03  0.10728595605E+04  0.25500000920E-02 0.  1.
</event>
<event>
 5   0  0.4128678E-05  0.2045855E+04  0.7818609E-02  0.8585477E-01
       -1   -1    0    0    0  501  0.00000000000E+00  0.00000000000E+00  0.10461141003E+04  0.10461141004E+04  0.50400001928E-02 0.  1.
        1   -1    0    0  501    0  0.00000000000E+00  0.00000000000E+00 -0.10002551382E+04  0.10002551382E+04  0.50400001928E-02 0. -1.
    10030    2    1    2    0    0  0.00000000000E+00  0.00000000000E+00  0.45858962119E+02  0.20463692386E+04  0.20458553263E+04 0.  0.
        5    1    3    3  502    0  0.73860032114E+03 -0.57419072370E+03 -0.39085727521E+03  0.10139116930E+04  0.46999998093E+01 0.  1.
       -5    1    3    3    0  502 -0.73860032114E+03  0.57419072370E+03  0.43671623733E+03  0.10324575456E+04  0.46999998093E+01 0. -1.
</event>
<event>
 5   0  0.8872777E-05  0.2140662E+04  0.7818609E-02  0.8543540E-01
        2   -1    0    0  501    0  0.00000000000E+00  0.00000000000E+00  0.17027873041E+04  0.17027873041E+04  0.25500000920E-02 0. -1.
       -2   -1    0    0    0  501  0.00000000000E+00  0.00000000000E+00 -0.67278415523E+03  0.67278415524E+03  0.25500000920E-02 0.  1.
    10030    2    1    2    0    0  0.00000000000E+00  0.00000000000E+00  0.10300031489E+04  0.23755714594E+04  0.21406618770E+04 0.  0.
        3    1    3    3  502    0  0.29158592483E+03 -0.89275427976E+03 -0.54733230761E+02  0.94075942320E+03  0.10100000352E+00 0.  1.
       -3    1    3    3    0  502 -0.29158592483E+03  0.89275427976E+03  0.10847363796E+04  0.14348120362E+04  0.10100000352E+00 0. -1.
</event>
<event>
 5   0  0.3176125E-05  0.2239888E+04  0.7818609E-02  0.8502007E-01
       -3   -1    0    0    0  501  0.00000000000E+00  0.00000000000E+00  0.79772499272E+03  0.79772499911E+03  0.10100000352E+00 0.  1.
        3   -1    0    0  501    0  0.00000000000E+00  0.00000000000E+00 -0.15723146888E+04  0.15723146920E+04  0.10100000352E+00 0. -1.
    10030    2    1    2    0    0  0.00000000000E+00  0.00000000000E+00 -0.77458969607E+03  0.23700396911E+04  0.22398881535E+04 0.  0.
        2    1    3    3  502    0  0.97991667715E+02 -0.12178094107E+03  0.78612628659E+03  0.80151575345E+03  0.25500000920E-02 0.  1.
       -2    1    3    3    0  502 -0.97991667715E+02  0.12178094107E+03 -0.15607159827E+04  0.15685239377E+04  0.25500000920E-02 0. -1.
</event>
<event>
 5   0  0.4174093E-05  0.2117765E+04  0.7818609E-02  0.8553458E-01
        1   -1    0    0  501    0  0.00000000000E+00  0.00000000000E+00  0.11791898913E+04  0.11791898913E+04  0.50400001928E-02 0.  1.
       -1   -1    0    0    0  501  0.00000000000E+00  0.00000000000E+00 -0.95084955568E+03  0.95084955570E+03  0.50400001928E-02 0. -1.
    10030    2    1    2    0    0  0.00000000000E+00  0.00000000000E+00  0.22834033557E+03  0.21300394470E+04  0.21177650334E+04 0.  0.
        3    1    3    3  502    0 -0.67322860767E+03 -0.19156496162E+03 -0.68497775785E+03  0.97935102576E+03  0.10100000352E+00 0. -1.
       -3    1    3    3    0  502  0.67322860767E+03  0.19156496162E+03  0.91331809342E+03  0.11506884212E+04  0.10100000352E+00 0.  1.
</event>
<event>
 5   0  0.3176125E-05  0.2078197E+04  0.7818609E-02  0.8570909E-01
        3   -1    0    0  501    0  0.00000000000E+00  0.00000000000E+00  0.11211065240E+04  0.11211065285E+04  0.10100000352E+00 0.  1.
       -3   -1    0    0    0  501  0.00000000000E+00  0.00000000000E+00 -0.96308966976E+03  0.96308967506E+03  0.10100000352E+00 0. -1.
    10030    2    1    2    0    0  0.00000000000E+00  0.00000000000E+00  0.15801685421E+03  0.20841962036E+04  0.20781974133E+04 0.  0.
        4    1    3    3  502    0  0.74237914198E+02  0.97157460215E+03  0.44096021455E+03  0.10695400877E+04  0.12699999809E+01 0.  1.
       -4    1    3    3    0  502 -0.74237914198E+02 -0.97157460215E+03 -0.28294336035E+03  0.10146561159E+04  0.12699999809E+01 0. -1.
</event>
<event>
 5   0  0.8547605E-05  0.2104120E+04  0.7818609E-02  0.8559431E-01
        2   -1    0    0  501    0  0.00000000000E+00  0.00000000000E+00  0.10131169085E+04  0.10131169085E+04  0.25500000920E-02 0.  1.
       -2   -1    0    0    0  501  0.00000000000E+00  0.00000000000E+00 -0.10925000641E+04  0.10925000641E+04  0.25500000920E-02 0. -1.
    10030    2    1    2    0    0  0.00000000000E+00  0.00000000000E+00 -0.79383155587E+02  0.21056169727E+04  0.21041200418E+04 0.  0.
        4    1    3    3  502    0  0.10837875886E+03 -0.39460612849E+03 -0.10095914620E+04  0.10893743549E+04  0.12699999809E+01 0. -1.
       -4    1    3    3    0  502 -0.10837875886E+03  0.39460612849E+03  0.93020830641E+03  0.10162426178E+04  0.12699999809E+01 0.  1.
</event>
<event>
 5   0  0.4200061E-05  0.2084591E+04  0.7818609E-02  0.8568062E-01
       -1   -1    0    0    0  501  0.00000000000E+00  0.00000000000E+00  0.92638157087E+03  0.92638157088E+03  0.50400001928E-02 0. -1.
        1   -1    0    0  501    0  0.00000000000E+00  0.00000000000E+00 -0.11727132474E+04  0.11727132474E+04  0.50400001928E-02 0.  1.
    10030    2    1    2    0    0  0.00000000000E+00  0.00000000000E+00 -0.24633167654E+03  0.20990948183E+04  0.20845910298E+04 0.  0.
        4    1    3    3  502    0 -0.94543737193E+03 -0.27447402353E+03  0.22154697020E+03  0.10090948849E+04  0.12699999809E+01 0. -1.
       -4    1    3    3    0  502  0.94543737193E+03  0.27447402353E+03 -0.46787864673E+03  0.10899999334E+04  0.12699999809E+01 0.  1.
</event>
<event>
 5   0  0.4174093E-05  0.2096475E+04  0.7818609E-02  0.8562798E-01
        1   -1    0    0  501    0  0.00000000000E+00  0.00000000000E+00  0.11610117581E+04  0.11610117581E+04  0.50400001928E-02 0. -1.
       -1   -1    0    0    0  501  0.00000000000E+00  0.00000000000E+00 -0.94641740767E+03  0.94641740768E+03  0.50400001928E-02 0.  1.
    10030    2    1    2    0    0  0.00000000000E+00  0.00000000000E+00  0.21459435043E+03  0.21074291658E+04  0.20964748874E+04 0.  0.
        3    1    3    3  502    0  0.17777904783E+03  0.10294775440E+04  0.19360805670E+03  0.10625034086E+04  0.10100000352E+00 0. -1.
       -3    1    3    3    0  502 -0.17777904783E+03 -0.10294775440E+04  0.20986293724E+02  0.10449257572E+04  0.10100000352E+00 0.  1.
</event>
<event>
 5   0  0.9012466E-05  0.2088131E+04  0.7818609E-02  0.8566490E-01
        2   -1    0    0  501    0  0.00000000000E+00  0.00000000000E+00  0.17021224058E+04  0.17021224058E+04  0.25500000920E-02 0.  1.
       -2   -1    0    0    0  501  0.00000000000E+00  0.00000000000E+00 -0.64041955988E+03  0.64041955988E+03  0.25500000920E-02 0. -1.
    10030    2    1    2    0    0  0.00000000000E+00  0.00000000000E+00  0.10617028459E+04  0.23425419657E+04  0.20881307258E+04 0.  0.
        2    1    3    3  502    0 -0.49926133111E+03 -0.49242339691E+03  0.13986121959E+04  0.15645634385E+04  0.25500000920E-02 0.  1.
       -2    1    3    3    0  502  0.49926133111E+03  0.49242339691E+03 -0.33690935001E+03  0.77797852715E+03  0.25500000920E-02 0. -1.
</event>
<event>
 5   0  0.4174093E-05  0.2102753E+04  0.7818609E-02  0.8560031E-01
       -1   -1    0    0    0  501  0.00000000000E+00  0.00000000000E+00  0.49762164599E+03  0.49762164601E+03  0.50400001928E-02 0. -1.
        1   -1    0    0  501    0  0.00000000000E+00  0.00000000000E+00 -0.22213522823E+04  0.22213522823E+04  0.50400001928E-02 0.  1.
    10030    2    1    2    0    0  0.00000000000E+00  0.00000000000E+00 -0.17237306363E+04  0.27189739283E+04  0.21027534131E+04 0.  0.
        3    1    3    3  502    0  0.32307039383E+03  0.93946743910E+03 -0.41689795083E+03  0.10773938278E+04  0.10100000352E+00 0. -1.
       -3    1    3    3    0  502 -0.32307039383E+03 -0.93946743910E+03 -0.13068326855E+04  0.16415801006E+04  0.10100000352E+00 0.  1.
</event>
<event>
 5   0  0.8547605E-05  0.2083235E+04  0.7818609E-02  0.8568665E-01
       -2   -1    0    0    0  501  0.00000000000E+00  0.00000000000E+00  0.13591216081E+04  0.13591216081E+04  0.25500000920E-02 0.  1.
        2   -1    0    0  501    0  0.00000000000E+00  0.00000000000E+00 -0.79828532488E+03  0.79828532488E+03  0.25500000920E-02 0. -1.
    10030    2    1    2    0    0  0.00000000000E+00  0.00000000000E+00  0.56083628322E+03  0.21574069330E+04  0.20832348254E+04 0.  0.
        4    1    3    3  502    0  0.88067548555E+03 -0.38073576727E+03  0.70033772424E+03  0.11878651338E+04  0.12699999809E+01 0. -1.
       -4    1    3    3    0  502 -0.88067548555E+03  0.38073576727E+03 -0.13950144102E+03  0.96954179913E+03  0.12699999809E+01 0.  1.
</event>
<event>
 5   0  0.8858590E-05  0.2113827E+04  0.7818609E-02  0.8555177E-01
        2   -1    0    0  501    0  0.00000000000E+00  0.00000000000E+00  0.12091273116E+04  0.12091273116E+04  0.25500000920E-02 0. -1.
       -2   -1    0    0    0  501  0.00000000000E+00  0.00000000000E+00 -0.92386144739E+03  0.92386144739E+03  0.25500000920E-02 0.  1.
    10030    2    1    2    0    0  0.00000000000E+00  0.00000000000E+00  0.28526586419E+03  0.21329887590E+04  0.21138269637E+04 0.  0.
        1    1    3    3  502    0 -0.71230259831E+03 -0.61841207304E+03  0.62366980171E+03  0.11308282386E+04  0.50400001928E-02 0. -1.
       -1    1    3    3    0  502  0.71230259831E+03  0.61841207304E+03 -0.33840393752E+03  0.10021605204E+04  0.50400001928E-02 0.  1.
</event>
<event>
 5   0  0.8858590E-05  0.2133773E+04  0.7818609E-02  0.8546510E-01
       -2   -1    0    0    0  501  0.00000000000E+00  0.00000000000E+00  0.10396377140E+04  0.10396377141E+04  0.25500000920E-02 0.  1.
        2   -1    0    0  501    0  0.00000000000E+00  0.00000000000E+00 -0.10948494621E+04  0.10948494621E+04  0.25500000920E-02 0. -1.
    10030    2    1    2    0    0  0.00000000000E+00  0.00000000000E+00 -0.55211748028E+02  0.21344871761E+04  0.21337729888E+04 0.  0.
        1    1    3    3  502    0  0.65041974119E+03  0.20817405150E+03  0.79234189650E+03  0.10460343954E+04  0.50400001928E-02 0.  1.
       -1    1    3    3    0  502 -0.65041974119E+03 -0.20817405150E+03 -0.84755364452E+03  0.10884527807E+04  0.50400001928E-02 0. -1.
</event>
<event>
 5   0  0.8872777E-05  0.2117602E+04  0.7818609E-02  0.8553529E-01
        2   -1    0    0  501    0  0.00000000000E+00  0.00000000000E+00  0.24489402257E+04  0.24489402257E+04  0.25500000920E-02 0.  1.
       -2   -1    0    0    0  501  0.00000000000E+00  0.00000000000E+00 -0.45777317326E+03  0.45777317327E+03  0.25500000920E-02 0. -1.
    10030    2    1    2    0    0  0.00000000000E+00  0.00000000000E+00  0.19911670525E+04  0.29067133990E+04  0.21176016039E+04 0.  0.
        3    1    3    3  502    0  0.68645281717E+03  0.64394016122E+03  0.32991094963E+03  0.99735532601E+03  0.10100000352E+00 0. -1.
       -3    1    3    3    0  502 -0.68645281717E+03 -0.64394016122E+03  0.16612561028E+04  0.19093580730E+04  0.10100000352E+00 0.  1.
</event>
<event>
 5   0  0.9086985E-05  0.1809502E+04  0.7818609E-02  0.8701263E-01
        2   -1    0    0  501    0  0.00000000000E+00  0.00000000000E+00  0.16469150067E+04  0.16469150067E+04  0.25500000920E-02 0. -1.
       -2   -1    0    0    0  501  0.00000000000E+00  0.00000000000E+00 -0.49703484281E+03  0.49703484282E+03  0.25500000920E-02 0.  1.
    10030    2    1    2    0    0  0.00000000000E+00  0.00000000000E+00  0.11498801639E+04  0.21439498495E+04  0.18095017452E+04 0.  0.
        5    1    3    3  502    0 -0.79150036894E+02 -0.77673959648E+03  0.11165545196E+04  0.13624629222E+04  0.46999998093E+01 0. -1.
       -5    1    3    3    0  502  0.79150036894E+02  0.77673959648E+03  0.33325644317E+02  0.78148692737E+03  0.46999998093E+01 0.  1.
</event>
<event>
 5   0  0.4174093E-05  0.2105556E+04  0.7818609E-02  0.8558800E-01
        1   -1    0    0  501    0  0.00000000000E+00  0.00000000000E+00  0.84296492170E+03  0.84296492172E+03  0.50400001928E-02 0. -1.
       -1   -1    0    0    0  501  0.00000000000E+00  0.00000000000E+00 -0.13148132552E+04  0.13148132552E+04  0.50400001928E-02 0.  1.
    10030    2    1    2    0    0  0.00000000000E+00  0.00000000000E+00 -0.47184833349E+03  0.21577781769E+04  0.21055559387E+04 0.  0.
        3    1    3    3  502    0  0.45798806277E+03  0.94793561783E+03 -0.23332323686E+03  0.10783203347E+04  0.10100000352E+00 0. -1.
       -3    1    3    3    0  502 -0.45798806277E+03 -0.94793561783E+03 -0.23852509663E+03  0.10794578422E+04  0.10100000352E+00 0.  1.
</event>
<event>
 5   0  0.4200061E-05  0.2116139E+04  0.7818609E-02  0.8554167E-01
       -1   -1    0    0    0  501  0.00000000000E+00  0.00000000000E+00  0.74703719745E+03  0.74703719747E+03  0.50400001928E-02 0. -1.
        1   -1    0    0  501    0  0.00000000000E+00  0.00000000000E+00 -0.14986018038E+04  0.14986018038E+04  0.50400001928E-02 0.  1.
    10030    2    1    2    0    0  0.00000000000E+00  0.00000000000E+00 -0.75156460631E+03  0.22456390012E+04  0.21161392124E+04 0.  0.
        4    1    3    3  502    0 -0.23290316397E+03  0.79313064844E+03 -0.10766617134E+04  0.13573879944E+04  0.12699999809E+01 0.  1.
       -4    1    3    3    0  502  0.23290316397E+03 -0.79313064844E+03  0.32509710707E+03  0.88825100687E+03  0.12699999809E+01 0. -1.
</event>
<event>
 5   0  0.8547605E-05  0.2098187E+04  0.7818609E-02  0.8562042E-01
       -2   -1    0    0    0  501  0.00000000000E+00  0.00000000000E+00  0.61869889149E+03  0.61869889149E+03  0.25500000920E-02 0. -1.
        2   -1    0    0  501    0  0.00000000000E+00  0.00000000000E+00 -0.17788896236E+04  0.17788896236E+04  0.25500000920E-02 0.  1.
    10030    2    1    2    0    0  0.00000000000E+00  0.00000000000E+00 -0.11601907321E+04  0.23975885151E+04  0.20981868727E+04 0.  0.
        4    1    3    3  502    0 -0.34922828880E+03  0.97243135692E+03 -0.78771492698E+03  0.12992611595E+04  0.12699999809E+01 0. -1.
       -4    1    3    3    0  502  0.34922828880E+03 -0.97243135692E+03 -0.37247580512E+03  0.10983273555E+04  0.12699999809E+01 0.  1.
</event>
<event>
 5   0  0.4174093E-05  0.2079352E+04  0.7818609E-02  0.8570394E-01
        1   -1    0    0  501    0  0.00000000000E+00  0.00000000000E+00  0.10617294779E+04  0.10617294779E+04  0.50400001928E-02 0. -1.
       -1   -1    0    0    0  501  0.00000000000E+00  0.00000000000E+00 -0.10180806460E+04  0.10180806460E+04  0.50400001928E-02 0.  1.
    10030    2    1    2    0    0  0.00000000000E+00  0.00000000000E+00  0.43648831897E+02  0.20798101239E+04  0.20793520459E+04 0.  0.
        3    1    3    3  502    0  0.57836896206E+02 -0.44400745709E+03  0.96034796660E+03  0.10596017911E+04  0.10100000352E+00 0. -1.
       -3    1    3    3    0  502 -0.57836896206E+02  0.44400745709E+03 -0.91669913470E+03  0.10202083328E+04  0.10100000352E+00 0.  1.
</event>
<event>
 5   0  0.4050368E-05  0.2129984E+04  0.7818609E-02  0.8548149E-01
       -1   -1    0    0    0  501  0.00000000000E+00  0.00000000000E+00  0.17506696495E+04  0.17506696495E+04  0.50400001928E-02 0.  1.
        1   -1    0    0  501    0  0.00000000000E+00  0.00000000000E+00 -0.64787085516E+03  0.64787085518E+03  0.50400001928E-02 0. -1.
    10030    2    1    2    0    0  0.00000000000E+00  0.00000000000E+00  0.11027987943E+04  0.23985405047E+04  0.21299838900E+04 0.  0.
        2    1    3    3  502    0 -0.60758715395E+01  0.10433209642E+04  0.31079584570E+03  0.10886457680E+04  0.25500000920E-02 0.  1.
       -2    1    3    3    0  502  0.60758715395E+01 -0.10433209642E+04  0.79200294862E+03  0.13098947367E+04  0.25500000920E-02 0. -1.
</event>
<event>
 5   0  0.4174093E-05  0.2091823E+04  0.7818609E-02  0.8564854E-01
       -1   -1    0    0    0  501  0.00000000000E+00  0.00000000000E+00  0.77747436278E+03  0.77747436280E+03  0.50400001928E-02 0.  1.
        1   -1    0    0  501    0  0.00000000000E+00  0.00000000000E+00 -0.14070316946E+04  0.14070316946E+04  0.50400001928E-02 0. -1.
    10030    2    1    2    0    0  0.00000000000E+00  0.00000000000E+00 -0.62955733179E+03  0.21845060574E+04  0.20918231954E+04 0.  0.
        3    1    3    3  502    0  0.40838467615E+03 -0.83372368377E+03 -0.81784632357E+03  0.12372331404E+04  0.10100000352E+00 0. -1.
       -3    1    3    3    0  502 -0.40838467615E+03  0.83372368377E+03  0.18828899178E+03  0.94727291696E+03  0.10100000352E+00 0.  1.
</event>
<event>
 5   0  0.4174093E-05  0.2136881E+04  0.7818609E-02  0.8545169E-01
       -1   -1    0    0    0  501  0.00000000000E+00  0.00000000000E+00  0.83302706327E+03  0.83302706329E+03  0.50400001928E-02 0. -1.
        1   -1    0    0  501    0  0.00000000000E+00  0.00000000000E+00 -0.13703820090E+04  0.13703820090E+04  0.50400001928E-02 0.  1.
    10030    2    1    2    0    0  0.00000000000E+00  0.00000000000E+00 -0.53735494573E+03  0.22034090723E+04  0.21368811858E+04 0.  0.
        3    1    3    3  502    0  0.61704214128E+03 -0.39026091153E+03  0.53568618161E+03  0.90554087624E+03  0.10100000352E+00 0. -1.
       -3    1    3    3    0  502 -0.61704214128E+03  0.39026091153E+03 -0.10730411273E+04  0.12978681961E+04  0.10100000352E+00 0.  1.
</event>
<event>
 5   0  0.4128678E-05  0.2086337E+04  0.7818609E-02  0.8567286E-01
       -1   -1    0    0    0  501  0.00000000000E+00  0.00000000000E+00  0.66655372630E+03  0.66655372632E+03  0.50400001928E-02 0.  1.
        1   -1    0    0  501    0  0.00000000000E+00  0.00000000000E+00 -0.16325773854E+04  0.16325773854E+04  0.50400001928E-02 0. -1.
    10030    2    1    2    0    0  0.00000000000E+00  0.00000000000E+00 -0.96602365914E+03  0.22991311118E+04  0.20863370195E+04 0.  0.
        5    1    3    3  502    0  0.93639887448E+03  0.14729515745E+03 -0.96290430810E+03  0.13512015068E+04  0.46999998093E+01 0. -1.
       -5    1    3    3    0  502 -0.93639887448E+03 -0.14729515745E+03 -0.31193510379E+01  0.94792960492E+03  0.46999998093E+01 0.  1.
</event>
<event>
 5   0  0.4050368E-05  0.2167674E+04  0.7818609E-02  0.8532005E-01
       -1   -1    0    0    0  501  0.00000000000E+00  0.00000000000E+00  0.10315176490E+04  0.10315176490E+04  0.50400001928E-02 0. -1.
        1   -1    0    0  501    0  0.00000000000E+00  0.00000000000E+00 -0.11388097011E+04  0.11388097011E+04  0.50400001928E-02 0.  1.
    10030    2    1    2    0    0  0.00000000000E+00  0.00000000000E+00 -0.10729205207E+03  0.21703273502E+04  0.21676736891E+04 0.  0.
        2    1    3    3  502    0 -0.64438435381E+03  0.52246066456E+02  0.81732779392E+03  0.10421063140E+04  0.25500000920E-02 0. -1.
       -2    1    3    3    0  502  0.64438435381E+03 -0.52246066456E+02 -0.92461984599E+03  0.11282210362E+04  0.25500000920E-02 0.  1.
</event>
<event>
 5   0  0.3176125E-05  0.2144129E+04  0.7818609E-02  0.8542049E-01
        3   -1    0    0  501    0  0.00000000000E+00  0.00000000000E+00  0.86989595447E+03  0.86989596033E+03  0.10100000352E+00 0.  1.
       -3   -1    0    0    0  501  0.00000000000E+00  0.00000000000E+00 -0.13212181774E+04  0.13212181813E+04  0.10100000352E+00 0. -1.
    10030    2    1    2    0    0  0.00000000000E+00  0.00000000000E+00 -0.45132222294E+03  0.21911141416E+04  0.21441290616E+04 0.  0.
        5    1    3    3  502    0  0.60948410647E+02  0.62182795893E+02  0.86626604218E+03  0.87064364392E+03  0.46999998093E+01 0.  1.
       -5    1    3    3    0  502 -0.60948410647E+02 -0.62182795893E+02 -0.13175882651E+04  0.13204704977E+04  0.46999998093E+01 0. -1.
</event>
<event>
 5   0  0.4050368E-05  0.2109221E+04  0.7818609E-02  0.8557192E-01
       -1   -1    0    0    0  501  0.00000000000E+00  0.00000000000E+00  0.11197821658E+04  0.11197821658E+04  0.50400001928E-02 0.  1.
        1   -1    0    0  501    0  0.00000000000E+00  0.00000000000E+00 -0.99323227789E+03  0.99323227791E+03  0.50400001928E-02 0. -1.
    10030    2    1    2    0    0  0.00000000000E+00  0.00000000000E+00  0.12654988790E+03  0.21130144437E+04  0.21092214595E+04 0.  0.
        2    1    3    3  502    0  0.55751212366E+03 -0.82620257196E+03  0.40852976924E+03  0.10771847707E+04  0.25500000920E-02 0. -1.
       -2    1    3    3    0  502 -0.55751212366E+03  0.82620257196E+03 -0.28197988133E+03  0.10358296730E+04  0.25500000920E-02 0.  1.
</event>
<event>
 5   0  0.9086985E-05  0.2134173E+04  0.7818609E-02  0.8546338E-01
        2   -1    0    0  501    0  0.00000000000E+00  0.00000000000E+00  0.14775883371E+04  0.14775883371E+04  0.25500000920E-02 0.  1.
       -2   -1    0    0    0  501  0.00000000000E+00  0.00000000000E+00 -0.77062964879E+03  0.77062964880E+03  0.25500000920E-02 0. -1.
    10030    2    1    2    0    0  0.00000000000E+00  0.00000000000E+00  0.70695868834E+03  0.22482179859E+04  0.21341727965E+04 0.  0.
        5    1    3    3  502    0 -0.97713306505E+03  0.42179842684E+03  0.43472631063E+03  0.11496573380E+04  0.46999998093E+01 0. -1.
       -5    1    3    3    0  502  0.97713306505E+03 -0.42179842684E+03  0.27223237772E+03  0.10985606479E+04  0.46999998093E+01 0.  1.
</event>
<event>
 5   0  0.4174093E-05  0.2117491E+04  0.7818609E-02  0.8553578E-01
        1   -1    0    0  501    0  0.00000000000E+00  0.00000000000E+00  0.16456822857E+04  0.16456822857E+04  0.50400001928E-02 0. -1.
       -1   -1    0    0    0  501  0.00000000000E+00  0.00000000000E+00 -0.68114094601E+03  0.68114094602E+03  0.50400001928E-02 0.  1.
    10030    2    1    2    0    0  0.00000000000E+00  0.00000000000E+00  0.96454133969E+03  0.23268232317E+04  0.21174905798E+04 0.  0.
        3    1    3    3  502    0 -0.10890687490E+03 -0.78996681906E+03 -0.28302222397E+03  0.84617366543E+03  0.10100000352E+00 0.  1.
       -3    1    3    3    0  502  0.10890687490E+03  0.78996681906E+03  0.12475635637E+04  0.14806495663E+04  0.10100000352E+00 0. -1.
</event>
<event>
 5   0  0.9086985E-05  0.2096064E+04  0.7818609E-02  0.8562979E-01
       -2   -1    0    0    0  501  0.00000000000E+00  0.00000000000E+00  0.10377166573E+04  0.10377166573E+04  0.25500000920E-02 0.  1.
        2   -1    0    0  501    0  0.00000000000E+00  0.00000000000E+00 -0.10584498168E+04  0.10584498168E+04  0.25500000920E-02 0. -1.
    10030    2    1    2    0    0  0.00000000000E+00  0.00000000000E+00 -0.20733159457E+02  0.20961664741E+04  0.20960639358E+04 0.  0.
        5    1    3    3  502    0  0.43082965006E+03  0.78346326089E+02 -0.96256681295E+03  0.10575014390E+04  0.46999998093E+01 0. -1.
       -5    1    3    3    0  502 -0.43082965006E+03 -0.78346326089E+02  0.94183365349E+03  0.10386650350E+04  0.46999998093E+01 0.  1.
</event>
<event>
 5   0  0.4174093E-05  0.1993743E+04  0.7818609E-02  0.8609551E-01
       -1   -1    0    0    0  501  0.00000000000E+00  0.00000000000E+00  0.20234462950E+04  0.20234462950E+04  0.50400001928E-02 0.  1.
        1   -1    0    0  501    0  0.00000000000E+00  0.00000000000E+00 -0.49111917825E+03  0.49111917827E+03  0.50400001928E-02 0. -1.
    10030    2    1    2    0    0  0.00000000000E+00  0.00000000000E+00  0.15323271168E+04  0.25145654733E+04  0.19937434957E+04 0.  0.
        3    1    3    3  502    0 -0.19820316021E+03  0.16038192164E+02 -0.46585145507E+03  0.50651683557E+03  0.10100000352E+00 0. -1.
       -3    1    3    3    0  502  0.19820316021E+03 -0.16038192164E+02  0.19981785718E+04  0.20080486377E+04  0.10100000352E+00 0.  1.
</event>
<event>
 5   0  0.8547605E-05  0.2093047E+04  0.7818609E-02  0.8564312E-01
        2   -1    0    0  501    0  0.00000000000E+00  0.00000000000E+00  0.18865127080E+04  0.18865127080E+04  0.25500000920E-02 0.  1.
       -2   -1    0    0    0  501  0.00000000000E+00  0.00000000000E+00 -0.58054803621E+03  0.58054803621E+03  0.25500000920E-02 0. -1.
    10030    2    1    2    0    0  0.00000000000E+00  0.00000000000E+00  0.13059646717E+04  0.24670607442E+04  0.20930468202E+04 0.  0.
        4    1    3    3  502    0  0.18460669394E+03  0.30441675303E+03 -0.50697453839E+03  0.61949494465E+03  0.12699999809E+01 0. -1.
       -4    1    3    3    0  502 -0.18460669394E+03 -0.30441675303E+03  0.18129392101E+04  0.18475657995E+04  0.12699999809E+01 0.  1.
</event>
<event>
 5   0  0.4200061E-05  0.2097399E+04  0.7818609E-02  0.8562390E-01
        1   -1    0    0  501    0  0.00000000000E+00  0.00000000000E+00  0.11813228775E+04  0.11813228775E+04  0.50400001928E-02 0. -1.
       -1   -1    0    0    0  501  0.00000000000E+00  0.00000000000E+00 -0.93096552830E+03  0.93096552831E+03  0.50400001928E-02 0.  1.
    10030    2    1    2    0    0  0.00000000000E+00  0.00000000000E+00  0.25035734916E+03  0.21122884058E+04  0.20973992245E+04 0.  0.
        4    1    3    3  502    0 -0.35584410650E+03  0.14096853192E+03 -0.85810890941E+03  0.93960080270E+03  0.12699999809E+01 0.  1.
       -4    1    3    3    0  502  0.35584410650E+03 -0.14096853192E+03  0.11084662586E+04  0.11726876031E+04  0.12699999809E+01 0. -1.
</event>
<event>
 5   0  0.8547605E-05  0.2053268E+04  0.7818609E-02  0.8582113E-01
       -2   -1    0    0    0  501  0.00000000000E+00  0.00000000000E+00  0.63258540916E+03  0.63258540916E+03  0.25500000920E-02 0. -1.
        2   -1    0    0  501    0  0.00000000000E+00  0.00000000000E+00 -0.16661426126E+04  0.16661426126E+04  0.25500000920E-02 0.  1.
    10030    2    1    2    0    0  0.00000000000E+00  0.00000000000E+00 -0.10335572034E+04  0.22987280217E+04  0.20532681328E+04 0.  0.
        4    1    3    3  502    0  0.28771029731E+03  0.50705286733E+03  0.42928480382E+03  0.72399370241E+03  0.12699999809E+01 0. -1.
       -4    1    3    3    0  502 -0.28771029731E+03 -0.50705286733E+03 -0.14628420072E+04  0.15747343193E+04  0.12699999809E+01 0.  1.
</event>
<event>
 5   0  0.9012466E-05  0.2092237E+04  0.7818609E-02  0.8564671E-01
       -2   -1    0    0    0  501  0.00000000000E+00  0.00000000000E+00  0.50612058523E+03  0.50612058524E+03  0.25500000920E-02 0. -1.
        2   -1    0    0  501    0  0.00000000000E+00  0.00000000000E+00 -0.21622602784E+04  0.21622602784E+04  0.25500000920E-02 0.  1.
    10030    2    1    2    0    0  0.00000000000E+00  0.00000000000E+00 -0.16561396932E+04  0.26683808636E+04  0.20922374985E+04 0.  0.
        2    1    3    3  502    0 -0.31038858989E+03 -0.95071498119E+03 -0.12194332155E+04  0.15770914429E+04  0.25500000920E-02 0.  1.
       -2    1    3    3    0  502  0.31038858989E+03  0.95071498119E+03 -0.43670647771E+03  0.10912894208E+04  0.25500000920E-02 0. -1.
</event>
<event>
 5   0  0.4182977E-05  0.2096457E+04  0.7818609E-02  0.8562806E-01
       -1   -1    0    0    0  501  0.00000000000E+00  0.00000000000E+00  0.83481206504E+03  0.83481206505E+03  0.50400001928E-02 0. -1.
        1   -1    0    0  501    0  0.00000000000E+00  0.00000000000E+00 -0.13162041388E+04  0.13162041388E+04  0.50400001928E-02 0.  1.
    10030    2    1    2    0    0  0.00000000000E+00  0.00000000000E+00 -0.48139207378E+03  0.21510162039E+04  0.20964571020E+04 0.  0.
        1    1    3    3  502    0 -0.34813956318E+03 -0.95694603916E+03 -0.49583639510E+03  0.11326078792E+04  0.50400001928E-02 0.  1.
       -1    1    3    3    0  502  0.34813956318E+03  0.95694603916E+03  0.14444321321E+02  0.10184083247E+04  0.50400001928E-02 0. -1.
</event>
<event>
 5   0  0.3176125E-05  0.2095658E+04  0.7818609E-02  0.8563159E-01
       -3   -1    0    0    0  501  0.00000000000E+00  0.00000000000E+00  0.12485769648E+04  0.12485769689E+04  0.10100000352E+00 0.  1.
        3   -1    0    0  501    0  0.00000000000E+00  0.00000000000E+00 -0.87935749215E+03  0.87935749796E+03  0.10100000352E+00 0. -1.
    10030    2    1    2    0    0  0.00000000000E+00  0.00000000000E+00  0.36921947266E+03  0.21279344669E+04  0.20956579101E+04 0.  0.
        4    1    3    3  502    0 -0.37531790893E+03  0.75412558763E+03  0.81740537206E+03  0.11737640691E+04  0.12699999809E+01 0.  1.
       -4    1    3    3    0  502  0.37531790893E+03 -0.75412558763E+03 -0.44818589940E+03  0.95417039778E+03  0.12699999809E+01 0. -1.
</event>
<event>
 5   0  0.4182977E-05  0.2129921E+04  0.7818609E-02  0.8548176E-01
        1   -1    0    0  501    0  0.00000000000E+00  0.00000000000E+00  0.19248627546E+04  0.19248627546E+04  0.50400001928E-02 0.  1.
       -1   -1    0    0    0  501  0.00000000000E+00  0.00000000000E+00 -0.58920618805E+03  0.58920618807E+03  0.50400001928E-02 0. -1.
    10030    2    1    2    0    0  0.00000000000E+00  0.00000000000E+00  0.13356565666E+04  0.25140689427E+04  0.21299211687E+04 0.  0.
        1    1    3    3  502    0  0.38764176977E+03 -0.42072775223E+03  0.17280911962E+04  0.18203233684E+04  0.50400001928E-02 0.  1.
       -1    1    3    3    0  502 -0.38764176977E+03  0.42072775223E+03 -0.39243462968E+03  0.69374557423E+03  0.50400001928E-02 0. -1.
</event>
<event>
 5   0  0.9086985E-05  0.2089751E+04  0.7818609E-02  0.8565772E-01
        2   -1    0    0  501    0  0.00000000000E+00  0.00000000000E+00  0.13080652036E+04  0.13080652037E+04  0.25500000920E-02 0.  1.
       -2   -1    0    0    0  501  0.00000000000E+00  0.00000000000E+00 -0.83464105651E+03  0.83464105651E+03  0.25500000920E-02 0. -1.
    10030    2    1    2    0    0  0.00000000000E+00  0.00000000000E+00  0.47342414714E+03  0.21427062602E+04  0.20897511082E+04 0.  0.
        5    1    3    3  502    0  0.71350723261E+03  0.71750648412E+03 -0.30338831157E+02  0.10123490803E+04  0.46999998093E+01 0.  1.
       -5    1    3    3    0  502 -0.71350723261E+03 -0.71750648412E+03  0.50376297829E+03  0.11303571799E+04  0.46999998093E+01 0. -1.
</event>
<event>
 5   0  0.8872777E-05  0.2072350E+04  0.7818609E-02  0.8573522E-01
       -2   -1    0    0    0  501  0.00000000000E+00  0.00000000000E+00  0.59743254599E+03  0.59743254599E+03  0.25500000920E-02 0. -1.
        2   -1    0    0  501    0  0.00000000000E+00  0.00000000000E+00 -0.17971212105E+04  0.17971212105E+04  0.25500000920E-02 0.  1.
    10030    2    1    2    0    0  0.00000000000E+00  0.00000000000E+00 -0.11996886646E+04  0.23945537565E+04  0.20723500672E+04 0.  0.
        3    1    3    3  502    0 -0.17351658140E+03 -0.53946844011E+03 -0.16021998610E+04  0.16994642117E+04  0.10100000352E+00 0.  1.
       -3    1    3    3    0  502  0.17351658140E+03  0.53946844011E+03  0.40251119647E+03  0.69508954486E+03  0.10100000352E+00 0. -1.
</event>
<event>
 5   0  0.8872777E-05  0.2089292E+04  0.7818609E-02  0.8565975E-01
       -2   -1    0    0    0  501  0.00000000000E+00  0.00000000000E+00  0.87404597860E+03  0.87404597861E+03  0.25500000920E-02 0. -1.
        2   -1    0    0  501    0  0.00000000000E+00  0.00000000000E+00 -0.12485440049E+04  0.12485440049E+04  0.25500000920E-02 0.  1.
    10030    2    1    2    0    0  0.00000000000E+00  0.00000000000E+00 -0.37449802633E+03  0.21225899835E+04  0.20892916184E+04 0.  0.
        3    1    3    3  502    0  0.24511279067E+03  0.97080007127E+03  0.11541140535E+03  0.10078952630E+04  0.10100000352E+00 0. -1.
       -3    1    3    3    0  502 -0.24511279067E+03 -0.97080007127E+03 -0.48990943168E+03  0.11146947205E+04  0.10100000352E+00 0.  1.
</event>
<event>
 5   0  0.4050368E-05  0.2114020E+04  0.7818609E-02  0.8555093E-01
        1   -1    0    0  501    0  0.00000000000E+00  0.00000000000E+00  0.20476813806E+04  0.20476813807E+04  0.50400001928E-02 0.  1.
       -1   -1    0    0    0  501  0.00000000000E+00  0.00000000000E+00 -0.54562679931E+03  0.54562679933E+03  0.50400001928E-02 0. -1.
    10030    2    1    2    0    0  0.00000000000E+00  0.00000000000E+00  0.15020545813E+04  0.25933081800E+04  0.21140197140E+04 0.  0.
        2    1    3    3  502    0  0.42195901103E+03  0.60067181327E+03  0.16839902922E+04  0.18370300320E+04  0.25500000920E-02 0.  1.
       -2    1    3    3    0  502 -0.42195901103E+03 -0.60067181327E+03 -0.18193571084E+03  0.75627814800E+03  0.25500000920E-02 0. -1.
</event>
<event>
 5   0  0.8547605E-05  0.2071569E+04  0.7818609E-02  0.8573872E-01
        2   -1    0    0  501    0  0.00000000000E+00  0.00000000000E+00  0.13285773361E+04  0.13285773361E+04  0.25500000920E-02 0.  1.
       -2   -1    0    0    0  501  0.00000000000E+00  0.00000000000E+00 -0.80751738309E+03  0.80751738310E+03  0.25500000920E-02 0. -1.
    10030    2    1    2    0    0  0.00000000000E+00  0.00000000000E+00  0.52105995302E+03  0.21360947192E+04  0.20715687714E+04 0.  0.
        4    1    3    3  502    0  0.34628457487E+03 -0.77492900046E+03 -0.35161071630E+03  0.91872720176E+03  0.12699999809E+01 0. -1.
       -4    1    3    3    0  502 -0.34628457487E+03  0.77492900046E+03  0.87267066931E+03  0.12173675174E+04  0.12699999809E+01 0.  1.
</event>
<event>
 5   0  0.4182977E-05  0.2090320E+04  0.7818609E-02  0.8565519E-01
       -1   -1    0    0    0  501  0.00000000000E+00  0.00000000000E+00  0.76029020034E+03  0.76029020035E+03  0.50400001928E-02 0.  1.
        1   -1    0    0  501    0  0.00000000000E+00  0.00000000000E+00 -0.14367668211E+04  0.14367668211E+04  0.50400001928E-02 0. -1.
    10030    2    1    2    0    0  0.00000000000E+00  0.00000000000E+00 -0.67647662072E+03  0.21970570214E+04  0.20903202953E+04 0.  0.
        1    1    3    3  502    0  0.35728121766E+03  0.32356131706E+03  0.63648700732E+03  0.79840935923E+03  0.50400001928E-02 0.  1.
       -1    1    3    3    0  502 -0.35728121766E+03 -0.32356131706E+03 -0.13129636280E+04  0.13986476622E+04  0.50400001928E-02 0. -1.
</event>
<event>
 5   0  0.8872777E-05  0.2114544E+04  0.7818609E-02  0.8554864E-01
       -2   -1    0    0    0  501  0.00000000000E+00  0.00000000000E+00  0.43975415766E+03  0.43975415767E+03  0.25500000920E-02 0. -1.
        2   -1    0    0  501    0  0.00000000000E+00  0.00000000000E+00 -0.25419287443E+04  0.25419287443E+04  0.25500000920E-02 0.  1.
    10030    2    1    2    0    0  0.00000000000E+00  0.00000000000E+00 -0.21021745867E+04  0.29816829020E+04  0.21145436707E+04 0.  0.
        3    1    3    3  502    0  0.18809478026E+03  0.80928959697E+03 -0.19730429304E+04  0.21408474288E+04  0.10100000352E+00 0.  1.
       -3    1    3    3    0  502 -0.18809478026E+03 -0.80928959697E+03 -0.12913165628E+03  0.84083547319E+03  0.10100000352E+00 0. -1.
</event>
<event>
 5   0  0.4182977E-05  0.1808094E+04  0.7818609E-02  0.8702007E-01
        1   -1    0    0  501    0  0.00000000000E+00  0.00000000000E+00  0.12553874257E+04  0.12553874257E+04  0.50400001928E-02 0.  1.
       -1   -1    0    0    0  501  0.00000000000E+00  0.00000000000E+00 -0.65103507482E+03  0.65103507484E+03  0.50400001928E-02 0. -1.
    10030    2    1    2    0    0  0.00000000000E+00  0.00000000000E+00  0.60435235088E+03  0.19064225006E+04  0.18080942969E+04 0.  0.
        1    1    3    3  502    0 -0.52095039733E+03 -0.73876339334E+03  0.28967479442E+03  0.94924820483E+03  0.50400001928E-02 0. -1.
       -1    1    3    3    0  502  0.52095039733E+03  0.73876339334E+03  0.31467755646E+03  0.95717429572E+03  0.50400001928E-02 0.  1.
</event>
<event>
 5   0  0.9086985E-05  0.2103855E+04  0.7818609E-02  0.8559547E-01
        2   -1    0    0  501    0  0.00000000000E+00  0.00000000000E+00  0.11155030177E+04  0.11155030177E+04  0.25500000920E-02 0.  1.
       -2   -1    0    0    0  501  0.00000000000E+00  0.00000000000E+00 -0.99197512302E+03  0.99197512302E+03  0.25500000920E-02 0. -1.
    10030    2    1    2    0    0  0.00000000000E+00  0.00000000000E+00  0.12352789464E+03  0.21074781407E+04  0.21038547889E+04 0.  0.
        5    1    3    3  502    0 -0.99037098982E+02  0.78373821738E+02  0.11078700938E+04  0.11150556208E+04  0.46999998093E+01 0.  1.
       -5    1    3    3    0  502  0.99037098982E+02 -0.78373821738E+02 -0.98434219913E+03  0.99242251984E+03  0.46999998093E+01 0. -1.
</event>
<event>
 5   0  0.3176125E-05  0.2125847E+04  0.7818609E-02  0.8549942E-01
        3   -1    0    0  501    0  0.00000000000E+00  0.00000000000E+00  0.21369175714E+04  0.21369175738E+04  0.10100000352E+00 0. -1.
       -3   -1    0    0    0  501  0.00000000000E+00  0.00000000000E+00 -0.52870832768E+03  0.52870833733E+03  0.10100000352E+00 0.  1.
    10030    2    1    2    0    0  0.00000000000E+00  0.00000000000E+00  0.16082092437E+04  0.26656259111E+04  0.21258467787E+04 0.  0.
        1    1    3    3  502    0 -0.16018858286E+03  0.83579561049E+02 -0.50931126673E+03  0.54041085439E+03  0.50400001928E-02 0.  1.
       -1    1    3    3    0  502  0.16018858286E+03 -0.83579561049E+02  0.21175205104E+04  0.21252150567E+04  0.50400001928E-02 0. -1.
</event>
<event>
 5   0  0.4200061E-05  0.2116016E+04  0.7818609E-02  0.8554221E-01
        1   -1    0    0  501    0  0.00000000000E+00  0.00000000000E+00  0.16632124791E+04  0.16632124792E+04  0.50400001928E-02 0. -1.
       -1   -1    0    0    0  501  0.00000000000E+00  0.00000000000E+00 -0.67302347434E+03  0.67302347435E+03  0.50400001928E-02 0.  1.
    10030    2    1    2    0    0  0.00000000000E+00  0.00000000000E+00  0.99018900481E+03  0.23362359535E+04  0.21160161070E+04 0.  0.
        4    1    3    3  502    0 -0.70192948102E+03 -0.36705992881E+03  0.12694750560E+04  0.14963310190E+04  0.12699999809E+01 0. -1.
       -4    1    3    3    0  502  0.70192948102E+03  0.36705992881E+03 -0.27928605124E+03  0.83990493449E+03  0.12699999809E+01 0.  1.
</event>
<event>
 5   0  0.9012466E-05  0.2100398E+04  0.7818609E-02  0.8561068E-01
        2   -1    0    0  501    0  0.00000000000E+00  0.00000000000E+00  0.95853964642E+03  0.95853964643E+03  0.25500000920E-02 0. -1.
       -2   -1    0    0    0  501  0.00000000000E+00  0.00000000000E+00 -0.11506228994E+04  0.11506228994E+04  0.25500000920E-02 0.  1.
    10030    2    1    2    0    0  0.00000000000E+00  0.00000000000E+00 -0.19208325295E+03  0.21091625458E+04  0.21003977406E+04 0.  0.
        2    1    3    3  502    0  0.44364924233E+03  0.41925011261E+03 -0.95419676412E+03  0.11327342017E+04  0.25500000920E-02 0.  1.
       -2    1    3    3    0  502 -0.44364924233E+03 -0.41925011261E+03  0.76211351117E+03  0.97642834405E+03  0.25500000920E-02 0. -1.
</event>
<event>
 5   0  0.8872777E-05  0.2115571E+04  0.7818609E-02  0.8554415E-01
        2   -1    0    0  501    0  0.00000000000E+00  0.00000000000E+00  0.14956815854E+04  0.14956815854E+04  0.25500000920E-02 0.  1.
       -2   -1    0    0    0  501  0.00000000000E+00  0.00000000000E+00 -0.74809375230E+03  0.74809375231E+03  0.25500000920E-02 0. -1.
    10030    2    1    2    0    0  0.00000000000E+00  0.00000000000E+00  0.74758783311E+03  0.22437753377E+04  0.21155708917E+04 0.  0.
        3    1    3    3  502    0 -0.42755778711E+03 -0.60635094114E+03 -0.42584738228E+03  0.85546076961E+03  0.10100000352E+00 0. -1.
       -3    1    3    3    0  502  0.42755778711E+03  0.60635094114E+03  0.11734352154E+04  0.13883145681E+04  0.10100000352E+00 0.  1.
</event>
<event>
 5   0  0.4128678E-05  0.2106655E+04  0.7818609E-02  0.8558317E-01
        1   -1    0    0  501    0  0.00000000000E+00  0.00000000000E+00  0.16089286221E+04  0.16089286222E+04  0.50400001928E-02 0. -1.
       -1   -1    0    0    0  501  0.00000000000E+00  0.00000000000E+00 -0.68958855490E+03  0.68958855492E+03  0.50400001928E-02 0.  1.
    10030    2    1    2    0    0  0.00000000000E+00  0.00000000000E+00  0.91934006725E+03  0.22985171771E+04  0.21066549442E+04 0.  0.
        5    1    3    3  502    0 -0.69502510795E+03 -0.44831121339E+03 -0.25198636221E+03  0.86461671362E+03  0.46999998093E+01 0.  1.
       -5    1    3    3    0  502  0.69502510795E+03  0.44831121339E+03  0.11713264295E+04  0.14339004634E+04  0.46999998093E+01 0. -1.
</event>
<event>
 5   0  0.9086985E-05  0.2094789E+04  0.7818609E-02  0.8563542E-01
        2   -1    0    0  501    0  0.00000000000E+00  0.00000000000E+00  0.10919151198E+04  0.10919151198E+04  0.25500000920E-02 0. -1.
       -2   -1    0    0    0  501  0.00000000000E+00  0.00000000000E+00 -0.10046890750E+04  0.10046890750E+04  0.25500000920E-02 0.  1.
    10030    2    1    2    0    0  0.00000000000E+00  0.00000000000E+00  0.87226044847E+02  0.20966041948E+04  0.20947889552E+04 0.  0.
        5    1    3    3  502    0 -0.55928070058E+03  0.12958292247E+03 -0.83317490467E+03  0.10118246625E+04  0.46999998093E+01 0.  1.
       -5    1    3    3    0  502  0.55928070058E+03 -0.12958292247E+03  0.92040094952E+03  0.10847795323E+04  0.46999998093E+01 0. -1.
</event>
<event>
 5   0  0.8547605E-05  0.2110490E+04  0.7818609E-02  0.8556636E-01
       -2   -1    0    0    0  501  0.00000000000E+00  0.00000000000E+00  0.61817086632E+03  0.61817086633E+03  0.25500000920E-02 0.  1.
        2   -1    0    0  501    0  0.00000000000E+00  0.00000000000E+00 -0.18013497947E+04  0.18013497947E+04  0.25500000920E-02 0. -1.
    10030    2    1    2    0    0  0.00000000000E+00  0.00000000000E+00 -0.11831789284E+04  0.24195206611E+04  0.21104899556E+04 0.  0.
        4    1    3    3  502    0 -0.32192952875E+03  0.92058287585E+03 -0.12955146589E+03  0.98381738549E+03  0.12699999809E+01 0.  1.
       -4    1    3    3    0  502  0.32192952875E+03 -0.92058287585E+03 -0.10536274625E+04  0.14357032756E+04  0.12699999809E+01 0. -1.
</event>
<event>
 5   0  0.9012466E-05  0.2150451E+04  0.7818609E-02  0.8539339E-01
        2   -1    0    0  501    0  0.00000000000E+00  0.00000000000E+00  0.18928073401E+04  0.18928073401E+04  0.25500000920E-02 0. -1.
       -2   -1    0    0    0  501  0.00000000000E+00  0.00000000000E+00 -0.61079123769E+03  0.61079123769E+03  0.25500000920E-02 0.  1.
    10030    2    1    2    0    0  0.00000000000E+00  0.00000000000E+00  0.12820161024E+04  0.25035985778E+04  0.21504512438E+04 0.  0.
        2    1    3    3  502    0  0.63874355152E+03  0.13467537781E+03  0.16357040819E+04  0.17611526412E+04  0.25500000920E-02 0. -1.
       -2    1    3    3    0  502 -0.63874355152E+03 -0.13467537781E+03 -0.35368797947E+03  0.74244593663E+03  0.25500000920E-02 0.  1.
</event>
<event>
 5   0  0.4050368E-05  0.2088741E+04  0.7818609E-02  0.8566219E-01
       -1   -1    0    0    0  501  0.00000000000E+00  0.00000000000E+00  0.83352345639E+03  0.83352345641E+03  0.50400001928E-02 0. -1.
        1   -1    0    0  501    0  0.00000000000E+00  0.00000000000E+00 -0.13085533457E+04  0.13085533457E+04  0.50400001928E-02 0.  1.
    10030    2    1    2    0    0  0.00000000000E+00  0.00000000000E+00 -0.47502988931E+03  0.21420768021E+04  0.20887411593E+04 0.  0.
        2    1    3    3  502    0  0.10180293932E+04 -0.21098507453E+03 -0.33909654048E+03  0.10935652751E+04  0.25500000920E-02 0. -1.
       -2    1    3    3    0  502 -0.10180293932E+04  0.21098507453E+03 -0.13593334883E+03  0.10485115271E+04  0.25500000920E-02 0.  1.
</event>
<event>
 5   0  0.9012466E-05  0.2100283E+04  0.7818609E-02  0.8561119E-01
        2   -1    0    0  501    0  0.00000000000E+00  0.00000000000E+00  0.13717165748E+04  0.13717165748E+04  0.25500000920E-02 0.  1.
       -2   -1    0    0    0  501  0.00000000000E+00  0.00000000000E+00 -0.80395395016E+03  0.80395395016E+03  0.25500000920E-02 0. -1.
    10030    2    1    2    0    0  0.00000000000E+00  0.00000000000E+00  0.56776262467E+03  0.21756705250E+04  0.21002827989E+04 0.  0.
        2    1    3    3  502    0  0.49823192283E+03  0.76075687396E+03  0.82790906660E+03  0.12298046563E+04  0.25500000920E-02 0.  1.
       -2    1    3    3    0  502 -0.49823192283E+03 -0.76075687396E+03 -0.26014644193E+03  0.94586586864E+03  0.25500000920E-02 0. -1.
</event>
<event>
 5   0  0.9086985E-05  0.2090483E+04  0.7818609E-02  0.8565447E-01
        2   -1    0    0  501    0  0.00000000000E+00  0.00000000000E+00  0.15320789407E+04  0.15320789407E+04  0.25500000920E-02 0. -1.
       -2   -1    0    0    0  501  0.00000000000E+00  0.00000000000E+00 -0.71310277483E+03  0.71310277484E+03  0.25500000920E-02 0.  1.
    10030    2    1    2    0    0  0.00000000000E+00  0.00000000000E+00  0.81897616588E+03  0.22451817156E+04  0.20904829527E+04 0.  0.
        5    1    3    3  502    0 -0.89683100879E+03  0.15420889621E+03  0.96176027508E+03  0.13240434882E+04  0.46999998093E+01 0. -1.
       -5    1    3    3    0  502  0.89683100879E+03 -0.15420889621E+03 -0.14278410920E+03  0.92113822732E+03  0.46999998093E+01 0.  1.
</event>
<event>
 5   0  0.8547605E-05  0.2098763E+04  0.7818609E-02  0.8561788E-01
       -2   -1    0    0    0  501  0.00000000000E+00  0.00000000000E+00  0.15049963859E+04  0.15049963859E+04  0.25500000920E-02 0.  1.
        2   -1    0    0  501    0  0.00000000000E+00  0.00000000000E+00 -0.73169739348E+03  0.73169739348E+03  0.25500000920E-02 0. -1.
    10030    2    1    2    0    0  0.00000000000E+00  0.00000000000E+00  0.77329899245E+03  0.22366937794E+04  0.20987633814E+04 0.  0.
        4    1    3    3  502    0 -0.95856195209E+03  0.39748275881E+03  0.55300682857E+03  0.11758621199E+04  0.12699999809E+01 0.  1.
       -4    1    3    3    0  502  0.95856195209E+03 -0.39748275881E+03  0.22029216388E+03  0.10608316596E+04  0.12699999809E+01 0. -1.
</event>
<event>
 5   0  0.9012466E-05  0.2063782E+04  0.7818609E-02  0.8577368E-01
        2   -1    0    0  501    0  0.00000000000E+00  0.00000000000E+00  0.98589811981E+03  0.98589811981E+03  0.25500000920E-02 0. -1.
       -2   -1    0    0    0  501  0.00000000000E+00  0.00000000000E+00 -0.10800293736E+04  0.10800293736E+04  0.25500000920E-02 0.  1.
    10030    2    1    2    0    0  0.00000000000E+00  0.00000000000E+00 -0.94131253746E+02  0.20659274934E+04  0.20637818962E+04 0.  0.
        2    1    3    3  502    0 -0.79649727730E+02 -0.59078612922E+03 -0.89021594993E+03  0.10713807760E+04  0.25500000920E-02 0.  1.
       -2    1    3    3    0  502  0.79649727730E+02  0.59078612922E+03  0.79608469618E+03  0.99454671741E+03  0.25500000920E-02 0. -1.
</event>
<event>
 5   0  0.9086985E-05  0.2112777E+04  0.7818609E-02  0.8555636E-01
        2   -1    0    0  501    0  0.00000000000E+00  0.00000000000E+00  0.10328642977E+04  0.10328642977E+04  0.25500000920E-02 0. -1.
       -2   -1    0    0    0  501  0.00000000000E+00  0.00000000000E+00 -0.10804482557E+04  0.10804482557E+04  0.25500000920E-02 0.  1.
    10030    2    1    2    0    0  0.00000000000E+00  0.00000000000E+00 -0.47583957949E+02  0.21133125534E+04  0.21127767784E+04 0.  0.
        5    1    3    3  502    0  0.92407553763E+03 -0.20339024967E+03  0.44606232729E+03  0.10460769010E+04  0.46999998093E+01 0. -1.
       -5    1    3    3    0  502 -0.92407553763E+03  0.20339024967E+03 -0.49364628523E+03  0.10672356524E+04  0.46999998093E+01 0.  1.
</event>
<event>
 5   0  0.4182977E-05  0.2108144E+04  0.7818609E-02  0.8557665E-01
       -1   -1    0    0    0  501  0.00000000000E+00  0.00000000000E+00  0.12222297777E+04  0.12222297777E+04  0.50400001928E-02 0.  1.
        1   -1    0    0  501    0  0.00000000000E+00  0.00000000000E+00 -0.90904941969E+03  0.90904941970E+03  0.50400001928E-02 0. -1.
    10030    2    1    2    0    0  0.00000000000E+00  0.00000000000E+00  0.31318035800E+03  0.21312791974E+04  0.21081435152E+04 0.  0.
        1    1    3    3  502    0  0.46001593233E+03 -0.25142253096E+03  0.10810870936E+04  0.12014895967E+04  0.50400001928E-02 0.  1.
       -1    1    3    3    0  502 -0.46001593233E+03  0.25142253096E+03 -0.76790673555E+03  0.92978960072E+03  0.50400001928E-02 0. -1.
</event>
<event>
 5   0  0.8872777E-05  0.2112529E+04  0.7818609E-02  0.8555744E-01
       -2   -1    0    0    0  501  0.00000000000E+00  0.00000000000E+00  0.59088369031E+03  0.59088369031E+03  0.25500000920E-02 0.  1.
        2   -1    0    0  501    0  0.00000000000E+00  0.00000000000E+00 -0.18881791179E+04  0.18881791179E+04  0.25500000920E-02 0. -1.
    10030    2    1    2    0    0  0.00000000000E+00  0.00000000000E+00 -0.12972954276E+04  0.24790628082E+04  0.21125285751E+04 0.  0.
        3    1    3    3  502    0  0.69098294048E+03 -0.50059159441E+03 -0.13792852100E+04  0.16218745541E+04  0.10100000352E+00 0. -1.
       -3    1    3    3    0  502 -0.69098294048E+03  0.50059159441E+03  0.81989782393E+02  0.85718825415E+03  0.10100000352E+00 0.  1.
</event>
<event>
 5   0  0.4182977E-05  0.2094566E+04  0.7818609E-02  0.8563641E-01
        1   -1    0    0  501    0  0.00000000000E+00  0.00000000000E+00  0.90526806581E+03  0.90526806582E+03  0.50400001928E-02 0.  1.
       -1   -1    0    0    0  501  0.00000000000E+00  0.00000000000E+00 -0.12115766534E+04  0.12115766534E+04  0.50400001928E-02 0. -1.
    10030    2    1    2    0    0  0.00000000000E+00  0.00000000000E+00 -0.30630858762E+03  0.21168447193E+04  0.20945659728E+04 0.  0.
        1    1    3    3  502    0  0.77568171846E+03 -0.50951631170E+03 -0.64361258465E+03  0.11293919423E+04  0.50400001928E-02 0. -1.
       -1    1    3    3    0  502 -0.77568171846E+03  0.50951631170E+03  0.33730399703E+03  0.98745277693E+03  0.50400001928E-02 0.  1.
</event>
<event>
 5   0  0.9012466E-05  0.2120496E+04  0.7818609E-02  0.8552268E-01
       -2   -1    0    0    0  501  0.00000000000E+00  0.00000000000E+00  0.80062854604E+03  0.80062854604E+03  0.25500000920E-02 0. -1.
        2   -1    0    0  501    0  0.00000000000E+00  0.00000000000E+00 -0.14040544882E+04  0.14040544882E+04  0.25500000920E-02 0.  1.
    10030    2    1    2    0    0  0.00000000000E+00  0.00000000000E+00 -0.60342594212E+03  0.22046830342E+04  0.21204962659E+04 0.  0.
        2    1    3    3  502    0 -0.20522159460E+03 -0.34634830997E+03  0.71807094525E+03  0.82322471849E+03  0.25500000920E-02 0. -1.
       -2    1    3    3    0  502  0.20522159460E+03  0.34634830997E+03 -0.13214968874E+04  0.13814583157E+04  0.25500000920E-02 0.  1.
</event>
<event>
 5   0  0.9086985E-05  0.2040415E+04  0.7818609E-02  0.8587955E-01
        2   -1    0    0  501    0  0.00000000000E+00  0.00000000000E+00  0.77804430510E+03  0.77804430511E+03  0.25500000920E-02 0. -1.
       -2   -1    0    0    0  501  0.00000000000E+00  0.00000000000E+00 -0.13377435515E+04  0.13377435515E+04  0.25500000920E-02 0.  1.
    10030    2    1    2    0    0  0.00000000000E+00  0.00000000000E+00 -0.55969924641E+03  0.21157878566E+04  0.20404154008E+04 0.  0.
        5    1    3    3  502    0 -0.40056471544E+03  0.19995200912E+03  0.67072995156E+03  0.80643267241E+03  0.46999998093E+01 0. -1.
       -5    1    3    3    0  502  0.40056471544E+03 -0.19995200912E+03 -0.12304291980E+04  0.13093551842E+04  0.46999998093E+01 0.  1.
</event>
<event>
 5   0  0.4182977E-05  0.2086123E+04  0.7818609E-02  0.8567381E-01
       -1   -1    0    0    0  501  0.00000000000E+00  0.00000000000E+00  0.13170668335E+04  0.13170668335E+04  0.50400001928E-02 0. -1.
        1   -1    0    0  501    0  0.00000000000E+00  0.00000000000E+00 -0.82606083346E+03  0.82606083348E+03  0.50400001928E-02 0.  1.
    10030    2    1    2    0    0  0.00000000000E+00  0.00000000000E+00  0.49100600005E+03  0.21431276670E+04  0.20861230321E+04 0.  0.
        1    1    3    3  502    0  0.18707750920E+03  0.10074286100E+02 -0.80863414650E+03  0.83005341310E+03  0.50400001928E-02 0.  1.
       -1    1    3    3    0  502 -0.18707750920E+03 -0.10074286100E+02  0.12996401466E+04  0.13130742539E+04  0.50400001928E-02 0. -1.
</event>
<event>
 5   0  0.4200061E-05  0.2064907E+04  0.7818609E-02  0.8576862E-01
        1   -1    0    0  501    0  0.00000000000E+00  0.00000000000E+00  0.10165208020E+04  0.10165208020E+04  0.50400001928E-02 0.  1.
       -1   -1    0    0    0  501  0.00000000000E+00  0.00000000000E+00 -0.10486358283E+04  0.10486358283E+04  0.50400001928E-02 0. -1.
    10030    2    1    2    0    0  0.00000000000E+00  0.00000000000E+00 -0.32115026341E+02  0.20651566303E+04  0.20649069066E+04 0.  0.
        4    1    3    3  502    0  0.51252498128E+03  0.41223891854E+02  0.87935923177E+03  0.10186537867E+04  0.12699999809E+01 0.  1.
       -4    1    3    3    0  502 -0.51252498128E+03 -0.41223891854E+02 -0.91147425811E+03  0.10465028437E+04  0.12699999809E+01 0. -1.
</event>
<event>
 5   0  0.4128678E-05  0.2143697E+04  0.7818609E-02  0.8542235E-01
       -1   -1    0    0    0  501  0.00000000000E+00  0.00000000000E+00  0.87187904279E+03  0.87187904281E+03  0.50400001928E-02 0. -1.
        1   -1    0    0  501    0  0.00000000000E+00  0.00000000000E+00 -0.13176817941E+04  0.13176817941E+04  0.50400001928E-02 0.  1.
    10030    2    1    2    0    0  0.00000000000E+00  0.00000000000E+00 -0.44580275129E+03  0.21895608369E+04  0.21436969388E+04 0.  0.
        5    1    3    3  502    0  0.11073723398E+03  0.14977938443E+03 -0.13010126812E+04  0.13142879005E+04  0.46999998093E+01 0.  1.
       -5    1    3    3    0  502 -0.11073723398E+03 -0.14977938443E+03  0.85520992986E+03  0.87527293636E+03  0.46999998093E+01 0. -1.
</event>
<event>
 5   0  0.3176125E-05  0.2079850E+04  0.7818609E-02  0.8570172E-01
        3   -1    0    0  501    0  0.00000000000E+00  0.00000000000E+00  0.11447294357E+04  0.11447294402E+04  0.10100000352E+00 0.  1.
       -3   -1    0    0    0  501  0.00000000000E+00  0.00000000000E+00 -0.94471572756E+03  0.94471573296E+03  0.10100000352E+00 0. -1.
    10030    2    1    2    0    0  0.00000000000E+00  0.00000000000E+00  0.20001370814E+03  0.20894451731E+04  0.20798499100E+04 0.  0.
        1    1    3    3  502    0  0.62335039303E+03 -0.50945144446E+03  0.76132750313E+03  0.11080280023E+04  0.50400001928E-02 0.  1.
       -1    1    3    3    0  502 -0.62335039303E+03  0.50945144446E+03 -0.56131379500E+03  0.98141717085E+03  0.50400001928E-02 0. -1.
</event>
<event>
 5   0  0.3176125E-05  0.2092499E+04  0.7818609E-02  0.8564555E-01
       -3   -1    0    0    0  501  0.00000000000E+00  0.00000000000E+00  0.11344081652E+04  0.11344081697E+04  0.10100000352E+00 0.  1.
        3   -1    0    0  501    0  0.00000000000E+00  0.00000000000E+00 -0.96494238016E+03  0.96494238544E+03  0.10100000352E+00 0. -1.
    10030    2    1    2    0    0  0.00000000000E+00  0.00000000000E+00  0.16946578504E+03  0.20993505551E+04  0.20924994865E+04 0.  0.
        2    1    3    3  502    0  0.10070269162E+04  0.19073893505E+03  0.29554934578E+03  0.10666930051E+04  0.25500000920E-02 0.  1.
       -2    1    3    3    0  502 -0.10070269162E+04 -0.19073893505E+03 -0.12608356075E+03  0.10326575500E+04  0.25500000920E-02 0. -1.
</event>
<event>
 5   0  0.4174093E-05  0.2100351E+04  0.7818609E-02  0.8561089E-01
        1   -1    0    0  501    0  0.00000000000E+00  0.00000000000E+00  0.11900359351E+04  0.11900359351E+04  0.50400001928E-02 0.  1.
       -1   -1    0    0    0  501  0.00000000000E+00  0.00000000000E+00 -0.92675202960E+03  0.92675202961E+03  0.50400001928E-02 0. -1.
    10030    2    1    2    0    0  0.00000000000E+00  0.00000000000E+00  0.26328390550E+03  0.21167879647E+04  0.21003506547E+04 0.  0.
        3    1    3    3  502    0  0.74144410421E+03 -0.15036543733E+03 -0.60242564847E+03  0.96709141065E+03  0.10100000352E+00 0. -1.
       -3    1    3    3    0  502 -0.74144410421E+03  0.15036543733E+03  0.86570955397E+03  0.11496965541E+04  0.10100000352E+00 0.  1.
</event>
<event>
 5   0  0.9086985E-05  0.2146993E+04  0.7818609E-02  0.8540820E-01
       -2   -1    0    0    0  501  0.00000000000E+00  0.00000000000E+00  0.88017872185E+03  0.88017872186E+03  0.25500000920E-02 0. -1.
        2   -1    0    0  501    0  0.00000000000E+00  0.00000000000E+00 -0.13092736617E+04  0.13092736617E+04  0.25500000920E-02 0.  1.
    10030    2    1    2    0    0  0.00000000000E+00  0.00000000000E+00 -0.42909493981E+03  0.21894523835E+04  0.21469930769E+04 0.  0.
        5    1    3    3  502    0  0.84501452692E+03  0.28979629041E+03 -0.82158527638E+03  0.12136951417E+04  0.46999998093E+01 0.  1.
       -5    1    3    3    0  502 -0.84501452692E+03 -0.28979629041E+03  0.39249033657E+03  0.97575724181E+03  0.46999998093E+01 0. -1.
</event>
<event>
 5   0  0.3176125E-05  0.2109752E+04  0.7818609E-02  0.8556960E-01
       -3   -1    0    0    0  501  0.00000000000E+00  0.00000000000E+00  0.70112682097E+03  0.70112682824E+03  0.10100000352E+00 0. -1.
        3   -1    0    0  501    0  0.00000000000E+00  0.00000000000E+00 -0.15871073869E+04  0.15871073901E+04  0.10100000352E+00 0.  1.
    10030    2    1    2    0    0  0.00000000000E+00  0.00000000000E+00 -0.88598056596E+03  0.22882342184E+04  0.21097521833E+04 0.  0.
        2    1    3    3  502    0 -0.74235693028E+03 -0.46090670510E+03  0.19796505118E+03  0.89594584895E+03  0.25500000920E-02 0. -1.
       -2    1    3    3    0  502  0.74235693028E+03  0.46090670510E+03 -0.10839456171E+04  0.13922883694E+04  0.25500000920E-02 0.  1.
</event>
<event>
 5   0  0.9086985E-05  0.2021740E+04  0.7818609E-02  0.8596523E-01
        2   -1    0    0  501    0  0.00000000000E+00  0.00000000000E+00  0.16292142017E+04  0.16292142017E+04  0.25500000920E-02 0. -1.
       -2   -1    0    0    0  501  0.00000000000E+00  0.00000000000E+00 -0.62720934206E+03  0.62720934206E+03  0.25500000920E-02 0.  1.
    10030    2    1    2    0    0  0.00000000000E+00  0.00000000000E+00  0.10020048596E+04  0.22564235437E+04  0.20217402083E+04 0.  0.
        5    1    3    3  502    0  0.35468367332E+03  0.43000318648E+03  0.14421781158E+04  0.15461575133E+04  0.46999998093E+01 0. -1.
       -5    1    3    3    0  502 -0.35468367332E+03 -0.43000318648E+03 -0.44017325614E+03  0.71026603039E+03  0.46999998093E+01 0.  1.
</event>
<event>
 5   0  0.4200061E-05  0.2095767E+04  0.7818609E-02  0.8563111E-01
       -1   -1    0    0    0  501  0.00000000000E+00  0.00000000000E+00  0.63193702571E+03  0.63193702573E+03  0.50400001928E-02 0.  1.
        1   -1    0    0  501    0  0.00000000000E+00  0.00000000000E+00 -0.17376088368E+04  0.17376088368E+04  0.50400001928E-02 0. -1.
    10030    2    1    2    0    0  0.00000000000E+00  0.00000000000E+00 -0.11056718111E+04  0.23695458625E+04  0.20957665521E+04 0.  0.
        4    1    3    3  502    0 -0.55202156778E+03 -0.76196262053E+03 -0.31341381501E+02  0.94143440636E+03  0.12699999809E+01 0.  1.
       -4    1    3    3    0  502  0.55202156778E+03  0.76196262053E+03 -0.10743304296E+04  0.14281114561E+04  0.12699999809E+01 0. -1.
</event>
<event>
 5   0  0.4128678E-05  0.2124002E+04  0.7818609E-02  0.8550743E-01
        1   -1    0    0  501    0  0.00000000000E+00  0.00000000000E+00  0.16704952116E+04  0.16704952116E+04  0.50400001928E-02 0.  1.
       -1   -1    0    0    0  501  0.00000000000E+00  0.00000000000E+00 -0.67515688401E+03  0.67515688403E+03  0.50400001928E-02 0. -1.
    10030    2    1    2    0    0  0.00000000000E+00  0.00000000000E+00  0.99533832760E+03  0.23456520957E+04  0.21240022051E+04 0.  0.
        5    1    3    3  502    0  0.78604998005E+03 -0.27677810172E+03  0.12246530927E+04  0.14813095477E+04  0.46999998093E+01 0.  1.
       -5    1    3    3    0  502 -0.78604998005E+03  0.27677810172E+03 -0.22931476506E+03  0.86434254796E+03  0.46999998093E+01 0. -1.
</event>
<event>
 5   0  0.8872777E-05  0.2105475E+04  0.7818609E-02  0.8558835E-01
        2   -1    0    0  501    0  0.00000000000E+00  0.00000000000E+00  0.14316915765E+04  0.14316915765E+04  0.25500000920E-02 0. -1.
       -2   -1    0    0    0  501  0.00000000000E+00  0.00000000000E+00 -0.77408894938E+03  0.77408894938E+03  0.25500000920E-02 0.  1.
    10030    2    1    2    0    0  0.00000000000E+00  0.00000000000E+00  0.65760262707E+03  0.22057805258E+04  0.21054753651E+04 0.  0.
        3    1    3    3  502    0 -0.91205324287E+03  0.52573349855E+03  0.32414093701E+03  0.11015008791E+04  0.10100000352E+00 0.  1.
       -3    1    3    3    0  502  0.91205324287E+03 -0.52573349855E+03  0.33346169006E+03  0.11042796468E+04  0.10100000352E+00 0. -1.
</event>
<event>
 5   0  0.9086985E-05  0.2063562E+04  0.7818609E-02  0.8577467E-01
       -2   -1    0    0    0  501  0.00000000000E+00  0.00000000000E+00  0.60548239232E+03  0.60548239233E+03  0.25500000920E-02 0. -1.
        2   -1    0    0  501    0  0.00000000000E+00  0.00000000000E+00 -0.17582210861E+04  0.17582210861E+04  0.25500000920E-02 0.  1.
    10030    2    1    2    0    0  0.00000000000E+00  0.00000000000E+00 -0.11527386938E+04  0.23637034785E+04  0.20635618813E+04 0.  0.
        5    1    3    3  502    0  0.21291556837E+03 -0.93005910584E+03 -0.10261774928E+04  0.14012156566E+04  0.46999998093E+01 0.  1.
       -5    1    3    3    0  502 -0.21291556837E+03  0.93005910584E+03 -0.12656120101E+03  0.96248782185E+03  0.46999998093E+01 0. -1.
</event>
<event>
 5   0  0.3176125E-05  0.2126462E+04  0.7818609E-02  0.8549675E-01
       -3   -1    0    0    0  501  0.00000000000E+00  0.00000000000E+00  0.11687809454E+04  0.11687809498E+04  0.10100000352E+00 0.  1.
        3   -1    0    0  501    0  0.00000000000E+00  0.00000000000E+00 -0.96721312805E+03  0.96721313332E+03  0.10100000352E+00 0. -1.
    10030    2    1    2    0    0  0.00000000000E+00  0.00000000000E+00  0.20156781739E+03  0.21359940831E+04  0.21264621177E+04 0.  0.
        4    1    3    3  502    0 -0.10951867314E+03  0.75927570991E+03  0.84026641846E+03  0.11377799481E+04  0.12699999809E+01 0.  1.
       -4    1    3    3    0  502  0.10951867314E+03 -0.75927570991E+03 -0.63869860107E+03  0.99821413501E+03  0.12699999809E+01 0. -1.
</event>
<event>
 5   0  0.8547605E-05  0.2092828E+04  0.7818609E-02  0.8564409E-01
       -2   -1    0    0    0  501  0.00000000000E+00  0.00000000000E+00  0.44706971578E+03  0.44706971578E+03  0.25500000920E-02 0.  1.
        2   -1    0    0  501    0  0.00000000000E+00  0.00000000000E+00 -0.24492426458E+04  0.24492426458E+04  0.25500000920E-02 0. -1.
    10030    2    1    2    0    0  0.00000000000E+00  0.00000000000E+00 -0.20021729300E+04  0.28963123616E+04  0.20928279562E+04 0.  0.
        4    1    3    3  502    0  0.40810944128E+03  0.80883943029E+03 -0.27639959201E+03  0.94719210692E+03  0.12699999809E+01 0.  1.
       -4    1    3    3    0  502 -0.40810944128E+03 -0.80883943029E+03 -0.17257733380E+04  0.19491202547E+04  0.12699999809E+01 0. -1.
</event>
<event>
 5   0  0.4182977E-05  0.2108475E+04  0.7818609E-02  0.8557519E-01
       -1   -1    0    0    0  501  0.00000000000E+00  0.00000000000E+00  0.76536745709E+03  0.76536745710E+03  0.50400001928E-02 0. -1.
        1   -1    0    0  501    0  0.00000000000E+00  0.00000000000E+00 -0.14521352917E+04  0.14521352917E+04  0.50400001928E-02 0.  1.
    10030    2    1    2    0    0  0.00000000000E+00  0.00000000000E+00 -0.68676783458E+03  0.22175027488E+04  0.21084753691E+04 0.  0.
        1    1    3    3  502    0  0.17369459516E+03 -0.67686343544E+03 -0.11735703204E+04  0.13658628114E+04  0.50400001928E-02 0.  1.
       -1    1    3    3    0  502 -0.17369459516E+03  0.67686343544E+03  0.48680248585E+03  0.85163993735E+03  0.50400001928E-02 0. -1.
</event>
<event>
 5   0  0.4050368E-05  0.2104970E+04  0.7818609E-02  0.8559057E-01
        1   -1    0    0  501    0  0.00000000000E+00  0.00000000000E+00  0.16341926535E+04  0.16341926535E+04  0.50400001928E-02 0. -1.
       -1   -1    0    0    0  501  0.00000000000E+00  0.00000000000E+00 -0.67784205783E+03  0.67784205785E+03  0.50400001928E-02 0.  1.
    10030    2    1    2    0    0  0.00000000000E+00  0.00000000000E+00  0.95635059569E+03  0.23120347114E+04  0.21049698441E+04 0.  0.
        2    1    3    3  502    0 -0.77753242114E+03  0.12930052723E+03  0.12442431307E+04  0.14728938388E+04  0.25500000920E-02 0. -1.
       -2    1    3    3    0  502  0.77753242114E+03 -0.12930052723E+03 -0.28789253498E+03  0.83914087254E+03  0.25500000920E-02 0.  1.
</event>
<event>
 5   0  0.4200061E-05  0.2090456E+04  0.7818609E-02  0.8565459E-01
       -1   -1    0    0    0  501  0.00000000000E+00  0.00000000000E+00  0.69048774190E+03  0.69048774192E+03  0.50400001928E-02 0.  1.
        1   -1    0    0  501    0  0.00000000000E+00  0.00000000000E+00 -0.15822168491E+04  0.15822168491E+04  0.50400001928E-02 0. -1.
    10030    2    1    2    0    0  0.00000000000E+00  0.00000000000E+00 -0.89172910720E+03  0.22727045910E+04  0.20904557775E+04 0.  0.
        4    1    3    3  502    0  0.83164669559E+03 -0.39416691980E+03 -0.98453625540E+03  0.13477080686E+04  0.12699999809E+01 0. -1.
       -4    1    3    3    0  502 -0.83164669559E+03  0.39416691980E+03  0.92807148195E+02  0.92499652248E+03  0.12699999809E+01 0.  1.
</event>
<event>
 5   0  0.4200061E-05  0.2125968E+04  0.7818609E-02  0.8549890E-01
       -1   -1    0    0    0  501  0.00000000000E+00  0.00000000000E+00  0.52210486825E+03  0.52210486828E+03  0.50400001928E-02 0. -1.
        1   -1    0    0  501    0  0.00000000000E+00  0.00000000000E+00 -0.21641917849E+04  0.21641917849E+04  0.50400001928E-02 0.  1.
    10030    2    1    2    0    0  0.00000000000E+00  0.00000000000E+00 -0.16420869166E+04  0.26862966531E+04  0.21259680776E+04 0.  0.
        4    1    3    3  502    0 -0.10353076657E+04 -0.17767878555E+03 -0.10267435238E+04  0.14688892368E+04  0.12699999809E+01 0.  1.
       -4    1    3    3    0  502  0.10353076657E+04  0.17767878555E+03 -0.61534339279E+03  0.12174074163E+04  0.12699999809E+01 0. -1.
</event>
<event>
 5   0  0.4182977E-05  0.2177093E+04  0.7818609E-02  0.8528024E-01
        1   -1    0    0  501    0  0.00000000000E+00  0.00000000000E+00  0.18613021937E+04  0.18613021937E+04  0.50400001928E-02 0. -1.
       -1   -1    0    0    0  501  0.00000000000E+00  0.00000000000E+00 -0.63661514805E+03  0.63661514807E+03  0.50400001928E-02 0.  1.
    10030    2    1    2    0    0  0.00000000000E+00  0.00000000000E+00  0.12246870456E+04  0.24979173417E+04  0.21770927142E+04 0.  0.
        1    1    3    3  502    0 -0.18398577052E+03  0.25906438542E+03 -0.58222035994E+03  0.66328400185E+03  0.50400001928E-02 0.  1.
       -1    1    3    3    0  502  0.18398577052E+03 -0.25906438542E+03  0.18069074055E+04  0.18346333399E+04  0.50400001928E-02 0. -1.
</event>
<event>
 5   0  0.4128678E-05  0.2105891E+04  0.7818609E-02  0.8558653E-01
       -1   -1    0    0    0  501  0.00000000000E+00  0.00000000000E+00  0.13656629778E+04  0.13656629778E+04  0.50400001928E-02 0. -1.
        1   -1    0    0  501    0  0.00000000000E+00  0.00000000000E+00 -0.81183621943E+03  0.81183621945E+03  0.50400001928E-02 0.  1.
    10030    2    1    2    0    0  0.00000000000E+00  0.00000000000E+00  0.55382675836E+03  0.21774991972E+04  0.21058914207E+04 0.  0.
        5    1    3    3  502    0  0.30468116931E+03  0.41674949199E+03  0.12258119746E+04  0.13300931701E+04  0.46999998093E+01 0. -1.
       -5    1    3    3    0  502 -0.30468116931E+03 -0.41674949199E+03 -0.67198521626E+03  0.84740602716E+03  0.46999998093E+01 0.  1.
</event>
<event>
 5   0  0.8547605E-05  0.2083324E+04  0.7818609E-02  0.8568625E-01
       -2   -1    0    0    0  501  0.00000000000E+00  0.00000000000E+00  0.48910626122E+03  0.48910626123E+03  0.25500000920E-02 0.  1.
        2   -1    0    0  501    0  0.00000000000E+00  0.00000000000E+00 -0.22184535612E+04  0.22184535612E+04  0.25500000920E-02 0. -1.
    10030    2    1    2    0    0  0.00000000000E+00  0.00000000000E+00 -0.17293473000E+04  0.27075598224E+04  0.20833238126E+04 0.  0.
        4    1    3    3  502    0 -0.26976497913E+03  0.27036359658E+03  0.39482474651E+03  0.54932486898E+03  0.12699999809E+01 0.  1.
       -4    1    3    3    0  502  0.26976497913E+03 -0.27036359658E+03 -0.21241720465E+04  0.21582349534E+04  0.12699999809E+01 0. -1.
</event>
<event>
 5   0  0.4128678E-05  0.2121270E+04  0.7818609E-02  0.8551931E-01
       -1   -1    0    0    0  501  0.00000000000E+00  0.00000000000E+00  0.13829864033E+04  0.13829864033E+04  0.50400001928E-02 0. -1.
        1   -1    0    0  501    0  0.00000000000E+00  0.00000000000E+00 -0.81341807383E+03  0.81341807385E+03  0.50400001928E-02 0.  1.
    10030    2    1    2    0    0  0.00000000000E+00  0.00000000000E+00  0.56956832946E+03  0.21964044772E+04  0.21212695598E+04 0.  0.
        5    1    3    3  502    0  0.11935323580E+03 -0.10480252077E+04  0.16984783229E+03  0.10683971205E+04  0.46999998093E+01 0.  1.
       -5    1    3    3    0  502 -0.11935323580E+03  0.10480252077E+04  0.39972049716E+03  0.11280073567E+04  0.46999998093E+01 0. -1.
</event>
<event>
 5   0  0.8547605E-05  0.2079760E+04  0.7818609E-02  0.8570212E-01
       -2   -1    0    0    0  501  0.00000000000E+00  0.00000000000E+00  0.14213124068E+04  0.14213124068E+04  0.25500000920E-02 0.  1.
        2   -1    0    0  501    0  0.00000000000E+00  0.00000000000E+00 -0.76081103171E+03  0.76081103172E+03  0.25500000920E-02 0. -1.
    10030    2    1    2    0    0  0.00000000000E+00  0.00000000000E+00  0.66050137512E+03  0.21821234386E+04  0.20797597540E+04 0.  0.
        4    1    3    3  502    0 -0.31016328358E+03  0.47698312613E+03 -0.58301256165E+03  0.81462839690E+03  0.12699999809E+01 0. -1.
       -4    1    3    3    0  502  0.31016328358E+03 -0.47698312613E+03  0.12435139368E+04  0.13674950416E+04  0.12699999809E+01 0.  1.
</event>
<event>
 5   0  0.4182977E-05  0.2100427E+04  0.7818609E-02  0.8561055E-01
        1   -1    0    0  501    0  0.00000000000E+00  0.00000000000E+00  0.10933034717E+04  0.10933034717E+04  0.50400001928E-02 0.  1.
       -1   -1    0    0    0  501  0.00000000000E+00  0.00000000000E+00 -0.10088220552E+04  0.10088220553E+04  0.50400001928E-02 0. -1.
    10030    2    1    2    0    0  0.00000000000E+00  0.00000000000E+00  0.84481416424E+02  0.21021255269E+04  0.21004272473E+04 0.  0.
        1    1    3    3  502    0 -0.73497352070E+03 -0.40432938878E+03 -0.59015651970E+03  0.10256476240E+04  0.50400001928E-02 0. -1.
       -1    1    3    3    0  502  0.73497352070E+03  0.40432938878E+03  0.67463793612E+03  0.10764779030E+04  0.50400001928E-02 0.  1.
</event>
<event>
 5   0  0.8858590E-05  0.2095575E+04  0.7818609E-02  0.8563195E-01
        2   -1    0    0  501    0  0.00000000000E+00  0.00000000000E+00  0.10258273448E+04  0.10258273448E+04  0.25500000920E-02 0.  1.
       -2   -1    0    0    0  501  0.00000000000E+00  0.00000000000E+00 -0.10702173786E+04  0.10702173787E+04  0.25500000920E-02 0. -1.
    10030    2    1    2    0    0  0.00000000000E+00  0.00000000000E+00 -0.44390033884E+02  0.20960447234E+04  0.20955746246E+04 0.  0.
        1    1    3    3  502    0 -0.53122456120E+03  0.58188525970E+03 -0.71305124420E+03  0.10626533145E+04  0.50400001928E-02 0. -1.
       -1    1    3    3    0  502  0.53122456120E+03 -0.58188525970E+03  0.66866121031E+03  0.10333914089E+04  0.50400001928E-02 0.  1.
</event>
<event>
 5   0  0.4174093E-05  0.2092188E+04  0.7818609E-02  0.8564692E-01
       -1   -1    0    0    0  501  0.00000000000E+00  0.00000000000E+00  0.97032464222E+03  0.97032464223E+03  0.50400001928E-02 0.  1.
        1   -1    0    0  501    0  0.00000000000E+00  0.00000000000E+00 -0.11277802982E+04  0.11277802982E+04  0.50400001928E-02 0. -1.
    10030    2    1    2    0    0  0.00000000000E+00  0.00000000000E+00 -0.15745565601E+03  0.20981049405E+04  0.20921883418E+04 0.  0.
        3    1    3    3  502    0 -0.32574284544E+03  0.23534208807E+03 -0.10472845321E+04  0.11217393641E+04  0.10100000352E+00 0. -1.
       -3    1    3    3    0  502  0.32574284544E+03 -0.23534208807E+03  0.88982887605E+03  0.97636557632E+03  0.10100000352E+00 0.  1.
</event>
<event>
 5   0  0.9012466E-05  0.2110221E+04  0.7818609E-02  0.8556754E-01
        2   -1    0    0  501    0  0.00000000000E+00  0.00000000000E+00  0.13615246730E+04  0.13615246730E+04  0.25500000920E-02 0.  1.
       -2   -1    0    0    0  501  0.00000000000E+00  0.00000000000E+00 -0.81765553875E+03  0.81765553875E+03  0.25500000920E-02 0. -1.
    10030    2    1    2    0    0  0.00000000000E+00  0.00000000000E+00  0.54386913428E+03  0.21791802118E+04  0.21102210216E+04 0.  0.
        2    1    3    3  502    0 -0.10345537170E+04  0.15742972547E+03  0.13272320878E+03  0.10548464162E+04  0.25500000920E-02 0.  1.
       -2    1    3    3    0  502  0.10345537170E+04 -0.15742972547E+03  0.41114592550E+03  0.11243337955E+04  0.25500000920E-02 0. -1.
</event>
<event>
 5   0  0.4182977E-05  0.1981342E+04  0.7818609E-02  0.8615394E-01
       -1   -1    0    0    0  501  0.00000000000E+00  0.00000000000E+00  0.51411811240E+03  0.51411811242E+03  0.50400001928E-02 0. -1.
        1   -1    0    0  501    0  0.00000000000E+00  0.00000000000E+00 -0.19089569944E+04  0.19089569944E+04  0.50400001928E-02 0.  1.
    10030    2    1    2    0    0  0.00000000000E+00  0.00000000000E+00 -0.13948388820E+04  0.24230751069E+04  0.19813423396E+04 0.  0.
        1    1    3    3  502    0 -0.78498701775E+03 -0.40914961199E+03 -0.12413505893E+04  0.15246505530E+04  0.50400001928E-02 0.  1.
       -1    1    3    3    0  502  0.78498701775E+03  0.40914961199E+03 -0.15348829273E+03  0.89842455391E+03  0.50400001928E-02 0. -1.
</event>
<event>
 5   0  0.4174093E-05  0.2080023E+04  0.7818609E-02  0.8570095E-01
       -1   -1    0    0    0  501  0.00000000000E+00  0.00000000000E+00  0.61522623620E+03  0.61522623622E+03  0.50400001928E-02 0.  1.
        1   -1    0    0  501    0  0.00000000000E+00  0.00000000000E+00 -0.17580911017E+04  0.17580911017E+04  0.50400001928E-02 0. -1.
    10030    2    1    2    0    0  0.00000000000E+00  0.00000000000E+00 -0.11428648655E+04  0.23733173379E+04  0.20800228570E+04 0.  0.
        3    1    3    3  502    0 -0.48538029091E+03  0.80355769832E+03 -0.10821196883E+04  0.14325788046E+04  0.10100000352E+00 0. -1.
       -3    1    3    3    0  502  0.48538029091E+03 -0.80355769832E+03 -0.60745177163E+02  0.94073853332E+03  0.10100000352E+00 0.  1.
</event>
<event>
 5   0  0.4182977E-05  0.2119928E+04  0.7818609E-02  0.8552515E-01
       -1   -1    0    0    0  501  0.00000000000E+00  0.00000000000E+00  0.64334463354E+03  0.64334463356E+03  0.50400001928E-02 0. -1.
        1   -1    0    0  501    0  0.00000000000E+00  0.00000000000E+00 -0.17463791249E+04  0.17463791249E+04  0.50400001928E-02 0.  1.
    10030    2    1    2    0    0  0.00000000000E+00  0.00000000000E+00 -0.11030344913E+04  0.23897237584E+04  0.21199279593E+04 0.  0.
        1    1    3    3  502    0 -0.50279643866E+03 -0.98802974776E+02  0.49444839384E+03  0.71207127505E+03  0.50400001928E-02 0. -1.
       -1    1    3    3    0  502  0.50279643866E+03  0.98802974776E+02 -0.15974828852E+04  0.16776524834E+04  0.50400001928E-02 0.  1.
</event>
<event>
 5   0  0.9086985E-05  0.2097508E+04  0.7818609E-02  0.8562342E-01
       -2   -1    0    0    0  501  0.00000000000E+00  0.00000000000E+00  0.11126764429E+04  0.11126764429E+04  0.25500000920E-02 0. -1.
        2   -1    0    0  501    0  0.00000000000E+00  0.00000000000E+00 -0.98850355529E+03  0.98850355529E+03  0.25500000920E-02 0.  1.
    10030    2    1    2    0    0  0.00000000000E+00  0.00000000000E+00  0.12417288764E+03  0.21011799982E+04  0.20975076827E+04 0.  0.
        5    1    3    3  502    0 -0.25770008305E+03  0.97652331916E+03  0.34516818195E+03  0.10673192069E+04  0.46999998093E+01 0. -1.
       -5    1    3    3    0  502  0.25770008305E+03 -0.97652331916E+03 -0.22099529431E+03  0.10338607913E+04  0.46999998093E+01 0.  1.
</event>
<event>
 5   0  0.8872777E-05  0.2093459E+04  0.7818609E-02  0.8564130E-01
        2   -1    0    0  501    0  0.00000000000E+00  0.00000000000E+00  0.15467938558E+04  0.15467938558E+04  0.25500000920E-02 0. -1.
       -2   -1    0    0    0  501  0.00000000000E+00  0.00000000000E+00 -0.70833139228E+03  0.70833139228E+03  0.25500000920E-02 0.  1.
    10030    2    1    2    0    0  0.00000000000E+00  0.00000000000E+00  0.83846246349E+03  0.22551252481E+04  0.20934589993E+04 0.  0.
        3    1    3    3  502    0 -0.18017825559E+03 -0.52987774986E+03  0.13720775262E+04  0.14818337901E+04  0.10100000352E+00 0. -1.
       -3    1    3    3    0  502  0.18017825559E+03  0.52987774986E+03 -0.53361506267E+03  0.77329145792E+03  0.10100000352E+00 0.  1.
</event>
<event>
 5   0  0.8858590E-05  0.2097745E+04  0.7818609E-02  0.8562237E-01
        2   -1    0    0  501    0  0.00000000000E+00  0.00000000000E+00  0.14522999970E+04  0.14522999970E+04  0.25500000920E-02 0. -1.
       -2   -1    0    0    0  501  0.00000000000E+00  0.00000000000E+00 -0.75751144926E+03  0.75751144926E+03  0.25500000920E-02 0.  1.
    10030    2    1    2    0    0  0.00000000000E+00  0.00000000000E+00  0.69478854775E+03  0.22098114463E+04  0.20977453377E+04 0.  0.
        1    1    3    3  502    0  0.75615872735E+03  0.51430434124E+03  0.88849746786E+03  0.12750344022E+04  0.50400001928E-02 0. -1.
       -1    1    3    3    0  502 -0.75615872735E+03 -0.51430434124E+03 -0.19370892011E+03  0.93477704407E+03  0.50400001928E-02 0.  1.
</event>
<event>
 5   0  0.4050368E-05  0.2120890E+04  0.7818609E-02  0.8552097E-01
        1   -1    0    0  501    0  0.00000000000E+00  0.00000000000E+00  0.32846464852E+03  0.32846464855E+03  0.50400001928E-02 0. -1.
       -1   -1    0    0    0  501  0.00000000000E+00  0.00000000000E+00 -0.34236364784E+04  0.34236364784E+04  0.50400001928E-02 0.  1.
    10030    2    1    2    0    0  0.00000000000E+00  0.00000000000E+00 -0.30951718299E+04  0.37521011270E+04  0.21208899572E+04 0.  0.
        2    1    3    3  502    0  0.63861468533E+03 -0.11213662153E+03 -0.30321056432E+04  0.31006560548E+04  0.25500000920E-02 0.  1.
       -2    1    3    3    0  502 -0.63861468533E+03  0.11213662153E+03 -0.63066186672E+02  0.65144507222E+03  0.25500000920E-02 0. -1.
</event>
<event>
 5   0  0.4182977E-05  0.2115605E+04  0.7818609E-02  0.8554400E-01
        1   -1    0    0  501    0  0.00000000000E+00  0.00000000000E+00  0.10197244830E+04  0.10197244830E+04  0.50400001928E-02 0.  1.
       -1   -1    0    0    0  501  0.00000000000E+00  0.00000000000E+00 -0.10973027580E+04  0.10973027580E+04  0.50400001928E-02 0. -1.
    10030    2    1    2    0    0  0.00000000000E+00  0.00000000000E+00 -0.77578274990E+02  0.21170272410E+04  0.21156053390E+04 0.  0.
        1    1    3    3  502    0 -0.26039383201E+03 -0.38172366969E+03  0.91339050369E+03  0.10236210822E+04  0.50400001928E-02 0.  1.
       -1    1    3    3    0  502  0.26039383201E+03  0.38172366969E+03 -0.99096877868E+03  0.10934061588E+04  0.50400001928E-02 0. -1.
</event>
<event>
 5   0  0.9086985E-05  0.2103446E+04  0.7818609E-02  0.8559727E-01
       -2   -1    0    0    0  501  0.00000000000E+00  0.00000000000E+00  0.12836980558E+04  0.12836980558E+04  0.25500000920E-02 0. -1.
        2   -1    0    0  501    0  0.00000000000E+00  0.00000000000E+00 -0.86166758706E+03  0.86166758707E+03  0.25500000920E-02 0.  1.
    10030    2    1    2    0    0  0.00000000000E+00  0.00000000000E+00  0.42203046876E+03  0.21453656429E+04  0.21034457505E+04 0.  0.
        5    1    3    3  502    0 -0.65846746750E+03  0.46994128462E+02 -0.62402653357E+03  0.90841568594E+03  0.46999998093E+01 0.  1.
       -5    1    3    3    0  502  0.65846746750E+03 -0.46994128462E+02  0.10460570023E+04  0.12369499569E+04  0.46999998093E+01 0. -1.
</event>
<event>
 5   0  0.4174093E-05  0.2090378E+04  0.7818609E-02  0.8565494E-01
       -1   -1    0    0    0  501  0.00000000000E+00  0.00000000000E+00  0.86454372302E+03  0.86454372303E+03  0.50400001928E-02 0.  1.
        1   -1    0    0  501    0  0.00000000000E+00  0.00000000000E+00 -0.12635800571E+04  0.12635800571E+04  0.50400001928E-02 0. -1.
    10030    2    1    2    0    0  0.00000000000E+00  0.00000000000E+00 -0.39903633408E+03  0.21281237801E+04  0.20903781542E+04 0.  0.
        3    1    3    3  502    0 -0.78584879224E+03 -0.33302362072E+03  0.41466392401E+03  0.94889896000E+03  0.10100000352E+00 0.  1.
       -3    1    3    3    0  502  0.78584879224E+03  0.33302362072E+03 -0.81370025809E+03  0.11792248201E+04  0.10100000352E+00 0. -1.
</event>
<event>
 5   0  0.4200061E-05  0.2119268E+04  0.7818609E-02  0.8552803E-01
       -1   -1    0    0    0  501  0.00000000000E+00  0.00000000000E+00  0.66288584510E+03  0.66288584512E+03  0.50400001928E-02 0. -1.
        1   -1    0    0  501    0  0.00000000000E+00  0.00000000000E+00 -0.16938425087E+04  0.16938425087E+04  0.50400001928E-02 0.  1.
    10030    2    1    2    0    0  0.00000000000E+00  0.00000000000E+00 -0.10309566636E+04  0.23567283538E+04  0.21192680084E+04 0.  0.
        4    1    3    3  502    0 -0.41224833515E+03 -0.95946058658E+03 -0.71536666142E+03  0.12658058225E+04  0.12699999809E+01 0.  1.
       -4    1    3    3    0  502  0.41224833515E+03  0.95946058658E+03 -0.31559000218E+03  0.10909225314E+04  0.12699999809E+01 0. -1.
</event>
<event>
 5   0  0.8872777E-05  0.2114108E+04  0.7818609E-02  0.8555054E-01
        2   -1    0    0  501    0  0.00000000000E+00  0.00000000000E+00  0.26662962100E+04  0.26662962100E+04  0.25500000920E-02 0.  1.
       -2   -1    0    0    0  501  0.00000000000E+00  0.00000000000E+00 -0.41906922065E+03  0.41906922065E+03  0.25500000920E-02 0. -1.
    10030    2    1    2    0    0  0.00000000000E+00  0.00000000000E+00  0.22472269894E+04  0.30853654307E+04  0.21141075420E+04 0.  0.
        3    1    3    3  502    0  0.42665811724E+03 -0.78699593886E+03  0.30326651272E+03  0.94518270442E+03  0.10100000352E+00 0. -1.
       -3    1    3    3    0  502 -0.42665811724E+03  0.78699593886E+03  0.19439604767E+04  0.21401827263E+04  0.10100000352E+00 0.  1.
</event>
<event>
 5   0  0.4128678E-05  0.2052403E+04  0.7818609E-02  0.8582505E-01
       -1   -1    0    0    0  501  0.00000000000E+00  0.00000000000E+00  0.44006529691E+03  0.44006529694E+03  0.50400001928E-02 0. -1.
        1   -1    0    0  501    0  0.00000000000E+00  0.00000000000E+00 -0.23930291897E+04  0.23930291897E+04  0.50400001928E-02 0.  1.
    10030    2    1    2    0    0  0.00000000000E+00  0.00000000000E+00 -0.19529638928E+04  0.28330944866E+04  0.20524025930E+04 0.  0.
        5    1    3    3  502    0  0.85468238903E+03  0.21731069873E+02 -0.19304781921E+03  0.87649516600E+03  0.46999998093E+01 0.  1.
       -5    1    3    3    0  502 -0.85468238903E+03 -0.21731069873E+02 -0.17599160736E+04  0.19565993206E+04  0.46999998093E+01 0. -1.
</event>
<event>
 5   0  0.9086985E-05  0.2172708E+04  0.7818609E-02  0.8529874E-01
       -2   -1    0    0    0  501  0.00000000000E+00  0.00000000000E+00  0.91905131157E+03  0.91905131157E+03  0.25500000920E-02 0.  1.
        2   -1    0    0  501    0  0.00000000000E+00  0.00000000000E+00 -0.12841123260E+04  0.12841123260E+04  0.25500000920E-02 0. -1.
    10030    2    1    2    0    0  0.00000000000E+00  0.00000000000E+00 -0.36506101440E+03  0.22031636375E+04  0.21727080958E+04 0.  0.
        5    1    3    3  502    0 -0.60148810345E+03  0.82673194493E+03  0.18986295948E+03  0.10398767623E+04  0.46999998093E+01 0.  1.
       -5    1    3    3    0  502  0.60148810345E+03 -0.82673194493E+03 -0.55492397388E+03  0.11632868753E+04  0.46999998093E+01 0. -1.
</event>
<event>
 5   0  0.8547605E-05  0.2072656E+04  0.7818609E-02  0.8573385E-01
       -2   -1    0    0    0  501  0.00000000000E+00  0.00000000000E+00  0.23937657923E+04  0.23937657923E+04  0.25500000920E-02 0.  1.
        2   -1    0    0  501    0  0.00000000000E+00  0.00000000000E+00 -0.44865528899E+03  0.44865528900E+03  0.25500000920E-02 0. -1.
    10030    2    1    2    0    0  0.00000000000E+00  0.00000000000E+00  0.19451105033E+04  0.28424210813E+04  0.20726559612E+04 0.  0.
        4    1    3    3  502    0 -0.94371734237E+03  0.16134059417E+03  0.42857647425E+03  0.10489578718E+04  0.12699999809E+01 0. -1.
       -4    1    3    3    0  502  0.94371734237E+03 -0.16134059417E+03  0.15165340291E+04  0.17934632095E+04  0.12699999809E+01 0.  1.
</event>
<event>
 5   0  0.8858590E-05  0.2214981E+04  0.7818609E-02  0.8512218E-01
        2   -1    0    0  501    0  0.00000000000E+00  0.00000000000E+00  0.22199907621E+04  0.22199907621E+04  0.25500000920E-02 0.  1.
       -2   -1    0    0    0  501  0.00000000000E+00  0.00000000000E+00 -0.55249560742E+03  0.55249560742E+03  0.25500000920E-02 0. -1.
    10030    2    1    2    0    0  0.00000000000E+00  0.00000000000E+00  0.16674951547E+04  0.27724863695E+04  0.22149809431E+04 0.  0.
        1    1    3    3  502    0  0.11535770476E+03  0.30616645875E+03 -0.49062294172E+03  0.58970854791E+03  0.50400001928E-02 0. -1.
       -1    1    3    3    0  502 -0.11535770476E+03 -0.30616645875E+03  0.21581180964E+04  0.21827778216E+04  0.50400001928E-02 0.  1.
</event>
<event>
 5   0  0.8858590E-05  0.2094957E+04  0.7818609E-02  0.8563468E-01
        2   -1    0    0  501    0  0.00000000000E+00  0.00000000000E+00  0.18145475779E+04  0.18145475779E+04  0.25500000920E-02 0.  1.
       -2   -1    0    0    0  501  0.00000000000E+00  0.00000000000E+00 -0.60467476779E+03  0.60467476780E+03  0.25500000920E-02 0. -1.
    10030    2    1    2    0    0  0.00000000000E+00  0.00000000000E+00  0.12098728101E+04  0.24192223457E+04  0.20949569307E+04 0.  0.
        1    1    3    3  502    0 -0.25083295911E+03 -0.11608196292E+02 -0.56940504113E+03  0.62231344553E+03  0.50400001928E-02 0. -1.
       -1    1    3    3    0  502  0.25083295911E+03  0.11608196292E+02  0.17792778512E+04  0.17969089002E+04  0.50400001928E-02 0.  1.
</event>
<event>
 5   0  0.4050368E-05  0.2085873E+04  0.7818609E-02  0.8567492E-01
       -1   -1    0    0    0  501  0.00000000000E+00  0.00000000000E+00  0.43453742928E+03  0.43453742931E+03  0.50400001928E-02 0.  1.
        1   -1    0    0  501    0  0.00000000000E+00  0.00000000000E+00 -0.25031595425E+04  0.25031595425E+04  0.50400001928E-02 0. -1.
    10030    2    1    2    0    0  0.00000000000E+00  0.00000000000E+00 -0.20686221132E+04  0.29376969718E+04  0.20858729709E+04 0.  0.
        2    1    3    3  502    0  0.64210178750E+03  0.16518701846E+03  0.99529259351E+02  0.67043831189E+03  0.25500000920E-02 0.  1.
       -2    1    3    3    0  502 -0.64210178750E+03 -0.16518701846E+03 -0.21681513726E+04  0.22672586599E+04  0.25500000920E-02 0. -1.
</event>
<event>
 5   0  0.8858590E-05  0.2110163E+04  0.7818609E-02  0.8556779E-01
       -2   -1    0    0    0  501  0.00000000000E+00  0.00000000000E+00  0.57222287874E+03  0.57222287874E+03  0.25500000920E-02 0.  1.
        2   -1    0    0  501    0  0.00000000000E+00  0.00000000000E+00 -0.19453914164E+04  0.19453914164E+04  0.25500000920E-02 0. -1.
    10030    2    1    2    0    0  0.00000000000E+00  0.00000000000E+00 -0.13731685377E+04  0.25176142951E+04  0.21101634786E+04 0.  0.
        1    1    3    3  502    0  0.23781696465E+03  0.94573574838E+03 -0.20604236460E+03  0.99670781600E+03  0.50400001928E-02 0. -1.
       -1    1    3    3    0  502 -0.23781696465E+03 -0.94573574838E+03 -0.11671261731E+04  0.15209064791E+04  0.50400001928E-02 0.  1.
</event>
<event>
 5   0  0.4128678E-05  0.2093297E+04  0.7818609E-02  0.8564202E-01
       -1   -1    0    0    0  501  0.00000000000E+00  0.00000000000E+00  0.17392973451E+04  0.17392973452E+04  0.50400001928E-02 0. -1.
        1   -1    0    0  501    0  0.00000000000E+00  0.00000000000E+00 -0.62983659537E+03  0.62983659539E+03  0.50400001928E-02 0.  1.
    10030    2    1    2    0    0  0.00000000000E+00  0.00000000000E+00  0.11094607498E+04  0.23691339405E+04  0.20932970341E+04 0.  0.
        5    1    3    3  502    0 -0.41777838974E+03 -0.71386714804E+02  0.16378163021E+04  0.16917739729E+04  0.46999998093E+01 0. -1.
       -5    1    3    3    0  502  0.41777838974E+03  0.71386714804E+02 -0.52835555237E+03  0.67735996760E+03  0.46999998093E+01 0.  1.
</event>
<event>
 5   0  0.4174093E-05  0.2069359E+04  0.7818609E-02  0.8574863E-01
       -1   -1    0    0    0  501  0.00000000000E+00  0.00000000000E+00  0.11754702398E+04  0.11754702398E+04  0.50400001928E-02 0.  1.
        1   -1    0    0  501    0  0.00000000000E+00  0.00000000000E+00 -0.91075148200E+03  0.91075148201E+03  0.50400001928E-02 0. -1.
    10030    2    1    2    0    0  0.00000000000E+00  0.00000000000E+00  0.26471875775E+03  0.20862217218E+04  0.20693586088E+04 0.  0.
        3    1    3    3  502    0  0.69878937775E+03  0.74762486268E+03  0.28628534621E+03  0.10626423855E+04  0.10100000352E+00 0.  1.
       -3    1    3    3    0  502 -0.69878937775E+03 -0.74762486268E+03 -0.21566588459E+02  0.10235793363E+04  0.10100000352E+00 0. -1.
</event>
<event>
 5   0  0.8547605E-05  0.2090487E+04  0.7818609E-02  0.8565446E-01
       -2   -1    0    0    0  501  0.00000000000E+00  0.00000000000E+00  0.74411111727E+03  0.74411111727E+03  0.25500000920E-02 0.  1.
        2   -1    0    0  501    0  0.00000000000E+00  0.00000000000E+00 -0.14682402803E+04  0.14682402803E+04  0.25500000920E-02 0. -1.
    10030    2    1    2    0    0  0.00000000000E+00  0.00000000000E+00 -0.72412916307E+03  0.22123513976E+04  0.20904869437E+04 0.  0.
        4    1    3    3  502    0 -0.32381655625E+03  0.67355779122E+03  0.41128394439E+03  0.85304944525E+03  0.12699999809E+01 0.  1.
       -4    1    3    3    0  502  0.32381655625E+03 -0.67355779122E+03 -0.11354131075E+04  0.13593019524E+04  0.12699999809E+01 0. -1.
</event>
<event>
 5   0  0.4200061E-05  0.2083471E+04  0.7818609E-02  0.8568560E-01
        1   -1    0    0  501    0  0.00000000000E+00  0.00000000000E+00  0.18068744464E+04  0.18068744464E+04  0.50400001928E-02 0.  1.
       -1   -1    0    0    0  501  0.00000000000E+00  0.00000000000E+00 -0.60060205556E+03  0.60060205558E+03  0.50400001928E-02 0. -1.
    10030    2    1    2    0    0  0.00000000000E+00  0.00000000000E+00  0.12062723908E+04  0.24074765020E+04  0.20834706686E+04 0.  0.
        4    1    3    3  502    0  0.69772750012E+03 -0.63802648867E+03  0.97727331911E+02  0.95050181955E+03  0.12699999809E+01 0. -1.
       -4    1    3    3    0  502 -0.69772750012E+03  0.63802648867E+03  0.11085450589E+04  0.14569746824E+04  0.12699999809E+01 0.  1.
</event>
<event>
 5   0  0.8872777E-05  0.2103554E+04  0.7818609E-02  0.8559679E-01
       -2   -1    0    0    0  501  0.00000000000E+00  0.00000000000E+00  0.48969626164E+03  0.48969626165E+03  0.25500000920E-02 0.  1.
        2   -1    0    0  501    0  0.00000000000E+00  0.00000000000E+00 -0.22590230144E+04  0.22590230144E+04  0.25500000920E-02 0. -1.
    10030    2    1    2    0    0  0.00000000000E+00  0.00000000000E+00 -0.17693267528E+04  0.27487192761E+04  0.21035542543E+04 0.  0.
        3    1    3    3  502    0 -0.56330670235E+03  0.22775734643E+03 -0.20064863766E+04  0.20964673714E+04  0.10100000352E+00 0. -1.
       -3    1    3    3    0  502  0.56330670235E+03 -0.22775734643E+03  0.23715962381E+03  0.65225190466E+03  0.10100000352E+00 0.  1.
</event>
<event>
 5   0  0.8872777E-05  0.2094146E+04  0.7818609E-02  0.8563827E-01
       -2   -1    0    0    0  501  0.00000000000E+00  0.00000000000E+00  0.66070573201E+03  0.66070573201E+03  0.25500000920E-02 0.  1.
        2   -1    0    0  501    0  0.00000000000E+00  0.00000000000E+00 -0.16593793158E+04  0.16593793158E+04  0.25500000920E-02 0. -1.
    10030    2    1    2    0    0  0.00000000000E+00  0.00000000000E+00 -0.99867358380E+03  0.23200850478E+04  0.20941455781E+04 0.  0.
        3    1    3    3  502    0 -0.43289150875E+03  0.44730029464E+03 -0.14321315450E+04  0.15615612010E+04  0.10100000352E+00 0. -1.
       -3    1    3    3    0  502  0.43289150875E+03 -0.44730029464E+03  0.43345796120E+03  0.75852384687E+03  0.10100000352E+00 0.  1.
</event>
<event>
 5   0  0.8872777E-05  0.2066613E+04  0.7818609E-02  0.8576095E-01
       -2   -1    0    0    0  501  0.00000000000E+00  0.00000000000E+00  0.54042588994E+03  0.54042588995E+03  0.25500000920E-02 0. -1.
        2   -1    0    0  501    0  0.00000000000E+00  0.00000000000E+00 -0.19757052352E+04  0.19757052352E+04  0.25500000920E-02 0.  1.
    10030    2    1    2    0    0  0.00000000000E+00  0.00000000000E+00 -0.14352793452E+04  0.25161311251E+04  0.20666129391E+04 0.  0.
        3    1    3    3  502    0 -0.10921274239E+03 -0.49371604203E+03  0.37950184320E+03  0.63222196454E+03  0.10100000352E+00 0. -1.
       -3    1    3    3    0  502  0.10921274239E+03  0.49371604203E+03 -0.18147811884E+04  0.18839091606E+04  0.10100000352E+00 0.  1.
</event>
<event>
 5   0  0.4050368E-05  0.2246088E+04  0.7818609E-02  0.8499486E-01
        1   -1    0    0  501    0  0.00000000000E+00  0.00000000000E+00  0.14380283397E+04  0.14380283397E+04  0.50400001928E-02 0. -1.
       -1   -1    0    0    0  501  0.00000000000E+00  0.00000000000E+00 -0.87705382675E+03  0.87705382676E+03  0.50400001928E-02 0.  1.
    10030    2    1    2    0    0  0.00000000000E+00  0.00000000000E+00  0.56097451294E+03  0.23150821665E+04  0.22460883850E+04 0.  0.
        2    1    3    3  502    0  0.93209921212E+03 -0.40539799484E+03  0.77272549305E+03  0.12768168087E+04  0.25500000920E-02 0. -1.
       -2    1    3    3    0  502 -0.93209921212E+03  0.40539799484E+03 -0.21175098011E+03  0.10382653577E+04  0.25500000920E-02 0.  1.
</event>
<event>
 5   0  0.9086985E-05  0.2098195E+04  0.7818609E-02  0.8562039E-01
        2   -1    0    0  501    0  0.00000000000E+00  0.00000000000E+00  0.11006303791E+04  0.11006303791E+04  0.25500000920E-02 0. -1.
       -2   -1    0    0    0  501  0.00000000000E+00  0.00000000000E+00 -0.99997705957E+03  0.99997705958E+03  0.25500000920E-02 0.  1.
    10030    2    1    2    0    0  0.00000000000E+00  0.00000000000E+00  0.10065331951E+03  0.21006074387E+04  0.20981945860E+04 0.  0.
        5    1    3    3  502    0  0.17203551827E+03  0.35728614031E+03 -0.92204378664E+03  0.10037113330E+04  0.46999998093E+01 0.  1.
       -5    1    3    3    0  502 -0.17203551827E+03 -0.35728614031E+03  0.10226971061E+04  0.10968961056E+04  0.46999998093E+01 0. -1.
</event>
<event>
 5   0  0.9086985E-05  0.1920487E+04  0.7818609E-02  0.8644725E-01
        2   -1    0    0  501    0  0.00000000000E+00  0.00000000000E+00  0.18981832998E+04  0.18981832998E+04  0.25500000920E-02 0.  1.
       -2   -1    0    0    0  501  0.00000000000E+00  0.00000000000E+00 -0.48576317562E+03  0.48576317562E+03  0.25500000920E-02 0. -1.
    10030    2    1    2    0    0  0.00000000000E+00  0.00000000000E+00  0.14124201242E+04  0.23839464754E+04  0.19204869670E+04 0.  0.
        5    1    3    3  502    0 -0.12581216298E+03 -0.94458429010E+03  0.85296624566E+03  0.12789220804E+04  0.46999998093E+01 0. -1.
       -5    1    3    3    0  502  0.12581216298E+03  0.94458429010E+03  0.55945387853E+03  0.11050243950E+04  0.46999998093E+01 0.  1.
</event>
<event>
 5   0  0.8547605E-05  0.2056467E+04  0.7818609E-02  0.8580666E-01
        2   -1    0    0  501    0  0.00000000000E+00  0.00000000000E+00  0.11017075863E+04  0.11017075863E+04  0.25500000920E-02 0. -1.
       -2   -1    0    0    0  501  0.00000000000E+00  0.00000000000E+00 -0.95965972182E+03  0.95965972182E+03  0.25500000920E-02 0.  1.
    10030    2    1    2    0    0  0.00000000000E+00  0.00000000000E+00  0.14204786449E+03  0.20613673081E+04  0.20564672580E+04 0.  0.
        4    1    3    3  502    0  0.86579662651E+03 -0.44504625616E+03 -0.26081292734E+03  0.10078169301E+04  0.12699999809E+01 0.  1.
       -4    1    3    3    0  502 -0.86579662651E+03  0.44504625616E+03  0.40286079183E+03  0.10535503780E+04  0.12699999809E+01 0. -1.
</event>
<event>
 5   0  0.8547605E-05  0.2056372E+04  0.7818609E-02  0.8580709E-01
       -2   -1    0    0    0  501  0.00000000000E+00  0.00000000000E+00  0.98384102058E+03  0.98384102058E+03  0.25500000920E-02 0. -1.
        2   -1    0    0  501    0  0.00000000000E+00  0.00000000000E+00 -0.10745298380E+04  0.10745298380E+04  0.25500000920E-02 0.  1.
    10030    2    1    2    0    0  0.00000000000E+00  0.00000000000E+00 -0.90688817428E+02  0.20583708586E+04  0.20563720796E+04 0.  0.
        4    1    3    3  502    0 -0.30783883458E+03 -0.94000165985E+03  0.23563656173E+03  0.10168058176E+04  0.12699999809E+01 0. -1.
       -4    1    3    3    0  502  0.30783883458E+03  0.94000165985E+03 -0.32632537915E+03  0.10415650410E+04  0.12699999809E+01 0.  1.
</event>
<event>
 5   0  0.4050368E-05  0.2093942E+04  0.7818609E-02  0.8563917E-01
       -1   -1    0    0    0  501  0.00000000000E+00  0.00000000000E+00  0.91787219810E+03  0.91787219811E+03  0.50400001928E-02 0.  1.
        1   -1    0    0  501    0  0.00000000000E+00  0.00000000000E+00 -0.11942275323E+04  0.11942275324E+04  0.50400001928E-02 0. -1.
    10030    2    1    2    0    0  0.00000000000E+00  0.00000000000E+00 -0.27635533424E+03  0.21120997305E+04  0.20939419764E+04 0.  0.
        2    1    3    3  502    0  0.85003250066E+02  0.10071077569E+04 -0.41378074717E+03  0.10921108429E+04  0.25500000920E-02 0. -1.
       -2    1    3    3    0  502 -0.85003250066E+02 -0.10071077569E+04  0.13742541293E+03  0.10199888875E+04  0.25500000920E-02 0.  1.
</event>
<event>
 5   0  0.8872777E-05  0.2107824E+04  0.7818609E-02  0.8557805E-01
        2   -1    0    0  501    0  0.00000000000E+00  0.00000000000E+00  0.17065793491E+04  0.17065793491E+04  0.25500000920E-02 0. -1.
       -2   -1    0    0    0  501  0.00000000000E+00  0.00000000000E+00 -0.65085182651E+03  0.65085182651E+03  0.25500000920E-02 0.  1.
    10030    2    1    2    0    0  0.00000000000E+00  0.00000000000E+00  0.10557275226E+04  0.23574311756E+04  0.21078237938E+04 0.  0.
        3    1    3    3  502    0  0.43506700266E+03 -0.67667948221E+03 -0.23360814097E+03  0.83770591032E+03  0.10100000352E+00 0.  1.
       -3    1    3    3    0  502 -0.43506700266E+03  0.67667948221E+03  0.12893356635E+04  0.15197252653E+04  0.10100000352E+00 0. -1.
</event>
<event>
 5   0  0.4200061E-05  0.2093538E+04  0.7818609E-02  0.8564095E-01
       -1   -1    0    0    0  501  0.00000000000E+00  0.00000000000E+00  0.74796877812E+03  0.74796877814E+03  0.50400001928E-02 0. -1.
        1   -1    0    0  501    0  0.00000000000E+00  0.00000000000E+00 -0.14649351421E+04  0.14649351422E+04  0.50400001928E-02 0.  1.
    10030    2    1    2    0    0  0.00000000000E+00  0.00000000000E+00 -0.71696636402E+03  0.22129039203E+04  0.20935383907E+04 0.  0.
        4    1    3    3  502    0  0.50520235671E+03  0.16618094801E+03  0.59452027467E+03  0.79768508736E+03  0.12699999809E+01 0. -1.
       -4    1    3    3    0  502 -0.50520235671E+03 -0.16618094801E+03 -0.13114866387E+04  0.14152188329E+04  0.12699999809E+01 0.  1.
</event>
<event>
 5   0  0.8858590E-05  0.2080254E+04  0.7818609E-02  0.8569992E-01
        2   -1    0    0  501    0  0.00000000000E+00  0.00000000000E+00  0.10739554287E+04  0.10739554287E+04  0.25500000920E-02 0.  1.
       -2   -1    0    0    0  501  0.00000000000E+00  0.00000000000E+00 -0.10073644254E+04  0.10073644254E+04  0.25500000920E-02 0. -1.
    10030    2    1    2    0    0  0.00000000000E+00  0.00000000000E+00  0.66591003270E+02  0.20813198540E+04  0.20802543049E+04 0.  0.
        1    1    3    3  502    0  0.39624547073E+03 -0.49202914028E+03  0.86001248664E+03  0.10671104091E+04  0.50400001928E-02 0.  1.
       -1    1    3    3    0  502 -0.39624547073E+03  0.49202914028E+03 -0.79342148337E+03  0.10142094450E+04  0.50400001928E-02 0. -1.
</event>
<event>
 5   0  0.9012466E-05  0.2131920E+04  0.7818609E-02  0.8547311E-01
       -2   -1    0    0    0  501  0.00000000000E+00  0.00000000000E+00  0.88828920561E+03  0.88828920561E+03  0.25500000920E-02 0.  1.
        2   -1    0    0  501    0  0.00000000000E+00  0.00000000000E+00 -0.12791676557E+04  0.12791676557E+04  0.25500000920E-02 0. -1.
    10030    2    1    2    0    0  0.00000000000E+00  0.00000000000E+00 -0.39087845011E+03  0.21674568613E+04  0.21319200930E+04 0.  0.
        2    1    3    3  502    0  0.98080257314E+03 -0.25993228422E+03  0.13670565100E+03  0.10238295341E+04  0.25500000920E-02 0. -1.
       -2    1    3    3    0  502 -0.98080257314E+03  0.25993228422E+03 -0.52758410110E+03  0.11436273272E+04  0.25500000920E-02 0.  1.
</event>
<event>
 5   0  0.4200061E-05  0.2041752E+04  0.7818609E-02  0.8587345E-01
        1   -1    0    0  501    0  0.00000000000E+00  0.00000000000E+00  0.13001649294E+04  0.13001649294E+04  0.50400001928E-02 0.  1.
       -1   -1    0    0    0  501  0.00000000000E+00  0.00000000000E+00 -0.80158106621E+03  0.80158106622E+03  0.50400001928E-02 0. -1.
    10030    2    1    2    0    0  0.00000000000E+00  0.00000000000E+00  0.49858386319E+03  0.21017459956E+04  0.20417517874E+04 0.  0.
        4    1    3    3  502    0 -0.93138048312E+03  0.15607111957E+03  0.64844623189E+03  0.11455618391E+04  0.12699999809E+01 0.  1.
       -4    1    3    3    0  502  0.93138048312E+03 -0.15607111957E+03 -0.14986236870E+03  0.95618415651E+03  0.12699999809E+01 0. -1.
</event>
<event>
 5   0  0.4050368E-05  0.2086153E+04  0.7818609E-02  0.8567368E-01
       -1   -1    0    0    0  501  0.00000000000E+00  0.00000000000E+00  0.59537620046E+03  0.59537620048E+03  0.50400001928E-02 0.  1.
        1   -1    0    0  501    0  0.00000000000E+00  0.00000000000E+00 -0.18274301510E+04  0.18274301510E+04  0.50400001928E-02 0. -1.
    10030    2    1    2    0    0  0.00000000000E+00  0.00000000000E+00 -0.12320539505E+04  0.24228063515E+04  0.20861528419E+04 0.  0.
        2    1    3    3  502    0  0.42486601145E+03 -0.93966150086E+03 -0.43411854310E+03  0.11188984643E+04  0.25500000920E-02 0. -1.
       -2    1    3    3    0  502 -0.42486601145E+03  0.93966150086E+03 -0.79793540742E+03  0.13039078872E+04  0.25500000920E-02 0.  1.
</event>
<event>
 5   0  0.8547605E-05  0.2067804E+04  0.7818609E-02  0.8575560E-01
        2   -1    0    0  501    0  0.00000000000E+00  0.00000000000E+00  0.12277371800E+04  0.12277371800E+04  0.25500000920E-02 0.  1.
       -2   -1    0    0    0  501  0.00000000000E+00  0.00000000000E+00 -0.87066967101E+03  0.87066967102E+03  0.25500000920E-02 0. -1.
    10030    2    1    2    0    0  0.00000000000E+00  0.00000000000E+00  0.35706750903E+03  0.20984068511E+04  0.20678041751E+04 0.  0.
        4    1    3    3  502    0  0.95189827170E+03 -0.38015041196E+03  0.31591550280E+03  0.10725804740E+04  0.12699999809E+01 0. -1.
       -4    1    3    3    0  502 -0.95189827170E+03  0.38015041196E+03  0.41152006230E+02  0.10258263771E+04  0.12699999809E+01 0.  1.
</event>
<event>
 5   0  0.8547605E-05  0.2092890E+04  0.7818609E-02  0.8564382E-01
       -2   -1    0    0    0  501  0.00000000000E+00  0.00000000000E+00  0.98237946262E+03  0.98237946263E+03  0.25500000920E-02 0. -1.
        2   -1    0    0  501    0  0.00000000000E+00  0.00000000000E+00 -0.11146887013E+04  0.11146887013E+04  0.25500000920E-02 0.  1.
    10030    2    1    2    0    0  0.00000000000E+00  0.00000000000E+00 -0.13230923868E+03  0.20970681639E+04  0.20928901427E+04 0.  0.
        4    1    3    3  502    0  0.93541846656E+03 -0.46890636366E+03 -0.53291975165E+02  0.10477225458E+04  0.12699999809E+01 0.  1.
       -4    1    3    3    0  502 -0.93541846656E+03  0.46890636366E+03 -0.79017263516E+02  0.10493456181E+04  0.12699999809E+01 0. -1.
</event>
<event>
 5   0  0.4200061E-05  0.2117951E+04  0.7818609E-02  0.8553377E-01
        1   -1    0    0  501    0  0.00000000000E+00  0.00000000000E+00  0.98823432531E+03  0.98823432532E+03  0.50400001928E-02 0. -1.
       -1   -1    0    0    0  501  0.00000000000E+00  0.00000000000E+00 -0.11347805961E+04  0.11347805961E+04  0.50400001928E-02 0.  1.
    10030    2    1    2    0    0  0.00000000000E+00  0.00000000000E+00 -0.14654627078E+03  0.21230149214E+04  0.21179510257E+04 0.  0.
        4    1    3    3  502    0  0.53118036919E+03 -0.61981721524E+03  0.60295197688E+03  0.10148293769E+04  0.12699999809E+01 0. -1.
       -4    1    3    3    0  502 -0.53118036919E+03  0.61981721524E+03 -0.74949824766E+03  0.11081855445E+04  0.12699999809E+01 0.  1.
</event>
<event>
 5   0  0.4050368E-05  0.2098560E+04  0.7818609E-02  0.8561878E-01
        1   -1    0    0  501    0  0.00000000000E+00  0.00000000000E+00  0.11568415314E+04  0.11568415314E+04  0.50400001928E-02 0.  1.
       -1   -1    0    0    0  501  0.00000000000E+00  0.00000000000E+00 -0.95171984383E+03  0.95171984385E+03  0.50400001928E-02 0. -1.
    10030    2    1    2    0    0  0.00000000000E+00  0.00000000000E+00  0.20512168760E+03  0.21085613753E+04  0.20985604987E+04 0.  0.
        2    1    3    3  502    0 -0.41553730087E+03 -0.36194369007E+03 -0.79461918994E+03  0.96700265782E+03  0.25500000920E-02 0. -1.
       -2    1    3    3    0  502  0.41553730087E+03  0.36194369007E+03  0.99974087754E+03  0.11415587175E+04  0.25500000920E-02 0.  1.
</event>
<event>
 5   0  0.9086985E-05  0.2092613E+04  0.7818609E-02  0.8564504E-01
       -2   -1    0    0    0  501  0.00000000000E+00  0.00000000000E+00  0.72264436474E+03  0.72264436474E+03  0.25500000920E-02 0.  1.
        2   -1    0    0  501    0  0.00000000000E+00  0.00000000000E+00 -0.15149324117E+04  0.15149324117E+04  0.25500000920E-02 0. -1.
    10030    2    1    2    0    0  0.00000000000E+00  0.00000000000E+00 -0.79228804699E+03  0.22375767765E+04  0.20926130749E+04 0.  0.
        5    1    3    3  502    0 -0.22410059701E+03 -0.99750808080E+03 -0.63402284270E+03  0.12030172500E+04  0.46999998093E+01 0. -1.
       -5    1    3    3    0  502  0.22410059701E+03  0.99750808080E+03 -0.15826520429E+03  0.10345595264E+04  0.46999998093E+01 0.  1.
</event>
<event>
 5   0  0.9086985E-05  0.2082152E+04  0.7818609E-02  0.8569147E-01
        2   -1    0    0  501    0  0.00000000000E+00  0.00000000000E+00  0.66706273007E+03  0.66706273008E+03  0.25500000920E-02 0.  1.
       -2   -1    0    0    0  501  0.00000000000E+00  0.00000000000E+00 -0.16247937546E+04  0.16247937546E+04  0.25500000920E-02 0. -1.
    10030    2    1    2    0    0  0.00000000000E+00  0.00000000000E+00 -0.95773102449E+03  0.22918564846E+04  0.20821521152E+04 0.  0.
        5    1    3    3  502    0 -0.33364566970E+03  0.70338204500E+03  0.28194413199E+03  0.82799777639E+03  0.46999998093E+01 0.  1.
       -5    1    3    3    0  502  0.33364566970E+03 -0.70338204500E+03 -0.12396751565E+04  0.14638587083E+04  0.46999998093E+01 0. -1.
</event>
<event>
 5   0  0.4128678E-05  0.2173683E+04  0.7818609E-02  0.8529462E-01
       -1   -1    0    0    0  501  0.00000000000E+00  0.00000000000E+00  0.46200704478E+03  0.46200704481E+03  0.50400001928E-02 0. -1.
        1   -1    0    0  501    0  0.00000000000E+00  0.00000000000E+00 -0.25567237809E+04  0.25567237809E+04  0.50400001928E-02 0.  1.
    10030    2    1    2    0    0  0.00000000000E+00  0.00000000000E+00 -0.20947167361E+04  0.30187308257E+04  0.21736829561E+04 0.  0.
        5    1    3    3  502    0  0.28317148006E+02 -0.76568515352E+03  0.23094923675E+02  0.76657098868E+03  0.46999998093E+01 0. -1.
       -5    1    3    3    0  502 -0.28317148006E+02  0.76568515352E+03 -0.21178116598E+04  0.22521598370E+04  0.46999998093E+01 0.  1.
</event>
<event>
 5   0  0.9012466E-05  0.2108481E+04  0.7818609E-02  0.8557516E-01
       -2   -1    0    0    0  501  0.00000000000E+00  0.00000000000E+00  0.73187094630E+03  0.73187094631E+03  0.25500000920E-02 0. -1.
        2   -1    0    0  501    0  0.00000000000E+00  0.00000000000E+00 -0.15186055917E+04  0.15186055917E+04  0.25500000920E-02 0.  1.
    10030    2    1    2    0    0  0.00000000000E+00  0.00000000000E+00 -0.78673464540E+03  0.22504765380E+04  0.21084812652E+04 0.  0.
        2    1    3    3  502    0  0.36157472098E+03  0.28465430814E+03 -0.14057476501E+04  0.14791520577E+04  0.25500000920E-02 0.  1.
       -2    1    3    3    0  502 -0.36157472098E+03 -0.28465430814E+03  0.61901300469E+03  0.77132448034E+03  0.25500000920E-02 0. -1.
</event>
<event>
 5   0  0.4200061E-05  0.2082627E+04  0.7818609E-02  0.8568935E-01
        1   -1    0    0  501    0  0.00000000000E+00  0.00000000000E+00  0.13964695087E+04  0.13964695087E+04  0.50400001928E-02 0.  1.
       -1   -1    0    0    0  501  0.00000000000E+00  0.00000000000E+00 -0.77648244938E+03  0.77648244940E+03  0.50400001928E-02 0. -1.
    10030    2    1    2    0    0  0.00000000000E+00  0.00000000000E+00  0.61998705935E+03  0.21729519581E+04  0.20826272491E+04 0.  0.
        4    1    3    3  502    0 -0.66291682356E+03  0.80028121452E+03  0.37938915971E+03  0.11062759532E+04  0.12699999809E+01 0.  1.
       -4    1    3    3    0  502  0.66291682356E+03 -0.80028121452E+03  0.24059789964E+03  0.10666760049E+04  0.12699999809E+01 0. -1.
</event>
<event>
 5   0  0.8872777E-05  0.2094424E+04  0.7818609E-02  0.8563704E-01
       -2   -1    0    0    0  501  0.00000000000E+00  0.00000000000E+00  0.71049967024E+03  0.71049967024E+03  0.25500000920E-02 0.  1.
        2   -1    0    0  501    0  0.00000000000E+00  0.00000000000E+00 -0.15434953688E+04  0.15434953688E+04  0.25500000920E-02 0. -1.
    10030    2    1    2    0    0  0.00000000000E+00  0.00000000000E+00 -0.83299569852E+03  0.22539950390E+04  0.20944239786E+04 0.  0.
        3    1    3    3  502    0 -0.45382587692E+03 -0.47884271882E+03 -0.12917274174E+04  0.14504509668E+04  0.10100000352E+00 0. -1.
       -3    1    3    3    0  502  0.45382587692E+03  0.47884271882E+03  0.45873171888E+03  0.80354407224E+03  0.10100000352E+00 0.  1.
</event>
<event>
 5   0  0.9086985E-05  0.1973163E+04  0.7818609E-02  0.8619271E-01
        2   -1    0    0  501    0  0.00000000000E+00  0.00000000000E+00  0.14565774302E+04  0.14565774302E+04  0.25500000920E-02 0.  1.
       -2   -1    0    0    0  501  0.00000000000E+00  0.00000000000E+00 -0.66824015144E+03  0.66824015145E+03  0.25500000920E-02 0. -1.
    10030    2    1    2    0    0  0.00000000000E+00  0.00000000000E+00  0.78833727872E+03  0.21248175816E+04  0.19731634727E+04 0.  0.
        5    1    3    3  502    0 -0.60125738486E+03  0.53650992016E+03 -0.21875970484E+03  0.83500373397E+03  0.46999998093E+01 0. -1.
       -5    1    3    3    0  502  0.60125738486E+03 -0.53650992016E+03  0.10070969836E+04  0.12898138476E+04  0.46999998093E+01 0.  1.
</event>
<event>
 5   0  0.9012466E-05  0.2110047E+04  0.7818609E-02  0.8556830E-01
        2   -1    0    0  501    0  0.00000000000E+00  0.00000000000E+00  0.14239495589E+04  0.14239495589E+04  0.25500000920E-02 0.  1.
       -2   -1    0    0    0  501  0.00000000000E+00  0.00000000000E+00 -0.78168114554E+03  0.78168114554E+03  0.25500000920E-02 0. -1.
    10030    2    1    2    0    0  0.00000000000E+00  0.00000000000E+00  0.64226841336E+03  0.22056307044E+04  0.21100469401E+04 0.  0.
        2    1    3    3  502    0  0.14402119467E+01 -0.32939242612E+03 -0.72655253911E+03  0.79773431460E+03  0.25500000920E-02 0. -1.
       -2    1    3    3    0  502 -0.14402119467E+01  0.32939242612E+03  0.13688209525E+04  0.14078963898E+04  0.25500000920E-02 0.  1.
</event>
<event>
 5   0  0.4174093E-05  0.2060777E+04  0.7818609E-02  0.8578721E-01
       -1   -1    0    0    0  501  0.00000000000E+00  0.00000000000E+00  0.12023286368E+04  0.12023286368E+04  0.50400001928E-02 0. -1.
        1   -1    0    0  501    0  0.00000000000E+00  0.00000000000E+00 -0.88303640082E+03  0.88303640084E+03  0.50400001928E-02 0.  1.
    10030    2    1    2    0    0  0.00000000000E+00  0.00000000000E+00  0.31929223599E+03  0.20853650377E+04  0.20607765062E+04 0.  0.
        3    1    3    3  502    0 -0.47026163300E+03  0.82535223754E+03 -0.24430051028E+03  0.98083386412E+03  0.10100000352E+00 0.  1.
       -3    1    3    3    0  502  0.47026163300E+03 -0.82535223754E+03  0.56359274626E+03  0.11045311735E+04  0.10100000352E+00 0. -1.
</event>
<event>
 5   0  0.9012466E-05  0.2100157E+04  0.7818609E-02  0.8561174E-01
       -2   -1    0    0    0  501  0.00000000000E+00  0.00000000000E+00  0.89630486444E+03  0.89630486445E+03  0.25500000920E-02 0.  1.
        2   -1    0    0  501    0  0.00000000000E+00  0.00000000000E+00 -0.12302344025E+04  0.12302344025E+04  0.25500000920E-02 0. -1.
    10030    2    1    2    0    0  0.00000000000E+00  0.00000000000E+00 -0.33392953805E+03  0.21265392669E+04  0.21001572126E+04 0.  0.
        2    1    3    3  502    0 -0.10461725164E+04  0.90465151961E+02 -0.16488923895E+03  0.10629437139E+04  0.25500000920E-02 0. -1.
       -2    1    3    3    0  502  0.10461725164E+04 -0.90465151961E+02 -0.16904029910E+03  0.10635955531E+04  0.25500000920E-02 0.  1.
</event>
<event>
 5   0  0.4128678E-05  0.2064607E+04  0.7818609E-02  0.8576997E-01
       -1   -1    0    0    0  501  0.00000000000E+00  0.00000000000E+00  0.18821870090E+04  0.18821870090E+04  0.50400001928E-02 0. -1.
        1   -1    0    0  501    0  0.00000000000E+00  0.00000000000E+00 -0.56617663559E+03  0.56617663562E+03  0.50400001928E-02 0.  1.
    10030    2    1    2    0    0  0.00000000000E+00  0.00000000000E+00  0.13160103734E+04  0.24483636446E+04  0.20646067988E+04 0.  0.
        5    1    3    3  502    0  0.83795995011E+03 -0.98251070133E+02  0.13633740700E+04  0.16033218939E+04  0.46999998093E+01 0. -1.
       -5    1    3    3    0  502 -0.83795995011E+03  0.98251070133E+02 -0.47363696533E+02  0.84504175076E+03  0.46999998093E+01 0.  1.
</event>
<event>
 5   0  0.4200061E-05  0.2135686E+04  0.7818609E-02  0.8545684E-01
        1   -1    0    0  501    0  0.00000000000E+00  0.00000000000E+00  0.19181567861E+04  0.19181567861E+04  0.50400001928E-02 0.  1.
       -1   -1    0    0    0  501  0.00000000000E+00  0.00000000000E+00 -0.59447122709E+03  0.59447122711E+03  0.50400001928E-02 0. -1.
    10030    2    1    2    0    0  0.00000000000E+00  0.00000000000E+00  0.13236855590E+04  0.25126280132E+04  0.21356863238E+04 0.  0.
        4    1    3    3  502    0 -0.32322152602E+03 -0.40128763172E+03  0.17622185503E+04  0.18360064679E+04  0.12699999809E+01 0.  1.
       -4    1    3    3    0  502  0.32322152602E+03  0.40128763172E+03 -0.43853299128E+03  0.67662154533E+03  0.12699999809E+01 0. -1.
</event>
<event>
 5   0  0.8872777E-05  0.2083032E+04  0.7818609E-02  0.8568755E-01
       -2   -1    0    0    0  501  0.00000000000E+00  0.00000000000E+00  0.42099184505E+03  0.42099184506E+03  0.25500000920E-02 0. -1.
        2   -1    0    0  501    0  0.00000000000E+00  0.00000000000E+00 -0.25766667400E+04  0.25766667400E+04  0.25500000920E-02 0.  1.
    10030    2    1    2    0    0  0.00000000000E+00  0.00000000000E+00 -0.21556748949E+04  0.29976585850E+04  0.20830321024E+04 0.  0.
        3    1    3    3  502    0 -0.13149327083E+03  0.57633721005E+03  0.15617252474E+03  0.61142859570E+03  0.10100000352E+00 0. -1.
       -3    1    3    3    0  502  0.13149327083E+03 -0.57633721005E+03 -0.23118474197E+04  0.23862299893E+04  0.10100000352E+00 0.  1.
</event>
<event>
 5   0  0.4174093E-05  0.2113190E+04  0.7818609E-02  0.8555455E-01
        1   -1    0    0  501    0  0.00000000000E+00  0.00000000000E+00  0.21401325867E+04  0.21401325867E+04  0.50400001928E-02 0.  1.
       -1   -1    0    0    0  501  0.00000000000E+00  0.00000000000E+00 -0.52164670300E+03  0.52164670302E+03  0.50400001928E-02 0. -1.
    10030    2    1    2    0    0  0.00000000000E+00  0.00000000000E+00  0.16184858837E+04  0.26617792898E+04  0.21131901078E+04 0.  0.
        3    1    3    3  502    0 -0.46872764782E+03 -0.65971812228E+03  0.16649010363E+04  0.18511696517E+04  0.10100000352E+00 0.  1.
       -3    1    3    3    0  502  0.46872764782E+03  0.65971812228E+03 -0.46415152536E+02  0.81060963804E+03  0.10100000352E+00 0. -1.
</event>
<event>
 5   0  0.4050368E-05  0.2092364E+04  0.7818609E-02  0.8564614E-01
        1   -1    0    0  501    0  0.00000000000E+00  0.00000000000E+00  0.12222274530E+04  0.12222274530E+04  0.50400001928E-02 0.  1.
       -1   -1    0    0    0  501  0.00000000000E+00  0.00000000000E+00 -0.89549389241E+03  0.89549389242E+03  0.50400001928E-02 0. -1.
    10030    2    1    2    0    0  0.00000000000E+00  0.00000000000E+00  0.32673356060E+03  0.21177213454E+04  0.20923644227E+04 0.  0.
        2    1    3    3  502    0  0.97069226242E+03  0.38932390885E+03  0.13696143713E+03  0.10547867128E+04  0.25500000920E-02 0.  1.
       -2    1    3    3    0  502 -0.97069226242E+03 -0.38932390885E+03  0.18977212347E+03  0.10629346326E+04  0.25500000920E-02 0. -1.
</event>
<event>
 5   0  0.4050368E-05  0.2088559E+04  0.7818609E-02  0.8566300E-01
        1   -1    0    0  501    0  0.00000000000E+00  0.00000000000E+00  0.10786315116E+04  0.10786315117E+04  0.50400001928E-02 0. -1.
       -1   -1    0    0    0  501  0.00000000000E+00  0.00000000000E+00 -0.10110212254E+04  0.10110212254E+04  0.50400001928E-02 0.  1.
    10030    2    1    2    0    0  0.00000000000E+00  0.00000000000E+00  0.67610286269E+02  0.20896527371E+04  0.20885586922E+04 0.  0.
        2    1    3    3  502    0 -0.97177603598E+03  0.27953693549E+03 -0.22715669449E+03  0.10363830017E+04  0.25500000920E-02 0. -1.
       -2    1    3    3    0  502  0.97177603598E+03 -0.27953693549E+03  0.29476698076E+03  0.10532697353E+04  0.25500000920E-02 0.  1.
</event>
<event>
 5   0  0.8547605E-05  0.2153016E+04  0.7818609E-02  0.8538242E-01
       -2   -1    0    0    0  501  0.00000000000E+00  0.00000000000E+00  0.72264845835E+03  0.72264845835E+03  0.25500000920E-02 0. -1.
        2   -1    0    0  501    0  0.00000000000E+00  0.00000000000E+00 -0.16036425425E+04  0.16036425425E+04  0.25500000920E-02 0.  1.
    10030    2    1    2    0    0  0.00000000000E+00  0.00000000000E+00 -0.88099408412E+03  0.23262910008E+04  0.21530163130E+04 0.  0.
        4    1    3    3  502    0  0.63335881447E+02 -0.86008728613E+03  0.25564289927E+03  0.89950902079E+03  0.12699999809E+01 0. -1.
       -4    1    3    3    0  502 -0.63335881447E+02  0.86008728613E+03 -0.11366369834E+04  0.14267819800E+04  0.12699999809E+01 0.  1.
</event>
<event>
 5   0  0.4200061E-05  0.2091057E+04  0.7818609E-02  0.8565193E-01
        1   -1    0    0  501    0  0.00000000000E+00  0.00000000000E+00  0.13340916913E+04  0.13340916913E+04  0.50400001928E-02 0.  1.
       -1   -1    0    0    0  501  0.00000000000E+00  0.00000000000E+00 -0.81938127805E+03  0.81938127807E+03  0.50400001928E-02 0. -1.
    10030    2    1    2    0    0  0.00000000000E+00  0.00000000000E+00  0.51471041322E+03  0.21534729693E+04  0.20910569146E+04 0.  0.
        4    1    3    3  502    0 -0.45423010111E+03 -0.28346155756E+03  0.11821875766E+04  0.12977844653E+04  0.12699999809E+01 0.  1.
       -4    1    3    3    0  502  0.45423010111E+03  0.28346155756E+03 -0.66747716337E+03  0.85568850400E+03  0.12699999809E+01 0. -1.
</event>
<event>
 5   0  0.4182977E-05  0.2112056E+04  0.7818609E-02  0.8555951E-01
        1   -1    0    0  501    0  0.00000000000E+00  0.00000000000E+00  0.72801446862E+03  0.72801446864E+03  0.50400001928E-02 0. -1.
       -1   -1    0    0    0  501  0.00000000000E+00  0.00000000000E+00 -0.15318309873E+04  0.15318309873E+04  0.50400001928E-02 0.  1.
    10030    2    1    2    0    0  0.00000000000E+00  0.00000000000E+00 -0.80381651865E+03  0.22598454559E+04  0.21120559862E+04 0.  0.
        1    1    3    3  502    0 -0.22177158483E+02  0.62599145233E+03  0.50778253704E+03  0.80634994245E+03  0.50400001928E-02 0. -1.
       -1    1    3    3    0  502  0.22177158483E+02 -0.62599145233E+03 -0.13115990557E+04  0.14534955135E+04  0.50400001928E-02 0.  1.
</event>
<event>
 5   0  0.9086985E-05  0.2100674E+04  0.7818609E-02  0.8560947E-01
        2   -1    0    0  501    0  0.00000000000E+00  0.00000000000E+00  0.71876798769E+03  0.71876798770E+03  0.25500000920E-02 0. -1.
       -2   -1    0    0    0  501  0.00000000000E+00  0.00000000000E+00 -0.15348591091E+04  0.15348591091E+04  0.25500000920E-02 0.  1.
    10030    2    1    2    0    0  0.00000000000E+00  0.00000000000E+00 -0.81609112145E+03  0.22536270968E+04  0.21006737903E+04 0.  0.
        5    1    3    3  502    0  0.35308036931E+03 -0.19141583534E+02  0.65298260716E+03  0.74259041380E+03  0.46999998093E+01 0. -1.
       -5    1    3    3    0  502 -0.35308036931E+03  0.19141583534E+02 -0.14690737286E+04  0.15110366830E+04  0.46999998093E+01 0.  1.
</event>
<event>
 5   0  0.8858590E-05  0.2108489E+04  0.7818609E-02  0.8557513E-01
       -2   -1    0    0    0  501  0.00000000000E+00  0.00000000000E+00  0.97321374332E+03  0.97321374333E+03  0.25500000920E-02 0. -1.
        2   -1    0    0  501    0  0.00000000000E+00  0.00000000000E+00 -0.11420214436E+04  0.11420214436E+04  0.25500000920E-02 0.  1.
    10030    2    1    2    0    0  0.00000000000E+00  0.00000000000E+00 -0.16880770031E+03  0.21152351870E+04  0.21084885242E+04 0.  0.
        1    1    3    3  502    0 -0.87595242635E+03 -0.58194588522E+03 -0.15864942735E+03  0.10635428094E+04  0.50400001928E-02 0. -1.
       -1    1    3    3    0  502  0.87595242635E+03  0.58194588522E+03 -0.10158272968E+02  0.10516923776E+04  0.50400001928E-02 0.  1.
</event>
<event>
 5   0  0.8858590E-05  0.2081292E+04  0.7818609E-02  0.8569529E-01
       -2   -1    0    0    0  501  0.00000000000E+00  0.00000000000E+00  0.50467128827E+03  0.50467128828E+03  0.25500000920E-02 0. -1.
        2   -1    0    0  501    0  0.00000000000E+00  0.00000000000E+00 -0.21458404378E+04  0.21458404378E+04  0.25500000920E-02 0.  1.
    10030    2    1    2    0    0  0.00000000000E+00  0.00000000000E+00 -0.16411691495E+04  0.26505117261E+04  0.20812919624E+04 0.  0.
        1    1    3    3  502    0 -0.26766948820E+03 -0.90426609364E+03 -0.26024754123E+03  0.97830103023E+03  0.50400001928E-02 0. -1.
       -1    1    3    3    0  502  0.26766948820E+03  0.90426609364E+03 -0.13809216083E+04  0.16722106958E+04  0.50400001928E-02 0.  1.
</event>
<event>
 5   0  0.4174093E-05  0.2091533E+04  0.7818609E-02  0.8564983E-01
        1   -1    0    0  501    0  0.00000000000E+00  0.00000000000E+00  0.13421707041E+04  0.13421707041E+04  0.50400001928E-02 0. -1.
       -1   -1    0    0    0  501  0.00000000000E+00  0.00000000000E+00 -0.81481964559E+03  0.81481964561E+03  0.50400001928E-02 0.  1.
    10030    2    1    2    0    0  0.00000000000E+00  0.00000000000E+00  0.52735105849E+03  0.21569903497E+04  0.20915325075E+04 0.  0.
        3    1    3    3  502    0  0.14482633631E+03  0.73803452041E+03  0.10130226357E+04  0.12616990496E+04  0.10100000352E+00 0. -1.
       -3    1    3    3    0  502 -0.14482633631E+03 -0.73803452041E+03 -0.48567157720E+03  0.89529130015E+03  0.10100000352E+00 0.  1.
</event>
<event>
 5   0  0.9086985E-05  0.1688160E+04  0.7818609E-02  0.8768146E-01
        2   -1    0    0  501    0  0.00000000000E+00  0.00000000000E+00  0.22627414315E+04  0.22627414315E+04  0.25500000920E-02 0.  1.
       -2   -1    0    0    0  501  0.00000000000E+00  0.00000000000E+00 -0.31487072819E+03  0.31487072820E+03  0.25500000920E-02 0. -1.
    10030    2    1    2    0    0  0.00000000000E+00  0.00000000000E+00  0.19478707033E+04  0.25776121597E+04  0.16881599951E+04 0.  0.
        5    1    3    3  502    0 -0.43135222788E+03 -0.55651613273E+03  0.16846698065E+04  0.18258996132E+04  0.46999998093E+01 0.  1.
       -5    1    3    3    0  502  0.43135222788E+03  0.55651613273E+03  0.26320089678E+03  0.75171254650E+03  0.46999998093E+01 0. -1.
</event>
<event>
 5   0  0.9012466E-05  0.2086257E+04  0.7818609E-02  0.8567322E-01
        2   -1    0    0  501    0  0.00000000000E+00  0.00000000000E+00  0.10679207192E+04  0.10679207192E+04  0.25500000920E-02 0.  1.
       -2   -1    0    0    0  501  0.00000000000E+00  0.00000000000E+00 -0.10189119066E+04  0.10189119066E+04  0.25500000920E-02 0. -1.
    10030    2    1    2    0    0  0.00000000000E+00  0.00000000000E+00  0.49008812580E+02  0.20868326258E+04  0.20862570657E+04 0.  0.
        2    1    3    3  502    0  0.16733813825E+03 -0.59028225712E+03  0.86834957848E+03  0.10632338341E+04  0.25500000920E-02 0.  1.
       -2    1    3    3    0  502 -0.16733813825E+03  0.59028225712E+03 -0.81934076590E+03  0.10235987916E+04  0.25500000920E-02 0. -1.
</event>
<event>
 5   0  0.4128678E-05  0.2047453E+04  0.7818609E-02  0.8584750E-01
        1   -1    0    0  501    0  0.00000000000E+00  0.00000000000E+00  0.25140315565E+04  0.25140315565E+04  0.50400001928E-02 0. -1.
       -1   -1    0    0    0  501  0.00000000000E+00  0.00000000000E+00 -0.41686684910E+03  0.41686684913E+03  0.50400001928E-02 0.  1.
    10030    2    1    2    0    0  0.00000000000E+00  0.00000000000E+00  0.20971647074E+04  0.29308984056E+04  0.20474534559E+04 0.  0.
        5    1    3    3  502    0 -0.81317630626E+02 -0.80593815800E+03  0.19446568814E+04  0.21066232097E+04  0.46999998093E+01 0. -1.
       -5    1    3    3    0  502  0.81317630626E+02  0.80593815800E+03  0.15250782603E+03  0.82427519590E+03  0.46999998093E+01 0.  1.
</event>
<event>
 5   0  0.8858590E-05  0.2018614E+04  0.7818609E-02  0.8597967E-01
        2   -1    0    0  501    0  0.00000000000E+00  0.00000000000E+00  0.15790518376E+04  0.15790518376E+04  0.25500000920E-02 0.  1.
       -2   -1    0    0    0  501  0.00000000000E+00  0.00000000000E+00 -0.64513457483E+03  0.64513457483E+03  0.25500000920E-02 0. -1.
    10030    2    1    2    0    0  0.00000000000E+00  0.00000000000E+00  0.93391726280E+03  0.22241864125E+04  0.20186143127E+04 0.  0.
        1    1    3    3  502    0 -0.17708199516E+03 -0.75201597689E+03 -0.24865528830E+03  0.81161290954E+03  0.50400001928E-02 0. -1.
       -1    1    3    3    0  502  0.17708199516E+03  0.75201597689E+03  0.11825725511E+04  0.14125735029E+04  0.50400001928E-02 0.  1.
</event>
<event>
 5   0  0.8547605E-05  0.2109301E+04  0.7818609E-02  0.8557157E-01
        2   -1    0    0  501    0  0.00000000000E+00  0.00000000000E+00  0.13608284334E+04  0.13608284334E+04  0.25500000920E-02 0.  1.
       -2   -1    0    0    0  501  0.00000000000E+00  0.00000000000E+00 -0.81736038446E+03  0.81736038446E+03  0.25500000920E-02 0. -1.
    10030    2    1    2    0    0  0.00000000000E+00  0.00000000000E+00  0.54346804891E+03  0.21781888178E+04  0.21093005964E+04 0.  0.
        4    1    3    3  502    0 -0.56448853321E+03 -0.71118721082E+03 -0.28230580203E+03  0.95085894418E+03  0.12699999809E+01 0. -1.
       -4    1    3    3    0  502  0.56448853321E+03  0.71118721082E+03  0.82577385095E+03  0.12273298737E+04  0.12699999809E+01 0.  1.
</event>
<event>
 5   0  0.8858590E-05  0.2139428E+04  0.7818609E-02  0.8544071E-01
       -2   -1    0    0    0  501  0.00000000000E+00  0.00000000000E+00  0.82491936872E+03  0.82491936873E+03  0.25500000920E-02 0.  1.
        2   -1    0    0  501    0  0.00000000000E+00  0.00000000000E+00 -0.13871508851E+04  0.13871508851E+04  0.25500000920E-02 0. -1.
    10030    2    1    2    0    0  0.00000000000E+00  0.00000000000E+00 -0.56223151635E+03  0.22120702538E+04  0.21394276173E+04 0.  0.
        1    1    3    3  502    0 -0.70656500019E+03  0.79157138308E+03 -0.14060339931E+03  0.10703217600E+04  0.50400001928E-02 0. -1.
       -1    1    3    3    0  502  0.70656500019E+03 -0.79157138308E+03 -0.42162811704E+03  0.11417484938E+04  0.50400001928E-02 0.  1.
</event>
<event>
 5   0  0.9012466E-05  0.2093619E+04  0.7818609E-02  0.8564059E-01
        2   -1    0    0  501    0  0.00000000000E+00  0.00000000000E+00  0.17057241536E+04  0.17057241536E+04  0.25500000920E-02 0. -1.
       -2   -1    0    0    0  501  0.00000000000E+00  0.00000000000E+00 -0.64243105773E+03  0.64243105773E+03  0.25500000920E-02 0.  1.
    10030    2    1    2    0    0  0.00000000000E+00  0.00000000000E+00  0.10632930959E+04  0.23481552114E+04  0.20936190410E+04 0.  0.
        2    1    3    3  502    0 -0.37952261757E+03  0.10480599746E+03  0.16195118649E+04  0.16666854517E+04  0.25500000920E-02 0. -1.
       -2    1    3    3    0  502  0.37952261757E+03 -0.10480599746E+03 -0.55621876900E+03  0.68146975967E+03  0.25500000920E-02 0.  1.
</event>
<event>
 5   0  0.4050368E-05  0.2100431E+04  0.7818609E-02  0.8561054E-01
        1   -1    0    0  501    0  0.00000000000E+00  0.00000000000E+00  0.12165473493E+04  0.12165473493E+04  0.50400001928E-02 0.  1.
       -1   -1    0    0    0  501  0.00000000000E+00  0.00000000000E+00 -0.90662495366E+03  0.90662495367E+03  0.50400001928E-02 0. -1.
    10030    2    1    2    0    0  0.00000000000E+00  0.00000000000E+00  0.30992239562E+03  0.21231723030E+04  0.21004306075E+04 0.  0.
        2    1    3    3  502    0 -0.20751760869E+03 -0.25227838001E+03 -0.85396596577E+03  0.91431165892E+03  0.25500000920E-02 0. -1.
       -2    1    3    3    0  502  0.20751760869E+03  0.25227838001E+03  0.11638883614E+04  0.12088606440E+04  0.25500000920E-02 0.  1.
</event>
<event>
 5   0  0.4050368E-05  0.2097525E+04  0.7818609E-02  0.8562334E-01
       -1   -1    0    0    0  501  0.00000000000E+00  0.00000000000E+00  0.68444078108E+03  0.68444078110E+03  0.50400001928E-02 0.  1.
        1   -1    0    0  501    0  0.00000000000E+00  0.00000000000E+00 -0.16070099489E+04  0.16070099490E+04  0.50400001928E-02 0. -1.
    10030    2    1    2    0    0  0.00000000000E+00  0.00000000000E+00 -0.92256916787E+03  0.22914507301E+04  0.20975253464E+04 0.  0.
        2    1    3    3  502    0  0.53557081212E+03  0.76557246540E+03  0.59170870804E+02  0.93618293433E+03  0.25500000920E-02 0.  1.
       -2    1    3    3    0  502 -0.53557081212E+03 -0.76557246540E+03 -0.98174003867E+03  0.13552677957E+04  0.25500000920E-02 0. -1.
</event>
<event>
 5   0  0.8858590E-05  0.2083988E+04  0.7818609E-02  0.8568330E-01
        2   -1    0    0  501    0  0.00000000000E+00  0.00000000000E+00  0.11615235356E+04  0.11615235356E+04  0.25500000920E-02 0.  1.
       -2   -1    0    0    0  501  0.00000000000E+00  0.00000000000E+00 -0.93476461878E+03  0.93476461878E+03  0.25500000920E-02 0. -1.
    10030    2    1    2    0    0  0.00000000000E+00  0.00000000000E+00  0.22675891686E+03  0.20962881544E+04  0.20839876247E+04 0.  0.
        1    1    3    3  502    0  0.19681179162E+03  0.69068656200E+03 -0.64603907956E+03  0.96599653239E+03  0.50400001928E-02 0. -1.
       -1    1    3    3    0  502 -0.19681179162E+03 -0.69068656200E+03  0.87279799643E+03  0.11302916220E+04  0.50400001928E-02 0.  1.
</event>
<event>
 5   0  0.4182977E-05  0.2093223E+04  0.7818609E-02  0.8564234E-01
        1   -1    0    0  501    0  0.00000000000E+00  0.00000000000E+00  0.11504331912E+04  0.11504331912E+04  0.50400001928E-02 0.  1.
       -1   -1    0    0    0  501  0.00000000000E+00  0.00000000000E+00 -0.95215969344E+03  0.95215969345E+03  0.50400001928E-02 0. -1.
    10030    2    1    2    0    0  0.00000000000E+00  0.00000000000E+00  0.19827349773E+03  0.21025928846E+04  0.20932234612E+04 0.  0.
        1    1    3    3  502    0  0.92280203145E+02 -0.64275846021E+03 -0.72535520245E+03  0.97354724786E+03  0.50400001928E-02 0. -1.
       -1    1    3    3    0  502 -0.92280203145E+02  0.64275846021E+03  0.92362870018E+03  0.11290456368E+04  0.50400001928E-02 0.  1.
</event>
<event>
 5   0  0.4128678E-05  0.2112133E+04  0.7818609E-02  0.8555917E-01
        1   -1    0    0  501    0  0.00000000000E+00  0.00000000000E+00  0.18921894952E+04  0.18921894952E+04  0.50400001928E-02 0.  1.
       -1   -1    0    0    0  501  0.00000000000E+00  0.00000000000E+00 -0.58941069342E+03  0.58941069344E+03  0.50400001928E-02 0. -1.
    10030    2    1    2    0    0  0.00000000000E+00  0.00000000000E+00  0.13027788018E+04  0.24816001887E+04  0.21121332558E+04 0.  0.
        5    1    3    3  502    0 -0.77659373642E+03  0.37127310785E+03 -0.67443589892E+02  0.86343052985E+03  0.46999998093E+01 0. -1.
       -5    1    3    3    0  502  0.77659373642E+03 -0.37127310785E+03  0.13702223917E+04  0.16181696588E+04  0.46999998093E+01 0.  1.
</event>
<event>
 5   0  0.8858590E-05  0.2076643E+04  0.7818609E-02  0.8571603E-01
        2   -1    0    0  501    0  0.00000000000E+00  0.00000000000E+00  0.76867863428E+03  0.76867863429E+03  0.25500000920E-02 0. -1.
       -2   -1    0    0    0  501  0.00000000000E+00  0.00000000000E+00 -0.14025520589E+04  0.14025520589E+04  0.25500000920E-02 0.  1.
    10030    2    1    2    0    0  0.00000000000E+00  0.00000000000E+00 -0.63387342466E+03  0.21712306932E+04  0.20766432541E+04 0.  0.
        1    1    3    3  502    0 -0.68473262845E+03  0.29268012029E+03  0.43961795765E+03  0.86474526538E+03  0.50400001928E-02 0. -1.
       -1    1    3    3    0  502  0.68473262845E+03 -0.29268012029E+03 -0.10734913823E+04  0.13064854279E+04  0.50400001928E-02 0.  1.
</event>
<event>
 5   0  0.4200061E-05  0.2151511E+04  0.7818609E-02  0.8538886E-01
       -1   -1    0    0    0  501  0.00000000000E+00  0.00000000000E+00  0.11887732264E+04  0.11887732264E+04  0.50400001928E-02 0. -1.
        1   -1    0    0  501    0  0.00000000000E+00  0.00000000000E+00 -0.97348252758E+03  0.97348252759E+03  0.50400001928E-02 0.  1.
    10030    2    1    2    0    0  0.00000000000E+00  0.00000000000E+00  0.21529069883E+03  0.21622557540E+04  0.21515110645E+04 0.  0.
        4    1    3    3  502    0 -0.33457232073E+03  0.64742354489E+03 -0.68760437264E+03  0.10019467403E+04  0.12699999809E+01 0.  1.
       -4    1    3    3    0  502  0.33457232073E+03 -0.64742354489E+03  0.90289507147E+03  0.11603090137E+04  0.12699999809E+01 0. -1.
</event>
<event>
 5   0  0.9012466E-05  0.2105771E+04  0.7818609E-02  0.8558706E-01
        2   -1    0    0  501    0  0.00000000000E+00  0.00000000000E+00  0.11527315409E+04  0.11527315410E+04  0.25500000920E-02 0. -1.
       -2   -1    0    0    0  501  0.00000000000E+00  0.00000000000E+00 -0.96168766761E+03  0.96168766761E+03  0.25500000920E-02 0.  1.
    10030    2    1    2    0    0  0.00000000000E+00  0.00000000000E+00  0.19104387334E+03  0.21144192086E+04  0.21057708394E+04 0.  0.
        2    1    3    3  502    0  0.68291848957E+03  0.17199368869E+03  0.88142936962E+03  0.11282186074E+04  0.25500000920E-02 0. -1.
       -2    1    3    3    0  502 -0.68291848957E+03 -0.17199368869E+03 -0.69038549628E+03  0.98620060121E+03  0.25500000920E-02 0.  1.
</event>
<event>
 5   0  0.4200061E-05  0.2099533E+04  0.7818609E-02  0.8561449E-01
        1   -1    0    0  501    0  0.00000000000E+00  0.00000000000E+00  0.10268906895E+04  0.10268906895E+04  0.50400001928E-02 0. -1.
       -1   -1    0    0    0  501  0.00000000000E+00  0.00000000000E+00 -0.10731517880E+04  0.10731517880E+04  0.50400001928E-02 0.  1.
    10030    2    1    2    0    0  0.00000000000E+00  0.00000000000E+00 -0.46261098451E+02  0.21000424775E+04  0.20995328809E+04 0.  0.
        4    1    3    3  502    0  0.82778988448E+02  0.72020118962E+03 -0.78256831797E+03  0.10667506267E+04  0.12699999809E+01 0.  1.
       -4    1    3    3    0  502 -0.82778988448E+02 -0.72020118962E+03  0.73630721952E+03  0.10332918508E+04  0.12699999809E+01 0. -1.
</event>
<event>
 5   0  0.4182977E-05  0.2064316E+04  0.7818609E-02  0.8577127E-01
       -1   -1    0    0    0  501  0.00000000000E+00  0.00000000000E+00  0.11560488692E+04  0.11560488692E+04  0.50400001928E-02 0. -1.
        1   -1    0    0  501    0  0.00000000000E+00  0.00000000000E+00 -0.92154413623E+03  0.92154413624E+03  0.50400001928E-02 0.  1.
    10030    2    1    2    0    0  0.00000000000E+00  0.00000000000E+00  0.23450473301E+03  0.20775930055E+04  0.20643159222E+04 0.  0.
        1    1    3    3  502    0  0.58836920499E+03  0.32831634112E+03 -0.66968463647E+03  0.94997234359E+03  0.50400001928E-02 0.  1.
       -1    1    3    3    0  502 -0.58836920499E+03 -0.32831634112E+03  0.90418936948E+03  0.11276206619E+04  0.50400001928E-02 0. -1.
</event>
<event>
 5   0  0.9086985E-05  0.2125590E+04  0.7818609E-02  0.8550054E-01
       -2   -1    0    0    0  501  0.00000000000E+00  0.00000000000E+00  0.57324487072E+03  0.57324487073E+03  0.25500000920E-02 0. -1.
        2   -1    0    0  501    0  0.00000000000E+00  0.00000000000E+00 -0.19704202475E+04  0.19704202475E+04  0.25500000920E-02 0.  1.
    10030    2    1    2    0    0  0.00000000000E+00  0.00000000000E+00 -0.13971753767E+04  0.25436651182E+04  0.21255900828E+04 0.  0.
        5    1    3    3  502    0  0.55818697609E+03  0.37617599846E+03 -0.16828070191E+04  0.18124410710E+04  0.46999998093E+01 0.  1.
       -5    1    3    3    0  502 -0.55818697609E+03 -0.37617599846E+03  0.28563164240E+03  0.73122404722E+03  0.46999998093E+01 0. -1.
</event>
<event>
 5   0  0.4174093E-05  0.1980421E+04  0.7818609E-02  0.8615830E-01
        1   -1    0    0  501    0  0.00000000000E+00  0.00000000000E+00  0.35893039422E+03  0.35893039426E+03  0.50400001928E-02 0.  1.
       -1   -1    0    0    0  501  0.00000000000E+00  0.00000000000E+00 -0.27317744184E+04  0.27317744184E+04  0.50400001928E-02 0. -1.
    10030    2    1    2    0    0  0.00000000000E+00  0.00000000000E+00 -0.23728440242E+04  0.30907048127E+04  0.19804210350E+04 0.  0.
        3    1    3    3  502    0  0.27262772287E+03  0.43392329473E+02 -0.26705050647E+04  0.26847357562E+04  0.10100000352E+00 0. -1.
       -3    1    3    3    0  502 -0.27262772287E+03 -0.43392329473E+02  0.29766104057E+03  0.40596905647E+03  0.10100000352E+00 0.  1.
</event>
<event>
 5   0  0.4174093E-05  0.2102538E+04  0.7818609E-02  0.8560126E-01
        1   -1    0    0  501    0  0.00000000000E+00  0.00000000000E+00  0.12242592977E+04  0.12242592977E+04  0.50400001928E-02 0. -1.
       -1   -1    0    0    0  501  0.00000000000E+00  0.00000000000E+00 -0.90272279753E+03  0.90272279754E+03  0.50400001928E-02 0.  1.
    10030    2    1    2    0    0  0.00000000000E+00  0.00000000000E+00  0.32153650012E+03  0.21269820952E+04  0.21025382547E+04 0.  0.
        3    1    3    3  502    0 -0.53092380806E+03  0.36422748453E+03 -0.67993181476E+03  0.93640217501E+03  0.10100000352E+00 0.  1.
       -3    1    3    3    0  502  0.53092380806E+03 -0.36422748453E+03  0.10014683149E+04  0.11905799202E+04  0.10100000352E+00 0. -1.
</event>
<event>
 5   0  0.9012466E-05  0.2088160E+04  0.7818609E-02  0.8566477E-01
       -2   -1    0    0    0  501  0.00000000000E+00  0.00000000000E+00  0.56264412989E+03  0.56264412990E+03  0.25500000920E-02 0. -1.
        2   -1    0    0  501    0  0.00000000000E+00  0.00000000000E+00 -0.19374648949E+04  0.19374648949E+04  0.25500000920E-02 0.  1.
    10030    2    1    2    0    0  0.00000000000E+00  0.00000000000E+00 -0.13748207650E+04  0.25001090248E+04  0.20881601950E+04 0.  0.
        2    1    3    3  502    0  0.93177586089E+03  0.25979006852E+02 -0.12505413061E+04  0.15597226427E+04  0.25500000920E-02 0.  1.
       -2    1    3    3    0  502 -0.93177586089E+03 -0.25979006852E+02 -0.12427945886E+03  0.94038638210E+03  0.25500000920E-02 0. -1.
</event>
<event>
 5   0  0.8547605E-05  0.2085277E+04  0.7818609E-02  0.8567757E-01
        2   -1    0    0  501    0  0.00000000000E+00  0.00000000000E+00  0.15694601613E+04  0.15694601613E+04  0.25500000920E-02 0. -1.
       -2   -1    0    0    0  501  0.00000000000E+00  0.00000000000E+00 -0.69265524498E+03  0.69265524498E+03  0.25500000920E-02 0.  1.
    10030    2    1    2    0    0  0.00000000000E+00  0.00000000000E+00  0.87680491627E+03  0.22621154062E+04  0.20852767802E+04 0.  0.
        4    1    3    3  502    0 -0.38375750872E+03 -0.73492115280E+03  0.11242473028E+04  0.13968938890E+04  0.12699999809E+01 0. -1.
       -4    1    3    3    0  502  0.38375750872E+03  0.73492115280E+03 -0.24744238655E+03  0.86522151724E+03  0.12699999809E+01 0.  1.
</event>
<event>
 5   0  0.4174093E-05  0.1716771E+04  0.7818609E-02  0.8751856E-01
       -1   -1    0    0    0  501  0.00000000000E+00  0.00000000000E+00  0.59114655471E+03  0.59114655473E+03  0.50400001928E-02 0.  1.
        1   -1    0    0  501    0  0.00000000000E+00  0.00000000000E+00 -0.12464353417E+04  0.12464353417E+04  0.50400001928E-02 0. -1.
    10030    2    1    2    0    0  0.00000000000E+00  0.00000000000E+00 -0.65528878700E+03  0.18375818964E+04  0.17167713394E+04 0.  0.
        3    1    3    3  502    0  0.80784577607E+03  0.19403036907E+03 -0.55861484938E+03  0.10011559030E+04  0.10100000352E+00 0. -1.
       -3    1    3    3    0  502 -0.80784577607E+03 -0.19403036907E+03 -0.96673937618E+02  0.83642599341E+03  0.10100000352E+00 0.  1.
</event>
<event>
 5   0  0.9012466E-05  0.2120239E+04  0.7818609E-02  0.8552380E-01
        2   -1    0    0  501    0  0.00000000000E+00  0.00000000000E+00  0.16301113998E+04  0.16301113998E+04  0.25500000920E-02 0.  1.
       -2   -1    0    0    0  501  0.00000000000E+00  0.00000000000E+00 -0.68943338643E+03  0.68943338643E+03  0.25500000920E-02 0. -1.
    10030    2    1    2    0    0  0.00000000000E+00  0.00000000000E+00  0.94067801334E+03  0.23195447862E+04  0.21202388758E+04 0.  0.
        2    1    3    3  502    0 -0.61351759734E+03 -0.80443136633E+03  0.81687955576E+03  0.13003099146E+04  0.25500000920E-02 0.  1.
       -2    1    3    3    0  502  0.61351759734E+03  0.80443136633E+03  0.12379845758E+03  0.10192348716E+04  0.25500000920E-02 0. -1.
</event>
<event>
 5   0  0.8547605E-05  0.2139715E+04  0.7818609E-02  0.8543947E-01
       -2   -1    0    0    0  501  0.00000000000E+00  0.00000000000E+00  0.56080301053E+03  0.56080301054E+03  0.25500000920E-02 0.  1.
        2   -1    0    0  501    0  0.00000000000E+00  0.00000000000E+00 -0.20409937303E+04  0.20409937303E+04  0.25500000920E-02 0. -1.
    10030    2    1    2    0    0  0.00000000000E+00  0.00000000000E+00 -0.14801907197E+04  0.26017967408E+04  0.21397153347E+04 0.  0.
        4    1    3    3  502    0 -0.72670287385E+03  0.65738619606E+03 -0.12621636557E+04  0.15979087534E+04  0.12699999809E+01 0. -1.
       -4    1    3    3    0  502  0.72670287385E+03 -0.65738619606E+03 -0.21802706403E+03  0.10038879874E+04  0.12699999809E+01 0.  1.
</event>
<event>
 5   0  0.8872777E-05  0.2115526E+04  0.7818609E-02  0.8554435E-01
       -2   -1    0    0    0  501  0.00000000000E+00  0.00000000000E+00  0.11048885792E+04  0.11048885792E+04  0.25500000920E-02 0. -1.
        2   -1    0    0  501    0  0.00000000000E+00  0.00000000000E+00 -0.10126474844E+04  0.10126474845E+04  0.25500000920E-02 0.  1.
    10030    2    1    2    0    0  0.00000000000E+00  0.00000000000E+00  0.92241094752E+02  0.21175360637E+04  0.21155260720E+04 0.  0.
        3    1    3    3  502    0 -0.65561073308E+03  0.26441779431E+03 -0.74146910221E+03  0.10244601715E+04  0.10100000352E+00 0.  1.
       -3    1    3    3    0  502  0.65561073308E+03 -0.26441779431E+03  0.83371019696E+03  0.10930758921E+04  0.10100000352E+00 0. -1.
</event>
<event>
 5   0  0.4174093E-05  0.2069827E+04  0.7818609E-02  0.8574653E-01
       -1   -1    0    0    0  501  0.00000000000E+00  0.00000000000E+00  0.13271454673E+04  0.13271454673E+04  0.50400001928E-02 0. -1.
        1   -1    0    0  501    0  0.00000000000E+00  0.00000000000E+00 -0.80702951579E+03  0.80702951580E+03  0.50400001928E-02 0.  1.
    10030    2    1    2    0    0  0.00000000000E+00  0.00000000000E+00  0.52011595147E+03  0.21341749831E+04  0.20698266245E+04 0.  0.
        3    1    3    3  502    0 -0.69069768429E+03 -0.37992145888E+03 -0.43134216863E+03  0.89858760432E+03  0.10100000352E+00 0.  1.
       -3    1    3    3    0  502  0.69069768429E+03  0.37992145888E+03  0.95145812009E+03  0.12355873787E+04  0.10100000352E+00 0. -1.
</event>
<event>
 5   0  0.9012466E-05  0.2089200E+04  0.7818609E-02  0.8566016E-01
        2   -1    0    0  501    0  0.00000000000E+00  0.00000000000E+00  0.76090017371E+03  0.76090017371E+03  0.25500000920E-02 0.  1.
       -2   -1    0    0    0  501  0.00000000000E+00  0.00000000000E+00 -0.14340766467E+04  0.14340766467E+04  0.25500000920E-02 0. -1.
    10030    2    1    2    0    0  0.00000000000E+00  0.00000000000E+00 -0.67317647298E+03  0.21949768204E+04  0.20892000092E+04 0.  0.
        2    1    3    3  502    0  0.48270499257E+03  0.66594363631E+02 -0.13073559891E+04  0.13952127441E+04  0.25500000920E-02 0. -1.
       -2    1    3    3    0  502 -0.48270499257E+03 -0.66594363631E+02  0.63417951609E+03  0.79976407631E+03  0.25500000920E-02 0.  1.
</event>
<event>
 5   0  0.4128678E-05  0.2080547E+04  0.7818609E-02  0.8569861E-01
        1   -1    0    0  501    0  0.00000000000E+00  0.00000000000E+00  0.66784765380E+03  0.66784765382E+03  0.50400001928E-02 0. -1.
       -1   -1    0    0    0  501  0.00000000000E+00  0.00000000000E+00 -0.16203828527E+04  0.16203828527E+04  0.50400001928E-02 0.  1.
    10030    2    1    2    0    0  0.00000000000E+00  0.00000000000E+00 -0.95253519892E+03  0.22882305065E+04  0.20805469343E+04 0.  0.
        5    1    3    3  502    0 -0.74225016935E+03  0.23061008532E+03 -0.12366814949E+04  0.14606572271E+04  0.46999998093E+01 0.  1.
       -5    1    3    3    0  502  0.74225016935E+03 -0.23061008532E+03  0.28414629594E+03  0.82757327944E+03  0.46999998093E+01 0. -1.
</event>
<event>
 5   0  0.4200061E-05  0.2065304E+04  0.7818609E-02  0.8576683E-01
       -1   -1    0    0    0  501  0.00000000000E+00  0.00000000000E+00  0.76690517269E+03  0.76690517271E+03  0.50400001928E-02 0.  1.
        1   -1    0    0  501    0  0.00000000000E+00  0.00000000000E+00 -0.13904855913E+04  0.13904855914E+04  0.50400001928E-02 0. -1.
    10030    2    1    2    0    0  0.00000000000E+00  0.00000000000E+00 -0.62358041866E+03  0.21573907641E+04  0.20653044256E+04 0.  0.
        4    1    3    3  502    0  0.90686171733E+03 -0.10292970739E+03 -0.81642024541E+03  0.12245555639E+04  0.12699999809E+01 0. -1.
       -4    1    3    3    0  502 -0.90686171733E+03  0.10292970739E+03  0.19283982676E+03  0.93283520018E+03  0.12699999809E+01 0.  1.
</event>
<event>
 5   0  0.9012466E-05  0.2094850E+04  0.7818609E-02  0.8563515E-01
       -2   -1    0    0    0  501  0.00000000000E+00  0.00000000000E+00  0.11109539521E+04  0.11109539521E+04  0.25500000920E-02 0.  1.
        2   -1    0    0  501    0  0.00000000000E+00  0.00000000000E+00 -0.98752924052E+03  0.98752924052E+03  0.25500000920E-02 0. -1.
    10030    2    1    2    0    0  0.00000000000E+00  0.00000000000E+00  0.12342471158E+03  0.20984831926E+04  0.20948503647E+04 0.  0.
        2    1    3    3  502    0  0.32644404193E+02 -0.90882975019E+03  0.58228878740E+03  0.10798599001E+04  0.25500000920E-02 0.  1.
       -2    1    3    3    0  502 -0.32644404193E+02  0.90882975019E+03 -0.45886407582E+03  0.10186232925E+04  0.25500000920E-02 0. -1.
</event>
<event>
 5   0  0.4128678E-05  0.1855239E+04  0.7818609E-02  0.8677463E-01
        1   -1    0    0  501    0  0.00000000000E+00  0.00000000000E+00  0.13327753514E+04  0.13327753514E+04  0.50400001928E-02 0. -1.
       -1   -1    0    0    0  501  0.00000000000E+00  0.00000000000E+00 -0.64562865043E+03  0.64562865045E+03  0.50400001928E-02 0.  1.
    10030    2    1    2    0    0  0.00000000000E+00  0.00000000000E+00  0.68714670095E+03  0.19784040018E+04  0.18552390158E+04 0.  0.
        5    1    3    3  502    0  0.39700642226E+03 -0.81804114300E+03  0.53919213421E+03  0.10571450509E+04  0.46999998093E+01 0. -1.
       -5    1    3    3    0  502 -0.39700642226E+03  0.81804114300E+03  0.14795456674E+03  0.92125895098E+03  0.46999998093E+01 0.  1.
</event>
<event>
 5   0  0.4174093E-05  0.2110719E+04  0.7818609E-02  0.8556536E-01
       -1   -1    0    0    0  501  0.00000000000E+00  0.00000000000E+00  0.56612204052E+03  0.56612204055E+03  0.50400001928E-02 0. -1.
        1   -1    0    0  501    0  0.00000000000E+00  0.00000000000E+00 -0.19673908757E+04  0.19673908757E+04  0.50400001928E-02 0.  1.
    10030    2    1    2    0    0  0.00000000000E+00  0.00000000000E+00 -0.14012688352E+04  0.25335129163E+04  0.21107186806E+04 0.  0.
        3    1    3    3  502    0 -0.26386735368E+03 -0.91052408191E+03 -0.14394079286E+03  0.95885298463E+03  0.10100000352E+00 0. -1.
       -3    1    3    3    0  502  0.26386735368E+03  0.91052408191E+03 -0.12573280423E+04  0.15746599317E+04  0.10100000352E+00 0.  1.
</event>
<event>
 5   0  0.4174093E-05  0.2109544E+04  0.7818609E-02  0.8557051E-01
        1   -1    0    0  501    0  0.00000000000E+00  0.00000000000E+00  0.87084800355E+03  0.87084800357E+03  0.50400001928E-02 0. -1.
       -1   -1    0    0    0  501  0.00000000000E+00  0.00000000000E+00 -0.12775411636E+04  0.12775411636E+04  0.50400001928E-02 0.  1.
    10030    2    1    2    0    0  0.00000000000E+00  0.00000000000E+00 -0.40669316007E+03  0.21483891672E+04  0.21095441895E+04 0.  0.
        3    1    3    3  502    0  0.71838154759E+02  0.81727605461E+03  0.47176529363E+03  0.94639493468E+03  0.10100000352E+00 0. -1.
       -3    1    3    3    0  502 -0.71838154759E+02 -0.81727605461E+03 -0.87845845370E+03  0.12019942325E+04  0.10100000352E+00 0.  1.
</event>
<event>
 5   0  0.4050368E-05  0.2037360E+04  0.7818609E-02  0.8589350E-01
       -1   -1    0    0    0  501  0.00000000000E+00  0.00000000000E+00  0.83673545642E+03  0.83673545643E+03  0.50400001928E-02 0.  1.
        1   -1    0    0  501    0  0.00000000000E+00  0.00000000000E+00 -0.12401874144E+04  0.12401874144E+04  0.50400001928E-02 0. -1.
    10030    2    1    2    0    0  0.00000000000E+00  0.00000000000E+00 -0.40345195802E+03  0.20769228709E+04  0.20373598428E+04 0.  0.
        2    1    3    3  502    0  0.27812209951E+03 -0.48946652383E+03  0.66374759245E+03  0.87033915612E+03  0.25500000920E-02 0.  1.
       -2    1    3    3    0  502 -0.27812209951E+03  0.48946652383E+03 -0.10671995505E+04  0.12065837148E+04  0.25500000920E-02 0. -1.
</event>
<event>
 5   0  0.9086985E-05  0.2089779E+04  0.7818609E-02  0.8565759E-01
       -2   -1    0    0    0  501  0.00000000000E+00  0.00000000000E+00  0.11767215147E+04  0.11767215147E+04  0.25500000920E-02 0. -1.
        2   -1    0    0  501    0  0.00000000000E+00  0.00000000000E+00 -0.92782673488E+03  0.92782673488E+03  0.25500000920E-02 0.  1.
    10030    2    1    2    0    0  0.00000000000E+00  0.00000000000E+00  0.24889477983E+03  0.21045482496E+04  0.20897786303E+04 0.  0.
        5    1    3    3  502    0 -0.97325503316E+03  0.21484986535E+03 -0.19143450909E+03  0.10149162948E+04  0.46999998093E+01 0.  1.
       -5    1    3    3    0  502  0.97325503316E+03 -0.21484986535E+03  0.44032928892E+03  0.10896319548E+04  0.46999998093E+01 0. -1.
</event>
<event>
 5   0  0.4200061E-05  0.2151669E+04  0.7818609E-02  0.8538818E-01
       -1   -1    0    0    0  501  0.00000000000E+00  0.00000000000E+00  0.12678008347E+04  0.12678008347E+04  0.50400001928E-02 0.  1.
        1   -1    0    0  501    0  0.00000000000E+00  0.00000000000E+00 -0.91293487965E+03  0.91293487966E+03  0.50400001928E-02 0. -1.
    10030    2    1    2    0    0  0.00000000000E+00  0.00000000000E+00  0.35486595501E+03  0.21807357143E+04  0.21516687500E+04 0.  0.
        4    1    3    3  502    0 -0.67399570583E+03 -0.45748474700E+03 -0.53480899691E+03  0.97446640850E+03  0.12699999809E+01 0. -1.
       -4    1    3    3    0  502  0.67399570583E+03  0.45748474700E+03  0.88967495192E+03  0.12062693058E+04  0.12699999809E+01 0.  1.
</event>
<event>
 5   0  0.4174093E-05  0.2110725E+04  0.7818609E-02  0.8556534E-01
        1   -1    0    0  501    0  0.00000000000E+00  0.00000000000E+00  0.10593258997E+04  0.10593258997E+04  0.50400001928E-02 0. -1.
       -1   -1    0    0    0  501  0.00000000000E+00  0.00000000000E+00 -0.10514136314E+04  0.10514136314E+04  0.50400001928E-02 0.  1.
    10030    2    1    2    0    0  0.00000000000E+00  0.00000000000E+00  0.79122683392E+01  0.21107395311E+04  0.21107247012E+04 0.  0.
        3    1    3    3  502    0  0.62046583910E+03  0.12686370405E+03 -0.84027572918E+03  0.10522050979E+04  0.10100000352E+00 0.  1.
       -3    1    3    3    0  502 -0.62046583910E+03 -0.12686370405E+03  0.84818799752E+03  0.10585344332E+04  0.10100000352E+00 0. -1.
</event>
<event>
 5   0  0.9012466E-05  0.2093203E+04  0.7818609E-02  0.8564243E-01
        2   -1    0    0  501    0  0.00000000000E+00  0.00000000000E+00  0.14636725991E+04  0.14636725991E+04  0.25500000920E-02 0. -1.
       -2   -1    0    0    0  501  0.00000000000E+00  0.00000000000E+00 -0.74837438702E+03  0.74837438703E+03  0.25500000920E-02 0.  1.
    10030    2    1    2    0    0  0.00000000000E+00  0.00000000000E+00  0.71529821204E+03  0.22120469861E+04  0.20932033672E+04 0.  0.
        2    1    3    3  502    0 -0.95802001480E+03 -0.16946828288E+02  0.80260768095E+03  0.12499074499E+04  0.25500000920E-02 0.  1.
       -2    1    3    3    0  502  0.95802001480E+03  0.16946828288E+02 -0.87309468918E+02  0.96213953620E+03  0.25500000920E-02 0. -1.
</event>
<event>
 5   0  0.4050368E-05  0.2092414E+04  0.7818609E-02  0.8564592E-01
       -1   -1    0    0    0  501  0.00000000000E+00  0.00000000000E+00  0.85847577035E+03  0.85847577036E+03  0.50400001928E-02 0. -1.
        1   -1    0    0  501    0  0.00000000000E+00  0.00000000000E+00 -0.12749917989E+04  0.12749917990E+04  0.50400001928E-02 0.  1.
    10030    2    1    2    0    0  0.00000000000E+00  0.00000000000E+00 -0.41651602860E+03  0.21334675693E+04  0.20924144588E+04 0.  0.
        2    1    3    3  502    0 -0.73360169988E+03 -0.53832121741E+03 -0.73471020916E+03  0.11695128382E+04  0.25500000920E-02 0. -1.
       -2    1    3    3    0  502  0.73360169988E+03  0.53832121741E+03  0.31819418056E+03  0.96395473116E+03  0.25500000920E-02 0.  1.
</event>
<event>
 5   0  0.9086985E-05  0.2107324E+04  0.7818609E-02  0.8558024E-01
        2   -1    0    0  501    0  0.00000000000E+00  0.00000000000E+00  0.11390412667E+04  0.11390412667E+04  0.25500000920E-02 0. -1.
       -2   -1    0    0    0  501  0.00000000000E+00  0.00000000000E+00 -0.97468267574E+03  0.97468267574E+03  0.25500000920E-02 0.  1.
    10030    2    1    2    0    0  0.00000000000E+00  0.00000000000E+00  0.16435859097E+03  0.21137239424E+04  0.21073241702E+04 0.  0.
        5    1    3    3  502    0  0.60327429854E+03  0.77570891629E+03 -0.29912977363E+03  0.10272122047E+04  0.46999998093E+01 0.  1.
       -5    1    3    3    0  502 -0.60327429854E+03 -0.77570891629E+03  0.46348836459E+03  0.10865117377E+04  0.46999998093E+01 0. -1.
</event>
<event>
 5   0  0.4182977E-05  0.1938136E+04  0.7818609E-02  0.8636103E-01
       -1   -1    0    0    0  501  0.00000000000E+00  0.00000000000E+00  0.15602318720E+04  0.15602318720E+04  0.50400001928E-02 0.  1.
        1   -1    0    0  501    0  0.00000000000E+00  0.00000000000E+00 -0.60189289722E+03  0.60189289724E+03  0.50400001928E-02 0. -1.
    10030    2    1    2    0    0  0.00000000000E+00  0.00000000000E+00  0.95833897481E+03  0.21621247693E+04  0.19381356834E+04 0.  0.
        1    1    3    3  502    0 -0.75147750928E+00  0.54142627408E+03  0.13757635531E+04  0.14784682374E+04  0.50400001928E-02 0.  1.
       -1    1    3    3    0  502  0.75147750928E+00 -0.54142627408E+03 -0.41742457828E+03  0.68365653187E+03  0.50400001928E-02 0. -1.
</event>
<event>
 5   0  0.8872777E-05  0.2099820E+04  0.7818609E-02  0.8561323E-01
        2   -1    0    0  501    0  0.00000000000E+00  0.00000000000E+00  0.12639414951E+04  0.12639414951E+04  0.25500000920E-02 0. -1.
       -2   -1    0    0    0  501  0.00000000000E+00  0.00000000000E+00 -0.87212158007E+03  0.87212158007E+03  0.25500000920E-02 0.  1.
    10030    2    1    2    0    0  0.00000000000E+00  0.00000000000E+00  0.39181991502E+03  0.21360630752E+04  0.20998196626E+04 0.  0.
        3    1    3    3  502    0  0.66825127692E+02 -0.43268321046E+03 -0.77483047631E+03  0.88996777219E+03  0.10100000352E+00 0.  1.
       -3    1    3    3    0  502 -0.66825127692E+02  0.43268321046E+03  0.11666503913E+04  0.12460953030E+04  0.10100000352E+00 0. -1.
</event>
<event>
 5   0  0.9086985E-05  0.2093096E+04  0.7818609E-02  0.8564291E-01
       -2   -1    0    0    0  501  0.00000000000E+00  0.00000000000E+00  0.82150711797E+03  0.82150711798E+03  0.25500000920E-02 0. -1.
        2   -1    0    0  501    0  0.00000000000E+00  0.00000000000E+00 -0.13332358772E+04  0.13332358772E+04  0.25500000920E-02 0.  1.
    10030    2    1    2    0    0  0.00000000000E+00  0.00000000000E+00 -0.51172875918E+03  0.21547429951E+04  0.20930960446E+04 0.  0.
        5    1    3    3  502    0 -0.48446160849E+03  0.36210210483E+03  0.62335056480E+03  0.86856721160E+03  0.46999998093E+01 0. -1.
       -5    1    3    3    0  502  0.48446160849E+03 -0.36210210483E+03 -0.11350793240E+04  0.12861757835E+04  0.46999998093E+01 0.  1.
</event>
<event>
 5   0  0.4182977E-05  0.2083061E+04  0.7818609E-02  0.8568742E-01
       -1   -1    0    0    0  501  0.00000000000E+00  0.00000000000E+00  0.82241565012E+03  0.82241565013E+03  0.50400001928E-02 0.  1.
        1   -1    0    0  501    0  0.00000000000E+00  0.00000000000E+00 -0.13190242604E+04  0.13190242604E+04  0.50400001928E-02 0. -1.
    10030    2    1    2    0    0  0.00000000000E+00  0.00000000000E+00 -0.49660861032E+03  0.21414399106E+04  0.20830613958E+04 0.  0.
        1    1    3    3  502    0 -0.21645872846E+03 -0.34089610171E+01  0.79903114216E+03  0.82783861248E+03  0.50400001928E-02 0.  1.
       -1    1    3    3    0  502  0.21645872846E+03  0.34089610171E+01 -0.12956397525E+04  0.13136012981E+04  0.50400001928E-02 0. -1.
</event>
<event>
 5   0  0.9012466E-05  0.2199975E+04  0.7818609E-02  0.8518438E-01
        2   -1    0    0  501    0  0.00000000000E+00  0.00000000000E+00  0.17334407027E+04  0.17334407027E+04  0.25500000920E-02 0.  1.
       -2   -1    0    0    0  501  0.00000000000E+00  0.00000000000E+00 -0.69801811444E+03  0.69801811444E+03  0.25500000920E-02 0. -1.
    10030    2    1    2    0    0  0.00000000000E+00  0.00000000000E+00  0.10354225883E+04  0.24314588172E+04  0.21999754643E+04 0.  0.
        2    1    3    3  502    0 -0.54289780487E+03 -0.89581103824E+03  0.14658482393E+03  0.10576873609E+04  0.25500000920E-02 0. -1.
       -2    1    3    3    0  502  0.54289780487E+03  0.89581103824E+03  0.88883776437E+03  0.13737714563E+04  0.25500000920E-02 0.  1.
</event>
<event>
 5   0  0.9086985E-05  0.2105949E+04  0.7818609E-02  0.8558627E-01
        2   -1    0    0  501    0  0.00000000000E+00  0.00000000000E+00  0.75956555227E+03  0.75956555227E+03  0.25500000920E-02 0. -1.
       -2   -1    0    0    0  501  0.00000000000E+00  0.00000000000E+00 -0.14597224211E+04  0.14597224211E+04  0.25500000920E-02 0.  1.
    10030    2    1    2    0    0  0.00000000000E+00  0.00000000000E+00 -0.70015686881E+03  0.22192879734E+04  0.21059485909E+04 0.  0.
        5    1    3    3  502    0 -0.82115216979E+03  0.89695613678E+02 -0.10382120198E+04  0.13267413000E+04  0.46999998093E+01 0.  1.
       -5    1    3    3    0  502  0.82115216979E+03 -0.89695613678E+02  0.33805515096E+03  0.89254667338E+03  0.46999998093E+01 0. -1.
</event>
<event>
 5   0  0.4050368E-05  0.2115792E+04  0.7818609E-02  0.8554318E-01
        1   -1    0    0  501    0  0.00000000000E+00  0.00000000000E+00  0.77182552987E+03  0.77182552989E+03  0.50400001928E-02 0.  1.
       -1   -1    0    0    0  501  0.00000000000E+00  0.00000000000E+00 -0.14499965710E+04  0.14499965710E+04  0.50400001928E-02 0. -1.
    10030    2    1    2    0    0  0.00000000000E+00  0.00000000000E+00 -0.67817104112E+03  0.22218221009E+04  0.21157924017E+04 0.  0.
        2    1    3    3  502    0 -0.10232391534E+04 -0.10299286247E+03 -0.78626731749E+02  0.10314107125E+04  0.25500000920E-02 0.  1.
       -2    1    3    3    0  502  0.10232391534E+04  0.10299286247E+03 -0.59954430937E+03  0.11904113884E+04  0.25500000920E-02 0. -1.
</event>
<event>
 5   0  0.9086985E-05  0.2299990E+04  0.7818609E-02  0.8477925E-01
       -2   -1    0    0    0  501  0.00000000000E+00  0.00000000000E+00  0.98758144149E+03  0.98758144150E+03  0.25500000920E-02 0.  1.
        2   -1    0    0  501    0  0.00000000000E+00  0.00000000000E+00 -0.13391186999E+04  0.13391186999E+04  0.25500000920E-02 0. -1.
    10030    2    1    2    0    0  0.00000000000E+00  0.00000000000E+00 -0.35153725843E+03  0.23267001414E+04  0.22999902400E+04 0.  0.
        5    1    3    3  502    0  0.42734596830E+03  0.49263630581E+03  0.78241188834E+03  0.10185801684E+04  0.46999998093E+01 0.  1.
       -5    1    3    3    0  502 -0.42734596830E+03 -0.49263630581E+03 -0.11339491468E+04  0.13081199730E+04  0.46999998093E+01 0. -1.
</event>
<event>
 5   0  0.4200061E-05  0.2089251E+04  0.7818609E-02  0.8565993E-01
        1   -1    0    0  501    0  0.00000000000E+00  0.00000000000E+00  0.83175439320E+03  0.83175439321E+03  0.50400001928E-02 0. -1.
       -1   -1    0    0    0  501  0.00000000000E+00  0.00000000000E+00 -0.13119771685E+04  0.13119771685E+04  0.50400001928E-02 0.  1.
    10030    2    1    2    0    0  0.00000000000E+00  0.00000000000E+00 -0.48022277534E+03  0.21437315618E+04  0.20892513240E+04 0.  0.
        4    1    3    3  502    0  0.37445673629E+03 -0.52578010264E+02 -0.12392900983E+04  0.12956943525E+04  0.12699999809E+01 0.  1.
       -4    1    3    3    0  502 -0.37445673629E+03  0.52578010264E+02  0.75906732297E+03  0.84803720922E+03  0.12699999809E+01 0. -1.
</event>
<event>
 5   0  0.4128678E-05  0.2095889E+04  0.7818609E-02  0.8563057E-01
       -1   -1    0    0    0  501  0.00000000000E+00  0.00000000000E+00  0.61766793879E+03  0.61766793881E+03  0.50400001928E-02 0. -1.
        1   -1    0    0  501    0  0.00000000000E+00  0.00000000000E+00 -0.17779574592E+04  0.17779574592E+04  0.50400001928E-02 0.  1.
    10030    2    1    2    0    0  0.00000000000E+00  0.00000000000E+00 -0.11602895204E+04  0.23956253980E+04  0.20958886603E+04 0.  0.
        5    1    3    3  502    0  0.44425455825E+03  0.88397040982E+02  0.49997963458E+03  0.67466871453E+03  0.46999998093E+01 0. -1.
       -5    1    3    3    0  502 -0.44425455825E+03 -0.88397040982E+02 -0.16602691550E+04  0.17209566834E+04  0.46999998093E+01 0.  1.
</event>
<event>
 5   0  0.4128678E-05  0.2127074E+04  0.7818609E-02  0.8549410E-01
        1   -1    0    0  501    0  0.00000000000E+00  0.00000000000E+00  0.10757954077E+04  0.10757954077E+04  0.50400001928E-02 0. -1.
       -1   -1    0    0    0  501  0.00000000000E+00  0.00000000000E+00 -0.10514179675E+04  0.10514179675E+04  0.50400001928E-02 0.  1.
    10030    2    1    2    0    0  0.00000000000E+00  0.00000000000E+00  0.24377440200E+02  0.21272133752E+04  0.21270736903E+04 0.  0.
        5    1    3    3  502    0  0.68336380840E+03 -0.62633370364E+03  0.53357555205E+03  0.10695816765E+04  0.46999998093E+01 0. -1.
       -5    1    3    3    0  502 -0.68336380840E+03  0.62633370364E+03 -0.50919811185E+03  0.10576316987E+04  0.46999998093E+01 0.  1.
</event>
<event>
 5   0  0.3176125E-05  0.2095821E+04  0.7818609E-02  0.8563086E-01
        3   -1    0    0  501    0  0.00000000000E+00  0.00000000000E+00  0.13200499351E+04  0.13200499390E+04  0.10100000352E+00 0.  1.
       -3   -1    0    0    0  501  0.00000000000E+00  0.00000000000E+00 -0.83187494457E+03  0.83187495070E+03  0.10100000352E+00 0. -1.
    10030    2    1    2    0    0  0.00000000000E+00  0.00000000000E+00  0.48817499058E+03  0.21519248897E+04  0.20958210586E+04 0.  0.
        2    1    3    3  502    0 -0.13410150112E+02  0.40535081809E+03 -0.74802220051E+03  0.85089736767E+03  0.25500000920E-02 0. -1.
       -2    1    3    3    0  502  0.13410150112E+02 -0.40535081809E+03  0.12361971911E+04  0.13010275220E+04  0.25500000920E-02 0.  1.
</event>
<event>
 5   0  0.8872777E-05  0.2146866E+04  0.7818609E-02  0.8540875E-01
       -2   -1    0    0    0  501  0.00000000000E+00  0.00000000000E+00  0.73402448447E+03  0.73402448447E+03  0.25500000920E-02 0.  1.
        2   -1    0    0  501    0  0.00000000000E+00  0.00000000000E+00 -0.15697818476E+04  0.15697818476E+04  0.25500000920E-02 0. -1.
    10030    2    1    2    0    0  0.00000000000E+00  0.00000000000E+00 -0.83575736312E+03  0.23038063321E+04  0.21468659124E+04 0.  0.
        3    1    3    3  502    0 -0.37703510612E+03  0.54056316960E+03 -0.13271035310E+04  0.14817448511E+04  0.10100000352E+00 0. -1.
       -3    1    3    3    0  502  0.37703510612E+03 -0.54056316960E+03  0.49134616788E+03  0.82206148096E+03  0.10100000352E+00 0.  1.
</event>
<event>
 5   0  0.4128678E-05  0.2084086E+04  0.7818609E-02  0.8568286E-01
       -1   -1    0    0    0  501  0.00000000000E+00  0.00000000000E+00  0.12107567854E+04  0.12107567854E+04  0.50400001928E-02 0. -1.
        1   -1    0    0  501    0  0.00000000000E+00  0.00000000000E+00 -0.89683836681E+03  0.89683836682E+03  0.50400001928E-02 0.  1.
    10030    2    1    2    0    0  0.00000000000E+00  0.00000000000E+00  0.31391841862E+03  0.21075951523E+04  0.20840855434E+04 0.  0.
        5    1    3    3  502    0  0.13912588429E+03  0.80943645316E+03  0.80551074510E+03  0.11503969028E+04  0.46999998093E+01 0. -1.
       -5    1    3    3    0  502 -0.13912588429E+03 -0.80943645316E+03 -0.49159232648E+03  0.95719824950E+03  0.46999998093E+01 0.  1.
</event>
<event>
 5   0  0.4128678E-05  0.2092277E+04  0.7818609E-02  0.8564653E-01
        1   -1    0    0  501    0  0.00000000000E+00  0.00000000000E+00  0.10591286391E+04  0.10591286391E+04  0.50400001928E-02 0. -1.
       -1   -1    0    0    0  501  0.00000000000E+00  0.00000000000E+00 -0.10333073405E+04  0.10333073406E+04  0.50400001928E-02 0.  1.
    10030    2    1    2    0    0  0.00000000000E+00  0.00000000000E+00  0.25821298541E+02  0.20924359797E+04  0.20922766522E+04 0.  0.
        5    1    3    3  502    0  0.22158910720E+03  0.54106933179E+03 -0.85463771684E+03  0.10355121782E+04  0.46999998093E+01 0.  1.
       -5    1    3    3    0  502 -0.22158910720E+03 -0.54106933179E+03  0.88045901538E+03  0.10569238014E+04  0.46999998093E+01 0. -1.
</event>
<event>
 5   0  0.8872777E-05  0.2110691E+04  0.7818609E-02  0.8556548E-01
        2   -1    0    0  501    0  0.00000000000E+00  0.00000000000E+00  0.24922802410E+04  0.24922802410E+04  0.25500000920E-02 0. -1.
       -2   -1    0    0    0  501  0.00000000000E+00  0.00000000000E+00 -0.44688158805E+03  0.44688158806E+03  0.25500000920E-02 0.  1.
    10030    2    1    2    0    0  0.00000000000E+00  0.00000000000E+00  0.20453986530E+04  0.29391618291E+04  0.21106910262E+04 0.  0.
        3    1    3    3  502    0  0.80777100745E+03 -0.42348982116E+03  0.28333397875E+03  0.95504752909E+03  0.10100000352E+00 0.  1.
       -3    1    3    3    0  502 -0.80777100745E+03  0.42348982116E+03  0.17620646742E+04  0.19841143000E+04  0.10100000352E+00 0. -1.
</event>
<event>
 5   0  0.8858590E-05  0.2091947E+04  0.7818609E-02  0.8564799E-01
        2   -1    0    0  501    0  0.00000000000E+00  0.00000000000E+00  0.17207498803E+04  0.17207498803E+04  0.25500000920E-02 0.  1.
       -2   -1    0    0    0  501  0.00000000000E+00  0.00000000000E+00 -0.63580443081E+03  0.63580443081E+03  0.25500000920E-02 0. -1.
    10030    2    1    2    0    0  0.00000000000E+00  0.00000000000E+00  0.10849454495E+04  0.23565543111E+04  0.20919468427E+04 0.  0.
        1    1    3    3  502    0  0.76709413196E+03 -0.59546754171E+03  0.98027756335E+03  0.13798402450E+04  0.50400001928E-02 0.  1.
       -1    1    3    3    0  502 -0.76709413196E+03  0.59546754171E+03  0.10466788614E+03  0.97671406610E+03  0.50400001928E-02 0. -1.
</event>
<event>
 5   0  0.8547605E-05  0.1987731E+04  0.7818609E-02  0.8612378E-01
       -2   -1    0    0    0  501  0.00000000000E+00  0.00000000000E+00  0.70185787051E+03  0.70185787051E+03  0.25500000920E-02 0. -1.
        2   -1    0    0  501    0  0.00000000000E+00  0.00000000000E+00 -0.14073624872E+04  0.14073624872E+04  0.25500000920E-02 0.  1.
    10030    2    1    2    0    0  0.00000000000E+00  0.00000000000E+00 -0.70550461666E+03  0.21092203577E+04  0.19877308050E+04 0.  0.
        4    1    3    3  502    0  0.44153486892E+02 -0.37518994473E+03  0.62269887036E+03  0.72833544544E+03  0.12699999809E+01 0. -1.
       -4    1    3    3    0  502 -0.44153486892E+02  0.37518994473E+03 -0.13282034870E+04  0.13808849122E+04  0.12699999809E+01 0.  1.
</event>
<event>
 5   0  0.4050368E-05  0.2132116E+04  0.7818609E-02  0.8547227E-01
        1   -1    0    0  501    0  0.00000000000E+00  0.00000000000E+00  0.90022804397E+03  0.90022804399E+03  0.50400001928E-02 0.  1.
       -1   -1    0    0    0  501  0.00000000000E+00  0.00000000000E+00 -0.12624348836E+04  0.12624348837E+04  0.50400001928E-02 0. -1.
    10030    2    1    2    0    0  0.00000000000E+00  0.00000000000E+00 -0.36220683967E+03  0.21626629276E+04  0.21321156497E+04 0.  0.
        2    1    3    3  502    0 -0.24321722745E+03  0.43530060021E+03 -0.11368548475E+04  0.12414025039E+04  0.25500000920E-02 0. -1.
       -2    1    3    3    0  502  0.24321722745E+03 -0.43530060021E+03  0.77464800787E+03  0.92126042375E+03  0.25500000920E-02 0.  1.
</event>
<event>
 5   0  0.9086985E-05  0.2114136E+04  0.7818609E-02  0.8555042E-01
       -2   -1    0    0    0  501  0.00000000000E+00  0.00000000000E+00  0.57504502053E+03  0.57504502053E+03  0.25500000920E-02 0.  1.
        2   -1    0    0  501    0  0.00000000000E+00  0.00000000000E+00 -0.19431387223E+04  0.19431387223E+04  0.25500000920E-02 0. -1.
    10030    2    1    2    0    0  0.00000000000E+00  0.00000000000E+00 -0.13680937018E+04  0.25181837428E+04  0.21141355174E+04 0.  0.
        5    1    3    3  502    0 -0.33999224168E+03  0.95825772719E+03 -0.10282727106E+04  0.14461049248E+04  0.46999998093E+01 0. -1.
       -5    1    3    3    0  502  0.33999224168E+03 -0.95825772719E+03 -0.33982099122E+03  0.10720788181E+04  0.46999998093E+01 0.  1.
</event>
<event>
 5   0  0.4200061E-05  0.2148088E+04  0.7818609E-02  0.8540351E-01
       -1   -1    0    0    0  501  0.00000000000E+00  0.00000000000E+00  0.11337442771E+04  0.11337442771E+04  0.50400001928E-02 0. -1.
        1   -1    0    0  501    0  0.00000000000E+00  0.00000000000E+00 -0.10174874574E+04  0.10174874574E+04  0.50400001928E-02 0.  1.
    10030    2    1    2    0    0  0.00000000000E+00  0.00000000000E+00  0.11625681974E+03  0.21512317345E+04  0.21480880632E+04 0.  0.
        4    1    3    3  502    0  0.46800191074E+03  0.68879489872E+02 -0.90754351201E+03  0.10234290457E+04  0.12699999809E+01 0.  1.
       -4    1    3    3    0  502 -0.46800191074E+03 -0.68879489872E+02  0.10238003317E+04  0.11278026888E+04  0.12699999809E+01 0. -1.
</event>
<event>
 5   0  0.8858590E-05  0.2085467E+04  0.7818609E-02  0.8567672E-01
       -2   -1    0    0    0  501  0.00000000000E+00  0.00000000000E+00  0.69845648668E+03  0.69845648669E+03  0.25500000920E-02 0.  1.
        2   -1    0    0  501    0  0.00000000000E+00  0.00000000000E+00 -0.15567090751E+04  0.15567090751E+04  0.25500000920E-02 0. -1.
    10030    2    1    2    0    0  0.00000000000E+00  0.00000000000E+00 -0.85825258844E+03  0.22551655618E+04  0.20854673830E+04 0.  0.
        1    1    3    3  502    0 -0.64084719384E+03 -0.28955102668E+03  0.40343771829E+03  0.81073233281E+03  0.50400001928E-02 0.  1.
       -1    1    3    3    0  502  0.64084719384E+03  0.28955102668E+03 -0.12616903067E+04  0.14444332290E+04  0.50400001928E-02 0. -1.
</event>
<event>
 5   0  0.9086985E-05  0.2073297E+04  0.7818609E-02  0.8573099E-01
        2   -1    0    0  501    0  0.00000000000E+00  0.00000000000E+00  0.18389185875E+04  0.18389185875E+04  0.25500000920E-02 0.  1.
       -2   -1    0    0    0  501  0.00000000000E+00  0.00000000000E+00 -0.58438675676E+03  0.58438675676E+03  0.25500000920E-02 0. -1.
    10030    2    1    2    0    0  0.00000000000E+00  0.00000000000E+00  0.12545318307E+04  0.24233053443E+04  0.20732965724E+04 0.  0.
        5    1    3    3  502    0  0.19944221148E+03 -0.78120267766E+03  0.13888496486E+04  0.16059203765E+04  0.46999998093E+01 0.  1.
       -5    1    3    3    0  502 -0.19944221148E+03  0.78120267766E+03 -0.13431781786E+03  0.81738496774E+03  0.46999998093E+01 0. -1.
</event>
<event>
 5   0  0.9012466E-05  0.2085643E+04  0.7818609E-02  0.8567594E-01
        2   -1    0    0  501    0  0.00000000000E+00  0.00000000000E+00  0.90694668082E+03  0.90694668083E+03  0.25500000920E-02 0.  1.
       -2   -1    0    0    0  501  0.00000000000E+00  0.00000000000E+00 -0.11990529288E+04  0.11990529288E+04  0.25500000920E-02 0. -1.
    10030    2    1    2    0    0  0.00000000000E+00  0.00000000000E+00 -0.29210624797E+03  0.21059996096E+04  0.20856433769E+04 0.  0.
        2    1    3    3  502    0 -0.26252575842E+03  0.68931750816E+03  0.59829744120E+03  0.94975693156E+03  0.25500000920E-02 0.  1.
       -2    1    3    3    0  502  0.26252575842E+03 -0.68931750816E+03 -0.89040368917E+03  0.11562426781E+04  0.25500000920E-02 0. -1.
</event>
<event>
 5   0  0.4182977E-05  0.2063422E+04  0.7818609E-02  0.8577530E-01
       -1   -1    0    0    0  501  0.00000000000E+00  0.00000000000E+00  0.63044288841E+03  0.63044288843E+03  0.50400001928E-02 0. -1.
        1   -1    0    0  501    0  0.00000000000E+00  0.00000000000E+00 -0.16883802800E+04  0.16883802800E+04  0.50400001928E-02 0.  1.
    10030    2    1    2    0    0  0.00000000000E+00  0.00000000000E+00 -0.10579373915E+04  0.23188231684E+04  0.20634217605E+04 0.  0.
        1    1    3    3  502    0 -0.28476194406E+03  0.30046552323E+03  0.53301919687E+03  0.67489136880E+03  0.50400001928E-02 0. -1.
       -1    1    3    3    0  502  0.28476194406E+03 -0.30046552323E+03 -0.15909565884E+04  0.16439317996E+04  0.50400001928E-02 0.  1.
</event>
<event>
 5   0  0.4200061E-05  0.2101697E+04  0.7818609E-02  0.8560496E-01
        1   -1    0    0  501    0  0.00000000000E+00  0.00000000000E+00  0.12600724546E+04  0.12600724546E+04  0.50400001928E-02 0. -1.
       -1   -1    0    0    0  501  0.00000000000E+00  0.00000000000E+00 -0.87636395783E+03  0.87636395784E+03  0.50400001928E-02 0.  1.
    10030    2    1    2    0    0  0.00000000000E+00  0.00000000000E+00  0.38370849679E+03  0.21364364125E+04  0.21016965371E+04 0.  0.
        4    1    3    3  502    0  0.73336254841E+03  0.21720767828E+02  0.95661148296E+03  0.12055702225E+04  0.12699999809E+01 0. -1.
       -4    1    3    3    0  502 -0.73336254841E+03 -0.21720767828E+02 -0.57290298617E+03  0.93086618997E+03  0.12699999809E+01 0.  1.
</event>
<event>
 5   0  0.9012466E-05  0.2088185E+04  0.7818609E-02  0.8566466E-01
       -2   -1    0    0    0  501  0.00000000000E+00  0.00000000000E+00  0.44034485761E+03  0.44034485762E+03  0.25500000920E-02 0. -1.
        2   -1    0    0  501    0  0.00000000000E+00  0.00000000000E+00 -0.24756267416E+04  0.24756267416E+04  0.25500000920E-02 0.  1.
    10030    2    1    2    0    0  0.00000000000E+00  0.00000000000E+00 -0.20352818839E+04  0.29159715992E+04  0.20881853414E+04 0.  0.
        2    1    3    3  502    0 -0.15748595298E+02  0.98220735822E+03 -0.15116444210E+04  0.18027889972E+04  0.25500000920E-02 0.  1.
       -2    1    3    3    0  502  0.15748595298E+02 -0.98220735822E+03 -0.52363746298E+03  0.11131826020E+04  0.25500000920E-02 0. -1.
</event>
<event>
 5   0  0.9086985E-05  0.2102514E+04  0.7818609E-02  0.8560137E-01
        2   -1    0    0  501    0  0.00000000000E+00  0.00000000000E+00  0.10608916566E+04  0.10608916566E+04  0.25500000920E-02 0.  1.
       -2   -1    0    0    0  501  0.00000000000E+00  0.00000000000E+00 -0.10417094630E+04  0.10417094630E+04  0.25500000920E-02 0. -1.
    10030    2    1    2    0    0  0.00000000000E+00  0.00000000000E+00  0.19182193538E+02  0.21026011196E+04  0.21025136175E+04 0.  0.
        5    1    3    3  502    0 -0.96275873414E+03  0.13842085138E+03  0.40842353644E+03  0.10549391392E+04  0.46999998093E+01 0. -1.
       -5    1    3    3    0  502  0.96275873414E+03 -0.13842085138E+03 -0.38924134290E+03  0.10476619804E+04  0.46999998093E+01 0.  1.
</event>
<event>
 5   0  0.4200061E-05  0.2142798E+04  0.7818609E-02  0.8542622E-01
        1   -1    0    0  501    0  0.00000000000E+00  0.00000000000E+00  0.23253718952E+04  0.23253718952E+04  0.50400001928E-02 0.  1.
       -1   -1    0    0    0  501  0.00000000000E+00  0.00000000000E+00 -0.49363948067E+03  0.49363948070E+03  0.50400001928E-02 0. -1.
    10030    2    1    2    0    0  0.00000000000E+00  0.00000000000E+00  0.18317324145E+04  0.28190113759E+04  0.21427975870E+04 0.  0.
        4    1    3    3  502    0 -0.21365410086E+03 -0.99988588064E+03  0.49473023488E+03  0.11358606725E+04  0.12699999809E+01 0. -1.
       -4    1    3    3    0  502  0.21365410086E+03  0.99988588064E+03  0.13370021796E+04  0.16831507034E+04  0.12699999809E+01 0.  1.
</event>
<event>
 5   0  0.4050368E-05  0.2081696E+04  0.7818609E-02  0.8569350E-01
        1   -1    0    0  501    0  0.00000000000E+00  0.00000000000E+00  0.87190726384E+03  0.87190726386E+03  0.50400001928E-02 0. -1.
       -1   -1    0    0    0  501  0.00000000000E+00  0.00000000000E+00 -0.12425227806E+04  0.12425227806E+04  0.50400001928E-02 0.  1.
    10030    2    1    2    0    0  0.00000000000E+00  0.00000000000E+00 -0.37061551677E+03  0.21144300445E+04  0.20816960757E+04 0.  0.
        2    1    3    3  502    0 -0.28262909681E+03  0.46443545031E+03  0.71622163503E+03  0.89919570971E+03  0.25500000920E-02 0. -1.
       -2    1    3    3    0  502  0.28262909681E+03 -0.46443545031E+03 -0.10868371518E+04  0.12152343348E+04  0.25500000920E-02 0.  1.
</event>
<event>
 5   0  0.8547605E-05  0.1952844E+04  0.7818609E-02  0.8628991E-01
        2   -1    0    0  501    0  0.00000000000E+00  0.00000000000E+00  0.10296969817E+04  0.10296969817E+04  0.25500000920E-02 0. -1.
       -2   -1    0    0    0  501  0.00000000000E+00  0.00000000000E+00 -0.92590293364E+03  0.92590293365E+03  0.25500000920E-02 0.  1.
    10030    2    1    2    0    0  0.00000000000E+00  0.00000000000E+00  0.10379404805E+03  0.19555999153E+04  0.19528435228E+04 0.  0.
        4    1    3    3  502    0 -0.47911885403E+03 -0.58828487767E+03 -0.56359548757E+03  0.94513250927E+03  0.12699999809E+01 0.  1.
       -4    1    3    3    0  502  0.47911885403E+03  0.58828487767E+03  0.66738953562E+03  0.10104674061E+04  0.12699999809E+01 0. -1.
</event>
<event>
 5   0  0.4128678E-05  0.1699691E+04  0.7818609E-02  0.8761540E-01
       -1   -1    0    0    0  501  0.00000000000E+00  0.00000000000E+00  0.43263032757E+03  0.43263032760E+03  0.50400001928E-02 0. -1.
        1   -1    0    0  501    0  0.00000000000E+00  0.00000000000E+00 -0.16694109221E+04  0.16694109221E+04  0.50400001928E-02 0.  1.
    10030    2    1    2    0    0  0.00000000000E+00  0.00000000000E+00 -0.12367805945E+04  0.21020412497E+04  0.16996914945E+04 0.  0.
        5    1    3    3  502    0 -0.33305072662E+03 -0.27766665186E+03 -0.15222909419E+04  0.15828497585E+04  0.46999998093E+01 0.  1.
       -5    1    3    3    0  502  0.33305072662E+03  0.27766665186E+03  0.28551034741E+03  0.51919149120E+03  0.46999998093E+01 0. -1.
</event>
<event>
 5   0  0.8547605E-05  0.2193588E+04  0.7818609E-02  0.8521102E-01
        2   -1    0    0  501    0  0.00000000000E+00  0.00000000000E+00  0.18568059261E+04  0.18568059261E+04  0.25500000920E-02 0. -1.
       -2   -1    0    0    0  501  0.00000000000E+00  0.00000000000E+00 -0.64786362590E+03  0.64786362590E+03  0.25500000920E-02 0.  1.
    10030    2    1    2    0    0  0.00000000000E+00  0.00000000000E+00  0.12089423002E+04  0.25046695520E+04  0.21935879466E+04 0.  0.
        4    1    3    3  502    0  0.90129702302E+03 -0.26506487210E+03  0.12507416350E+04  0.15642736208E+04  0.12699999809E+01 0. -1.
       -4    1    3    3    0  502 -0.90129702302E+03  0.26506487210E+03 -0.41799334850E+02  0.94039593121E+03  0.12699999809E+01 0.  1.
</event>
<event>
 5   0  0.8547605E-05  0.2124664E+04  0.7818609E-02  0.8550456E-01
       -2   -1    0    0    0  501  0.00000000000E+00  0.00000000000E+00  0.75177913736E+03  0.75177913736E+03  0.25500000920E-02 0.  1.
        2   -1    0    0  501    0  0.00000000000E+00  0.00000000000E+00 -0.15011710474E+04  0.15011710474E+04  0.25500000920E-02 0. -1.
    10030    2    1    2    0    0  0.00000000000E+00  0.00000000000E+00 -0.74939191008E+03  0.22529501848E+04  0.21246638088E+04 0.  0.
        4    1    3    3  502    0  0.53942236101E+03  0.44033387505E+02 -0.13440198315E+04  0.14488983205E+04  0.12699999809E+01 0. -1.
       -4    1    3    3    0  502 -0.53942236101E+03 -0.44033387505E+02  0.59462792138E+03  0.80405186434E+03  0.12699999809E+01 0.  1.
</event>
<event>
 5   0  0.8872777E-05  0.2089820E+04  0.7818609E-02  0.8565741E-01
        2   -1    0    0  501    0  0.00000000000E+00  0.00000000000E+00  0.15743170554E+04  0.15743170554E+04  0.25500000920E-02 0.  1.
       -2   -1    0    0    0  501  0.00000000000E+00  0.00000000000E+00 -0.69353050000E+03  0.69353050000E+03  0.25500000920E-02 0. -1.
    10030    2    1    2    0    0  0.00000000000E+00  0.00000000000E+00  0.88078655539E+03  0.22678475554E+04  0.20898199871E+04 0.  0.
        3    1    3    3  502    0  0.88678080534E+03  0.16816233201E+03  0.10117198850E+04  0.13558155858E+04  0.10100000352E+00 0.  1.
       -3    1    3    3    0  502 -0.88678080534E+03 -0.16816233201E+03 -0.13093332962E+03  0.91203196964E+03  0.10100000352E+00 0. -1.
</event>
<event>
 5   0  0.4050368E-05  0.2069881E+04  0.7818609E-02  0.8574628E-01
       -1   -1    0    0    0  501  0.00000000000E+00  0.00000000000E+00  0.59277320996E+03  0.59277320998E+03  0.50400001928E-02 0.  1.
        1   -1    0    0  501    0  0.00000000000E+00  0.00000000000E+00 -0.18069344422E+04  0.18069344422E+04  0.50400001928E-02 0. -1.
    10030    2    1    2    0    0  0.00000000000E+00  0.00000000000E+00 -0.12141612322E+04  0.23997076522E+04  0.20698814744E+04 0.  0.
        2    1    3    3  502    0  0.58411237976E+03  0.67480502554E+03  0.39121093358E+00  0.89249607716E+03  0.25500000920E-02 0.  1.
       -2    1    3    3    0  502 -0.58411237976E+03 -0.67480502554E+03 -0.12145524432E+04  0.15072115750E+04  0.25500000920E-02 0. -1.
</event>
<event>
 5   0  0.4182977E-05  0.2103275E+04  0.7818609E-02  0.8559802E-01
       -1   -1    0    0    0  501  0.00000000000E+00  0.00000000000E+00  0.17994528480E+04  0.17994528480E+04  0.50400001928E-02 0. -1.
        1   -1    0    0  501    0  0.00000000000E+00  0.00000000000E+00 -0.61459886241E+03  0.61459886243E+03  0.50400001928E-02 0.  1.
    10030    2    1    2    0    0  0.00000000000E+00  0.00000000000E+00  0.11848539855E+04  0.24140517104E+04  0.21032752301E+04 0.  0.
        1    1    3    3  502    0 -0.18998028693E+03 -0.87261867061E+02  0.17753614136E+04  0.17876283987E+04  0.50400001928E-02 0. -1.
       -1    1    3    3    0  502  0.18998028693E+03  0.87261867061E+02 -0.59050742805E+03  0.62642331172E+03  0.50400001928E-02 0.  1.
</event>
<event>
 5   0  0.4128678E-05  0.2087200E+04  0.7818609E-02  0.8566903E-01
       -1   -1    0    0    0  501  0.00000000000E+00  0.00000000000E+00  0.34294622369E+03  0.34294622373E+03  0.50400001928E-02 0.  1.
        1   -1    0    0  501    0  0.00000000000E+00  0.00000000000E+00 -0.31757183895E+04  0.31757183895E+04  0.50400001928E-02 0. -1.
    10030    2    1    2    0    0  0.00000000000E+00  0.00000000000E+00 -0.28327721658E+04  0.35186646132E+04  0.20871996831E+04 0.  0.
        5    1    3    3  502    0  0.69337144858E+02 -0.24315163504E+03 -0.31232826155E+04  0.31335039083E+04  0.46999998093E+01 0. -1.
       -5    1    3    3    0  502 -0.69337144858E+02  0.24315163504E+03  0.29051044964E+03  0.38516070494E+03  0.46999998093E+01 0.  1.
</event>
<event>
 5   0  0.8858590E-05  0.1966897E+04  0.7818609E-02  0.8622256E-01
        2   -1    0    0  501    0  0.00000000000E+00  0.00000000000E+00  0.78578012469E+03  0.78578012470E+03  0.25500000920E-02 0.  1.
       -2   -1    0    0    0  501  0.00000000000E+00  0.00000000000E+00 -0.12308418744E+04  0.12308418744E+04  0.25500000920E-02 0. -1.
    10030    2    1    2    0    0  0.00000000000E+00  0.00000000000E+00 -0.44506174973E+03  0.20166219991E+04  0.19668971316E+04 0.  0.
        1    1    3    3  502    0  0.29100264404E+03 -0.18618660085E+03 -0.11665819132E+04  0.12166599153E+04  0.50400001928E-02 0. -1.
       -1    1    3    3    0  502 -0.29100264404E+03  0.18618660085E+03  0.72152016351E+03  0.79996208382E+03  0.50400001928E-02 0.  1.
</event>
<event>
 5   0  0.9086985E-05  0.2128609E+04  0.7818609E-02  0.8548745E-01
        2   -1    0    0  501    0  0.00000000000E+00  0.00000000000E+00  0.12158727209E+04  0.12158727209E+04  0.25500000920E-02 0.  1.
       -2   -1    0    0    0  501  0.00000000000E+00  0.00000000000E+00 -0.93163022971E+03  0.93163022971E+03  0.25500000920E-02 0. -1.
    10030    2    1    2    0    0  0.00000000000E+00  0.00000000000E+00  0.28424249121E+03  0.21475029506E+04  0.21286087309E+04 0.  0.
        5    1    3    3  502    0  0.29757567978E+03 -0.85163687661E+03 -0.42759027411E+03  0.99834472368E+03  0.46999998093E+01 0. -1.
       -5    1    3    3    0  502 -0.29757567978E+03  0.85163687661E+03  0.71183276532E+03  0.11491582270E+04  0.46999998093E+01 0.  1.
</event>
<event>
 5   0  0.8547605E-05  0.2104351E+04  0.7818609E-02  0.8559329E-01
        2   -1    0    0  501    0  0.00000000000E+00  0.00000000000E+00  0.77891731918E+03  0.77891731918E+03  0.25500000920E-02 0. -1.
       -2   -1    0    0    0  501  0.00000000000E+00  0.00000000000E+00 -0.14212980325E+04  0.14212980325E+04  0.25500000920E-02 0.  1.
    10030    2    1    2    0    0  0.00000000000E+00  0.00000000000E+00 -0.64238071328E+03  0.22002153517E+04  0.21043513520E+04 0.  0.
        4    1    3    3  502    0 -0.28059831402E+03 -0.96747953553E+03 -0.35067709955E+01  0.10073559331E+04  0.12699999809E+01 0. -1.
       -4    1    3    3    0  502  0.28059831402E+03  0.96747953553E+03 -0.63887394229E+03  0.11928594186E+04  0.12699999809E+01 0.  1.
</event>
<event>
 5   0  0.4128678E-05  0.2107119E+04  0.7818609E-02  0.8558114E-01
        1   -1    0    0  501    0  0.00000000000E+00  0.00000000000E+00  0.10271880510E+04  0.10271880510E+04  0.50400001928E-02 0. -1.
       -1   -1    0    0    0  501  0.00000000000E+00  0.00000000000E+00 -0.10806081122E+04  0.10806081122E+04  0.50400001928E-02 0.  1.
    10030    2    1    2    0    0  0.00000000000E+00  0.00000000000E+00 -0.53420061269E+02  0.21077961632E+04  0.21071191145E+04 0.  0.
        5    1    3    3  502    0  0.47101970926E+03  0.91468605254E+03 -0.25362098587E+03  0.10596489210E+04  0.46999998093E+01 0. -1.
       -5    1    3    3    0  502 -0.47101970926E+03 -0.91468605254E+03  0.20020092460E+03  0.10481472423E+04  0.46999998093E+01 0.  1.
</event>
<event>
 5   0  0.4182977E-05  0.2105538E+04  0.7818609E-02  0.8558808E-01
       -1   -1    0    0    0  501  0.00000000000E+00  0.00000000000E+00  0.84690445626E+03  0.84690445628E+03  0.50400001928E-02 0. -1.
        1   -1    0    0  501    0  0.00000000000E+00  0.00000000000E+00 -0.13086753477E+04  0.13086753477E+04  0.50400001928E-02 0.  1.
    10030    2    1    2    0    0  0.00000000000E+00  0.00000000000E+00 -0.46177089146E+03  0.21555798040E+04  0.21055383956E+04 0.  0.
        1    1    3    3  502    0  0.13174197511E+03 -0.10225842866E+04 -0.44875396875E+03  0.11244619584E+04  0.50400001928E-02 0.  1.
       -1    1    3    3    0  502 -0.13174197511E+03  0.10225842866E+04 -0.13016922707E+02  0.10311178456E+04  0.50400001928E-02 0. -1.
</event>
<event>
 5   0  0.4050368E-05  0.1944501E+04  0.7818609E-02  0.8633017E-01
        1   -1    0    0  501    0  0.00000000000E+00  0.00000000000E+00  0.20369040016E+04  0.20369040016E+04  0.50400001928E-02 0. -1.
       -1   -1    0    0    0  501  0.00000000000E+00  0.00000000000E+00 -0.46407261629E+03  0.46407261632E+03  0.50400001928E-02 0.  1.
    10030    2    1    2    0    0  0.00000000000E+00  0.00000000000E+00  0.15728313853E+04  0.25009766179E+04  0.19445013440E+04 0.  0.
        2    1    3    3  502    0 -0.18127814001E+03 -0.60732856878E+03  0.17346720736E+04  0.18468343070E+04  0.25500000920E-02 0. -1.
       -2    1    3    3    0  502  0.18127814001E+03  0.60732856878E+03 -0.16184068833E+03  0.65414231090E+03  0.25500000920E-02 0.  1.
</event>
<event>
 5   0  0.4050368E-05  0.2114410E+04  0.7818609E-02  0.8554922E-01
       -1   -1    0    0    0  501  0.00000000000E+00  0.00000000000E+00  0.51651294523E+03  0.51651294525E+03  0.50400001928E-02 0. -1.
        1   -1    0    0  501    0  0.00000000000E+00  0.00000000000E+00 -0.21638992433E+04  0.21638992433E+04  0.50400001928E-02 0.  1.
    10030    2    1    2    0    0  0.00000000000E+00  0.00000000000E+00 -0.16473862981E+04  0.26804121885E+04  0.21144095832E+04 0.  0.
        2    1    3    3  502    0 -0.96698712358E+03 -0.34173861824E+03 -0.49843143992E+03  0.11402996451E+04  0.25500000920E-02 0. -1.
       -2    1    3    3    0  502  0.96698712358E+03  0.34173861824E+03 -0.11489548581E+04  0.15401125434E+04  0.25500000920E-02 0.  1.
</event>
<event>
 5   0  0.4128678E-05  0.2113221E+04  0.7818609E-02  0.8555442E-01
        1   -1    0    0  501    0  0.00000000000E+00  0.00000000000E+00  0.12816466471E+04  0.12816466471E+04  0.50400001928E-02 0. -1.
       -1   -1    0    0    0  501  0.00000000000E+00  0.00000000000E+00 -0.87108678904E+03  0.87108678906E+03  0.50400001928E-02 0.  1.
    10030    2    1    2    0    0  0.00000000000E+00  0.00000000000E+00  0.41055985806E+03  0.21527334362E+04  0.21132207292E+04 0.  0.
        5    1    3    3  502    0 -0.22989520511E+02 -0.76591727985E+03  0.94637514870E+03  0.12177051407E+04  0.46999998093E+01 0. -1.
       -5    1    3    3    0  502  0.22989520511E+02  0.76591727985E+03 -0.53581529064E+03  0.93502829546E+03  0.46999998093E+01 0.  1.
</event>
<event>
 5   0  0.8858590E-05  0.2091351E+04  0.7818609E-02  0.8565063E-01
        2   -1    0    0  501    0  0.00000000000E+00  0.00000000000E+00  0.19357701418E+04  0.19357701418E+04  0.25500000920E-02 0. -1.
       -2   -1    0    0    0  501  0.00000000000E+00  0.00000000000E+00 -0.56485880653E+03  0.56485880653E+03  0.25500000920E-02 0.  1.
    10030    2    1    2    0    0  0.00000000000E+00  0.00000000000E+00  0.13709113352E+04  0.25006289483E+04  0.20913505799E+04 0.  0.
        1    1    3    3  502    0  0.40662557316E+03  0.76199609822E+03  0.13902644745E+04  0.16367094182E+04  0.50400001928E-02 0. -1.
       -1    1    3    3    0  502 -0.40662557316E+03 -0.76199609822E+03 -0.19353139304E+02  0.86391953009E+03  0.50400001928E-02 0.  1.
</event>
<event>
 5   0  0.4050368E-05  0.2134390E+04  0.7818609E-02  0.8546244E-01
       -1   -1    0    0    0  501  0.00000000000E+00  0.00000000000E+00  0.51055748781E+03  0.51055748784E+03  0.50400001928E-02 0.  1.
        1   -1    0    0  501    0  0.00000000000E+00  0.00000000000E+00 -0.22307091317E+04  0.22307091317E+04  0.50400001928E-02 0. -1.
    10030    2    1    2    0    0  0.00000000000E+00  0.00000000000E+00 -0.17201516438E+04  0.27412666195E+04  0.21343900771E+04 0.  0.
        2    1    3    3  502    0 -0.75917778806E+03  0.25635269279E+03 -0.17653595759E+04  0.19387011243E+04  0.25500000920E-02 0. -1.
       -2    1    3    3    0  502  0.75917778806E+03 -0.25635269279E+03  0.45207932083E+02  0.80256549522E+03  0.25500000920E-02 0.  1.
</event>
<event>
 5   0  0.4182977E-05  0.2091464E+04  0.7818609E-02  0.8565013E-01
        1   -1    0    0  501    0  0.00000000000E+00  0.00000000000E+00  0.92574425046E+03  0.92574425047E+03  0.50400001928E-02 0.  1.
       -1   -1    0    0    0  501  0.00000000000E+00  0.00000000000E+00 -0.11812717944E+04  0.11812717944E+04  0.50400001928E-02 0. -1.
    10030    2    1    2    0    0  0.00000000000E+00  0.00000000000E+00 -0.25552754390E+03  0.21070160448E+04  0.20914641492E+04 0.  0.
        1    1    3    3  502    0  0.47075584049E+03 -0.42456564436E+03 -0.96562617574E+03  0.11551194566E+04  0.50400001928E-02 0. -1.
       -1    1    3    3    0  502 -0.47075584049E+03  0.42456564436E+03  0.71009863184E+03  0.95189658824E+03  0.50400001928E-02 0.  1.
</event>
<event>
 5   0  0.8547605E-05  0.2106183E+04  0.7818609E-02  0.8558525E-01
       -2   -1    0    0    0  501  0.00000000000E+00  0.00000000000E+00  0.63699662343E+03  0.63699662343E+03  0.25500000920E-02 0. -1.
        2   -1    0    0  501    0  0.00000000000E+00  0.00000000000E+00 -0.17409855794E+04  0.17409855794E+04  0.25500000920E-02 0.  1.
    10030    2    1    2    0    0  0.00000000000E+00  0.00000000000E+00 -0.11039889560E+04  0.23779822028E+04  0.21061832166E+04 0.  0.
        4    1    3    3  502    0 -0.25722953375E+03 -0.29667816614E+03 -0.16552399396E+04  0.17011777797E+04  0.12699999809E+01 0.  1.
       -4    1    3    3    0  502  0.25722953375E+03  0.29667816614E+03  0.55125098369E+03  0.67680442316E+03  0.12699999809E+01 0. -1.
</event>
<event>
 5   0  0.4128678E-05  0.2049672E+04  0.7818609E-02  0.8583743E-01
       -1   -1    0    0    0  501  0.00000000000E+00  0.00000000000E+00  0.12325757581E+04  0.12325757581E+04  0.50400001928E-02 0.  1.
        1   -1    0    0  501    0  0.00000000000E+00  0.00000000000E+00 -0.85210915153E+03  0.85210915155E+03  0.50400001928E-02 0. -1.
    10030    2    1    2    0    0  0.00000000000E+00  0.00000000000E+00  0.38046660654E+03  0.20846849096E+04  0.20496722503E+04 0.  0.
        5    1    3    3  502    0 -0.41655193242E+03  0.70749483314E+03  0.81406417671E+03  0.11561950636E+04  0.46999998093E+01 0.  1.
       -5    1    3    3    0  502  0.41655193242E+03 -0.70749483314E+03 -0.43359757016E+03  0.92848984602E+03  0.46999998093E+01 0. -1.
</event>
<event>
 5   0  0.4128678E-05  0.2112807E+04  0.7818609E-02  0.8555623E-01
        1   -1    0    0  501    0  0.00000000000E+00  0.00000000000E+00  0.22180744023E+04  0.22180744023E+04  0.50400001928E-02 0.  1.
       -1   -1    0    0    0  501  0.00000000000E+00  0.00000000000E+00 -0.50313379842E+03  0.50313379845E+03  0.50400001928E-02 0. -1.
    10030    2    1    2    0    0  0.00000000000E+00  0.00000000000E+00  0.17149406039E+04  0.27212082008E+04  0.21128068528E+04 0.  0.
        5    1    3    3  502    0 -0.89733490445E+02  0.51508727063E+03  0.20397288786E+04  0.21056787466E+04  0.46999998093E+01 0.  1.
       -5    1    3    3    0  502  0.89733490445E+02 -0.51508727063E+03 -0.32478827465E+03  0.61552945423E+03  0.46999998093E+01 0. -1.
</event>
<event>
 5   0  0.4050368E-05  0.2062057E+04  0.7818609E-02  0.8578144E-01
        1   -1    0    0  501    0  0.00000000000E+00  0.00000000000E+00  0.84251095302E+03  0.84251095304E+03  0.50400001928E-02 0.  1.
       -1   -1    0    0    0  501  0.00000000000E+00  0.00000000000E+00 -0.12617277255E+04  0.12617277255E+04  0.50400001928E-02 0. -1.
    10030    2    1    2    0    0  0.00000000000E+00  0.00000000000E+00 -0.41921677247E+03  0.21042386785E+04  0.20620566709E+04 0.  0.
        2    1    3    3  502    0 -0.59068087168E+03  0.13700192286E+03 -0.10605404447E+04  0.12216462065E+04  0.25500000920E-02 0. -1.
       -2    1    3    3    0  502  0.59068087168E+03 -0.13700192286E+03  0.64132367225E+03  0.88259247200E+03  0.25500000920E-02 0.  1.
</event>
<event>
 5   0  0.8858590E-05  0.1990262E+04  0.7818609E-02  0.8611187E-01
        2   -1    0    0  501    0  0.00000000000E+00  0.00000000000E+00  0.76217700634E+03  0.76217700635E+03  0.25500000920E-02 0.  1.
       -2   -1    0    0    0  501  0.00000000000E+00  0.00000000000E+00 -0.12992852366E+04  0.12992852366E+04  0.25500000920E-02 0. -1.
    10030    2    1    2    0    0  0.00000000000E+00  0.00000000000E+00 -0.53710823025E+03  0.20614622429E+04  0.19902616230E+04 0.  0.
        1    1    3    3  502    0  0.76883335861E+03 -0.52782338462E+03 -0.62822757306E+03  0.11244430365E+04  0.50400001928E-02 0. -1.
       -1    1    3    3    0  502 -0.76883335861E+03  0.52782338462E+03  0.91119342811E+02  0.93701920649E+03  0.50400001928E-02 0.  1.
</event>
<event>
 5   0  0.4050368E-05  0.2134046E+04  0.7818609E-02  0.8546392E-01
       -1   -1    0    0    0  501  0.00000000000E+00  0.00000000000E+00  0.24284337218E+04  0.24284337218E+04  0.50400001928E-02 0.  1.
        1   -1    0    0  501    0  0.00000000000E+00  0.00000000000E+00 -0.46883648003E+03  0.46883648006E+03  0.50400001928E-02 0. -1.
    10030    2    1    2    0    0  0.00000000000E+00  0.00000000000E+00  0.19595972418E+04  0.28972702018E+04  0.21340462208E+04 0.  0.
        2    1    3    3  502    0  0.42142989181E+03  0.72108797997E+03  0.18813456070E+04  0.20584052861E+04  0.25500000920E-02 0.  1.
       -2    1    3    3    0  502 -0.42142989181E+03 -0.72108797997E+03  0.78251634709E+02  0.83886491577E+03  0.25500000920E-02 0. -1.
</event>
<event>
 5   0  0.8858590E-05  0.2069806E+04  0.7818609E-02  0.8574662E-01
        2   -1    0    0  501    0  0.00000000000E+00  0.00000000000E+00  0.10566078960E+04  0.10566078960E+04  0.25500000920E-02 0.  1.
       -2   -1    0    0    0  501  0.00000000000E+00  0.00000000000E+00 -0.10136444224E+04  0.10136444224E+04  0.25500000920E-02 0. -1.
    10030    2    1    2    0    0  0.00000000000E+00  0.00000000000E+00  0.42963473670E+02  0.20702523184E+04  0.20698064648E+04 0.  0.
        1    1    3    3  502    0  0.66966563037E+03  0.64763834026E+03  0.47228629368E+03  0.10444816032E+04  0.50400001928E-02 0.  1.
       -1    1    3    3    0  502 -0.66966563037E+03 -0.64763834026E+03 -0.42932282001E+03  0.10257707152E+04  0.50400001928E-02 0. -1.
</event>
<event>
 5   0  0.8872777E-05  0.2103049E+04  0.7818609E-02  0.8559902E-01
       -2   -1    0    0    0  501  0.00000000000E+00  0.00000000000E+00  0.71743896263E+03  0.71743896263E+03  0.25500000920E-02 0.  1.
        2   -1    0    0  501    0  0.00000000000E+00  0.00000000000E+00 -0.15411814229E+04  0.15411814229E+04  0.25500000920E-02 0. -1.
    10030    2    1    2    0    0  0.00000000000E+00  0.00000000000E+00 -0.82374246027E+03  0.22586203855E+04  0.21030488356E+04 0.  0.
        3    1    3    3  502    0  0.36186390678E+03  0.97485002746E+03 -0.24402334781E+03  0.10680943158E+04  0.10100000352E+00 0.  1.
       -3    1    3    3    0  502 -0.36186390678E+03 -0.97485002746E+03 -0.57971911246E+03  0.11905260697E+04  0.10100000352E+00 0. -1.
</event>
<event>
 5   0  0.8872777E-05  0.2085723E+04  0.7818609E-02  0.8567559E-01
        2   -1    0    0  501    0  0.00000000000E+00  0.00000000000E+00  0.97965709979E+03  0.97965709979E+03  0.25500000920E-02 0. -1.
       -2   -1    0    0    0  501  0.00000000000E+00  0.00000000000E+00 -0.11101432035E+04  0.11101432035E+04  0.25500000920E-02 0.  1.
    10030    2    1    2    0    0  0.00000000000E+00  0.00000000000E+00 -0.13048610367E+03  0.20898003033E+04  0.20857225808E+04 0.  0.
        3    1    3    3  502    0  0.15319790872E+03 -0.10033488115E+04  0.17476905488E+03  0.10299139137E+04  0.10100000352E+00 0.  1.
       -3    1    3    3    0  502 -0.15319790872E+03  0.10033488115E+04 -0.30525515855E+03  0.10598863896E+04  0.10100000352E+00 0. -1.
</event>
<event>
 5   0  0.4182977E-05  0.2118773E+04  0.7818609E-02  0.8553018E-01
        1   -1    0    0  501    0  0.00000000000E+00  0.00000000000E+00  0.99677510057E+03  0.99677510058E+03  0.50400001928E-02 0.  1.
       -1   -1    0    0    0  501  0.00000000000E+00  0.00000000000E+00 -0.11259310184E+04  0.11259310184E+04  0.50400001928E-02 0. -1.
    10030    2    1    2    0    0  0.00000000000E+00  0.00000000000E+00 -0.12915591779E+03  0.21227061189E+04  0.21187732338E+04 0.  0.
        1    1    3    3  502    0 -0.74532329701E+03 -0.33104493853E+03 -0.74200052801E+03  0.11025707923E+04  0.50400001928E-02 0. -1.
       -1    1    3    3    0  502  0.74532329701E+03  0.33104493853E+03  0.61284461023E+03  0.10201353267E+04  0.50400001928E-02 0.  1.
</event>
<event>
 5   0  0.4128678E-05  0.2090196E+04  0.7818609E-02  0.8565574E-01
        1   -1    0    0  501    0  0.00000000000E+00  0.00000000000E+00  0.72114671511E+03  0.72114671512E+03  0.50400001928E-02 0. -1.
       -1   -1    0    0    0  501  0.00000000000E+00  0.00000000000E+00 -0.15145736627E+04  0.15145736627E+04  0.50400001928E-02 0.  1.
    10030    2    1    2    0    0  0.00000000000E+00  0.00000000000E+00 -0.79342694759E+03  0.22357203778E+04  0.20901959924E+04 0.  0.
        5    1    3    3  502    0 -0.17916923784E+03 -0.67391253881E+01 -0.14979886289E+04  0.15086878584E+04  0.46999998093E+01 0.  1.
       -5    1    3    3    0  502  0.17916923784E+03  0.67391253881E+01  0.70456168132E+03  0.72703251948E+03  0.46999998093E+01 0. -1.
</event>
<event>
 5   0  0.8872777E-05  0.2109403E+04  0.7818609E-02  0.8557112E-01
        2   -1    0    0  501    0  0.00000000000E+00  0.00000000000E+00  0.22487730749E+04  0.22487730749E+04  0.25500000920E-02 0. -1.
       -2   -1    0    0    0  501  0.00000000000E+00  0.00000000000E+00 -0.49466782357E+03  0.49466782357E+03  0.25500000920E-02 0.  1.
    10030    2    1    2    0    0  0.00000000000E+00  0.00000000000E+00  0.17541052513E+04  0.27434408985E+04  0.21094034063E+04 0.  0.
        3    1    3    3  502    0  0.24802282048E+02 -0.60619457411E+03  0.19991033773E+04  0.20891388988E+04  0.10100000352E+00 0. -1.
       -3    1    3    3    0  502 -0.24802282048E+02  0.60619457411E+03 -0.24499812600E+03  0.65430199970E+03  0.10100000352E+00 0.  1.
</event>
<event>
 5   0  0.4128678E-05  0.2093995E+04  0.7818609E-02  0.8563893E-01
       -1   -1    0    0    0  501  0.00000000000E+00  0.00000000000E+00  0.12383475975E+04  0.12383475975E+04  0.50400001928E-02 0.  1.
        1   -1    0    0  501    0  0.00000000000E+00  0.00000000000E+00 -0.88521475697E+03  0.88521475698E+03  0.50400001928E-02 0. -1.
    10030    2    1    2    0    0  0.00000000000E+00  0.00000000000E+00  0.35313284053E+03  0.21235623545E+04  0.20939948114E+04 0.  0.
        5    1    3    3  502    0  0.57126394038E+03 -0.87735809296E+03  0.16739635503E+03  0.10602562627E+04  0.46999998093E+01 0.  1.
       -5    1    3    3    0  502 -0.57126394038E+03  0.87735809296E+03  0.18573648550E+03  0.10633060918E+04  0.46999998093E+01 0. -1.
</event>
<event>
 5   0  0.9012466E-05  0.2080849E+04  0.7818609E-02  0.8569727E-01
        2   -1    0    0  501    0  0.00000000000E+00  0.00000000000E+00  0.11297583841E+04  0.11297583841E+04  0.25500000920E-02 0.  1.
       -2   -1    0    0    0  501  0.00000000000E+00  0.00000000000E+00 -0.95815499670E+03  0.95815499671E+03  0.25500000920E-02 0. -1.
    10030    2    1    2    0    0  0.00000000000E+00  0.00000000000E+00  0.17160338738E+03  0.20879133808E+04  0.20808494811E+04 0.  0.
        2    1    3    3  502    0  0.10181499329E+04 -0.18712662933E+03  0.19026071997E+03  0.10525420670E+04  0.25500000920E-02 0.  1.
       -2    1    3    3    0  502 -0.10181499329E+04  0.18712662933E+03 -0.18657332591E+02  0.10353713138E+04  0.25500000920E-02 0. -1.
</event>
<event>
 5   0  0.4182977E-05  0.2092775E+04  0.7818609E-02  0.8564433E-01
       -1   -1    0    0    0  501  0.00000000000E+00  0.00000000000E+00  0.90401704201E+03  0.90401704202E+03  0.50400001928E-02 0. -1.
        1   -1    0    0  501    0  0.00000000000E+00  0.00000000000E+00 -0.12111788198E+04  0.12111788198E+04  0.50400001928E-02 0.  1.
    10030    2    1    2    0    0  0.00000000000E+00  0.00000000000E+00 -0.30716177779E+03  0.21151958618E+04  0.20927745163E+04 0.  0.
        1    1    3    3  502    0 -0.40633551668E+02  0.29316945166E+03  0.86082873695E+03  0.91028870546E+03  0.50400001928E-02 0. -1.
       -1    1    3    3    0  502  0.40633551668E+02 -0.29316945166E+03 -0.11679905147E+04  0.12049071564E+04  0.50400001928E-02 0.  1.
</event>
<event>
 5   0  0.4182977E-05  0.2096538E+04  0.7818609E-02  0.8562770E-01
       -1   -1    0    0    0  501  0.00000000000E+00  0.00000000000E+00  0.19006152744E+04  0.19006152745E+04  0.50400001928E-02 0.  1.
        1   -1    0    0  501    0  0.00000000000E+00  0.00000000000E+00 -0.57816410355E+03  0.57816410357E+03  0.50400001928E-02 0. -1.
    10030    2    1    2    0    0  0.00000000000E+00  0.00000000000E+00  0.13224511709E+04  0.24787793780E+04  0.20965376471E+04 0.  0.
        1    1    3    3  502    0 -0.44445087307E+03  0.19742620195E+03 -0.43671277886E+03  0.65362966199E+03  0.50400001928E-02 0.  1.
       -1    1    3    3    0  502  0.44445087307E+03 -0.19742620195E+03  0.17591639498E+04  0.18251497160E+04  0.50400001928E-02 0. -1.
</event>
<event>
 5   0  0.4200061E-05  0.2095824E+04  0.7818609E-02  0.8563085E-01
       -1   -1    0    0    0  501  0.00000000000E+00  0.00000000000E+00  0.12741415579E+04  0.12741415579E+04  0.50400001928E-02 0.  1.
        1   -1    0    0  501    0  0.00000000000E+00  0.00000000000E+00 -0.86185030819E+03  0.86185030820E+03  0.50400001928E-02 0. -1.
    10030    2    1    2    0    0  0.00000000000E+00  0.00000000000E+00  0.41229124970E+03  0.21359918661E+04  0.20958237468E+04 0.  0.
        4    1    3    3  502    0 -0.92234979550E+03 -0.49683554408E+03  0.18239712996E+03  0.10634119752E+04  0.12699999809E+01 0. -1.
       -4    1    3    3    0  502  0.92234979550E+03  0.49683554408E+03  0.22989411974E+03  0.10725798909E+04  0.12699999809E+01 0.  1.
</event>
<event>
 5   0  0.8547605E-05  0.2097686E+04  0.7818609E-02  0.8562263E-01
       -2   -1    0    0    0  501  0.00000000000E+00  0.00000000000E+00  0.61982684987E+03  0.61982684988E+03  0.25500000920E-02 0. -1.
        2   -1    0    0  501    0  0.00000000000E+00  0.00000000000E+00 -0.17748053028E+04  0.17748053028E+04  0.25500000920E-02 0.  1.
    10030    2    1    2    0    0  0.00000000000E+00  0.00000000000E+00 -0.11549784529E+04  0.23946321527E+04  0.20976863254E+04 0.  0.
        4    1    3    3  502    0  0.61377044387E+03  0.84107559406E+02  0.38865134483E+03  0.73132736860E+03  0.12699999809E+01 0. -1.
       -4    1    3    3    0  502 -0.61377044387E+03 -0.84107559406E+02 -0.15436297978E+04  0.16633047841E+04  0.12699999809E+01 0.  1.
</event>
<event>
 5   0  0.4174093E-05  0.2184059E+04  0.7818609E-02  0.8525093E-01
        1   -1    0    0  501    0  0.00000000000E+00  0.00000000000E+00  0.13485444279E+04  0.13485444279E+04  0.50400001928E-02 0. -1.
       -1   -1    0    0    0  501  0.00000000000E+00  0.00000000000E+00 -0.88430769194E+03  0.88430769196E+03  0.50400001928E-02 0.  1.
    10030    2    1    2    0    0  0.00000000000E+00  0.00000000000E+00  0.46423673599E+03  0.22328521199E+04  0.21840588001E+04 0.  0.
        3    1    3    3  502    0  0.45707474637E+03 -0.25827385017E+03 -0.74682579742E+03  0.91289182675E+03  0.10100000352E+00 0.  1.
       -3    1    3    3    0  502 -0.45707474637E+03  0.25827385017E+03  0.12110625334E+04  0.13199602931E+04  0.10100000352E+00 0. -1.
</event>
<event>
 5   0  0.4128678E-05  0.2038641E+04  0.7818609E-02  0.8588765E-01
        1   -1    0    0  501    0  0.00000000000E+00  0.00000000000E+00  0.13932275801E+04  0.13932275801E+04  0.50400001928E-02 0.  1.
       -1   -1    0    0    0  501  0.00000000000E+00  0.00000000000E+00 -0.74576051435E+03  0.74576051436E+03  0.50400001928E-02 0. -1.
    10030    2    1    2    0    0  0.00000000000E+00  0.00000000000E+00  0.64746706577E+03  0.21389880945E+04  0.20386408382E+04 0.  0.
        5    1    3    3  502    0  0.78301543784E+02  0.45594147531E+03 -0.62925769090E+03  0.78102566682E+03  0.46999998093E+01 0. -1.
       -5    1    3    3    0  502 -0.78301543784E+02 -0.45594147531E+03  0.12767247567E+04  0.13579624277E+04  0.46999998093E+01 0.  1.
</event>
<event>
 5   0  0.4200061E-05  0.2038909E+04  0.7818609E-02  0.8588642E-01
        1   -1    0    0  501    0  0.00000000000E+00  0.00000000000E+00  0.11280321599E+04  0.11280321600E+04  0.50400001928E-02 0.  1.
       -1   -1    0    0    0  501  0.00000000000E+00  0.00000000000E+00 -0.92132781054E+03  0.92132781056E+03  0.50400001928E-02 0. -1.
    10030    2    1    2    0    0  0.00000000000E+00  0.00000000000E+00  0.20670434941E+03  0.20493599705E+04  0.20389089241E+04 0.  0.
        4    1    3    3  502    0  0.71872394960E+01 -0.94966143644E+03  0.47589644640E+03  0.10622558735E+04  0.12699999809E+01 0. -1.
       -4    1    3    3    0  502 -0.71872394960E+01  0.94966143644E+03 -0.26919209699E+03  0.98710409697E+03  0.12699999809E+01 0.  1.
</event>
<event>
 5   0  0.9012466E-05  0.2098211E+04  0.7818609E-02  0.8562032E-01
        2   -1    0    0  501    0  0.00000000000E+00  0.00000000000E+00  0.11163357615E+04  0.11163357615E+04  0.25500000920E-02 0. -1.
       -2   -1    0    0    0  501  0.00000000000E+00  0.00000000000E+00 -0.98592396842E+03  0.98592396842E+03  0.25500000920E-02 0.  1.
    10030    2    1    2    0    0  0.00000000000E+00  0.00000000000E+00  0.13041179308E+03  0.21022597299E+04  0.20982108417E+04 0.  0.
        2    1    3    3  502    0  0.39356391837E+03  0.32225605793E+03  0.98451701090E+03  0.11081585038E+04  0.25500000920E-02 0. -1.
       -2    1    3    3    0  502 -0.39356391837E+03 -0.32225605793E+03 -0.85410521782E+03  0.99410122615E+03  0.25500000920E-02 0.  1.
</event>
<event>
 5   0  0.8547605E-05  0.2250828E+04  0.7818609E-02  0.8497565E-01
        2   -1    0    0  501    0  0.00000000000E+00  0.00000000000E+00  0.14845367444E+04  0.14845367444E+04  0.25500000920E-02 0. -1.
       -2   -1    0    0    0  501  0.00000000000E+00  0.00000000000E+00 -0.85316632981E+03  0.85316632982E+03  0.25500000920E-02 0.  1.
    10030    2    1    2    0    0  0.00000000000E+00  0.00000000000E+00  0.63137041456E+03  0.23377030742E+04  0.22508280838E+04 0.  0.
        4    1    3    3  502    0  0.36357896259E+03 -0.92576583419E+03  0.86262567089E+03  0.13165700524E+04  0.12699999809E+01 0. -1.
       -4    1    3    3    0  502 -0.36357896259E+03  0.92576583419E+03 -0.23125525633E+03  0.10211330218E+04  0.12699999809E+01 0.  1.
</event>
<event>
 5   0  0.8547605E-05  0.2097739E+04  0.7818609E-02  0.8562240E-01
        2   -1    0    0  501    0  0.00000000000E+00  0.00000000000E+00  0.21923981301E+04  0.21923981301E+04  0.25500000920E-02 0. -1.
       -2   -1    0    0    0  501  0.00000000000E+00  0.00000000000E+00 -0.50179168850E+03  0.50179168850E+03  0.25500000920E-02 0.  1.
    10030    2    1    2    0    0  0.00000000000E+00  0.00000000000E+00  0.16906064416E+04  0.26941898186E+04  0.20977389347E+04 0.  0.
        4    1    3    3  502    0  0.22305000532E+03  0.65616869617E+03 -0.16583017105E+03  0.71260783130E+03  0.12699999809E+01 0.  1.
       -4    1    3    3    0  502 -0.22305000532E+03 -0.65616869617E+03  0.18564366126E+04  0.19815819873E+04  0.12699999809E+01 0. -1.
</event>
<event>
 5   0  0.4200061E-05  0.2100054E+04  0.7818609E-02  0.8561219E-01
       -1   -1    0    0    0  501  0.00000000000E+00  0.00000000000E+00  0.10274490026E+04  0.10274490026E+04  0.50400001928E-02 0. -1.
        1   -1    0    0  501    0  0.00000000000E+00  0.00000000000E+00 -0.10731016021E+04  0.10731016021E+04  0.50400001928E-02 0.  1.
    10030    2    1    2    0    0  0.00000000000E+00  0.00000000000E+00 -0.45652599462E+02  0.21005506047E+04  0.21000544477E+04 0.  0.
        4    1    3    3  502    0 -0.37155098101E+03  0.49534475234E+03 -0.87104729050E+03  0.10687102275E+04  0.12699999809E+01 0.  1.
       -4    1    3    3    0  502  0.37155098101E+03 -0.49534475234E+03  0.82539469104E+03  0.10318403772E+04  0.12699999809E+01 0. -1.
</event>
<event>
 5   0  0.9012466E-05  0.2099305E+04  0.7818609E-02  0.8561550E-01
       -2   -1    0    0    0  501  0.00000000000E+00  0.00000000000E+00  0.10444962074E+04  0.10444962074E+04  0.25500000920E-02 0.  1.
        2   -1    0    0  501    0  0.00000000000E+00  0.00000000000E+00 -0.10548339753E+04  0.10548339753E+04  0.25500000920E-02 0. -1.
    10030    2    1    2    0    0  0.00000000000E+00  0.00000000000E+00 -0.10337767874E+02  0.20993301827E+04  0.20993047293E+04 0.  0.
        2    1    3    3  502    0  0.16671968319E+03  0.36927406177E+03  0.96314616692E+03  0.10448968008E+04  0.25500000920E-02 0.  1.
       -2    1    3    3    0  502 -0.16671968319E+03 -0.36927406177E+03 -0.97348393480E+03  0.10544333819E+04  0.25500000920E-02 0. -1.
</event>
<event>
 5   0  0.8547605E-05  0.2101288E+04  0.7818609E-02  0.8560676E-01
       -2   -1    0    0    0  501  0.00000000000E+00  0.00000000000E+00  0.45472170095E+03  0.45472170096E+03  0.25500000920E-02 0.  1.
        2   -1    0    0  501    0  0.00000000000E+00  0.00000000000E+00 -0.24275357783E+04  0.24275357783E+04  0.25500000920E-02 0. -1.
    10030    2    1    2    0    0  0.00000000000E+00  0.00000000000E+00 -0.19728140773E+04  0.28822574793E+04  0.21012883650E+04 0.  0.
        4    1    3    3  502    0 -0.10410126566E+04  0.72961070542E+02 -0.81941927615E+03  0.13268308981E+04  0.12699999809E+01 0. -1.
       -4    1    3    3    0  502  0.10410126566E+04 -0.72961070542E+02 -0.11533948012E+04  0.15554265812E+04  0.12699999809E+01 0.  1.
</event>
<event>
 5   0  0.9086985E-05  0.2498940E+04  0.7818609E-02  0.8403363E-01
       -2   -1    0    0    0  501  0.00000000000E+00  0.00000000000E+00  0.10030559460E+04  0.10030559460E+04  0.25500000920E-02 0. -1.
        2   -1    0    0  501    0  0.00000000000E+00  0.00000000000E+00 -0.15564185222E+04  0.15564185222E+04  0.25500000920E-02 0.  1.
    10030    2    1    2    0    0  0.00000000000E+00  0.00000000000E+00 -0.55336257618E+03  0.25594744681E+04  0.24989396576E+04 0.  0.
        5    1    3    3  502    0  0.42587473042E+03 -0.66227020280E+03  0.71696487364E+03  0.10649093049E+04  0.46999998093E+01 0. -1.
       -5    1    3    3    0  502 -0.42587473042E+03  0.66227020280E+03 -0.12703274498E+04  0.14945651633E+04  0.46999998093E+01 0.  1.
</event>
<event>
 5   0  0.3176125E-05  0.2089692E+04  0.7818609E-02  0.8565798E-01
       -4   -1    0    0    0  501  0.00000000000E+00  0.00000000000E+00  0.21608888181E+04  0.21608891913E+04  0.12699999809E+01 0. -1.
        4   -1    0    0  501    0  0.00000000000E+00  0.00000000000E+00 -0.50520909908E+03  0.50521069535E+03  0.12699999809E+01 0.  1.
    10030    2    1    2    0    0  0.00000000000E+00  0.00000000000E+00  0.16556797190E+04  0.26660998866E+04  0.20896921480E+04 0.  0.
        4    1    3    3  502    0 -0.43177383947E+03 -0.44871615117E+03 -0.24258916894E+03  0.66830079348E+03  0.12699999809E+01 0.  1.
       -4    1    3    3    0  502  0.43177383947E+03  0.44871615117E+03  0.18982688879E+04  0.19977990932E+04  0.12699999809E+01 0. -1.
</event>
<event>
 5   0  0.8872777E-05  0.2030189E+04  0.7818609E-02  0.8592635E-01
        2   -1    0    0  501    0  0.00000000000E+00  0.00000000000E+00  0.16855087228E+04  0.16855087228E+04  0.25500000920E-02 0. -1.
       -2   -1    0    0    0  501  0.00000000000E+00  0.00000000000E+00 -0.61133883057E+03  0.61133883057E+03  0.25500000920E-02 0.  1.
    10030    2    1    2    0    0  0.00000000000E+00  0.00000000000E+00  0.10741698922E+04  0.22968475534E+04  0.20301890863E+04 0.  0.
        3    1    3    3  502    0  0.27617179701E+03  0.12133081634E+03  0.16336305908E+04  0.16612468046E+04  0.10100000352E+00 0. -1.
       -3    1    3    3    0  502 -0.27617179701E+03 -0.12133081634E+03 -0.55946069853E+03  0.63560074879E+03  0.10100000352E+00 0.  1.
</event>
<event>
 5   0  0.4128678E-05  0.2219261E+04  0.7818609E-02  0.8510454E-01
        1   -1    0    0  501    0  0.00000000000E+00  0.00000000000E+00  0.16813290310E+04  0.16813290310E+04  0.50400001928E-02 0. -1.
       -1   -1    0    0    0  501  0.00000000000E+00  0.00000000000E+00 -0.73232526200E+03  0.73232526202E+03  0.50400001928E-02 0.  1.
    10030    2    1    2    0    0  0.00000000000E+00  0.00000000000E+00  0.94900376897E+03  0.24136542930E+04  0.22192608888E+04 0.  0.
        5    1    3    3  502    0 -0.32864661890E+03 -0.52993870121E+03  0.14727293071E+04  0.15993115172E+04  0.46999998093E+01 0. -1.
       -5    1    3    3    0  502  0.32864661890E+03  0.52993870121E+03 -0.52372553814E+03  0.81434277577E+03  0.46999998093E+01 0.  1.
</event>
<event>
 5   0  0.4050368E-05  0.2108861E+04  0.7818609E-02  0.8557350E-01
       -1   -1    0    0    0  501  0.00000000000E+00  0.00000000000E+00  0.12344056760E+04  0.12344056760E+04  0.50400001928E-02 0.  1.
        1   -1    0    0  501    0  0.00000000000E+00  0.00000000000E+00 -0.90069581727E+03  0.90069581729E+03  0.50400001928E-02 0. -1.
    10030    2    1    2    0    0  0.00000000000E+00  0.00000000000E+00  0.33370985872E+03  0.21351014933E+04  0.21088613318E+04 0.  0.
        2    1    3    3  502    0  0.56050843773E+03  0.87046596949E+03 -0.35490109583E+02  0.10359248335E+04  0.25500000920E-02 0. -1.
       -2    1    3    3    0  502 -0.56050843773E+03 -0.87046596949E+03  0.36919996830E+03  0.10991766598E+04  0.25500000920E-02 0.  1.
</event>
<event>
 5   0  0.8858590E-05  0.2101251E+04  0.7818609E-02  0.8560693E-01
       -2   -1    0    0    0  501  0.00000000000E+00  0.00000000000E+00  0.92171611619E+03  0.92171611620E+03  0.25500000920E-02 0.  1.
        2   -1    0    0  501    0  0.00000000000E+00  0.00000000000E+00 -0.11975636411E+04  0.11975636411E+04  0.25500000920E-02 0. -1.
    10030    2    1    2    0    0  0.00000000000E+00  0.00000000000E+00 -0.27584752491E+03  0.21192797573E+04  0.21012507782E+04 0.  0.
        1    1    3    3  502    0  0.73183747522E+03  0.75153271131E+02  0.61856484856E+03  0.96117458154E+03  0.50400001928E-02 0.  1.
       -1    1    3    3    0  502 -0.73183747522E+03 -0.75153271131E+02 -0.89441237347E+03  0.11581051758E+04  0.50400001928E-02 0. -1.
</event>
<event>
 5   0  0.4200061E-05  0.2100192E+04  0.7818609E-02  0.8561159E-01
        1   -1    0    0  501    0  0.00000000000E+00  0.00000000000E+00  0.16239763935E+04  0.16239763935E+04  0.50400001928E-02 0.  1.
       -1   -1    0    0    0  501  0.00000000000E+00  0.00000000000E+00 -0.67901353459E+03  0.67901353461E+03  0.50400001928E-02 0. -1.
    10030    2    1    2    0    0  0.00000000000E+00  0.00000000000E+00  0.94496285894E+03  0.23029899281E+04  0.21001923256E+04 0.  0.
        4    1    3    3  502    0  0.75599538707E+03  0.72675805071E+03  0.53248296957E+03  0.11761147968E+04  0.12699999809E+01 0.  1.
       -4    1    3    3    0  502 -0.75599538707E+03 -0.72675805071E+03  0.41247988937E+03  0.11268751313E+04  0.12699999809E+01 0. -1.
</event>
<event>
 5   0  0.8872777E-05  0.2096643E+04  0.7818609E-02  0.8562724E-01
       -2   -1    0    0    0  501  0.00000000000E+00  0.00000000000E+00  0.95130040692E+03  0.95130040692E+03  0.25500000920E-02 0. -1.
        2   -1    0    0  501    0  0.00000000000E+00  0.00000000000E+00 -0.11552372985E+04  0.11552372985E+04  0.25500000920E-02 0.  1.
    10030    2    1    2    0    0  0.00000000000E+00  0.00000000000E+00 -0.20393689159E+03  0.21065377054E+04  0.20966427566E+04 0.  0.
        3    1    3    3  502    0 -0.19417071782E+03  0.10142898416E+04 -0.28307327191E+03  0.10708018668E+04  0.10100000352E+00 0. -1.
       -3    1    3    3    0  502  0.19417071782E+03 -0.10142898416E+04  0.79136380323E+02  0.10357358386E+04  0.10100000352E+00 0.  1.
</event>
<event>
 5   0  0.4128678E-05  0.2089386E+04  0.7818609E-02  0.8565933E-01
       -1   -1    0    0    0  501  0.00000000000E+00  0.00000000000E+00  0.15499091520E+04  0.15499091520E+04  0.50400001928E-02 0.  1.
        1   -1    0    0  501    0  0.00000000000E+00  0.00000000000E+00 -0.70415959149E+03  0.70415959151E+03  0.50400001928E-02 0. -1.
    10030    2    1    2    0    0  0.00000000000E+00  0.00000000000E+00  0.84574956052E+03  0.22540687435E+04  0.20893859341E+04 0.  0.
        5    1    3    3  502    0 -0.47461010636E+02 -0.20359209649E+03 -0.68135248797E+03  0.71271704915E+03  0.46999998093E+01 0. -1.
       -5    1    3    3    0  502  0.47461010636E+02  0.20359209649E+03  0.15271020485E+04  0.15413516944E+04  0.46999998093E+01 0.  1.
</event>
<event>
 5   0  0.4174093E-05  0.2078703E+04  0.7818609E-02  0.8570684E-01
        1   -1    0    0  501    0  0.00000000000E+00  0.00000000000E+00  0.52786642514E+03  0.52786642516E+03  0.50400001928E-02 0. -1.
       -1   -1    0    0    0  501  0.00000000000E+00  0.00000000000E+00 -0.20464477286E+04  0.20464477286E+04  0.50400001928E-02 0.  1.
    10030    2    1    2    0    0  0.00000000000E+00  0.00000000000E+00 -0.15185813035E+04  0.25743141538E+04  0.20787025249E+04 0.  0.
        3    1    3    3  502    0 -0.82454746505E+03  0.44914520842E+03 -0.20733554919E+03  0.96156018039E+03  0.10100000352E+00 0. -1.
       -3    1    3    3    0  502  0.82454746505E+03 -0.44914520842E+03 -0.13112457543E+04  0.16127539734E+04  0.10100000352E+00 0.  1.
</event>
<event>
 5   0  0.3176125E-05  0.2098511E+04  0.7818609E-02  0.8561899E-01
       -3   -1    0    0    0  501  0.00000000000E+00  0.00000000000E+00  0.13174816549E+04  0.13174816588E+04  0.10100000352E+00 0.  1.
        3   -1    0    0  501    0  0.00000000000E+00  0.00000000000E+00 -0.83563785879E+03  0.83563786489E+03  0.10100000352E+00 0. -1.
    10030    2    1    2    0    0  0.00000000000E+00  0.00000000000E+00  0.48184379610E+03  0.21531195236E+04  0.20985114342E+04 0.  0.
        2    1    3    3  502    0 -0.16422190618E+03  0.16450686377E+03 -0.80888806134E+03  0.84162416700E+03  0.25500000920E-02 0. -1.
       -2    1    3    3    0  502  0.16422190618E+03 -0.16450686377E+03  0.12907318574E+04  0.13114953566E+04  0.25500000920E-02 0.  1.
</event>
<event>
 5   0  0.9012466E-05  0.2098814E+04  0.7818609E-02  0.8561766E-01
       -2   -1    0    0    0  501  0.00000000000E+00  0.00000000000E+00  0.49527990573E+03  0.49527990574E+03  0.25500000920E-02 0. -1.
        2   -1    0    0  501    0  0.00000000000E+00  0.00000000000E+00 -0.22235014215E+04  0.22235014215E+04  0.25500000920E-02 0.  1.
    10030    2    1    2    0    0  0.00000000000E+00  0.00000000000E+00 -0.17282215158E+04  0.27187813272E+04  0.20988144982E+04 0.  0.
        2    1    3    3  502    0 -0.48280915466E+03 -0.79857629192E+03 -0.14859336665E+04  0.17546588372E+04  0.25500000920E-02 0.  1.
       -2    1    3    3    0  502  0.48280915466E+03  0.79857629192E+03 -0.24228784928E+03  0.96412249001E+03  0.25500000920E-02 0. -1.
</event>
<event>
 5   0  0.9086985E-05  0.2101630E+04  0.7818609E-02  0.8560526E-01
        2   -1    0    0  501    0  0.00000000000E+00  0.00000000000E+00  0.14585663620E+04  0.14585663620E+04  0.25500000920E-02 0. -1.
       -2   -1    0    0    0  501  0.00000000000E+00  0.00000000000E+00 -0.75705312633E+03  0.75705312633E+03  0.25500000920E-02 0.  1.
    10030    2    1    2    0    0  0.00000000000E+00  0.00000000000E+00  0.70151323563E+03  0.22156194883E+04  0.21016300572E+04 0.  0.
        5    1    3    3  502    0  0.56187491018E+03 -0.46985709195E+03  0.11450965537E+04  0.13593150146E+04  0.46999998093E+01 0. -1.
       -5    1    3    3    0  502 -0.56187491018E+03  0.46985709195E+03 -0.44358331812E+03  0.85630447369E+03  0.46999998093E+01 0.  1.
</event>
<event>
 5   0  0.4200061E-05  0.2123827E+04  0.7818609E-02  0.8550819E-01
       -1   -1    0    0    0  501  0.00000000000E+00  0.00000000000E+00  0.11473651163E+04  0.11473651163E+04  0.50400001928E-02 0. -1.
        1   -1    0    0  501    0  0.00000000000E+00  0.00000000000E+00 -0.98282624928E+03  0.98282624930E+03  0.50400001928E-02 0.  1.
    10030    2    1    2    0    0  0.00000000000E+00  0.00000000000E+00  0.16453886698E+03  0.21301913656E+04  0.21238272564E+04 0.  0.
        4    1    3    3  502    0 -0.56076253455E+03 -0.90177513136E+03  0.79826317821E+02  0.10649069732E+04  0.12699999809E+01 0. -1.
       -4    1    3    3    0  502  0.56076253455E+03  0.90177513136E+03  0.84712549156E+02  0.10652843923E+04  0.12699999809E+01 0.  1.
</event>
<event>
 5   0  0.8547605E-05  0.2069715E+04  0.7818609E-02  0.8574703E-01
       -2   -1    0    0    0  501  0.00000000000E+00  0.00000000000E+00  0.10210503823E+04  0.10210503824E+04  0.25500000920E-02 0. -1.
        2   -1    0    0  501    0  0.00000000000E+00  0.00000000000E+00 -0.10488511907E+04  0.10488511907E+04  0.25500000920E-02 0.  1.
    10030    2    1    2    0    0  0.00000000000E+00  0.00000000000E+00 -0.27800808326E+02  0.20699015730E+04  0.20697148685E+04 0.  0.
        4    1    3    3  502    0 -0.96163344156E+03 -0.37904436036E+03 -0.64052642970E+02  0.10356243803E+04  0.12699999809E+01 0. -1.
       -4    1    3    3    0  502  0.96163344156E+03  0.37904436036E+03  0.36251834644E+02  0.10342771928E+04  0.12699999809E+01 0.  1.
</event>
<event>
 5   0  0.4128678E-05  0.2117359E+04  0.7818609E-02  0.8553635E-01
        1   -1    0    0  501    0  0.00000000000E+00  0.00000000000E+00  0.17987043092E+04  0.17987043092E+04  0.50400001928E-02 0. -1.
       -1   -1    0    0    0  501  0.00000000000E+00  0.00000000000E+00 -0.62311664876E+03  0.62311664878E+03  0.50400001928E-02 0.  1.
    10030    2    1    2    0    0  0.00000000000E+00  0.00000000000E+00  0.11755876605E+04  0.24218209580E+04  0.21173593000E+04 0.  0.
        5    1    3    3  502    0 -0.15607123974E+03 -0.51935552307E+02 -0.60839994360E+03  0.63026035481E+03  0.46999998093E+01 0.  1.
       -5    1    3    3    0  502  0.15607123974E+03  0.51935552307E+02  0.17839876041E+04  0.17915606032E+04  0.46999998093E+01 0. -1.
</event>
<event>
 5   0  0.9012466E-05  0.2073942E+04  0.7818609E-02  0.8572810E-01
        2   -1    0    0  501    0  0.00000000000E+00  0.00000000000E+00  0.17653219223E+04  0.17653219223E+04  0.25500000920E-02 0. -1.
       -2   -1    0    0    0  501  0.00000000000E+00  0.00000000000E+00 -0.60912897137E+03  0.60912897138E+03  0.25500000920E-02 0.  1.
    10030    2    1    2    0    0  0.00000000000E+00  0.00000000000E+00  0.11561929509E+04  0.23744508937E+04  0.20739418764E+04 0.  0.
        2    1    3    3  502    0 -0.24570146553E+03  0.83367507793E+03  0.12256727953E+04  0.15025502144E+04  0.25500000920E-02 0. -1.
       -2    1    3    3    0  502  0.24570146553E+03 -0.83367507793E+03 -0.69479844362E+02  0.87190067926E+03  0.25500000920E-02 0.  1.
</event>
<event>
 5   0  0.8872777E-05  0.1843768E+04  0.7818609E-02  0.8683364E-01
        2   -1    0    0  501    0  0.00000000000E+00  0.00000000000E+00  0.16312252417E+04  0.16312252417E+04  0.25500000920E-02 0.  1.
       -2   -1    0    0    0  501  0.00000000000E+00  0.00000000000E+00 -0.52100124511E+03  0.52100124512E+03  0.25500000920E-02 0. -1.
    10030    2    1    2    0    0  0.00000000000E+00  0.00000000000E+00  0.11102239966E+04  0.21522264868E+04  0.18437682956E+04 0.  0.
        3    1    3    3  502    0 -0.40675279372E+03 -0.19752635944E+03  0.14928857784E+04  0.15598629604E+04  0.10100000352E+00 0.  1.
       -3    1    3    3    0  502  0.40675279372E+03  0.19752635944E+03 -0.38266178182E+03  0.59236352634E+03  0.10100000352E+00 0. -1.
</event>
<event>
 5   0  0.4050368E-05  0.2054349E+04  0.7818609E-02  0.8581624E-01
       -1   -1    0    0    0  501  0.00000000000E+00  0.00000000000E+00  0.43526020063E+03  0.43526020066E+03  0.50400001928E-02 0. -1.
        1   -1    0    0  501    0  0.00000000000E+00  0.00000000000E+00 -0.24240384718E+04  0.24240384718E+04  0.50400001928E-02 0.  1.
    10030    2    1    2    0    0  0.00000000000E+00  0.00000000000E+00 -0.19887782712E+04  0.28592986725E+04  0.20543490177E+04 0.  0.
        2    1    3    3  502    0 -0.54384889606E+02 -0.68537725154E+03  0.67774479098E+02  0.69086400483E+03  0.25500000920E-02 0. -1.
       -2    1    3    3    0  502  0.54384889606E+02  0.68537725154E+03 -0.20565527503E+04  0.21684346677E+04  0.25500000920E-02 0.  1.
</event>
<event>
 5   0  0.4128678E-05  0.2108914E+04  0.7818609E-02  0.8557327E-01
       -1   -1    0    0    0  501  0.00000000000E+00  0.00000000000E+00  0.73554351960E+03  0.73554351962E+03  0.50400001928E-02 0.  1.
        1   -1    0    0  501    0  0.00000000000E+00  0.00000000000E+00 -0.15116429818E+04  0.15116429818E+04  0.50400001928E-02 0. -1.
    10030    2    1    2    0    0  0.00000000000E+00  0.00000000000E+00 -0.77609946215E+03  0.22471865014E+04  0.21089136532E+04 0.  0.
        5    1    3    3  502    0 -0.32902509917E+03  0.30220824011E+02  0.67894643385E+03  0.75509016953E+03  0.46999998093E+01 0.  1.
       -5    1    3    3    0  502  0.32902509917E+03 -0.30220824011E+02 -0.14550458960E+04  0.14920963319E+04  0.46999998093E+01 0. -1.
</event>
<event>
 5   0  0.8872777E-05  0.2099241E+04  0.7818609E-02  0.8561578E-01
       -2   -1    0    0    0  501  0.00000000000E+00  0.00000000000E+00  0.93432854712E+03  0.93432854712E+03  0.25500000920E-02 0.  1.
        2   -1    0    0  501    0  0.00000000000E+00  0.00000000000E+00 -0.11791386960E+04  0.11791386960E+04  0.25500000920E-02 0. -1.
    10030    2    1    2    0    0  0.00000000000E+00  0.00000000000E+00 -0.24481014891E+03  0.21134672432E+04  0.20992407625E+04 0.  0.
        3    1    3    3  502    0  0.39583053168E+03  0.58147067950E+03 -0.90673083784E+03  0.11475847609E+04  0.10100000352E+00 0. -1.
       -3    1    3    3    0  502 -0.39583053168E+03 -0.58147067950E+03  0.66192068892E+03  0.96588248227E+03  0.10100000352E+00 0.  1.
</event>
<event>
 5   0  0.8872777E-05  0.2093248E+04  0.7818609E-02  0.8564223E-01
        2   -1    0    0  501    0  0.00000000000E+00  0.00000000000E+00  0.10501590142E+04  0.10501590142E+04  0.25500000920E-02 0. -1.
       -2   -1    0    0    0  501  0.00000000000E+00  0.00000000000E+00 -0.10431010129E+04  0.10431010129E+04  0.25500000920E-02 0.  1.
    10030    2    1    2    0    0  0.00000000000E+00  0.00000000000E+00  0.70580013111E+01  0.20932600272E+04  0.20932481282E+04 0.  0.
        3    1    3    3  502    0 -0.63895244369E+02  0.29887985067E+03  0.10045392632E+04  0.10500051947E+04  0.10100000352E+00 0. -1.
       -3    1    3    3    0  502  0.63895244369E+02 -0.29887985067E+03 -0.99748126191E+03  0.10432548325E+04  0.10100000352E+00 0.  1.
</event>
<event>
 5   0  0.9012466E-05  0.2117942E+04  0.7818609E-02  0.8553381E-01
        2   -1    0    0  501    0  0.00000000000E+00  0.00000000000E+00  0.12138469635E+04  0.12138469635E+04  0.25500000920E-02 0. -1.
       -2   -1    0    0    0  501  0.00000000000E+00  0.00000000000E+00 -0.92385599369E+03  0.92385599370E+03  0.25500000920E-02 0.  1.
    10030    2    1    2    0    0  0.00000000000E+00  0.00000000000E+00  0.28999096980E+03  0.21377029572E+04  0.21179422019E+04 0.  0.
        2    1    3    3  502    0 -0.77642726239E+02  0.97666559773E+03  0.55063535892E+03  0.11238787218E+04  0.25500000920E-02 0. -1.
       -2    1    3    3    0  502  0.77642726239E+02 -0.97666559773E+03 -0.26064438913E+03  0.10138242354E+04  0.25500000920E-02 0.  1.
</event>
<event>
 5   0  0.4182977E-05  0.2100613E+04  0.7818609E-02  0.8560974E-01
        1   -1    0    0  501    0  0.00000000000E+00  0.00000000000E+00  0.58306435049E+03  0.58306435051E+03  0.50400001928E-02 0. -1.
       -1   -1    0    0    0  501  0.00000000000E+00  0.00000000000E+00 -0.18919755042E+04  0.18919755043E+04  0.50400001928E-02 0.  1.
    10030    2    1    2    0    0  0.00000000000E+00  0.00000000000E+00 -0.13089111538E+04  0.24750398548E+04  0.21006127378E+04 0.  0.
        1    1    3    3  502    0 -0.49940137927E+03 -0.33972201266E+03  0.35796662635E+03  0.70210603836E+03  0.50400001928E-02 0. -1.
       -1    1    3    3    0  502  0.49940137927E+03  0.33972201266E+03 -0.16668777801E+04  0.17729338164E+04  0.50400001928E-02 0.  1.
</event>
<event>
 5   0  0.8547605E-05  0.2095974E+04  0.7818609E-02  0.8563019E-01
       -2   -1    0    0    0  501  0.00000000000E+00  0.00000000000E+00  0.79166078414E+03  0.79166078415E+03  0.25500000920E-02 0.  1.
        2   -1    0    0  501    0  0.00000000000E+00  0.00000000000E+00 -0.13873074162E+04  0.13873074162E+04  0.25500000920E-02 0. -1.
    10030    2    1    2    0    0  0.00000000000E+00  0.00000000000E+00 -0.59564663205E+03  0.21789682004E+04  0.20959741191E+04 0.  0.
        4    1    3    3  502    0 -0.80509508622E+02  0.17190792908E+03  0.77363810050E+03  0.79658749708E+03  0.12699999809E+01 0.  1.
       -4    1    3    3    0  502  0.80509508622E+02 -0.17190792908E+03 -0.13692847326E+04  0.13823807033E+04  0.12699999809E+01 0. -1.
</event>
<event>
 5   0  0.8872777E-05  0.2109282E+04  0.7818609E-02  0.8557165E-01
        2   -1    0    0  501    0  0.00000000000E+00  0.00000000000E+00  0.10488824908E+04  0.10488824908E+04  0.25500000920E-02 0. -1.
       -2   -1    0    0    0  501  0.00000000000E+00  0.00000000000E+00 -0.10604316019E+04  0.10604316019E+04  0.25500000920E-02 0.  1.
    10030    2    1    2    0    0  0.00000000000E+00  0.00000000000E+00 -0.11549111103E+02  0.21093140927E+04  0.21092824751E+04 0.  0.
        3    1    3    3  502    0  0.47358214244E+03  0.21209643363E+03 -0.92394036844E+03  0.10596842725E+04  0.10100000352E+00 0.  1.
       -3    1    3    3    0  502 -0.47358214244E+03 -0.21209643363E+03  0.91239125733E+03  0.10496298202E+04  0.10100000352E+00 0. -1.
</event>
<event>
 5   0  0.4050368E-05  0.2162410E+04  0.7818609E-02  0.8534239E-01
       -1   -1    0    0    0  501  0.00000000000E+00  0.00000000000E+00  0.95516589994E+03  0.95516589996E+03  0.50400001928E-02 0. -1.
        1   -1    0    0  501    0  0.00000000000E+00  0.00000000000E+00 -0.12238758012E+04  0.12238758012E+04  0.50400001928E-02 0.  1.
    10030    2    1    2    0    0  0.00000000000E+00  0.00000000000E+00 -0.26870990128E+03  0.21790417012E+04  0.21624101656E+04 0.  0.
        2    1    3    3  502    0 -0.20949087551E+02 -0.63615709277E+03 -0.10150734418E+04  0.11981272066E+04  0.25500000920E-02 0.  1.
       -2    1    3    3    0  502  0.20949087551E+02  0.63615709277E+03  0.74636354056E+03  0.98091449455E+03  0.25500000920E-02 0. -1.
</event>
<event>
 5   0  0.4182977E-05  0.2085934E+04  0.7818609E-02  0.8567465E-01
        1   -1    0    0  501    0  0.00000000000E+00  0.00000000000E+00  0.10218395205E+04  0.10218395205E+04  0.50400001928E-02 0. -1.
       -1   -1    0    0    0  501  0.00000000000E+00  0.00000000000E+00 -0.10645314154E+04  0.10645314154E+04  0.50400001928E-02 0.  1.
    10030    2    1    2    0    0  0.00000000000E+00  0.00000000000E+00 -0.42691894849E+02  0.20863709359E+04  0.20859341035E+04 0.  0.
        1    1    3    3  502    0 -0.30344355890E+03  0.72685838831E+03  0.66244856612E+03  0.10291934769E+04  0.50400001928E-02 0. -1.
       -1    1    3    3    0  502  0.30344355890E+03 -0.72685838831E+03 -0.70514046097E+03  0.10571774590E+04  0.50400001928E-02 0.  1.
</event>
<event>
 5   0  0.8858590E-05  0.1769268E+04  0.7818609E-02  0.8722815E-01
       -2   -1    0    0    0  501  0.00000000000E+00  0.00000000000E+00  0.10039098591E+04  0.10039098591E+04  0.25500000920E-02 0. -1.
        2   -1    0    0  501    0  0.00000000000E+00  0.00000000000E+00 -0.77952984118E+03  0.77952984118E+03  0.25500000920E-02 0.  1.
    10030    2    1    2    0    0  0.00000000000E+00  0.00000000000E+00  0.22438001795E+03  0.17834397003E+04  0.17692684285E+04 0.  0.
        1    1    3    3  502    0 -0.74364797998E+03 -0.13562036706E+03  0.57540581866E+03  0.94999845172E+03  0.50400001928E-02 0.  1.
       -1    1    3    3    0  502  0.74364797998E+03  0.13562036706E+03 -0.35102580070E+03  0.83344124861E+03  0.50400001928E-02 0. -1.
</event>
<event>
 5   0  0.4128678E-05  0.2108735E+04  0.7818609E-02  0.8557405E-01
        1   -1    0    0  501    0  0.00000000000E+00  0.00000000000E+00  0.14283600315E+04  0.14283600316E+04  0.50400001928E-02 0. -1.
       -1   -1    0    0    0  501  0.00000000000E+00  0.00000000000E+00 -0.77829846133E+03  0.77829846134E+03  0.50400001928E-02 0.  1.
    10030    2    1    2    0    0  0.00000000000E+00  0.00000000000E+00  0.65006157022E+03  0.22066584929E+04  0.21087346109E+04 0.  0.
        5    1    3    3  502    0  0.19019150295E+03  0.72860884266E+02  0.14075684021E+04  0.14222350062E+04  0.46999998093E+01 0. -1.
       -5    1    3    3    0  502 -0.19019150295E+03 -0.72860884266E+02 -0.75750683185E+03  0.78442348674E+03  0.46999998093E+01 0.  1.
</event>
<event>
 5   0  0.4200061E-05  0.2097667E+04  0.7818609E-02  0.8562272E-01
       -1   -1    0    0    0  501  0.00000000000E+00  0.00000000000E+00  0.85722980828E+03  0.85722980829E+03  0.50400001928E-02 0.  1.
        1   -1    0    0  501    0  0.00000000000E+00  0.00000000000E+00 -0.12832632538E+04  0.12832632538E+04  0.50400001928E-02 0. -1.
    10030    2    1    2    0    0  0.00000000000E+00  0.00000000000E+00 -0.42603344551E+03  0.21404930621E+04  0.20976668115E+04 0.  0.
        4    1    3    3  502    0  0.67261707688E+03 -0.48951390109E+03  0.43878266757E+03  0.94051551488E+03  0.12699999809E+01 0.  1.
       -4    1    3    3    0  502 -0.67261707688E+03  0.48951390109E+03 -0.86481611308E+03  0.11999775472E+04  0.12699999809E+01 0. -1.
</event>
<event>
 5   0  0.8872777E-05  0.2054490E+04  0.7818609E-02  0.8581560E-01
        2   -1    0    0  501    0  0.00000000000E+00  0.00000000000E+00  0.11284520047E+04  0.11284520047E+04  0.25500000920E-02 0.  1.
       -2   -1    0    0    0  501  0.00000000000E+00  0.00000000000E+00 -0.93511512747E+03  0.93511512747E+03  0.25500000920E-02 0. -1.
    10030    2    1    2    0    0  0.00000000000E+00  0.00000000000E+00  0.19333687718E+03  0.20635671321E+04  0.20544902435E+04 0.  0.
        3    1    3    3  502    0  0.63424329117E+03  0.70537501379E+03 -0.29929918962E+03  0.99468511479E+03  0.10100000352E+00 0.  1.
       -3    1    3    3    0  502 -0.63424329117E+03 -0.70537501379E+03  0.49263606681E+03  0.10688820173E+04  0.10100000352E+00 0. -1.
</event>
<event>
 5   0  0.4200061E-05  0.2142930E+04  0.7818609E-02  0.8542565E-01
        1   -1    0    0  501    0  0.00000000000E+00  0.00000000000E+00  0.82249018655E+03  0.82249018656E+03  0.50400001928E-02 0. -1.
       -1   -1    0    0    0  501  0.00000000000E+00  0.00000000000E+00 -0.13958064808E+04  0.13958064808E+04  0.50400001928E-02 0.  1.
    10030    2    1    2    0    0  0.00000000000E+00  0.00000000000E+00 -0.57331629426E+03  0.22182966674E+04  0.21429298941E+04 0.  0.
        4    1    3    3  502    0  0.42904339455E+03 -0.35961503050E+03 -0.12323720674E+04  0.13535670393E+04  0.12699999809E+01 0.  1.
       -4    1    3    3    0  502 -0.42904339455E+03  0.35961503050E+03  0.65905577315E+03  0.86472962803E+03  0.12699999809E+01 0. -1.
</event>
<event>
 5   0  0.4182977E-05  0.2157044E+04  0.7818609E-02  0.8536523E-01
       -1   -1    0    0    0  501  0.00000000000E+00  0.00000000000E+00  0.57683508413E+03  0.57683508415E+03  0.50400001928E-02 0.  1.
        1   -1    0    0  501    0  0.00000000000E+00  0.00000000000E+00 -0.20165368345E+04  0.20165368346E+04  0.50400001928E-02 0. -1.
    10030    2    1    2    0    0  0.00000000000E+00  0.00000000000E+00 -0.14397017504E+04  0.25933719187E+04  0.21570435273E+04 0.  0.
        1    1    3    3  502    0 -0.31624562906E+03  0.28532397434E+03  0.47143168184E+03  0.63534943055E+03  0.50400001928E-02 0.  1.
       -1    1    3    3    0  502  0.31624562906E+03 -0.28532397434E+03 -0.19111334323E+04  0.19580224882E+04  0.50400001928E-02 0. -1.
</event>
<event>
 5   0  0.4050368E-05  0.2044423E+04  0.7818609E-02  0.8586128E-01
        1   -1    0    0  501    0  0.00000000000E+00  0.00000000000E+00  0.11199087987E+04  0.11199087987E+04  0.50400001928E-02 0.  1.
       -1   -1    0    0    0  501  0.00000000000E+00  0.00000000000E+00 -0.93303739766E+03  0.93303739767E+03  0.50400001928E-02 0. -1.
    10030    2    1    2    0    0  0.00000000000E+00  0.00000000000E+00  0.18687140104E+03  0.20529461964E+04  0.20444234309E+04 0.  0.
        2    1    3    3  502    0  0.37836618492E+03 -0.82387985367E+03  0.56760948405E+03  0.10696352227E+04  0.25500000920E-02 0.  1.
       -2    1    3    3    0  502 -0.37836618492E+03  0.82387985367E+03 -0.38073808301E+03  0.98331097372E+03  0.25500000920E-02 0. -1.
</event>
<event>
 5   0  0.8858590E-05  0.2005052E+04  0.7818609E-02  0.8604263E-01
       -2   -1    0    0    0  501  0.00000000000E+00  0.00000000000E+00  0.55982283497E+03  0.55982283498E+03  0.25500000920E-02 0.  1.
        2   -1    0    0  501    0  0.00000000000E+00  0.00000000000E+00 -0.17953143948E+04  0.17953143948E+04  0.25500000920E-02 0. -1.
    10030    2    1    2    0    0  0.00000000000E+00  0.00000000000E+00 -0.12354915598E+04  0.23551372298E+04  0.20050516145E+04 0.  0.
        1    1    3    3  502    0  0.38158792200E+03  0.26488508468E+03  0.42579027814E+03  0.63013554993E+03  0.50400001928E-02 0.  1.
       -1    1    3    3    0  502 -0.38158792200E+03 -0.26488508468E+03 -0.16612818380E+04  0.17250016798E+04  0.50400001928E-02 0. -1.
</event>
<event>
 5   0  0.3176125E-05  0.2079640E+04  0.7818609E-02  0.8570265E-01
        3   -1    0    0  501    0  0.00000000000E+00  0.00000000000E+00  0.78511263383E+03  0.78511264032E+03  0.10100000352E+00 0. -1.
       -3   -1    0    0    0  501  0.00000000000E+00  0.00000000000E+00 -0.13771599780E+04  0.13771599817E+04  0.10100000352E+00 0.  1.
    10030    2    1    2    0    0  0.00000000000E+00  0.00000000000E+00 -0.59204734422E+03  0.21622726221E+04  0.20796400733E+04 0.  0.
        2    1    3    3  502    0  0.91476478841E+02 -0.33018807394E+03  0.72473552751E+03  0.80164436953E+03  0.25500000920E-02 0. -1.
       -2    1    3    3    0  502 -0.91476478841E+02  0.33018807394E+03 -0.13167828717E+04  0.13606282525E+04  0.25500000920E-02 0.  1.
</event>
<event>
 5   0  0.8872777E-05  0.2124589E+04  0.7818609E-02  0.8550489E-01
        2   -1    0    0  501    0  0.00000000000E+00  0.00000000000E+00  0.18842442317E+04  0.18842442317E+04  0.25500000920E-02 0.  1.
       -2   -1    0    0    0  501  0.00000000000E+00  0.00000000000E+00 -0.59889750189E+03  0.59889750189E+03  0.25500000920E-02 0. -1.
    10030    2    1    2    0    0  0.00000000000E+00  0.00000000000E+00  0.12853467298E+04  0.24831417336E+04  0.21245885845E+04 0.  0.
        3    1    3    3  502    0  0.49197874863E+03  0.87960173342E+03  0.25026309950E+03  0.10384478454E+04  0.10100000352E+00 0. -1.
       -3    1    3    3    0  502 -0.49197874863E+03 -0.87960173342E+03  0.10350836303E+04  0.14446938882E+04  0.10100000352E+00 0.  1.
</event>
<event>
 5   0  0.9012466E-05  0.1805814E+04  0.7818609E-02  0.8703214E-01
       -2   -1    0    0    0  501  0.00000000000E+00  0.00000000000E+00  0.83772089396E+03  0.83772089397E+03  0.25500000920E-02 0. -1.
        2   -1    0    0  501    0  0.00000000000E+00  0.00000000000E+00 -0.97316537661E+03  0.97316537661E+03  0.25500000920E-02 0.  1.
    10030    2    1    2    0    0  0.00000000000E+00  0.00000000000E+00 -0.13544448265E+03  0.18108862706E+04  0.18058139099E+04 0.  0.
        2    1    3    3  502    0 -0.38161442572E+03 -0.54449135528E+03 -0.68029039314E+03  0.95125991449E+03  0.25500000920E-02 0.  1.
       -2    1    3    3    0  502  0.38161442572E+03  0.54449135528E+03  0.54484591050E+03  0.85962635609E+03  0.25500000920E-02 0. -1.
</event>
<event>
 5   0  0.8547605E-05  0.2102476E+04  0.7818609E-02  0.8560154E-01
        2   -1    0    0  501    0  0.00000000000E+00  0.00000000000E+00  0.22870009599E+04  0.22870009599E+04  0.25500000920E-02 0. -1.
       -2   -1    0    0    0  501  0.00000000000E+00  0.00000000000E+00 -0.48320968562E+03  0.48320968562E+03  0.25500000920E-02 0.  1.
    10030    2    1    2    0    0  0.00000000000E+00  0.00000000000E+00  0.18037912743E+04  0.27702106455E+04  0.21024756977E+04 0.  0.
        4    1    3    3  502    0 -0.97403181385E+03  0.19786388745E+03  0.45080213785E+03  0.10913809018E+04  0.12699999809E+01 0. -1.
       -4    1    3    3    0  502  0.97403181385E+03 -0.19786388745E+03  0.13529891364E+04  0.16788297438E+04  0.12699999809E+01 0.  1.
</event>
<event>
 5   0  0.8872777E-05  0.2117339E+04  0.7818609E-02  0.8553644E-01
       -2   -1    0    0    0  501  0.00000000000E+00  0.00000000000E+00  0.63123957591E+03  0.63123957592E+03  0.25500000920E-02 0.  1.
        2   -1    0    0  501    0  0.00000000000E+00  0.00000000000E+00 -0.17755236700E+04  0.17755236700E+04  0.25500000920E-02 0. -1.
    10030    2    1    2    0    0  0.00000000000E+00  0.00000000000E+00 -0.11442840941E+04  0.24067632459E+04  0.21173387150E+04 0.  0.
        3    1    3    3  502    0 -0.27241986627E+03  0.98043711978E+03 -0.24013581723E+03  0.10455308462E+04  0.10100000352E+00 0.  1.
       -3    1    3    3    0  502  0.27241986627E+03 -0.98043711978E+03 -0.90414827688E+03  0.13612323998E+04  0.10100000352E+00 0. -1.
</event>
<event>
 5   0  0.4182977E-05  0.2093128E+04  0.7818609E-02  0.8564277E-01
        1   -1    0    0  501    0  0.00000000000E+00  0.00000000000E+00  0.12528777520E+04  0.12528777520E+04  0.50400001928E-02 0.  1.
       -1   -1    0    0    0  501  0.00000000000E+00  0.00000000000E+00 -0.87422418401E+03  0.87422418402E+03  0.50400001928E-02 0. -1.
    10030    2    1    2    0    0  0.00000000000E+00  0.00000000000E+00  0.37865356794E+03  0.21271019360E+04  0.20931278321E+04 0.  0.
        1    1    3    3  502    0 -0.51736222039E+03 -0.57235803918E+03 -0.52928499614E+03  0.93562813087E+03  0.50400001928E-02 0. -1.
       -1    1    3    3    0  502  0.51736222039E+03  0.57235803918E+03  0.90793856408E+03  0.11914738051E+04  0.50400001928E-02 0.  1.
</event>
<event>
 5   0  0.4128678E-05  0.2104077E+04  0.7818609E-02  0.8559450E-01
        1   -1    0    0  501    0  0.00000000000E+00  0.00000000000E+00  0.69883625911E+03  0.69883625912E+03  0.50400001928E-02 0.  1.
       -1   -1    0    0    0  501  0.00000000000E+00  0.00000000000E+00 -0.15837540343E+04  0.15837540343E+04  0.50400001928E-02 0. -1.
    10030    2    1    2    0    0  0.00000000000E+00  0.00000000000E+00 -0.88491777518E+03  0.22825902934E+04  0.21040767521E+04 0.  0.
        5    1    3    3  502    0 -0.97343523632E+03 -0.14296407584E+03 -0.84655008648E+03  0.12979537839E+04  0.46999998093E+01 0. -1.
       -5    1    3    3    0  502  0.97343523632E+03  0.14296407584E+03 -0.38367688701E+02  0.98463650949E+03  0.46999998093E+01 0.  1.
</event>
<event>
 5   0  0.3176125E-05  0.2108557E+04  0.7818609E-02  0.8557483E-01
        3   -1    0    0  501    0  0.00000000000E+00  0.00000000000E+00  0.15583995615E+04  0.15583995648E+04  0.10100000352E+00 0. -1.
       -3   -1    0    0    0  501  0.00000000000E+00  0.00000000000E+00 -0.71323353194E+03  0.71323353909E+03  0.10100000352E+00 0.  1.
    10030    2    1    2    0    0  0.00000000000E+00  0.00000000000E+00  0.84516602955E+03  0.22716331039E+04  0.21085566962E+04 0.  0.
        3    1    3    3  502    0 -0.49279048422E+02  0.10423693335E+04  0.58432969760E+03  0.11959947565E+04  0.10100000352E+00 0.  1.
       -3    1    3    3    0  502  0.49279048422E+02 -0.10423693335E+04  0.26083633195E+03  0.10756383473E+04  0.10100000352E+00 0. -1.
</event>
<event>
 5   0  0.8547605E-05  0.1971666E+04  0.7818609E-02  0.8619983E-01
       -2   -1    0    0    0  501  0.00000000000E+00  0.00000000000E+00  0.11456558199E+04  0.11456558199E+04  0.25500000920E-02 0. -1.
        2   -1    0    0  501    0  0.00000000000E+00  0.00000000000E+00 -0.84830613539E+03  0.84830613539E+03  0.25500000920E-02 0.  1.
    10030    2    1    2    0    0  0.00000000000E+00  0.00000000000E+00  0.29734968448E+03  0.19939619553E+04  0.19716661594E+04 0.  0.
        4    1    3    3  502    0  0.49922174088E+03 -0.80246262936E+03 -0.13502660608E+03  0.95467398380E+03  0.12699999809E+01 0.  1.
       -4    1    3    3    0  502 -0.49922174088E+03  0.80246262936E+03  0.43237629056E+03  0.10392879715E+04  0.12699999809E+01 0. -1.
</event>
<event>
 5   0  0.9012466E-05  0.2090406E+04  0.7818609E-02  0.8565481E-01
        2   -1    0    0  501    0  0.00000000000E+00  0.00000000000E+00  0.59628145799E+03  0.59628145800E+03  0.25500000920E-02 0.  1.
       -2   -1    0    0    0  501  0.00000000000E+00  0.00000000000E+00 -0.18321032522E+04  0.18321032522E+04  0.25500000920E-02 0. -1.
    10030    2    1    2    0    0  0.00000000000E+00  0.00000000000E+00 -0.12358217943E+04  0.24283847102E+04  0.20904058921E+04 0.  0.
        2    1    3    3  502    0 -0.69241341425E+02  0.10354578644E+04 -0.47336750501E+03  0.11406332220E+04  0.25500000920E-02 0.  1.
       -2    1    3    3    0  502  0.69241341425E+02 -0.10354578644E+04 -0.76245428924E+03  0.12877514882E+04  0.25500000920E-02 0. -1.
</event>
<event>
 5   0  0.4050368E-05  0.2101510E+04  0.7818609E-02  0.8560579E-01
        1   -1    0    0  501    0  0.00000000000E+00  0.00000000000E+00  0.18260611309E+04  0.18260611309E+04  0.50400001928E-02 0.  1.
       -1   -1    0    0    0  501  0.00000000000E+00  0.00000000000E+00 -0.60462690352E+03  0.60462690355E+03  0.50400001928E-02 0. -1.
    10030    2    1    2    0    0  0.00000000000E+00  0.00000000000E+00  0.12214342274E+04  0.24306880345E+04  0.21015096357E+04 0.  0.
        2    1    3    3  502    0 -0.93452288926E+03 -0.33295421568E+03  0.21022236267E+03  0.10140931821E+04  0.25500000920E-02 0. -1.
       -2    1    3    3    0  502  0.93452288926E+03  0.33295421568E+03  0.10112118647E+04  0.14165948523E+04  0.25500000920E-02 0.  1.
</event>
<event>
 5   0  0.3176125E-05  0.2097677E+04  0.7818609E-02  0.8562267E-01
       -4   -1    0    0    0  501  0.00000000000E+00  0.00000000000E+00  0.74712623820E+03  0.74712731760E+03  0.12699999809E+01 0. -1.
        4   -1    0    0  501    0  0.00000000000E+00  0.00000000000E+00 -0.14723888281E+04  0.14723893758E+04  0.12699999809E+01 0.  1.
    10030    2    1    2    0    0  0.00000000000E+00  0.00000000000E+00 -0.72526258992E+03  0.22195166934E+04  0.20976769361E+04 0.  0.
        1    1    3    3  502    0  0.39655233693E+03 -0.28422323489E+03 -0.13450121188E+04  0.14307669982E+04  0.50400001928E-02 0.  1.
       -1    1    3    3    0  502 -0.39655233693E+03  0.28422323489E+03  0.61974952891E+03  0.78874969528E+03  0.50400001928E-02 0. -1.
</event>
<event>
 5   0  0.8858590E-05  0.2100303E+04  0.7818609E-02  0.8561110E-01
       -2   -1    0    0    0  501  0.00000000000E+00  0.00000000000E+00  0.93594007994E+03  0.93594007995E+03  0.25500000920E-02 0. -1.
        2   -1    0    0  501    0  0.00000000000E+00  0.00000000000E+00 -0.11783004664E+04  0.11783004664E+04  0.25500000920E-02 0.  1.
    10030    2    1    2    0    0  0.00000000000E+00  0.00000000000E+00 -0.24236038649E+03  0.21142405464E+04  0.21003034378E+04 0.  0.
        1    1    3    3  502    0  0.79041308230E+03 -0.53547544505E+03 -0.56149772518E+03  0.11075949117E+04  0.50400001928E-02 0.  1.
       -1    1    3    3    0  502 -0.79041308230E+03  0.53547544505E+03  0.31913733869E+03  0.10066456347E+04  0.50400001928E-02 0. -1.
</event>
<event>
 5   0  0.4200061E-05  0.2105819E+04  0.7818609E-02  0.8558684E-01
       -1   -1    0    0    0  501  0.00000000000E+00  0.00000000000E+00  0.83153290762E+03  0.83153290764E+03  0.50400001928E-02 0.  1.
        1   -1    0    0  501    0  0.00000000000E+00  0.00000000000E+00 -0.13332223192E+04  0.13332223193E+04  0.50400001928E-02 0. -1.
    10030    2    1    2    0    0  0.00000000000E+00  0.00000000000E+00 -0.50168941162E+03  0.21647552269E+04  0.21058188257E+04 0.  0.
        4    1    3    3  502    0  0.43348420039E+03 -0.73221179120E+03 -0.88834109603E+03  0.12301195775E+04  0.12699999809E+01 0.  1.
       -4    1    3    3    0  502 -0.43348420039E+03  0.73221179120E+03  0.38665168441E+03  0.93463564939E+03  0.12699999809E+01 0. -1.
</event>
<event>
 5   0  0.4128678E-05  0.2051833E+04  0.7818609E-02  0.8582763E-01
        1   -1    0    0  501    0  0.00000000000E+00  0.00000000000E+00  0.93484197122E+03  0.93484197123E+03  0.50400001928E-02 0.  1.
       -1   -1    0    0    0  501  0.00000000000E+00  0.00000000000E+00 -0.11258639167E+04  0.11258639167E+04  0.50400001928E-02 0. -1.
    10030    2    1    2    0    0  0.00000000000E+00  0.00000000000E+00 -0.19102194548E+03  0.20607058879E+04  0.20518331738E+04 0.  0.
        5    1    3    3  502    0  0.30031673140E+03 -0.51729485191E+03 -0.93260104707E+03  0.11079489636E+04  0.46999998093E+01 0. -1.
       -5    1    3    3    0  502 -0.30031673140E+03  0.51729485191E+03  0.74157910159E+03  0.95275692434E+03  0.46999998093E+01 0.  1.
</event>
<event>
 5   0  0.4182977E-05  0.2238062E+04  0.7818609E-02  0.8502751E-01
        1   -1    0    0  501    0  0.00000000000E+00  0.00000000000E+00  0.14875067294E+04  0.14875067294E+04  0.50400001928E-02 0. -1.
       -1   -1    0    0    0  501  0.00000000000E+00  0.00000000000E+00 -0.84183203804E+03  0.84183203805E+03  0.50400001928E-02 0.  1.
    10030    2    1    2    0    0  0.00000000000E+00  0.00000000000E+00  0.64567469132E+03  0.23293387674E+04  0.22380623956E+04 0.  0.
        1    1    3    3  502    0  0.37633154706E+03  0.96734564039E+03 -0.11236432214E+03  0.10440348472E+04  0.50400001928E-02 0. -1.
       -1    1    3    3    0  502 -0.37633154706E+03 -0.96734564039E+03  0.75803901347E+03  0.12853039202E+04  0.50400001928E-02 0.  1.
</event>
<event>
 5   0  0.4174093E-05  0.2083547E+04  0.7818609E-02  0.8568526E-01
       -1   -1    0    0    0  501  0.00000000000E+00  0.00000000000E+00  0.11187247141E+04  0.11187247141E+04  0.50400001928E-02 0.  1.
        1   -1    0    0  501    0  0.00000000000E+00  0.00000000000E+00 -0.97011570534E+03  0.97011570535E+03  0.50400001928E-02 0. -1.
    10030    2    1    2    0    0  0.00000000000E+00  0.00000000000E+00  0.14860900877E+03  0.20888404195E+04  0.20835473742E+04 0.  0.
        3    1    3    3  502    0  0.10148985969E+04 -0.21197780789E+03 -0.27632962970E+02  0.10371679439E+04  0.10100000352E+00 0.  1.
       -3    1    3    3    0  502 -0.10148985969E+04  0.21197780789E+03  0.17624197174E+03  0.10516724756E+04  0.10100000352E+00 0. -1.
</event>
<event>
 5   0  0.8858590E-05  0.2100098E+04  0.7818609E-02  0.8561200E-01
       -2   -1    0    0    0  501  0.00000000000E+00  0.00000000000E+00  0.11099642871E+04  0.11099642871E+04  0.25500000920E-02 0. -1.
        2   -1    0    0  501    0  0.00000000000E+00  0.00000000000E+00 -0.99336791257E+03  0.99336791257E+03  0.25500000920E-02 0.  1.
    10030    2    1    2    0    0  0.00000000000E+00  0.00000000000E+00  0.11659637452E+03  0.21033321997E+04  0.21000980043E+04 0.  0.
        1    1    3    3  502    0  0.14244624456E+03 -0.87224665551E+03  0.62617910381E+03  0.10831460800E+04  0.50400001928E-02 0. -1.
       -1    1    3    3    0  502 -0.14244624456E+03  0.87224665551E+03 -0.50958272930E+03  0.10201861196E+04  0.50400001928E-02 0.  1.
</event>
<event>
 5   0  0.8858590E-05  0.2091003E+04  0.7818609E-02  0.8565217E-01
        2   -1    0    0  501    0  0.00000000000E+00  0.00000000000E+00  0.79271839918E+03  0.79271839918E+03  0.25500000920E-02 0.  1.
       -2   -1    0    0    0  501  0.00000000000E+00  0.00000000000E+00 -0.13788920378E+04  0.13788920378E+04  0.25500000920E-02 0. -1.
    10030    2    1    2    0    0  0.00000000000E+00  0.00000000000E+00 -0.58617363867E+03  0.21716104370E+04  0.20910027153E+04 0.  0.
        1    1    3    3  502    0 -0.44291151061E+03  0.75398346062E+03  0.30207690293E+03  0.92515518722E+03  0.50400001928E-02 0.  1.
       -1    1    3    3    0  502  0.44291151061E+03 -0.75398346062E+03 -0.88825054160E+03  0.12464552498E+04  0.50400001928E-02 0. -1.
</event>
<event>
 5   0  0.3176125E-05  0.2227309E+04  0.7818609E-02  0.8507147E-01
        3   -1    0    0  501    0  0.00000000000E+00  0.00000000000E+00  0.71096306529E+03  0.71096307246E+03  0.10100000352E+00 0.  1.
       -3   -1    0    0    0  501  0.00000000000E+00  0.00000000000E+00 -0.17444319016E+04  0.17444319045E+04  0.10100000352E+00 0. -1.
    10030    2    1    2    0    0  0.00000000000E+00  0.00000000000E+00 -0.10334688363E+04  0.24553949769E+04  0.22273092864E+04 0.  0.
        4    1    3    3  502    0  0.96631722550E+03  0.51200336480E+02  0.90923900050E+02  0.97193581231E+03  0.12699999809E+01 0.  1.
       -4    1    3    3    0  502 -0.96631722550E+03 -0.51200336480E+02 -0.11243927363E+04  0.14834591646E+04  0.12699999809E+01 0. -1.
</event>
<event>
 5   0  0.8547605E-05  0.2117450E+04  0.7818609E-02  0.8553595E-01
       -2   -1    0    0    0  501  0.00000000000E+00  0.00000000000E+00  0.60964590973E+03  0.60964590973E+03  0.25500000920E-02 0.  1.
        2   -1    0    0  501    0  0.00000000000E+00  0.00000000000E+00 -0.18386059066E+04  0.18386059066E+04  0.25500000920E-02 0. -1.
    10030    2    1    2    0    0  0.00000000000E+00  0.00000000000E+00 -0.12289599968E+04  0.24482518163E+04  0.21174499480E+04 0.  0.
        4    1    3    3  502    0  0.61638509309E+02  0.35703477058E+03 -0.17646922867E+04  0.18015031537E+04  0.12699999809E+01 0. -1.
       -4    1    3    3    0  502 -0.61638509309E+02 -0.35703477058E+03  0.53573228986E+03  0.64674866257E+03  0.12699999809E+01 0.  1.
</event>
<event>
 5   0  0.4050368E-05  0.2000342E+04  0.7818609E-02  0.8606461E-01
        1   -1    0    0  501    0  0.00000000000E+00  0.00000000000E+00  0.91386897067E+03  0.91386897068E+03  0.50400001928E-02 0. -1.
       -1   -1    0    0    0  501  0.00000000000E+00  0.00000000000E+00 -0.10946225354E+04  0.10946225354E+04  0.50400001928E-02 0.  1.
    10030    2    1    2    0    0  0.00000000000E+00  0.00000000000E+00 -0.18075356475E+03  0.20084915061E+04  0.20003415406E+04 0.  0.
        2    1    3    3  502    0 -0.74726627858E+03 -0.72369141181E+02 -0.75390002696E+03  0.10639593199E+04  0.25500000920E-02 0.  1.
       -2    1    3    3    0  502  0.74726627858E+03  0.72369141181E+02  0.57314646221E+03  0.94453218624E+03  0.25500000920E-02 0. -1.
</event>
<event>
 5   0  0.9086985E-05  0.2108907E+04  0.7818609E-02  0.8557330E-01
       -2   -1    0    0    0  501  0.00000000000E+00  0.00000000000E+00  0.96190565018E+03  0.96190565019E+03  0.25500000920E-02 0. -1.
        2   -1    0    0  501    0  0.00000000000E+00  0.00000000000E+00 -0.11559053691E+04  0.11559053691E+04  0.25500000920E-02 0.  1.
    10030    2    1    2    0    0  0.00000000000E+00  0.00000000000E+00 -0.19399971895E+03  0.21178110193E+04  0.21089067363E+04 0.  0.
        5    1    3    3  502    0  0.27497951743E+03 -0.54287348489E+03  0.76775412205E+03  0.97969068462E+03  0.46999998093E+01 0. -1.
       -5    1    3    3    0  502 -0.27497951743E+03  0.54287348489E+03 -0.96175384100E+03  0.11381203347E+04  0.46999998093E+01 0.  1.
</event>
<event>
 5   0  0.9086985E-05  0.2127314E+04  0.7818609E-02  0.8549306E-01
        2   -1    0    0  501    0  0.00000000000E+00  0.00000000000E+00  0.74201904911E+03  0.74201904911E+03  0.25500000920E-02 0.  1.
       -2   -1    0    0    0  501  0.00000000000E+00  0.00000000000E+00 -0.15247133083E+04  0.15247133083E+04  0.25500000920E-02 0. -1.
    10030    2    1    2    0    0  0.00000000000E+00  0.00000000000E+00 -0.78269425923E+03  0.22667323574E+04  0.21273140993E+04 0.  0.
        5    1    3    3  502    0 -0.17991914135E+03 -0.21109211213E+03  0.70279589168E+03  0.75556265961E+03  0.46999998093E+01 0.  1.
       -5    1    3    3    0  502  0.17991914135E+03  0.21109211213E+03 -0.14854901509E+04  0.15111696978E+04  0.46999998093E+01 0. -1.
</event>
<event>
 5   0  0.8872777E-05  0.2095717E+04  0.7818609E-02  0.8563132E-01
        2   -1    0    0  501    0  0.00000000000E+00  0.00000000000E+00  0.26778921063E+04  0.26778921063E+04  0.25500000920E-02 0.  1.
       -2   -1    0    0    0  501  0.00000000000E+00  0.00000000000E+00 -0.41002679151E+03  0.41002679152E+03  0.25500000920E-02 0. -1.
    10030    2    1    2    0    0  0.00000000000E+00  0.00000000000E+00  0.22678653148E+04  0.30879188979E+04  0.20957170691E+04 0.  0.
        3    1    3    3  502    0  0.99314269989E+03  0.30208329486E+03  0.13444894095E+04  0.16985989879E+04  0.10100000352E+00 0. -1.
       -3    1    3    3    0  502 -0.99314269989E+03 -0.30208329486E+03  0.92337590537E+03  0.13893199100E+04  0.10100000352E+00 0.  1.
</event>
<event>
 5   0  0.9086985E-05  0.2097998E+04  0.7818609E-02  0.8562126E-01
       -2   -1    0    0    0  501  0.00000000000E+00  0.00000000000E+00  0.50632928034E+03  0.50632928034E+03  0.25500000920E-02 0.  1.
        2   -1    0    0  501    0  0.00000000000E+00  0.00000000000E+00 -0.21732865379E+04  0.21732865379E+04  0.25500000920E-02 0. -1.
    10030    2    1    2    0    0  0.00000000000E+00  0.00000000000E+00 -0.16669572576E+04  0.26796158183E+04  0.20979977204E+04 0.  0.
        5    1    3    3  502    0 -0.24838057400E+03  0.66285829353E+03  0.15528062848E+03  0.72471248811E+03  0.46999998093E+01 0.  1.
       -5    1    3    3    0  502  0.24838057400E+03 -0.66285829353E+03 -0.18222378861E+04  0.19549033302E+04  0.46999998093E+01 0. -1.
</event>
<event>
 5   0  0.9012466E-05  0.2099815E+04  0.7818609E-02  0.8561325E-01
        2   -1    0    0  501    0  0.00000000000E+00  0.00000000000E+00  0.14352169515E+04  0.14352169515E+04  0.25500000920E-02 0. -1.
       -2   -1    0    0    0  501  0.00000000000E+00  0.00000000000E+00 -0.76804102887E+03  0.76804102888E+03  0.25500000920E-02 0.  1.
    10030    2    1    2    0    0  0.00000000000E+00  0.00000000000E+00  0.66717592261E+03  0.22032579804E+04  0.20998147576E+04 0.  0.
        2    1    3    3  502    0 -0.28370931005E+02 -0.22550312828E+03 -0.74191888723E+03  0.77595116201E+03  0.25500000920E-02 0.  1.
       -2    1    3    3    0  502  0.28370931005E+02  0.22550312828E+03  0.14090948098E+04  0.14273068184E+04  0.25500000920E-02 0. -1.
</event>
<event>
 5   0  0.9086985E-05  0.1863241E+04  0.7818609E-02  0.8673373E-01
        2   -1    0    0  501    0  0.00000000000E+00  0.00000000000E+00  0.15031072074E+04  0.15031072074E+04  0.25500000920E-02 0.  1.
       -2   -1    0    0    0  501  0.00000000000E+00  0.00000000000E+00 -0.57741492118E+03  0.57741492119E+03  0.25500000920E-02 0. -1.
    10030    2    1    2    0    0  0.00000000000E+00  0.00000000000E+00  0.92569228621E+03  0.20805221286E+04  0.18632407571E+04 0.  0.
        5    1    3    3  502    0 -0.62717688146E+03 -0.67809229321E+03  0.32730529622E+03  0.97995451205E+03  0.46999998093E+01 0.  1.
       -5    1    3    3    0  502  0.62717688146E+03  0.67809229321E+03  0.59838698999E+03  0.11005676165E+04  0.46999998093E+01 0. -1.
</event>
<event>
 5   0  0.9012466E-05  0.2203257E+04  0.7818609E-02  0.8517074E-01
       -2   -1    0    0    0  501  0.00000000000E+00  0.00000000000E+00  0.73227583384E+03  0.73227583385E+03  0.25500000920E-02 0. -1.
        2   -1    0    0  501    0  0.00000000000E+00  0.00000000000E+00 -0.16572793113E+04  0.16572793113E+04  0.25500000920E-02 0.  1.
    10030    2    1    2    0    0  0.00000000000E+00  0.00000000000E+00 -0.92500347746E+03  0.23895551452E+04  0.22032572157E+04 0.  0.
        2    1    3    3  502    0 -0.50405091762E+03 -0.84448305372E+03 -0.10008245723E+04  0.14031638465E+04  0.25500000920E-02 0.  1.
       -2    1    3    3    0  502  0.50405091762E+03  0.84448305372E+03  0.75821094889E+02  0.98639129863E+03  0.25500000920E-02 0. -1.
</event>
<event>
 5   0  0.8547605E-05  0.2107657E+04  0.7818609E-02  0.8557878E-01
        2   -1    0    0  501    0  0.00000000000E+00  0.00000000000E+00  0.13881324056E+04  0.13881324056E+04  0.25500000920E-02 0.  1.
       -2   -1    0    0    0  501  0.00000000000E+00  0.00000000000E+00 -0.80003484647E+03  0.80003484647E+03  0.25500000920E-02 0. -1.
    10030    2    1    2    0    0  0.00000000000E+00  0.00000000000E+00  0.58809755911E+03  0.21881672521E+04  0.21076567994E+04 0.  0.
        4    1    3    3  502    0  0.68296192334E+03  0.24882201357E+03  0.10862179774E+04  0.13069890935E+04  0.12699999809E+01 0.  1.
       -4    1    3    3    0  502 -0.68296192334E+03 -0.24882201357E+03 -0.49812041827E+03  0.88117815858E+03  0.12699999809E+01 0. -1.
</event>
<event>
 5   0  0.8858590E-05  0.2073604E+04  0.7818609E-02  0.8572961E-01
       -2   -1    0    0    0  501  0.00000000000E+00  0.00000000000E+00  0.15651308135E+04  0.15651308135E+04  0.25500000920E-02 0. -1.
        2   -1    0    0  501    0  0.00000000000E+00  0.00000000000E+00 -0.68681710548E+03  0.68681710548E+03  0.25500000920E-02 0.  1.
    10030    2    1    2    0    0  0.00000000000E+00  0.00000000000E+00  0.87831370798E+03  0.22519479189E+04  0.20736042197E+04 0.  0.
        1    1    3    3  502    0 -0.14352583951E+03  0.19571860585E+03 -0.65553199238E+03  0.69901905005E+03  0.50400001928E-02 0.  1.
       -1    1    3    3    0  502  0.14352583951E+03 -0.19571860585E+03  0.15338457004E+04  0.15529288689E+04  0.50400001928E-02 0. -1.
</event>
<event>
 5   0  0.4182977E-05  0.2134028E+04  0.7818609E-02  0.8546400E-01
        1   -1    0    0  501    0  0.00000000000E+00  0.00000000000E+00  0.82211280378E+03  0.82211280380E+03  0.50400001928E-02 0.  1.
       -1   -1    0    0    0  501  0.00000000000E+00  0.00000000000E+00 -0.13848691484E+04  0.13848691484E+04  0.50400001928E-02 0. -1.
    10030    2    1    2    0    0  0.00000000000E+00  0.00000000000E+00 -0.56275634463E+03  0.22069819522E+04  0.21340277960E+04 0.  0.
        1    1    3    3  502    0 -0.24253327447E+03 -0.80633132586E+03 -0.95916553952E+03  0.12763193678E+04  0.50400001928E-02 0. -1.
       -1    1    3    3    0  502  0.24253327447E+03  0.80633132586E+03  0.39640919489E+03  0.93066258446E+03  0.50400001928E-02 0.  1.
</event>
<event>
 5   0  0.4128678E-05  0.2085748E+04  0.7818609E-02  0.8567547E-01
       -1   -1    0    0    0  501  0.00000000000E+00  0.00000000000E+00  0.10121183991E+04  0.10121183991E+04  0.50400001928E-02 0.  1.
        1   -1    0    0  501    0  0.00000000000E+00  0.00000000000E+00 -0.10745645752E+04  0.10745645753E+04  0.50400001928E-02 0. -1.
    10030    2    1    2    0    0  0.00000000000E+00  0.00000000000E+00 -0.62446176166E+02  0.20866829743E+04  0.20857483814E+04 0.  0.
        5    1    3    3  502    0  0.35092900952E+03 -0.30228694541E+03 -0.96600567497E+03  0.10713158363E+04  0.46999998093E+01 0. -1.
       -5    1    3    3    0  502 -0.35092900952E+03  0.30228694541E+03  0.90355949880E+03  0.10153671380E+04  0.46999998093E+01 0.  1.
</event>
<event>
 5   0  0.4050368E-05  0.2048515E+04  0.7818609E-02  0.8584268E-01
       -1   -1    0    0    0  501  0.00000000000E+00  0.00000000000E+00  0.11018219497E+04  0.11018219497E+04  0.50400001928E-02 0.  1.
        1   -1    0    0  501    0  0.00000000000E+00  0.00000000000E+00 -0.95215340297E+03  0.95215340298E+03  0.50400001928E-02 0. -1.
    10030    2    1    2    0    0  0.00000000000E+00  0.00000000000E+00  0.14966854673E+03  0.20539753527E+04  0.20485150904E+04 0.  0.
        2    1    3    3  502    0  0.62471194649E+03 -0.62811113605E+01  0.88866211365E+03  0.10862894737E+04  0.25500000920E-02 0.  1.
       -2    1    3    3    0  502 -0.62471194649E+03  0.62811113605E+01 -0.73899356691E+03  0.96768587899E+03  0.25500000920E-02 0. -1.
</event>
<event>
 5   0  0.4128678E-05  0.2103143E+04  0.7818609E-02  0.8559860E-01
        1   -1    0    0  501    0  0.00000000000E+00  0.00000000000E+00  0.13127226580E+04  0.13127226580E+04  0.50400001928E-02 0.  1.
       -1   -1    0    0    0  501  0.00000000000E+00  0.00000000000E+00 -0.84237299661E+03  0.84237299663E+03  0.50400001928E-02 0. -1.
    10030    2    1    2    0    0  0.00000000000E+00  0.00000000000E+00  0.47034966137E+03  0.21550956546E+04  0.21031425241E+04 0.  0.
        5    1    3    3  502    0  0.21506350817E+03 -0.16399836496E+03  0.12764624132E+04  0.13048088590E+04  0.46999998093E+01 0.  1.
       -5    1    3    3    0  502 -0.21506350817E+03  0.16399836496E+03 -0.80611275179E+03  0.85028679565E+03  0.46999998093E+01 0. -1.
</event>
<event>
 5   0  0.8858590E-05  0.2105463E+04  0.7818609E-02  0.8558841E-01
        2   -1    0    0  501    0  0.00000000000E+00  0.00000000000E+00  0.21566616595E+04  0.21566616595E+04  0.25500000920E-02 0.  1.
       -2   -1    0    0    0  501  0.00000000000E+00  0.00000000000E+00 -0.51387012514E+03  0.51387012515E+03  0.25500000920E-02 0. -1.
    10030    2    1    2    0    0  0.00000000000E+00  0.00000000000E+00  0.16427915344E+04  0.26705317847E+04  0.21054633665E+04 0.  0.
        1    1    3    3  502    0 -0.79039580056E+03  0.69412463683E+03  0.76895367339E+03  0.13030058652E+04  0.50400001928E-02 0. -1.
       -1    1    3    3    0  502  0.79039580056E+03 -0.69412463683E+03  0.87383786098E+03  0.13675259194E+04  0.50400001928E-02 0.  1.
</event>
<event>
 5   0  0.8547605E-05  0.2157450E+04  0.7818609E-02  0.8536350E-01
        2   -1    0    0  501    0  0.00000000000E+00  0.00000000000E+00  0.24142536765E+04  0.24142536765E+04  0.25500000920E-02 0.  1.
       -2   -1    0    0    0  501  0.00000000000E+00  0.00000000000E+00 -0.48199076952E+03  0.48199076953E+03  0.25500000920E-02 0. -1.
    10030    2    1    2    0    0  0.00000000000E+00  0.00000000000E+00  0.19322629070E+04  0.28962444460E+04  0.21574503353E+04 0.  0.
        4    1    3    3  502    0 -0.80019614189E+02  0.32876365996E+03 -0.40890683497E+03  0.53074955991E+03  0.12699999809E+01 0. -1.
       -4    1    3    3    0  502  0.80019614189E+02 -0.32876365996E+03  0.23411697419E+04  0.23654948861E+04  0.12699999809E+01 0.  1.
</event>
<event>
 5   0  0.4200061E-05  0.2122614E+04  0.7818609E-02  0.8551346E-01
        1   -1    0    0  501    0  0.00000000000E+00  0.00000000000E+00  0.77876019943E+03  0.77876019945E+03  0.50400001928E-02 0.  1.
       -1   -1    0    0    0  501  0.00000000000E+00  0.00000000000E+00 -0.14463669305E+04  0.14463669306E+04  0.50400001928E-02 0. -1.
    10030    2    1    2    0    0  0.00000000000E+00  0.00000000000E+00 -0.66760673112E+03  0.22251271300E+04  0.21226144250E+04 0.  0.
        4    1    3    3  502    0  0.67160964261E+03  0.36524484138E+03 -0.11054998663E+04  0.13440963037E+04  0.12699999809E+01 0. -1.
       -4    1    3    3    0  502 -0.67160964261E+03 -0.36524484138E+03  0.43789313520E+03  0.88103082634E+03  0.12699999809E+01 0.  1.
</event>
<event>
 5   0  0.4050368E-05  0.2080263E+04  0.7818609E-02  0.8569988E-01
       -1   -1    0    0    0  501  0.00000000000E+00  0.00000000000E+00  0.10864849466E+04  0.10864849466E+04  0.50400001928E-02 0.  1.
        1   -1    0    0  501    0  0.00000000000E+00  0.00000000000E+00 -0.99575530204E+03  0.99575530206E+03  0.50400001928E-02 0. -1.
    10030    2    1    2    0    0  0.00000000000E+00  0.00000000000E+00  0.90729644569E+02  0.20822402487E+04  0.20802626240E+04 0.  0.
        2    1    3    3  502    0 -0.40658056080E+03  0.71956182193E+02 -0.91020901939E+03  0.99948281805E+03  0.25500000920E-02 0. -1.
       -2    1    3    3    0  502  0.40658056080E+03 -0.71956182193E+02  0.10009386640E+04  0.10827574306E+04  0.25500000920E-02 0.  1.
</event>
<event>
 5   0  0.4050368E-05  0.1976847E+04  0.7818609E-02  0.8617523E-01
       -1   -1    0    0    0  501  0.00000000000E+00  0.00000000000E+00  0.54407084869E+03  0.54407084872E+03  0.50400001928E-02 0.  1.
        1   -1    0    0  501    0  0.00000000000E+00  0.00000000000E+00 -0.17956872741E+04  0.17956872741E+04  0.50400001928E-02 0. -1.
    10030    2    1    2    0    0  0.00000000000E+00  0.00000000000E+00 -0.12516164254E+04  0.23397581229E+04  0.19768470849E+04 0.  0.
        2    1    3    3  502    0 -0.51505836450E+03 -0.11404152985E+03  0.36351980683E+03  0.64065375932E+03  0.25500000920E-02 0.  1.
       -2    1    3    3    0  502  0.51505836450E+03  0.11404152985E+03 -0.16151362323E+04  0.16991043635E+04  0.25500000920E-02 0. -1.
</event>
<event>
 5   0  0.9012466E-05  0.2134602E+04  0.7818609E-02  0.8546152E-01
        2   -1    0    0  501    0  0.00000000000E+00  0.00000000000E+00  0.15045630400E+04  0.15045630400E+04  0.25500000920E-02 0. -1.
       -2   -1    0    0    0  501  0.00000000000E+00  0.00000000000E+00 -0.75711804001E+03  0.75711804001E+03  0.25500000920E-02 0.  1.
    10030    2    1    2    0    0  0.00000000000E+00  0.00000000000E+00  0.74744500003E+03  0.22616810800E+04  0.21346023704E+04 0.  0.
        2    1    3    3  502    0  0.29036306545E+03  0.24517946330E+03 -0.68300306376E+03  0.78161170930E+03  0.25500000920E-02 0.  1.
       -2    1    3    3    0  502 -0.29036306545E+03 -0.24517946330E+03  0.14304480638E+04  0.14800693707E+04  0.25500000920E-02 0. -1.
</event>
<event>
 5   0  0.4182977E-05  0.2135784E+04  0.7818609E-02  0.8545642E-01
       -1   -1    0    0    0  501  0.00000000000E+00  0.00000000000E+00  0.13319067400E+04  0.13319067400E+04  0.50400001928E-02 0.  1.
        1   -1    0    0  501    0  0.00000000000E+00  0.00000000000E+00 -0.85621113485E+03  0.85621113487E+03  0.50400001928E-02 0. -1.
    10030    2    1    2    0    0  0.00000000000E+00  0.00000000000E+00  0.47569560510E+03  0.21881178748E+04  0.21357840540E+04 0.  0.
        1    1    3    3  502    0  0.10123561340E+04 -0.25282089261E+03  0.51027524342E+01  0.10434602934E+04  0.50400001928E-02 0. -1.
       -1    1    3    3    0  502 -0.10123561340E+04  0.25282089261E+03  0.47059285267E+03  0.11446575814E+04  0.50400001928E-02 0.  1.
</event>
<event>
 5   0  0.4050368E-05  0.2033694E+04  0.7818609E-02  0.8591028E-01
       -1   -1    0    0    0  501  0.00000000000E+00  0.00000000000E+00  0.52982558581E+03  0.52982558583E+03  0.50400001928E-02 0.  1.
        1   -1    0    0  501    0  0.00000000000E+00  0.00000000000E+00 -0.19515434347E+04  0.19515434347E+04  0.50400001928E-02 0. -1.
    10030    2    1    2    0    0  0.00000000000E+00  0.00000000000E+00 -0.14217178489E+04  0.24813690205E+04  0.20336938251E+04 0.  0.
        2    1    3    3  502    0 -0.76616616025E+03  0.50294332322E+03 -0.12482909229E+04  0.15486099572E+04  0.25500000920E-02 0. -1.
       -2    1    3    3    0  502  0.76616616025E+03 -0.50294332322E+03 -0.17342692599E+03  0.93275906329E+03  0.25500000920E-02 0.  1.
</event>
<event>
 5   0  0.4174093E-05  0.2080724E+04  0.7818609E-02  0.8569783E-01
        1   -1    0    0  501    0  0.00000000000E+00  0.00000000000E+00  0.99235181136E+03  0.99235181138E+03  0.50400001928E-02 0. -1.
       -1   -1    0    0    0  501  0.00000000000E+00  0.00000000000E+00 -0.10906947060E+04  0.10906947060E+04  0.50400001928E-02 0.  1.
    10030    2    1    2    0    0  0.00000000000E+00  0.00000000000E+00 -0.98342894627E+02  0.20830465174E+04  0.20807237848E+04 0.  0.
        3    1    3    3  502    0 -0.20180200850E+01  0.92096049355E+03 -0.53363370780E+03  0.10643952496E+04  0.10100000352E+00 0.  1.
       -3    1    3    3    0  502  0.20180200850E+01 -0.92096049355E+03  0.43529081318E+03  0.10186512678E+04  0.10100000352E+00 0. -1.
</event>
<event>
 5   0  0.4200061E-05  0.2033213E+04  0.7818609E-02  0.8591248E-01
        1   -1    0    0  501    0  0.00000000000E+00  0.00000000000E+00  0.96688566903E+03  0.96688566904E+03  0.50400001928E-02 0. -1.
       -1   -1    0    0    0  501  0.00000000000E+00  0.00000000000E+00 -0.10688842027E+04  0.10688842027E+04  0.50400001928E-02 0.  1.
    10030    2    1    2    0    0  0.00000000000E+00  0.00000000000E+00 -0.10199853370E+03  0.20357698718E+04  0.20332130410E+04 0.  0.
        4    1    3    3  502    0 -0.78145895547E+03  0.77951632694E+02  0.59536086258E+03  0.98550024135E+03  0.12699999809E+01 0. -1.
       -4    1    3    3    0  502  0.78145895547E+03 -0.77951632694E+02 -0.69735939628E+03  0.10502696304E+04  0.12699999809E+01 0.  1.
</event>
<event>
 5   0  0.8547605E-05  0.2103581E+04  0.7818609E-02  0.8559668E-01
        2   -1    0    0  501    0  0.00000000000E+00  0.00000000000E+00  0.24642503099E+04  0.24642503099E+04  0.25500000920E-02 0. -1.
       -2   -1    0    0    0  501  0.00000000000E+00  0.00000000000E+00 -0.44892466539E+03  0.44892466540E+03  0.25500000920E-02 0.  1.
    10030    2    1    2    0    0  0.00000000000E+00  0.00000000000E+00  0.20153256445E+04  0.29131749753E+04  0.21035805150E+04 0.  0.
        4    1    3    3  502    0  0.46652643908E+03 -0.65479568114E+03  0.19467777675E+04  0.21062643689E+04  0.12699999809E+01 0. -1.
       -4    1    3    3    0  502 -0.46652643908E+03  0.65479568114E+03  0.68547876932E+02  0.80691060641E+03  0.12699999809E+01 0.  1.
</event>
<event>
 5   0  0.9012466E-05  0.2099887E+04  0.7818609E-02  0.8561293E-01
       -2   -1    0    0    0  501  0.00000000000E+00  0.00000000000E+00  0.52413862864E+03  0.52413862864E+03  0.25500000920E-02 0. -1.
        2   -1    0    0  501    0  0.00000000000E+00  0.00000000000E+00 -0.21032244136E+04  0.21032244136E+04  0.25500000920E-02 0.  1.
    10030    2    1    2    0    0  0.00000000000E+00  0.00000000000E+00 -0.15790857850E+04  0.26273630423E+04  0.20998868159E+04 0.  0.
        2    1    3    3  502    0  0.49274360630E+03 -0.15783887438E+02  0.37031730177E+03  0.61658762285E+03  0.25500000920E-02 0. -1.
       -2    1    3    3    0  502 -0.49274360630E+03  0.15783887438E+02 -0.19494030867E+04  0.20107754194E+04  0.25500000920E-02 0.  1.
</event>
<event>
 5   0  0.9086985E-05  0.2106749E+04  0.7818609E-02  0.8558276E-01
        2   -1    0    0  501    0  0.00000000000E+00  0.00000000000E+00  0.22324778871E+04  0.22324778871E+04  0.25500000920E-02 0. -1.
       -2   -1    0    0    0  501  0.00000000000E+00  0.00000000000E+00 -0.49702503619E+03  0.49702503619E+03  0.25500000920E-02 0.  1.
    10030    2    1    2    0    0  0.00000000000E+00  0.00000000000E+00  0.17354528509E+04  0.27295029233E+04  0.21067485874E+04 0.  0.
        5    1    3    3  502    0 -0.80633851491E+03 -0.13942714376E+03  0.83681131028E+01  0.81836046114E+03  0.46999998093E+01 0.  1.
       -5    1    3    3    0  502  0.80633851491E+03  0.13942714376E+03  0.17270847378E+04  0.19111424621E+04  0.46999998093E+01 0. -1.
</event>
<event>
 5   0  0.8872777E-05  0.2149927E+04  0.7818609E-02  0.8539564E-01
       -2   -1    0    0    0  501  0.00000000000E+00  0.00000000000E+00  0.11078034303E+04  0.11078034303E+04  0.25500000920E-02 0.  1.
        2   -1    0    0  501    0  0.00000000000E+00  0.00000000000E+00 -0.10430968642E+04  0.10430968642E+04  0.25500000920E-02 0. -1.
    10030    2    1    2    0    0  0.00000000000E+00  0.00000000000E+00  0.64706566114E+02  0.21509002944E+04  0.21499267748E+04 0.  0.
        3    1    3    3  502    0 -0.52002213314E+03  0.53715230776E+03  0.80509584457E+03  0.10986969327E+04  0.10100000352E+00 0.  1.
       -3    1    3    3    0  502  0.52002213314E+03 -0.53715230776E+03 -0.74038927846E+03  0.10522033618E+04  0.10100000352E+00 0. -1.
</event>
<event>
 5   0  0.8858590E-05  0.2100327E+04  0.7818609E-02  0.8561099E-01
        2   -1    0    0  501    0  0.00000000000E+00  0.00000000000E+00  0.64929914282E+03  0.64929914283E+03  0.25500000920E-02 0.  1.
       -2   -1    0    0    0  501  0.00000000000E+00  0.00000000000E+00 -0.16985139704E+04  0.16985139704E+04  0.25500000920E-02 0. -1.
    10030    2    1    2    0    0  0.00000000000E+00  0.00000000000E+00 -0.10492148276E+04  0.23478131133E+04  0.21003272746E+04 0.  0.
        1    1    3    3  502    0 -0.57837922122E+03  0.82347693083E+03 -0.86034224279E+03  0.13239431838E+04  0.50400001928E-02 0. -1.
       -1    1    3    3    0  502  0.57837922122E+03 -0.82347693083E+03 -0.18887258482E+03  0.10238699295E+04  0.50400001928E-02 0.  1.
</event>
<event>
 5   0  0.4174093E-05  0.2083955E+04  0.7818609E-02  0.8568345E-01
       -1   -1    0    0    0  501  0.00000000000E+00  0.00000000000E+00  0.11285268162E+04  0.11285268162E+04  0.50400001928E-02 0.  1.
        1   -1    0    0  501    0  0.00000000000E+00  0.00000000000E+00 -0.96206556130E+03  0.96206556131E+03  0.50400001928E-02 0. -1.
    10030    2    1    2    0    0  0.00000000000E+00  0.00000000000E+00  0.16646125490E+03  0.20905923775E+04  0.20839546875E+04 0.  0.
        3    1    3    3  502    0  0.36421627806E+03  0.37437509574E+03  0.98771570564E+03  0.11173148772E+04  0.10100000352E+00 0.  1.
       -3    1    3    3    0  502 -0.36421627806E+03 -0.37437509574E+03 -0.82125445074E+03  0.97327750029E+03  0.10100000352E+00 0. -1.
</event>
<event>
 5   0  0.4174093E-05  0.2092469E+04  0.7818609E-02  0.8564568E-01
       -1   -1    0    0    0  501  0.00000000000E+00  0.00000000000E+00  0.10438577354E+04  0.10438577355E+04  0.50400001928E-02 0. -1.
        1   -1    0    0  501    0  0.00000000000E+00  0.00000000000E+00 -0.10486170319E+04  0.10486170319E+04  0.50400001928E-02 0.  1.
    10030    2    1    2    0    0  0.00000000000E+00  0.00000000000E+00 -0.47592964394E+01  0.20924747673E+04  0.20924693549E+04 0.  0.
        3    1    3    3  502    0 -0.46615592518E+03  0.16736485581E+03  0.91919457135E+03  0.10441412796E+04  0.10100000352E+00 0. -1.
       -3    1    3    3    0  502  0.46615592518E+03 -0.16736485581E+03 -0.92395386779E+03  0.10483334878E+04  0.10100000352E+00 0.  1.
</event>
<event>
 5   0  0.8872777E-05  0.2089974E+04  0.7818609E-02  0.8565673E-01
        2   -1    0    0  501    0  0.00000000000E+00  0.00000000000E+00  0.15787227370E+04  0.15787227370E+04  0.25500000920E-02 0.  1.
       -2   -1    0    0    0  501  0.00000000000E+00  0.00000000000E+00 -0.69169719368E+03  0.69169719369E+03  0.25500000920E-02 0. -1.
    10030    2    1    2    0    0  0.00000000000E+00  0.00000000000E+00  0.88702554333E+03  0.22704199307E+04  0.20899742456E+04 0.  0.
        3    1    3    3  502    0  0.66835480304E+02  0.22710453665E+03 -0.66218293405E+03  0.70322805713E+03  0.10100000352E+00 0. -1.
       -3    1    3    3    0  502 -0.66835480304E+02 -0.22710453665E+03  0.15492084774E+04  0.15671918736E+04  0.10100000352E+00 0.  1.
</event>
<event>
 5   0  0.4200061E-05  0.2102881E+04  0.7818609E-02  0.8559975E-01
        1   -1    0    0  501    0  0.00000000000E+00  0.00000000000E+00  0.90084821830E+03  0.90084821832E+03  0.50400001928E-02 0. -1.
       -1   -1    0    0    0  501  0.00000000000E+00  0.00000000000E+00 -0.12272071769E+04  0.12272071770E+04  0.50400001928E-02 0.  1.
    10030    2    1    2    0    0  0.00000000000E+00  0.00000000000E+00 -0.32635895864E+03  0.21280553953E+04  0.21028812604E+04 0.  0.
        4    1    3    3  502    0 -0.95078159209E+03 -0.12551479688E+02 -0.61730840082E+03  0.11336729908E+04  0.12699999809E+01 0. -1.
       -4    1    3    3    0  502  0.95078159209E+03  0.12551479688E+02  0.29094944218E+03  0.99438240446E+03  0.12699999809E+01 0.  1.
</event>
<event>
 5   0  0.8858590E-05  0.2110431E+04  0.7818609E-02  0.8556662E-01
        2   -1    0    0  501    0  0.00000000000E+00  0.00000000000E+00  0.12749083205E+04  0.12749083205E+04  0.25500000920E-02 0. -1.
       -2   -1    0    0    0  501  0.00000000000E+00  0.00000000000E+00 -0.87338066180E+03  0.87338066180E+03  0.25500000920E-02 0.  1.
    10030    2    1    2    0    0  0.00000000000E+00  0.00000000000E+00  0.40152765874E+03  0.21482889823E+04  0.21104314940E+04 0.  0.
        1    1    3    3  502    0  0.78634784496E+03  0.68491491028E+03  0.36499265674E+03  0.11048398106E+04  0.50400001928E-02 0.  1.
       -1    1    3    3    0  502 -0.78634784496E+03 -0.68491491028E+03  0.36535001997E+02  0.10434491717E+04  0.50400001928E-02 0. -1.
</event>
<event>
 5   0  0.8872777E-05  0.2033196E+04  0.7818609E-02  0.8591256E-01
        2   -1    0    0  501    0  0.00000000000E+00  0.00000000000E+00  0.84599524593E+03  0.84599524593E+03  0.25500000920E-02 0.  1.
       -2   -1    0    0    0  501  0.00000000000E+00  0.00000000000E+00 -0.12216043311E+04  0.12216043311E+04  0.25500000920E-02 0. -1.
    10030    2    1    2    0    0  0.00000000000E+00  0.00000000000E+00 -0.37560908518E+03  0.20675995770E+04  0.20331959635E+04 0.  0.
        3    1    3    3  502    0 -0.73078782529E+02 -0.65545490719E+03 -0.97452932269E+03  0.11767196160E+04  0.10100000352E+00 0. -1.
       -3    1    3    3    0  502  0.73078782529E+02  0.65545490719E+03  0.59892023750E+03  0.89087996100E+03  0.10100000352E+00 0.  1.
</event>
<event>
 5   0  0.4182977E-05  0.1782861E+04  0.7818609E-02  0.8715467E-01
       -1   -1    0    0    0  501  0.00000000000E+00  0.00000000000E+00  0.34490829955E+03  0.34490829959E+03  0.50400001928E-02 0.  1.
        1   -1    0    0  501    0  0.00000000000E+00  0.00000000000E+00 -0.23039412565E+04  0.23039412565E+04  0.50400001928E-02 0. -1.
    10030    2    1    2    0    0  0.00000000000E+00  0.00000000000E+00 -0.19590329569E+04  0.26488495561E+04  0.17828611400E+04 0.  0.
        1    1    3    3  502    0  0.54878570858E+03 -0.55051302783E+03 -0.16278431713E+04  0.18039134509E+04  0.50400001928E-02 0. -1.
       -1    1    3    3    0  502 -0.54878570858E+03  0.55051302783E+03 -0.33118978557E+03  0.84493610518E+03  0.50400001928E-02 0.  1.
</event>
<event>
 5   0  0.8872777E-05  0.2100059E+04  0.7818609E-02  0.8561218E-01
        2   -1    0    0  501    0  0.00000000000E+00  0.00000000000E+00  0.12930223848E+04  0.12930223848E+04  0.25500000920E-02 0.  1.
       -2   -1    0    0    0  501  0.00000000000E+00  0.00000000000E+00 -0.85270102289E+03  0.85270102289E+03  0.25500000920E-02 0. -1.
    10030    2    1    2    0    0  0.00000000000E+00  0.00000000000E+00  0.44032136193E+03  0.21457234077E+04  0.21000585803E+04 0.  0.
        3    1    3    3  502    0 -0.31943863809E+03 -0.99887320692E+03  0.16635854918E+03  0.10618210320E+04  0.10100000352E+00 0. -1.
       -3    1    3    3    0  502  0.31943863809E+03  0.99887320692E+03  0.27396281275E+03  0.10839023757E+04  0.10100000352E+00 0.  1.
</event>
<event>
 5   0  0.8858590E-05  0.2084444E+04  0.7818609E-02  0.8568127E-01
        2   -1    0    0  501    0  0.00000000000E+00  0.00000000000E+00  0.12537435929E+04  0.12537435929E+04  0.25500000920E-02 0. -1.
       -2   -1    0    0    0  501  0.00000000000E+00  0.00000000000E+00 -0.86638673756E+03  0.86638673756E+03  0.25500000920E-02 0.  1.
    10030    2    1    2    0    0  0.00000000000E+00  0.00000000000E+00  0.38735685536E+03  0.21201303305E+04  0.20844441189E+04 0.  0.
        1    1    3    3  502    0  0.45059586209E+03  0.39290129565E+03  0.10620029666E+04  0.12187117626E+04  0.50400001928E-02 0. -1.
       -1    1    3    3    0  502 -0.45059586209E+03 -0.39290129565E+03 -0.67464611129E+03  0.90141856790E+03  0.50400001928E-02 0.  1.
</event>
<event>
 5   0  0.4050368E-05  0.2106189E+04  0.7818609E-02  0.8558522E-01
       -1   -1    0    0    0  501  0.00000000000E+00  0.00000000000E+00  0.83641973971E+03  0.83641973973E+03  0.50400001928E-02 0.  1.
        1   -1    0    0  501    0  0.00000000000E+00  0.00000000000E+00 -0.13258987790E+04  0.13258987790E+04  0.50400001928E-02 0. -1.
    10030    2    1    2    0    0  0.00000000000E+00  0.00000000000E+00 -0.48947903926E+03  0.21623185187E+04  0.21061888915E+04 0.  0.
        2    1    3    3  502    0 -0.49677701046E+03  0.89640820063E+03 -0.49341957018E+03  0.11374523869E+04  0.25500000920E-02 0. -1.
       -2    1    3    3    0  502  0.49677701046E+03 -0.89640820063E+03  0.39405309186E+01  0.10248661318E+04  0.25500000920E-02 0.  1.
</event>
<event>
 5   0  0.8547605E-05  0.1834577E+04  0.7818609E-02  0.8688125E-01
       -2   -1    0    0    0  501  0.00000000000E+00  0.00000000000E+00  0.49762257925E+03  0.49762257926E+03  0.25500000920E-02 0.  1.
        2   -1    0    0  501    0  0.00000000000E+00  0.00000000000E+00 -0.16908756478E+04  0.16908756478E+04  0.25500000920E-02 0. -1.
    10030    2    1    2    0    0  0.00000000000E+00  0.00000000000E+00 -0.11932530685E+04  0.21884982270E+04  0.18345766826E+04 0.  0.
        4    1    3    3  502    0  0.10763565378E+03 -0.13250195825E+02 -0.16832001924E+04  0.16866906955E+04  0.12699999809E+01 0. -1.
       -4    1    3    3    0  502 -0.10763565378E+03  0.13250195825E+02  0.48994712386E+03  0.50180753156E+03  0.12699999809E+01 0.  1.
</event>
<event>
 5   0  0.9012466E-05  0.2099997E+04  0.7818609E-02  0.8561245E-01
       -2   -1    0    0    0  501  0.00000000000E+00  0.00000000000E+00  0.46038626623E+03  0.46038626623E+03  0.25500000920E-02 0. -1.
        2   -1    0    0  501    0  0.00000000000E+00  0.00000000000E+00 -0.23947212589E+04  0.23947212590E+04  0.25500000920E-02 0.  1.
    10030    2    1    2    0    0  0.00000000000E+00  0.00000000000E+00 -0.19343349927E+04  0.28551075252E+04  0.20999969324E+04 0.  0.
        2    1    3    3  502    0 -0.17535328560E+03  0.10071951479E+04 -0.64170299822E+03  0.12070516056E+04  0.25500000920E-02 0.  1.
       -2    1    3    3    0  502  0.17535328560E+03 -0.10071951479E+04 -0.12926319945E+04  0.16480559195E+04  0.25500000920E-02 0. -1.
</event>
<event>
 5   0  0.4174093E-05  0.1882106E+04  0.7818609E-02  0.8663815E-01
       -1   -1    0    0    0  501  0.00000000000E+00  0.00000000000E+00  0.60967076809E+03  0.60967076811E+03  0.50400001928E-02 0. -1.
        1   -1    0    0  501    0  0.00000000000E+00  0.00000000000E+00 -0.14525553704E+04  0.14525553704E+04  0.50400001928E-02 0.  1.
    10030    2    1    2    0    0  0.00000000000E+00  0.00000000000E+00 -0.84288460230E+03  0.20622261385E+04  0.18821057870E+04 0.  0.
        3    1    3    3  502    0  0.89256987345E+03  0.29545047023E+03 -0.37749690007E+03  0.10131514591E+04  0.10100000352E+00 0. -1.
       -3    1    3    3    0  502 -0.89256987345E+03 -0.29545047023E+03 -0.46538770223E+03  0.10490746794E+04  0.10100000352E+00 0.  1.
</event>
<event>
 5   0  0.4200061E-05  0.2098117E+04  0.7818609E-02  0.8562073E-01
        1   -1    0    0  501    0  0.00000000000E+00  0.00000000000E+00  0.17067170394E+04  0.17067170394E+04  0.50400001928E-02 0.  1.
       -1   -1    0    0    0  501  0.00000000000E+00  0.00000000000E+00 -0.64481921199E+03  0.64481921201E+03  0.50400001928E-02 0. -1.
    10030    2    1    2    0    0  0.00000000000E+00  0.00000000000E+00  0.10618978274E+04  0.23515362515E+04  0.20981171907E+04 0.  0.
        4    1    3    3  502    0  0.21912927562E+03  0.10259122526E+04  0.52763658599E+03  0.11742723573E+04  0.12699999809E+01 0. -1.
       -4    1    3    3    0  502 -0.21912927562E+03 -0.10259122526E+04  0.53426124146E+03  0.11772638941E+04  0.12699999809E+01 0.  1.
</event>
<event>
 5   0  0.4128678E-05  0.2113036E+04  0.7818609E-02  0.8555523E-01
        1   -1    0    0  501    0  0.00000000000E+00  0.00000000000E+00  0.16809709267E+04  0.16809709267E+04  0.50400001928E-02 0. -1.
       -1   -1    0    0    0  501  0.00000000000E+00  0.00000000000E+00 -0.66403906298E+03  0.66403906300E+03  0.50400001928E-02 0.  1.
    10030    2    1    2    0    0  0.00000000000E+00  0.00000000000E+00  0.10169318637E+04  0.23450099897E+04  0.21130360708E+04 0.  0.
        5    1    3    3  502    0  0.24264900515E+03  0.80785259780E+03 -0.19753697031E+03  0.86634133234E+03  0.46999998093E+01 0.  1.
       -5    1    3    3    0  502 -0.24264900515E+03 -0.80785259780E+03  0.12144688340E+04  0.14786686574E+04  0.46999998093E+01 0. -1.
</event>
<event>
 5   0  0.4200061E-05  0.2115198E+04  0.7818609E-02  0.8554578E-01
        1   -1    0    0  501    0  0.00000000000E+00  0.00000000000E+00  0.23524344636E+04  0.23524344636E+04  0.50400001928E-02 0. -1.
       -1   -1    0    0    0  501  0.00000000000E+00  0.00000000000E+00 -0.47547148619E+03  0.47547148622E+03  0.50400001928E-02 0.  1.
    10030    2    1    2    0    0  0.00000000000E+00  0.00000000000E+00  0.18769629774E+04  0.28279059498E+04  0.21151978731E+04 0.  0.
        4    1    3    3  502    0 -0.96598872981E+03 -0.39274693019E+03  0.11743664075E+04  0.15705166186E+04  0.12699999809E+01 0.  1.
       -4    1    3    3    0  502  0.96598872981E+03  0.39274693019E+03  0.70259656986E+03  0.12573893312E+04  0.12699999809E+01 0. -1.
</event>
<event>
 5   0  0.4182977E-05  0.2105604E+04  0.7818609E-02  0.8558779E-01
        1   -1    0    0  501    0  0.00000000000E+00  0.00000000000E+00  0.15426217190E+04  0.15426217190E+04  0.50400001928E-02 0. -1.
       -1   -1    0    0    0  501  0.00000000000E+00  0.00000000000E+00 -0.71851207000E+03  0.71851207002E+03  0.50400001928E-02 0.  1.
    10030    2    1    2    0    0  0.00000000000E+00  0.00000000000E+00  0.82410964903E+03  0.22611337891E+04  0.21056042597E+04 0.  0.
        1    1    3    3  502    0  0.64294387854E+03  0.63279046097E+03 -0.17079917633E+03  0.91813558754E+03  0.50400001928E-02 0.  1.
       -1    1    3    3    0  502 -0.64294387854E+03 -0.63279046097E+03  0.99490882536E+03  0.13429982015E+04  0.50400001928E-02 0. -1.
</event>
<event>
 5   0  0.9086985E-05  0.2103826E+04  0.7818609E-02  0.8559560E-01
       -2   -1    0    0    0  501  0.00000000000E+00  0.00000000000E+00  0.26776800868E+04  0.26776800868E+04  0.25500000920E-02 0.  1.
        2   -1    0    0  501    0  0.00000000000E+00  0.00000000000E+00 -0.41323878869E+03  0.41323878870E+03  0.25500000920E-02 0. -1.
    10030    2    1    2    0    0  0.00000000000E+00  0.00000000000E+00  0.22644412981E+04  0.30909188755E+04  0.21038263004E+04 0.  0.
        5    1    3    3  502    0 -0.43922316207E+03 -0.87608597900E+03  0.57073744548E+03  0.11341106429E+04  0.46999998093E+01 0. -1.
       -5    1    3    3    0  502  0.43922316207E+03  0.87608597900E+03  0.16937038526E+04  0.19568082325E+04  0.46999998093E+01 0.  1.
</event>
<event>
 5   0  0.4200061E-05  0.2061031E+04  0.7818609E-02  0.8578607E-01
        1   -1    0    0  501    0  0.00000000000E+00  0.00000000000E+00  0.86677197880E+03  0.86677197882E+03  0.50400001928E-02 0.  1.
       -1   -1    0    0    0  501  0.00000000000E+00  0.00000000000E+00 -0.12251917967E+04  0.12251917967E+04  0.50400001928E-02 0. -1.
    10030    2    1    2    0    0  0.00000000000E+00  0.00000000000E+00 -0.35841981789E+03  0.20919637755E+04  0.20610307305E+04 0.  0.
        4    1    3    3  502    0  0.10042880352E+04 -0.16224171919E+03 -0.34612704197E+03  0.10745800925E+04  0.12699999809E+01 0. -1.
       -4    1    3    3    0  502 -0.10042880352E+04  0.16224171919E+03 -0.12292775918E+02  0.10173836830E+04  0.12699999809E+01 0.  1.
</event>
<event>
 5   0  0.9086985E-05  0.2239067E+04  0.7818609E-02  0.8502341E-01
       -2   -1    0    0    0  501  0.00000000000E+00  0.00000000000E+00  0.18834189865E+04  0.18834189865E+04  0.25500000920E-02 0. -1.
        2   -1    0    0  501    0  0.00000000000E+00  0.00000000000E+00 -0.66546808673E+03  0.66546808673E+03  0.25500000920E-02 0.  1.
    10030    2    1    2    0    0  0.00000000000E+00  0.00000000000E+00  0.12179508997E+04  0.25488870732E+04  0.22390669748E+04 0.  0.
        5    1    3    3  502    0 -0.10544236646E+04  0.10525817558E+03  0.19782899598E+03  0.10779828151E+04  0.46999998093E+01 0.  1.
       -5    1    3    3    0  502  0.10544236646E+04 -0.10525817558E+03  0.10201219037E+04  0.14709042581E+04  0.46999998093E+01 0. -1.
</event>
<event>
 5   0  0.8872777E-05  0.1964486E+04  0.7818609E-02  0.8623407E-01
        2   -1    0    0  501    0  0.00000000000E+00  0.00000000000E+00  0.60169334138E+03  0.60169334138E+03  0.25500000920E-02 0.  1.
       -2   -1    0    0    0  501  0.00000000000E+00  0.00000000000E+00 -0.16034773808E+04  0.16034773808E+04  0.25500000920E-02 0. -1.
    10030    2    1    2    0    0  0.00000000000E+00  0.00000000000E+00 -0.10017840395E+04  0.22051707222E+04  0.19644863584E+04 0.  0.
        3    1    3    3  502    0  0.17949698441E+03  0.95872677754E+03 -0.37082785666E+03  0.10434986875E+04  0.10100000352E+00 0. -1.
       -3    1    3    3    0  502 -0.17949698441E+03 -0.95872677754E+03 -0.63095618280E+03  0.11616720347E+04  0.10100000352E+00 0.  1.
</event>
<event>
 5   0  0.8872777E-05  0.2144325E+04  0.7818609E-02  0.8541965E-01
       -2   -1    0    0    0  501  0.00000000000E+00  0.00000000000E+00  0.72474789819E+03  0.72474789819E+03  0.25500000920E-02 0. -1.
        2   -1    0    0  501    0  0.00000000000E+00  0.00000000000E+00 -0.15861131722E+04  0.15861131722E+04  0.25500000920E-02 0.  1.
    10030    2    1    2    0    0  0.00000000000E+00  0.00000000000E+00 -0.86136527399E+03  0.23108610704E+04  0.21443247775E+04 0.  0.
        3    1    3    3  502    0 -0.38548969693E+02 -0.92525994946E+03  0.15159513101E+03  0.93838856083E+03  0.10100000352E+00 0. -1.
       -3    1    3    3    0  502  0.38548969693E+02  0.92525994946E+03 -0.10129604050E+04  0.13724725095E+04  0.10100000352E+00 0.  1.
</event>
<event>
 5   0  0.4128678E-05  0.2079574E+04  0.7818609E-02  0.8570295E-01
        1   -1    0    0  501    0  0.00000000000E+00  0.00000000000E+00  0.12613429672E+04  0.12613429672E+04  0.50400001928E-02 0. -1.
       -1   -1    0    0    0  501  0.00000000000E+00  0.00000000000E+00 -0.85714756699E+03  0.85714756701E+03  0.50400001928E-02 0.  1.
    10030    2    1    2    0    0  0.00000000000E+00  0.00000000000E+00  0.40419540024E+03  0.21184905342E+04  0.20795740482E+04 0.  0.
        5    1    3    3  502    0  0.10014940818E+03  0.16324215561E+03 -0.83901425551E+03  0.86060729504E+03  0.46999998093E+01 0.  1.
       -5    1    3    3    0  502 -0.10014940818E+03 -0.16324215561E+03  0.12432096558E+04  0.12578832392E+04  0.46999998093E+01 0. -1.
</event>
<event>
 5   0  0.9086985E-05  0.2077639E+04  0.7818609E-02  0.8571158E-01
       -2   -1    0    0    0  501  0.00000000000E+00  0.00000000000E+00  0.73197256618E+03  0.73197256618E+03  0.25500000920E-02 0. -1.
        2   -1    0    0  501    0  0.00000000000E+00  0.00000000000E+00 -0.14742989944E+04  0.14742989944E+04  0.25500000920E-02 0.  1.
    10030    2    1    2    0    0  0.00000000000E+00  0.00000000000E+00 -0.74232642819E+03  0.22062715606E+04  0.20776394473E+04 0.  0.
        5    1    3    3  502    0 -0.18640095067E+03 -0.41531710413E+02 -0.14554868348E+04  0.14679694185E+04  0.46999998093E+01 0.  1.
       -5    1    3    3    0  502  0.18640095067E+03  0.41531710413E+02  0.71316040662E+03  0.73830214204E+03  0.46999998093E+01 0. -1.
</event>
<event>
 5   0  0.8872777E-05  0.2091746E+04  0.7818609E-02  0.8564888E-01
       -2   -1    0    0    0  501  0.00000000000E+00  0.00000000000E+00  0.71036722159E+03  0.71036722159E+03  0.25500000920E-02 0.  1.
        2   -1    0    0  501    0  0.00000000000E+00  0.00000000000E+00 -0.15398384911E+04  0.15398384911E+04  0.25500000920E-02 0. -1.
    10030    2    1    2    0    0  0.00000000000E+00  0.00000000000E+00 -0.82947126953E+03  0.22502057127E+04  0.20917464384E+04 0.  0.
        3    1    3    3  502    0  0.81178932799E+03 -0.21555440596E+02 -0.11237421238E+04  0.13864569669E+04  0.10100000352E+00 0. -1.
       -3    1    3    3    0  502 -0.81178932799E+03  0.21555440596E+02  0.29427085426E+03  0.86374874583E+03  0.10100000352E+00 0.  1.
</event>
<event>
 5   0  0.4174093E-05  0.2083666E+04  0.7818609E-02  0.8568473E-01
       -1   -1    0    0    0  501  0.00000000000E+00  0.00000000000E+00  0.42868591545E+03  0.42868591548E+03  0.50400001928E-02 0. -1.
        1   -1    0    0  501    0  0.00000000000E+00  0.00000000000E+00 -0.25319608216E+04  0.25319608216E+04  0.50400001928E-02 0.  1.
    10030    2    1    2    0    0  0.00000000000E+00  0.00000000000E+00 -0.21032749061E+04  0.29606467370E+04  0.20836659451E+04 0.  0.
        3    1    3    3  502    0  0.33074237326E+03 -0.71353797012E+03 -0.20225169029E+04  0.21700464477E+04  0.10100000352E+00 0. -1.
       -3    1    3    3    0  502 -0.33074237326E+03  0.71353797012E+03 -0.80758003194E+02  0.79060028937E+03  0.10100000352E+00 0.  1.
</event>
<event>
 5   0  0.4174093E-05  0.1964184E+04  0.7818609E-02  0.8623552E-01
        1   -1    0    0  501    0  0.00000000000E+00  0.00000000000E+00  0.17418881294E+04  0.17418881294E+04  0.50400001928E-02 0.  1.
       -1   -1    0    0    0  501  0.00000000000E+00  0.00000000000E+00 -0.55371194188E+03  0.55371194190E+03  0.50400001928E-02 0. -1.
    10030    2    1    2    0    0  0.00000000000E+00  0.00000000000E+00  0.11881761875E+04  0.22956000713E+04  0.19641835543E+04 0.  0.
        3    1    3    3  502    0 -0.75938406606E+03  0.52281790188E+03  0.19861239288E+03  0.94310636257E+03  0.10100000352E+00 0. -1.
       -3    1    3    3    0  502  0.75938406606E+03 -0.52281790188E+03  0.98956379463E+03  0.13524937087E+04  0.10100000352E+00 0.  1.
</event>
<event>
 5   0  0.4200061E-05  0.2083964E+04  0.7818609E-02  0.8568341E-01
       -1   -1    0    0    0  501  0.00000000000E+00  0.00000000000E+00  0.59861778002E+03  0.59861778004E+03  0.50400001928E-02 0.  1.
        1   -1    0    0  501    0  0.00000000000E+00  0.00000000000E+00 -0.18137218997E+04  0.18137218997E+04  0.50400001928E-02 0. -1.
    10030    2    1    2    0    0  0.00000000000E+00  0.00000000000E+00 -0.12151041196E+04  0.24123396797E+04  0.20839637014E+04 0.  0.
        4    1    3    3  502    0  0.18867719480E+03 -0.93088940105E+02  0.57377347865E+03  0.61113194345E+03  0.12699999809E+01 0.  1.
       -4    1    3    3    0  502 -0.18867719480E+03  0.93088940105E+02 -0.17888775983E+04  0.18012077363E+04  0.12699999809E+01 0. -1.
</event>
<event>
 5   0  0.8858590E-05  0.2117655E+04  0.7818609E-02  0.8553506E-01
        2   -1    0    0  501    0  0.00000000000E+00  0.00000000000E+00  0.13659719373E+04  0.13659719373E+04  0.25500000920E-02 0.  1.
       -2   -1    0    0    0  501  0.00000000000E+00  0.00000000000E+00 -0.82074544995E+03  0.82074544996E+03  0.25500000920E-02 0. -1.
    10030    2    1    2    0    0  0.00000000000E+00  0.00000000000E+00  0.54522648730E+03  0.21867173872E+04  0.21176546010E+04 0.  0.
        1    1    3    3  502    0  0.10856364079E+03 -0.94465180053E+03 -0.20836954264E+03  0.97343256298E+03  0.50400001928E-02 0.  1.
       -1    1    3    3    0  502 -0.10856364079E+03  0.94465180053E+03  0.75359602994E+03  0.12132848242E+04  0.50400001928E-02 0. -1.
</event>
<event>
 5   0  0.9086985E-05  0.2092328E+04  0.7818609E-02  0.8564631E-01
       -2   -1    0    0    0  501  0.00000000000E+00  0.00000000000E+00  0.15410900882E+04  0.15410900882E+04  0.25500000920E-02 0.  1.
        2   -1    0    0  501    0  0.00000000000E+00  0.00000000000E+00 -0.71018490501E+03  0.71018490501E+03  0.25500000920E-02 0. -1.
    10030    2    1    2    0    0  0.00000000000E+00  0.00000000000E+00  0.83090518316E+03  0.22512749932E+04  0.20923278117E+04 0.  0.
        5    1    3    3  502    0 -0.65069208948E+03 -0.41252660126E+02  0.12957319912E+04  0.14505328195E+04  0.46999998093E+01 0.  1.
       -5    1    3    3    0  502  0.65069208948E+03  0.41252660126E+02 -0.46482680805E+03  0.80074217372E+03  0.46999998093E+01 0. -1.
</event>
<event>
 5   0  0.9012466E-05  0.2012125E+04  0.7818609E-02  0.8600973E-01
       -2   -1    0    0    0  501  0.00000000000E+00  0.00000000000E+00  0.11432993803E+04  0.11432993803E+04  0.25500000920E-02 0. -1.
        2   -1    0    0  501    0  0.00000000000E+00  0.00000000000E+00 -0.88529877263E+03  0.88529877263E+03  0.25500000920E-02 0.  1.
    10030    2    1    2    0    0  0.00000000000E+00  0.00000000000E+00  0.25800060767E+03  0.20285981529E+04  0.20121247855E+04 0.  0.
        2    1    3    3  502    0  0.41017581695E+03  0.33075878032E+03  0.99305599550E+03  0.11241911678E+04  0.25500000920E-02 0. -1.
       -2    1    3    3    0  502 -0.41017581695E+03 -0.33075878032E+03 -0.73505538783E+03  0.90440698513E+03  0.25500000920E-02 0.  1.
</event>
<event>
 5   0  0.8872777E-05  0.2101641E+04  0.7818609E-02  0.8560521E-01
        2   -1    0    0  501    0  0.00000000000E+00  0.00000000000E+00  0.20765248201E+04  0.20765248201E+04  0.25500000920E-02 0.  1.
       -2   -1    0    0    0  501  0.00000000000E+00  0.00000000000E+00 -0.53176515262E+03  0.53176515262E+03  0.25500000920E-02 0. -1.
    10030    2    1    2    0    0  0.00000000000E+00  0.00000000000E+00  0.15447596675E+04  0.26082899728E+04  0.21016408236E+04 0.  0.
        3    1    3    3  502    0  0.59834787809E+03  0.11494694798E+03 -0.29016328195E+03  0.67485385415E+03  0.10100000352E+00 0. -1.
       -3    1    3    3    0  502 -0.59834787809E+03 -0.11494694798E+03  0.18349229495E+04  0.19334361186E+04  0.10100000352E+00 0.  1.
</event>
<event>
 5   0  0.4050368E-05  0.2165545E+04  0.7818609E-02  0.8532907E-01
        1   -1    0    0  501    0  0.00000000000E+00  0.00000000000E+00  0.18674917761E+04  0.18674917761E+04  0.50400001928E-02 0.  1.
       -1   -1    0    0    0  501  0.00000000000E+00  0.00000000000E+00 -0.62779194579E+03  0.62779194581E+03  0.50400001928E-02 0. -1.
    10030    2    1    2    0    0  0.00000000000E+00  0.00000000000E+00  0.12396998303E+04  0.24952837219E+04  0.21655450084E+04 0.  0.
        2    1    3    3  502    0  0.21902478374E+03 -0.15892299403E+03 -0.58819961765E+03  0.64746209475E+03  0.25500000920E-02 0. -1.
       -2    1    3    3    0  502 -0.21902478374E+03  0.15892299403E+03  0.18278994480E+04  0.18478216272E+04  0.25500000920E-02 0.  1.
</event>
<event>
 5   0  0.4182977E-05  0.2099887E+04  0.7818609E-02  0.8561293E-01
        1   -1    0    0  501    0  0.00000000000E+00  0.00000000000E+00  0.16408138053E+04  0.16408138053E+04  0.50400001928E-02 0.  1.
       -1   -1    0    0    0  501  0.00000000000E+00  0.00000000000E+00 -0.67185064654E+03  0.67185064656E+03  0.50400001928E-02 0. -1.
    10030    2    1    2    0    0  0.00000000000E+00  0.00000000000E+00  0.96896315879E+03  0.23126644519E+04  0.20998874408E+04 0.  0.
        1    1    3    3  502    0 -0.16938090252E+03  0.35512145534E+03  0.15565554396E+04  0.16055111257E+04  0.50400001928E-02 0.  1.
       -1    1    3    3    0  502  0.16938090252E+03 -0.35512145534E+03 -0.58759228084E+03  0.70715332617E+03  0.50400001928E-02 0. -1.
</event>
<event>
 5   0  0.8872777E-05  0.2103072E+04  0.7818609E-02  0.8559891E-01
        2   -1    0    0  501    0  0.00000000000E+00  0.00000000000E+00  0.21226066829E+04  0.21226066829E+04  0.25500000920E-02 0. -1.
       -2   -1    0    0    0  501  0.00000000000E+00  0.00000000000E+00 -0.52092927029E+03  0.52092927030E+03  0.25500000920E-02 0.  1.
    10030    2    1    2    0    0  0.00000000000E+00  0.00000000000E+00  0.16016774126E+04  0.26435359532E+04  0.21030719916E+04 0.  0.
        3    1    3    3  502    0  0.91588492326E+03  0.31370181816E+03  0.28490082219E+03  0.10091692187E+04  0.10100000352E+00 0.  1.
       -3    1    3    3    0  502 -0.91588492326E+03 -0.31370181816E+03  0.13167765904E+04  0.16343667344E+04  0.10100000352E+00 0. -1.
</event>
<event>
 5   0  0.9086985E-05  0.2098011E+04  0.7818609E-02  0.8562120E-01
       -2   -1    0    0    0  501  0.00000000000E+00  0.00000000000E+00  0.99823656417E+03  0.99823656417E+03  0.25500000920E-02 0.  1.
        2   -1    0    0  501    0  0.00000000000E+00  0.00000000000E+00 -0.11023560799E+04  0.11023560799E+04  0.25500000920E-02 0. -1.
    10030    2    1    2    0    0  0.00000000000E+00  0.00000000000E+00 -0.10411951573E+03  0.21005926441E+04  0.20980106250E+04 0.  0.
        5    1    3    3  502    0  0.64166901611E+03  0.25368413355E+03  0.73903623775E+03  0.10110842777E+04  0.46999998093E+01 0.  1.
       -5    1    3    3    0  502 -0.64166901611E+03 -0.25368413355E+03 -0.84315575348E+03  0.10895083664E+04  0.46999998093E+01 0. -1.
</event>
<event>
 5   0  0.4174093E-05  0.2098838E+04  0.7818609E-02  0.8561755E-01
       -1   -1    0    0    0  501  0.00000000000E+00  0.00000000000E+00  0.12600289300E+04  0.12600289300E+04  0.50400001928E-02 0. -1.
        1   -1    0    0  501    0  0.00000000000E+00  0.00000000000E+00 -0.87401177607E+03  0.87401177609E+03  0.50400001928E-02 0.  1.
    10030    2    1    2    0    0  0.00000000000E+00  0.00000000000E+00  0.38601715389E+03  0.21340407061E+04  0.20988378908E+04 0.  0.
        3    1    3    3  502    0 -0.36125787335E+03  0.84141606184E+03 -0.32822185978E+03  0.97273729220E+03  0.10100000352E+00 0.  1.
       -3    1    3    3    0  502  0.36125787335E+03 -0.84141606184E+03  0.71423901367E+03  0.11613034139E+04  0.10100000352E+00 0. -1.
</event>
<event>
 5   0  0.4050368E-05  0.2095108E+04  0.7818609E-02  0.8563401E-01
        1   -1    0    0  501    0  0.00000000000E+00  0.00000000000E+00  0.23156122962E+04  0.23156122962E+04  0.50400001928E-02 0. -1.
       -1   -1    0    0    0  501  0.00000000000E+00  0.00000000000E+00 -0.47390032479E+03  0.47390032481E+03  0.50400001928E-02 0.  1.
    10030    2    1    2    0    0  0.00000000000E+00  0.00000000000E+00  0.18417119714E+04  0.27895126210E+04  0.20951080347E+04 0.  0.
        2    1    3    3  502    0 -0.10080081035E+04  0.21610090378E+03  0.67323130027E+03  0.12312677698E+04  0.25500000920E-02 0.  1.
       -2    1    3    3    0  502  0.10080081035E+04 -0.21610090378E+03  0.11684806711E+04  0.15582448512E+04  0.25500000920E-02 0. -1.
</event>
<event>
 5   0  0.4050368E-05  0.2124451E+04  0.7818609E-02  0.8550548E-01
       -1   -1    0    0    0  501  0.00000000000E+00  0.00000000000E+00  0.49035802437E+03  0.49035802439E+03  0.50400001928E-02 0. -1.
        1   -1    0    0  501    0  0.00000000000E+00  0.00000000000E+00 -0.23010196821E+04  0.23010196821E+04  0.50400001928E-02 0.  1.
    10030    2    1    2    0    0  0.00000000000E+00  0.00000000000E+00 -0.18106616577E+04  0.27913777065E+04  0.21244514260E+04 0.  0.
        2    1    3    3  502    0 -0.47622125844E+03 -0.63072496910E+03 -0.18378711110E+04  0.20005926358E+04  0.25500000920E-02 0.  1.
       -2    1    3    3    0  502  0.47622125844E+03  0.63072496910E+03  0.27209453333E+02  0.79078507067E+03  0.25500000920E-02 0. -1.
</event>
<event>
 5   0  0.8547605E-05  0.2093529E+04  0.7818609E-02  0.8564099E-01
       -2   -1    0    0    0  501  0.00000000000E+00  0.00000000000E+00  0.68556107961E+03  0.68556107961E+03  0.25500000920E-02 0.  1.
        2   -1    0    0  501    0  0.00000000000E+00  0.00000000000E+00 -0.15982759426E+04  0.15982759426E+04  0.25500000920E-02 0. -1.
    10030    2    1    2    0    0  0.00000000000E+00  0.00000000000E+00 -0.91271486295E+03  0.22838370222E+04  0.20935288684E+04 0.  0.
        4    1    3    3  502    0  0.12355977119E+02  0.93541730146E+03  0.55967586003E+02  0.93717243964E+03  0.12699999809E+01 0. -1.
       -4    1    3    3    0  502 -0.12355977119E+02 -0.93541730146E+03 -0.96868244895E+03  0.13466645825E+04  0.12699999809E+01 0.  1.
</event>
<event>
 5   0  0.4128678E-05  0.2073319E+04  0.7818609E-02  0.8573089E-01
       -1   -1    0    0    0  501  0.00000000000E+00  0.00000000000E+00  0.12893802836E+04  0.12893802836E+04  0.50400001928E-02 0.  1.
        1   -1    0    0  501    0  0.00000000000E+00  0.00000000000E+00 -0.83347225580E+03  0.83347225582E+03  0.50400001928E-02 0. -1.
    10030    2    1    2    0    0  0.00000000000E+00  0.00000000000E+00  0.45590802775E+03  0.21228525394E+04  0.20733187826E+04 0.  0.
        5    1    3    3  502    0  0.22281221539E+03 -0.97676829902E+03 -0.44714554891E+02  0.10028674263E+04  0.46999998093E+01 0. -1.
       -5    1    3    3    0  502 -0.22281221539E+03  0.97676829902E+03  0.50062258264E+03  0.11199851131E+04  0.46999998093E+01 0.  1.
</event>
<event>
 5   0  0.9086985E-05  0.2513789E+04  0.7818609E-02  0.8398090E-01
       -2   -1    0    0    0  501  0.00000000000E+00  0.00000000000E+00  0.10155799970E+04  0.10155799970E+04  0.25500000920E-02 0. -1.
        2   -1    0    0  501    0  0.00000000000E+00  0.00000000000E+00 -0.15555482358E+04  0.15555482358E+04  0.25500000920E-02 0.  1.
    10030    2    1    2    0    0  0.00000000000E+00  0.00000000000E+00 -0.53996823875E+03  0.25711282328E+04  0.25137889113E+04 0.  0.
        5    1    3    3  502    0  0.11076896726E+04 -0.55315911757E+03 -0.49125211997E+03  0.13320330910E+04  0.46999998093E+01 0.  1.
       -5    1    3    3    0  502 -0.11076896726E+04  0.55315911757E+03 -0.48716118780E+02  0.12390951418E+04  0.46999998093E+01 0. -1.
</event>
<event>
 5   0  0.4050368E-05  0.1698234E+04  0.7818609E-02  0.8762372E-01
        1   -1    0    0  501    0  0.00000000000E+00  0.00000000000E+00  0.20591385568E+04  0.20591385568E+04  0.50400001928E-02 0. -1.
       -1   -1    0    0    0  501  0.00000000000E+00  0.00000000000E+00 -0.35014646999E+03  0.35014647002E+03  0.50400001928E-02 0.  1.
    10030    2    1    2    0    0  0.00000000000E+00  0.00000000000E+00  0.17089920868E+04  0.24092850268E+04  0.16982344914E+04 0.  0.
        2    1    3    3  502    0  0.97872726436E+02  0.10441255900E+03 -0.33291339718E+03  0.36237050526E+03  0.25500000920E-02 0.  1.
       -2    1    3    3    0  502 -0.97872726436E+02 -0.10441255900E+03  0.20419054840E+04  0.20469145215E+04  0.25500000920E-02 0. -1.
</event>
<event>
 5   0  0.8858590E-05  0.2099539E+04  0.7818609E-02  0.8561446E-01
       -2   -1    0    0    0  501  0.00000000000E+00  0.00000000000E+00  0.67220100326E+03  0.67220100326E+03  0.25500000920E-02 0.  1.
        2   -1    0    0  501    0  0.00000000000E+00  0.00000000000E+00 -0.16394150878E+04  0.16394150878E+04  0.25500000920E-02 0. -1.
    10030    2    1    2    0    0  0.00000000000E+00  0.00000000000E+00 -0.96721408452E+03  0.23116160910E+04  0.20995394417E+04 0.  0.
        1    1    3    3  502    0 -0.49492955175E+01 -0.10497189402E+04 -0.49358427425E+03  0.11599826658E+04  0.50400001928E-02 0. -1.
       -1    1    3    3    0  502  0.49492955175E+01  0.10497189402E+04 -0.47362981027E+03  0.11516334253E+04  0.50400001928E-02 0.  1.
</event>
<event>
 5   0  0.4128678E-05  0.2097481E+04  0.7818609E-02  0.8562354E-01
       -1   -1    0    0    0  501  0.00000000000E+00  0.00000000000E+00  0.27701663955E+04  0.27701663955E+04  0.50400001928E-02 0. -1.
        1   -1    0    0  501    0  0.00000000000E+00  0.00000000000E+00 -0.39703631421E+03  0.39703631424E+03  0.50400001928E-02 0.  1.
    10030    2    1    2    0    0  0.00000000000E+00  0.00000000000E+00  0.23731300812E+04  0.31672027097E+04  0.20974810182E+04 0.  0.
        5    1    3    3  502    0 -0.99946843277E+03 -0.23686724938E+03  0.15061414912E+04  0.18230544488E+04  0.46999998093E+01 0. -1.
       -5    1    3    3    0  502  0.99946843277E+03  0.23686724938E+03  0.86698859008E+03  0.13441482609E+04  0.46999998093E+01 0.  1.
</event>
<event>
 5   0  0.3176125E-05  0.2105501E+04  0.7818609E-02  0.8558824E-01
        4   -1    0    0  501    0  0.00000000000E+00  0.00000000000E+00  0.74386844407E+03  0.74386952820E+03  0.12699999809E+01 0. -1.
       -4   -1    0    0    0  501  0.00000000000E+00  0.00000000000E+00 -0.14898897346E+04  0.14898902759E+04  0.12699999809E+01 0.  1.
    10030    2    1    2    0    0  0.00000000000E+00  0.00000000000E+00 -0.74602129056E+03  0.22337598041E+04  0.21055011509E+04 0.  0.
        5    1    3    3  502    0  0.35436725097E+03 -0.91594866882E+03  0.29192061596E+02  0.98255400815E+03  0.46999998093E+01 0. -1.
       -5    1    3    3    0  502 -0.35436725097E+03  0.91594866882E+03 -0.77521335215E+03  0.12512057960E+04  0.46999998093E+01 0.  1.
</event>
<event>
 5   0  0.9012466E-05  0.2121007E+04  0.7818609E-02  0.8552046E-01
        2   -1    0    0  501    0  0.00000000000E+00  0.00000000000E+00  0.15492295921E+04  0.15492295921E+04  0.25500000920E-02 0.  1.
       -2   -1    0    0    0  501  0.00000000000E+00  0.00000000000E+00 -0.72595256530E+03  0.72595256531E+03  0.25500000920E-02 0. -1.
    10030    2    1    2    0    0  0.00000000000E+00  0.00000000000E+00  0.82327702683E+03  0.22751821574E+04  0.21210065504E+04 0.  0.
        2    1    3    3  502    0 -0.69252419747E+03 -0.74350212363E+03  0.73749976466E+03  0.12555043109E+04  0.25500000920E-02 0.  1.
       -2    1    3    3    0  502  0.69252419747E+03  0.74350212363E+03  0.85777262173E+02  0.10196778465E+04  0.25500000920E-02 0. -1.
</event>
<event>
 5   0  0.9012466E-05  0.2106008E+04  0.7818609E-02  0.8558601E-01
       -2   -1    0    0    0  501  0.00000000000E+00  0.00000000000E+00  0.12350859805E+04  0.12350859805E+04  0.25500000920E-02 0. -1.
        2   -1    0    0  501    0  0.00000000000E+00  0.00000000000E+00 -0.89776570877E+03  0.89776570877E+03  0.25500000920E-02 0.  1.
    10030    2    1    2    0    0  0.00000000000E+00  0.00000000000E+00  0.33732027170E+03  0.21328516892E+04  0.21060083957E+04 0.  0.
        2    1    3    3  502    0 -0.70664283556E+03 -0.15170452816E+03  0.94422756920E+03  0.11890853894E+04  0.25500000920E-02 0. -1.
       -2    1    3    3    0  502  0.70664283556E+03  0.15170452816E+03 -0.60690729750E+03  0.94376629982E+03  0.25500000920E-02 0.  1.
</event>
<event>
 5   0  0.8547605E-05  0.2067227E+04  0.7818609E-02  0.8575819E-01
       -2   -1    0    0    0  501  0.00000000000E+00  0.00000000000E+00  0.85341250434E+03  0.85341250435E+03  0.25500000920E-02 0.  1.
        2   -1    0    0  501    0  0.00000000000E+00  0.00000000000E+00 -0.12518642758E+04  0.12518642758E+04  0.25500000920E-02 0. -1.
    10030    2    1    2    0    0  0.00000000000E+00  0.00000000000E+00 -0.39845177148E+03  0.21052767802E+04  0.20672267672E+04 0.  0.
        4    1    3    3  502    0  0.10740314811E+02 -0.96020250635E+03  0.19024071069E+03  0.97892663079E+03  0.12699999809E+01 0.  1.
       -4    1    3    3    0  502 -0.10740314811E+02  0.96020250635E+03 -0.58869248216E+03  0.11263501494E+04  0.12699999809E+01 0. -1.
</event>
<event>
 5   0  0.9012466E-05  0.2079111E+04  0.7818609E-02  0.8570501E-01
       -2   -1    0    0    0  501  0.00000000000E+00  0.00000000000E+00  0.63275826931E+03  0.63275826931E+03  0.25500000920E-02 0.  1.
        2   -1    0    0  501    0  0.00000000000E+00  0.00000000000E+00 -0.17078804509E+04  0.17078804509E+04  0.25500000920E-02 0. -1.
    10030    2    1    2    0    0  0.00000000000E+00  0.00000000000E+00 -0.10751221815E+04  0.23406387202E+04  0.20791108468E+04 0.  0.
        2    1    3    3  502    0  0.64918408780E+03  0.20148175501E+03  0.34791318819E+03  0.76359574644E+03  0.25500000920E-02 0.  1.
       -2    1    3    3    0  502 -0.64918408780E+03 -0.20148175501E+03 -0.14230353697E+04  0.15770429737E+04  0.25500000920E-02 0. -1.
</event>
<event>
 5   0  0.9012466E-05  0.2109496E+04  0.7818609E-02  0.8557072E-01
        2   -1    0    0  501    0  0.00000000000E+00  0.00000000000E+00  0.11506003625E+04  0.11506003626E+04  0.25500000920E-02 0. -1.
       -2   -1    0    0    0  501  0.00000000000E+00  0.00000000000E+00 -0.96688108684E+03  0.96688108684E+03  0.25500000920E-02 0.  1.
    10030    2    1    2    0    0  0.00000000000E+00  0.00000000000E+00  0.18371927571E+03  0.21174814494E+04  0.21094963655E+04 0.  0.
        2    1    3    3  502    0 -0.54015122001E+03 -0.19174459228E+03  0.98062885382E+03  0.11358531059E+04  0.25500000920E-02 0. -1.
       -2    1    3    3    0  502  0.54015122001E+03  0.19174459228E+03 -0.79690957810E+03  0.98162834353E+03  0.25500000920E-02 0.  1.
</event>
<event>
 5   0  0.8872777E-05  0.2118274E+04  0.7818609E-02  0.8553236E-01
        2   -1    0    0  501    0  0.00000000000E+00  0.00000000000E+00  0.26229751661E+04  0.26229751661E+04  0.25500000920E-02 0.  1.
       -2   -1    0    0    0  501  0.00000000000E+00  0.00000000000E+00 -0.42767109670E+03  0.42767109670E+03  0.25500000920E-02 0. -1.
    10030    2    1    2    0    0  0.00000000000E+00  0.00000000000E+00  0.21953040694E+04  0.30506462628E+04  0.21182735101E+04 0.  0.
        3    1    3    3  502    0 -0.49773543031E+02  0.90844152340E+03  0.31673731898E+03  0.96336179416E+03  0.10100000352E+00 0. -1.
       -3    1    3    3    0  502  0.49773543031E+02 -0.90844152340E+03  0.18785667504E+04  0.20872844686E+04  0.10100000352E+00 0.  1.
</event>
<event>
 5   0  0.4200061E-05  0.2126778E+04  0.7818609E-02  0.8549538E-01
       -1   -1    0    0    0  501  0.00000000000E+00  0.00000000000E+00  0.15951034985E+04  0.15951034985E+04  0.50400001928E-02 0. -1.
        1   -1    0    0  501    0  0.00000000000E+00  0.00000000000E+00 -0.70891743775E+03  0.70891743777E+03  0.50400001928E-02 0.  1.
    10030    2    1    2    0    0  0.00000000000E+00  0.00000000000E+00  0.88618606078E+03  0.23040209363E+04  0.21267784888E+04 0.  0.
        4    1    3    3  502    0 -0.38426172642E+03  0.49755015145E+03 -0.48604377293E+03  0.79464041535E+03  0.12699999809E+01 0.  1.
       -4    1    3    3    0  502  0.38426172642E+03 -0.49755015145E+03  0.13722298337E+04  0.15093805210E+04  0.12699999809E+01 0. -1.
</event>
<event>
 5   0  0.4182977E-05  0.2086513E+04  0.7818609E-02  0.8567208E-01
        1   -1    0    0  501    0  0.00000000000E+00  0.00000000000E+00  0.20512861837E+04  0.20512861837E+04  0.50400001928E-02 0.  1.
       -1   -1    0    0    0  501  0.00000000000E+00  0.00000000000E+00 -0.53058607659E+03  0.53058607662E+03  0.50400001928E-02 0. -1.
    10030    2    1    2    0    0  0.00000000000E+00  0.00000000000E+00  0.15207001071E+04  0.25818722603E+04  0.20865127732E+04 0.  0.
        1    1    3    3  502    0 -0.59832581782E+03  0.76408796473E+03  0.12340692313E+04  0.15699525693E+04  0.50400001928E-02 0.  1.
       -1    1    3    3    0  502  0.59832581782E+03 -0.76408796473E+03  0.28663087580E+03  0.10119196910E+04  0.50400001928E-02 0. -1.
</event>
<event>
 5   0  0.4174093E-05  0.2105927E+04  0.7818609E-02  0.8558637E-01
       -1   -1    0    0    0  501  0.00000000000E+00  0.00000000000E+00  0.75045354332E+03  0.75045354334E+03  0.50400001928E-02 0.  1.
        1   -1    0    0  501    0  0.00000000000E+00  0.00000000000E+00 -0.14774161900E+04  0.14774161900E+04  0.50400001928E-02 0. -1.
    10030    2    1    2    0    0  0.00000000000E+00  0.00000000000E+00 -0.72696264666E+03  0.22278697333E+04  0.21059270783E+04 0.  0.
        3    1    3    3  502    0 -0.41974509820E+02 -0.22150237803E+03 -0.14515848516E+04  0.14689873228E+04  0.10100000352E+00 0. -1.
       -3    1    3    3    0  502  0.41974509820E+02  0.22150237803E+03  0.72462220493E+03  0.75888241054E+03  0.10100000352E+00 0.  1.
</event>
<event>
 5   0  0.4050368E-05  0.2089237E+04  0.7818609E-02  0.8565999E-01
        1   -1    0    0  501    0  0.00000000000E+00  0.00000000000E+00  0.13034363306E+04  0.13034363306E+04  0.50400001928E-02 0.  1.
       -1   -1    0    0    0  501  0.00000000000E+00  0.00000000000E+00 -0.83719336298E+03  0.83719336300E+03  0.50400001928E-02 0. -1.
    10030    2    1    2    0    0  0.00000000000E+00  0.00000000000E+00  0.46624296762E+03  0.21406296936E+04  0.20892374160E+04 0.  0.
        2    1    3    3  502    0  0.91007537338E+02 -0.61284906899E+03 -0.62861519781E+03  0.88262303400E+03  0.25500000920E-02 0. -1.
       -2    1    3    3    0  502 -0.91007537338E+02  0.61284906899E+03  0.10948581654E+04  0.12580066596E+04  0.25500000920E-02 0.  1.
</event>
<event>
 5   0  0.4182977E-05  0.2070915E+04  0.7818609E-02  0.8574165E-01
        1   -1    0    0  501    0  0.00000000000E+00  0.00000000000E+00  0.21281894225E+04  0.21281894225E+04  0.50400001928E-02 0. -1.
       -1   -1    0    0    0  501  0.00000000000E+00  0.00000000000E+00 -0.50379543459E+03  0.50379543462E+03  0.50400001928E-02 0.  1.
    10030    2    1    2    0    0  0.00000000000E+00  0.00000000000E+00  0.16243939879E+04  0.26319848571E+04  0.20709148848E+04 0.  0.
        1    1    3    3  502    0 -0.64947911512E+02 -0.29696305029E+03 -0.44580839911E+03  0.53958355534E+03  0.50400001928E-02 0.  1.
       -1    1    3    3    0  502  0.64947911512E+02  0.29696305029E+03  0.20702023870E+04  0.20924013018E+04  0.50400001928E-02 0. -1.
</event>
<event>
 5   0  0.8547605E-05  0.2103056E+04  0.7818609E-02  0.8559898E-01
       -2   -1    0    0    0  501  0.00000000000E+00  0.00000000000E+00  0.73271301071E+03  0.73271301071E+03  0.25500000920E-02 0. -1.
        2   -1    0    0  501    0  0.00000000000E+00  0.00000000000E+00 -0.15090648761E+04  0.15090648761E+04  0.25500000920E-02 0.  1.
    10030    2    1    2    0    0  0.00000000000E+00  0.00000000000E+00 -0.77635186544E+03  0.22417778869E+04  0.21030563176E+04 0.  0.
        4    1    3    3  502    0  0.14165592198E+03 -0.68165548842E+03  0.45183264228E+03  0.82998491230E+03  0.12699999809E+01 0. -1.
       -4    1    3    3    0  502 -0.14165592198E+03  0.68165548842E+03 -0.12281845077E+04  0.14117929746E+04  0.12699999809E+01 0.  1.
</event>
<event>
 5   0  0.8547605E-05  0.2073980E+04  0.7818609E-02  0.8572793E-01
       -2   -1    0    0    0  501  0.00000000000E+00  0.00000000000E+00  0.29147006500E+04  0.29147006500E+04  0.25500000920E-02 0. -1.
        2   -1    0    0  501    0  0.00000000000E+00  0.00000000000E+00 -0.36893965379E+03  0.36893965380E+03  0.25500000920E-02 0.  1.
    10030    2    1    2    0    0  0.00000000000E+00  0.00000000000E+00  0.25457609962E+04  0.32836403038E+04  0.20739803748E+04 0.  0.
        4    1    3    3  502    0 -0.67935769599E+03 -0.71800572952E+03  0.17692453573E+04  0.20266449748E+04  0.12699999809E+01 0.  1.
       -4    1    3    3    0  502  0.67935769599E+03  0.71800572952E+03  0.77651563893E+03  0.12569953290E+04  0.12699999809E+01 0. -1.
</event>
<event>
 5   0  0.9012466E-05  0.2120951E+04  0.7818609E-02  0.8552070E-01
       -2   -1    0    0    0  501  0.00000000000E+00  0.00000000000E+00  0.94183965086E+03  0.94183965087E+03  0.25500000920E-02 0.  1.
        2   -1    0    0  501    0  0.00000000000E+00  0.00000000000E+00 -0.11940549565E+04  0.11940549565E+04  0.25500000920E-02 0. -1.
    10030    2    1    2    0    0  0.00000000000E+00  0.00000000000E+00 -0.25221530563E+03  0.21358946074E+04  0.21209510163E+04 0.  0.
        2    1    3    3  502    0  0.30270834345E+03 -0.99160849166E+03  0.98372212078E+02  0.10414397890E+04  0.25500000920E-02 0.  1.
       -2    1    3    3    0  502 -0.30270834345E+03  0.99160849166E+03 -0.35058751771E+03  0.10944548184E+04  0.25500000920E-02 0. -1.
</event>
<event>
 5   0  0.4128678E-05  0.2045708E+04  0.7818609E-02  0.8585544E-01
        1   -1    0    0  501    0  0.00000000000E+00  0.00000000000E+00  0.13665163336E+04  0.13665163337E+04  0.50400001928E-02 0.  1.
       -1   -1    0    0    0  501  0.00000000000E+00  0.00000000000E+00 -0.76561836613E+03  0.76561836614E+03  0.50400001928E-02 0. -1.
    10030    2    1    2    0    0  0.00000000000E+00  0.00000000000E+00  0.60089796752E+03  0.21321346998E+04  0.20457077041E+04 0.  0.
        5    1    3    3  502    0  0.50118319585E+03 -0.20582425273E+03  0.12046612355E+04  0.13209008294E+04  0.46999998093E+01 0.  1.
       -5    1    3    3    0  502 -0.50118319585E+03  0.20582425273E+03 -0.60376326794E+03  0.81123387043E+03  0.46999998093E+01 0. -1.
</event>
<event>
 5   0  0.4200061E-05  0.2072284E+04  0.7818609E-02  0.8573552E-01
       -1   -1    0    0    0  501  0.00000000000E+00  0.00000000000E+00  0.85710115310E+03  0.85710115312E+03  0.50400001928E-02 0.  1.
        1   -1    0    0  501    0  0.00000000000E+00  0.00000000000E+00 -0.12525827237E+04  0.12525827237E+04  0.50400001928E-02 0. -1.
    10030    2    1    2    0    0  0.00000000000E+00  0.00000000000E+00 -0.39548157058E+03  0.21096838768E+04  0.20722838578E+04 0.  0.
        4    1    3    3  502    0 -0.51783916311E+03  0.26801535923E+03 -0.10697025896E+04  0.12182999937E+04  0.12699999809E+01 0. -1.
       -4    1    3    3    0  502  0.51783916311E+03 -0.26801535923E+03  0.67422101901E+03  0.89138388308E+03  0.12699999809E+01 0.  1.
</event>
<event>
 5   0  0.4174093E-05  0.2198586E+04  0.7818609E-02  0.8519017E-01
        1   -1    0    0  501    0  0.00000000000E+00  0.00000000000E+00  0.18612539060E+04  0.18612539060E+04  0.50400001928E-02 0. -1.
       -1   -1    0    0    0  501  0.00000000000E+00  0.00000000000E+00 -0.64926374253E+03  0.64926374255E+03  0.50400001928E-02 0.  1.
    10030    2    1    2    0    0  0.00000000000E+00  0.00000000000E+00  0.12119901635E+04  0.25105176485E+04  0.21985856152E+04 0.  0.
        3    1    3    3  502    0  0.86801175396E+03 -0.47194124362E+03  0.55671569110E+02  0.98958186941E+03  0.10100000352E+00 0.  1.
       -3    1    3    3    0  502 -0.86801175396E+03  0.47194124362E+03  0.11563185943E+04  0.15209357791E+04  0.10100000352E+00 0. -1.
</event>
<event>
 5   0  0.4200061E-05  0.2121216E+04  0.7818609E-02  0.8551955E-01
        1   -1    0    0  501    0  0.00000000000E+00  0.00000000000E+00  0.11979161994E+04  0.11979161995E+04  0.50400001928E-02 0.  1.
       -1   -1    0    0    0  501  0.00000000000E+00  0.00000000000E+00 -0.93903808637E+03  0.93903808638E+03  0.50400001928E-02 0. -1.
    10030    2    1    2    0    0  0.00000000000E+00  0.00000000000E+00  0.25887811307E+03  0.21369542858E+04  0.21212156284E+04 0.  0.
        4    1    3    3  502    0 -0.49539450315E+03 -0.65429593359E+02  0.10718964595E+04  0.11826497276E+04  0.12699999809E+01 0.  1.
       -4    1    3    3    0  502  0.49539450315E+03  0.65429593359E+02 -0.81301834639E+03  0.95430455825E+03  0.12699999809E+01 0. -1.
</event>
<event>
 5   0  0.4200061E-05  0.2132910E+04  0.7818609E-02  0.8546883E-01
       -1   -1    0    0    0  501  0.00000000000E+00  0.00000000000E+00  0.10859737599E+04  0.10859737599E+04  0.50400001928E-02 0. -1.
        1   -1    0    0  501    0  0.00000000000E+00  0.00000000000E+00 -0.10472866059E+04  0.10472866059E+04  0.50400001928E-02 0.  1.
    10030    2    1    2    0    0  0.00000000000E+00  0.00000000000E+00  0.38687153995E+02  0.21332603658E+04  0.21329095369E+04 0.  0.
        4    1    3    3  502    0  0.95995363459E+02 -0.15971637017E+03  0.10695637829E+04  0.10856761613E+04  0.12699999809E+01 0. -1.
       -4    1    3    3    0  502 -0.95995363459E+02  0.15971637017E+03 -0.10308766289E+04  0.10475842045E+04  0.12699999809E+01 0.  1.
</event>
<event>
 5   0  0.8858590E-05  0.2101024E+04  0.7818609E-02  0.8560793E-01
        2   -1    0    0  501    0  0.00000000000E+00  0.00000000000E+00  0.10904981320E+04  0.10904981320E+04  0.25500000920E-02 0.  1.
       -2   -1    0    0    0  501  0.00000000000E+00  0.00000000000E+00 -0.10119918182E+04  0.10119918182E+04  0.25500000920E-02 0. -1.
    10030    2    1    2    0    0  0.00000000000E+00  0.00000000000E+00  0.78506313803E+02  0.21024899503E+04  0.21010237385E+04 0.  0.
        1    1    3    3  502    0 -0.81343084941E+03  0.11258755608E+03 -0.61636012281E+03  0.10267645814E+04  0.50400001928E-02 0. -1.
       -1    1    3    3    0  502  0.81343084941E+03 -0.11258755608E+03  0.69486643661E+03  0.10757253689E+04  0.50400001928E-02 0.  1.
</event>
<event>
 5   0  0.9012466E-05  0.2095893E+04  0.7818609E-02  0.8563055E-01
       -2   -1    0    0    0  501  0.00000000000E+00  0.00000000000E+00  0.48392365740E+03  0.48392365741E+03  0.25500000920E-02 0. -1.
        2   -1    0    0  501    0  0.00000000000E+00  0.00000000000E+00 -0.22693494274E+04  0.22693494274E+04  0.25500000920E-02 0.  1.
    10030    2    1    2    0    0  0.00000000000E+00  0.00000000000E+00 -0.17854257700E+04  0.27532730848E+04  0.20958930076E+04 0.  0.
        2    1    3    3  502    0  0.32234217074E+03 -0.36898934517E+03  0.32419527070E+03  0.58750334930E+03  0.25500000920E-02 0. -1.
       -2    1    3    3    0  502 -0.32234217074E+03  0.36898934517E+03 -0.21096210407E+04  0.21657697355E+04  0.25500000920E-02 0.  1.
</event>
<event>
 5   0  0.8872777E-05  0.2101697E+04  0.7818609E-02  0.8560496E-01
       -2   -1    0    0    0  501  0.00000000000E+00  0.00000000000E+00  0.66795550205E+03  0.66795550205E+03  0.25500000920E-02 0.  1.
        2   -1    0    0  501    0  0.00000000000E+00  0.00000000000E+00 -0.16532282445E+04  0.16532282445E+04  0.25500000920E-02 0. -1.
    10030    2    1    2    0    0  0.00000000000E+00  0.00000000000E+00 -0.98527274246E+03  0.23211837466E+04  0.21016973160E+04 0.  0.
        3    1    3    3  502    0  0.16716676842E+03  0.10340103256E+04 -0.39917752289E+03  0.11209214009E+04  0.10100000352E+00 0. -1.
       -3    1    3    3    0  502 -0.16716676842E+03 -0.10340103256E+04 -0.58609521957E+03  0.12002623457E+04  0.10100000352E+00 0.  1.
</event>
<event>
 5   0  0.9086985E-05  0.2146440E+04  0.7818609E-02  0.8541058E-01
       -2   -1    0    0    0  501  0.00000000000E+00  0.00000000000E+00  0.63904585773E+03  0.63904585773E+03  0.25500000920E-02 0.  1.
        2   -1    0    0  501    0  0.00000000000E+00  0.00000000000E+00 -0.18023768029E+04  0.18023768029E+04  0.25500000920E-02 0. -1.
    10030    2    1    2    0    0  0.00000000000E+00  0.00000000000E+00 -0.11633309451E+04  0.24414226606E+04  0.21464402437E+04 0.  0.
        5    1    3    3  502    0  0.19233837512E+03  0.63445401635E+03  0.37826865405E+03  0.76330545265E+03  0.46999998093E+01 0.  1.
       -5    1    3    3    0  502 -0.19233837512E+03 -0.63445401635E+03 -0.15415995992E+04  0.16781172079E+04  0.46999998093E+01 0. -1.
</event>
<event>
 5   0  0.4128678E-05  0.2073502E+04  0.7818609E-02  0.8573006E-01
       -1   -1    0    0    0  501  0.00000000000E+00  0.00000000000E+00  0.10581907801E+04  0.10581907801E+04  0.50400001928E-02 0.  1.
        1   -1    0    0  501    0  0.00000000000E+00  0.00000000000E+00 -0.10157459736E+04  0.10157459736E+04  0.50400001928E-02 0. -1.
    10030    2    1    2    0    0  0.00000000000E+00  0.00000000000E+00  0.42444806502E+02  0.20739367537E+04  0.20735023744E+04 0.  0.
        5    1    3    3  502    0  0.99260245860E+03  0.25108778003E+03 -0.14168043654E+03  0.10336344374E+04  0.46999998093E+01 0.  1.
       -5    1    3    3    0  502 -0.99260245860E+03 -0.25108778003E+03  0.18412524305E+03  0.10403023163E+04  0.46999998093E+01 0. -1.
</event>
<event>
 5   0  0.4050368E-05  0.1824122E+04  0.7818609E-02  0.8693576E-01
       -1   -1    0    0    0  501  0.00000000000E+00  0.00000000000E+00  0.39191126914E+03  0.39191126918E+03  0.50400001928E-02 0. -1.
        1   -1    0    0  501    0  0.00000000000E+00  0.00000000000E+00 -0.21225606684E+04  0.21225606684E+04  0.50400001928E-02 0.  1.
    10030    2    1    2    0    0  0.00000000000E+00  0.00000000000E+00 -0.17306493993E+04  0.25144719376E+04  0.18241221949E+04 0.  0.
        2    1    3    3  502    0 -0.50420742152E+03 -0.49087615841E+03 -0.16651509755E+04  0.18077367889E+04  0.25500000920E-02 0. -1.
       -2    1    3    3    0  502  0.50420742152E+03  0.49087615841E+03 -0.65498423748E+02  0.70673514865E+03  0.25500000920E-02 0.  1.
</event>
<event>
 5   0  0.4128678E-05  0.2463999E+04  0.7818609E-02  0.8415924E-01
       -1   -1    0    0    0  501  0.00000000000E+00  0.00000000000E+00  0.11448926742E+04  0.11448926742E+04  0.50400001928E-02 0. -1.
        1   -1    0    0  501    0  0.00000000000E+00  0.00000000000E+00 -0.13257339985E+04  0.13257339985E+04  0.50400001928E-02 0.  1.
    10030    2    1    2    0    0  0.00000000000E+00  0.00000000000E+00 -0.18084132426E+03  0.24706266727E+04  0.24639993043E+04 0.  0.
        5    1    3    3  502    0 -0.95133567789E+03 -0.17072652861E+03 -0.85642172232E+03  0.12913819637E+04  0.46999998093E+01 0. -1.
       -5    1    3    3    0  502  0.95133567789E+03  0.17072652861E+03  0.67558039806E+03  0.11792447091E+04  0.46999998093E+01 0.  1.
</event>
<event>
 5   0  0.9012466E-05  0.2098401E+04  0.7818609E-02  0.8561948E-01
       -2   -1    0    0    0  501  0.00000000000E+00  0.00000000000E+00  0.68709229879E+03  0.68709229880E+03  0.25500000920E-02 0. -1.
        2   -1    0    0  501    0  0.00000000000E+00  0.00000000000E+00 -0.16021447772E+04  0.16021447772E+04  0.25500000920E-02 0.  1.
    10030    2    1    2    0    0  0.00000000000E+00  0.00000000000E+00 -0.91505247843E+03  0.22892370760E+04  0.20984006653E+04 0.  0.
        2    1    3    3  502    0  0.12233886388E+03 -0.45168758856E+03  0.56693491523E+03  0.73512153647E+03  0.25500000920E-02 0. -1.
       -2    1    3    3    0  502 -0.12233886388E+03  0.45168758856E+03 -0.14819873937E+04  0.15541155395E+04  0.25500000920E-02 0.  1.
</event>
<event>
 5   0  0.8858590E-05  0.2109181E+04  0.7818609E-02  0.8557210E-01
       -2   -1    0    0    0  501  0.00000000000E+00  0.00000000000E+00  0.14056117902E+04  0.14056117902E+04  0.25500000920E-02 0. -1.
        2   -1    0    0  501    0  0.00000000000E+00  0.00000000000E+00 -0.79122957334E+03  0.79122957335E+03  0.25500000920E-02 0.  1.
    10030    2    1    2    0    0  0.00000000000E+00  0.00000000000E+00  0.61438221684E+03  0.21968413635E+04  0.21091814688E+04 0.  0.
        1    1    3    3  502    0  0.27729252838E+03  0.47006611610E+03 -0.63270355876E+03  0.83556393717E+03  0.50400001928E-02 0.  1.
       -1    1    3    3    0  502 -0.27729252838E+03 -0.47006611610E+03  0.12470857756E+04  0.13612774264E+04  0.50400001928E-02 0. -1.
</event>
<event>
 5   0  0.8858590E-05  0.2113429E+04  0.7818609E-02  0.8555351E-01
        2   -1    0    0  501    0  0.00000000000E+00  0.00000000000E+00  0.12335947833E+04  0.12335947833E+04  0.25500000920E-02 0. -1.
       -2   -1    0    0    0  501  0.00000000000E+00  0.00000000000E+00 -0.90519597161E+03  0.90519597162E+03  0.25500000920E-02 0.  1.
    10030    2    1    2    0    0  0.00000000000E+00  0.00000000000E+00  0.32839881165E+03  0.21387907549E+04  0.21134285211E+04 0.  0.
        1    1    3    3  502    0 -0.45087232089E+03  0.29293032381E+03  0.10848145592E+04  0.12107504500E+04  0.50400001928E-02 0. -1.
       -1    1    3    3    0  502  0.45087232089E+03 -0.29293032381E+03 -0.75641574753E+03  0.92804030488E+03  0.50400001928E-02 0.  1.
</event>
<event>
 5   0  0.8872777E-05  0.2095604E+04  0.7818609E-02  0.8563182E-01
       -2   -1    0    0    0  501  0.00000000000E+00  0.00000000000E+00  0.15561698950E+04  0.15561698950E+04  0.25500000920E-02 0.  1.
        2   -1    0    0  501    0  0.00000000000E+00  0.00000000000E+00 -0.70550690314E+03  0.70550690314E+03  0.25500000920E-02 0. -1.
    10030    2    1    2    0    0  0.00000000000E+00  0.00000000000E+00  0.85066299188E+03  0.22616767982E+04  0.20956035917E+04 0.  0.
        3    1    3    3  502    0  0.14402487891E+03 -0.10319714362E+04  0.30622049609E+03  0.10860383111E+04  0.10100000352E+00 0. -1.
       -3    1    3    3    0  502 -0.14402487891E+03  0.10319714362E+04  0.54444249579E+03  0.11756384870E+04  0.10100000352E+00 0.  1.
</event>
<event>
 5   0  0.4200061E-05  0.2211739E+04  0.7818609E-02  0.8513558E-01
       -1   -1    0    0    0  501  0.00000000000E+00  0.00000000000E+00  0.12808194836E+04  0.12808194836E+04  0.50400001928E-02 0. -1.
        1   -1    0    0  501    0  0.00000000000E+00  0.00000000000E+00 -0.95481665587E+03  0.95481665588E+03  0.50400001928E-02 0.  1.
    10030    2    1    2    0    0  0.00000000000E+00  0.00000000000E+00  0.32600282775E+03  0.22356361395E+04  0.22117393844E+04 0.  0.
        4    1    3    3  502    0 -0.45394769949E+03 -0.89348160559E+03 -0.30956268760E+03  0.10489082724E+04  0.12699999809E+01 0.  1.
       -4    1    3    3    0  502  0.45394769949E+03  0.89348160559E+03  0.63556551535E+03  0.11867278671E+04  0.12699999809E+01 0. -1.
</event>
<event>
 5   0  0.8858590E-05  0.2098893E+04  0.7818609E-02  0.8561731E-01
       -2   -1    0    0    0  501  0.00000000000E+00  0.00000000000E+00  0.13552986841E+04  0.13552986841E+04  0.25500000920E-02 0. -1.
        2   -1    0    0  501    0  0.00000000000E+00  0.00000000000E+00 -0.81261612298E+03  0.81261612298E+03  0.25500000920E-02 0.  1.
    10030    2    1    2    0    0  0.00000000000E+00  0.00000000000E+00  0.54268256117E+03  0.21679148071E+04  0.20988926244E+04 0.  0.
        1    1    3    3  502    0 -0.23820579240E+02 -0.27309000282E+03  0.13176655551E+04  0.13458781835E+04  0.50400001928E-02 0. -1.
       -1    1    3    3    0  502  0.23820579240E+02  0.27309000282E+03 -0.77498299396E+03  0.82203662363E+03  0.50400001928E-02 0.  1.
</event>
<event>
 5   0  0.4050368E-05  0.2115209E+04  0.7818609E-02  0.8554573E-01
       -1   -1    0    0    0  501  0.00000000000E+00  0.00000000000E+00  0.18139401341E+04  0.18139401342E+04  0.50400001928E-02 0. -1.
        1   -1    0    0  501    0  0.00000000000E+00  0.00000000000E+00 -0.61662835988E+03  0.61662835990E+03  0.50400001928E-02 0.  1.
    10030    2    1    2    0    0  0.00000000000E+00  0.00000000000E+00  0.11973117743E+04  0.24305684941E+04  0.21152086704E+04 0.  0.
        2    1    3    3  502    0 -0.98700083744E+03 -0.37858448847E+03  0.63553549528E+03  0.12334513504E+04  0.25500000920E-02 0. -1.
       -2    1    3    3    0  502  0.98700083744E+03  0.37858448847E+03  0.56177627898E+03  0.11971171437E+04  0.25500000920E-02 0.  1.
</event>
<event>
 5   0  0.9086985E-05  0.2073173E+04  0.7818609E-02  0.8573154E-01
       -2   -1    0    0    0  501  0.00000000000E+00  0.00000000000E+00  0.51260375389E+03  0.51260375390E+03  0.25500000920E-02 0. -1.
        2   -1    0    0  501    0  0.00000000000E+00  0.00000000000E+00 -0.20961845621E+04  0.20961845621E+04  0.25500000920E-02 0.  1.
    10030    2    1    2    0    0  0.00000000000E+00  0.00000000000E+00 -0.15835808082E+04  0.26087883160E+04  0.20731734856E+04 0.  0.
        5    1    3    3  502    0  0.38089575369E+03 -0.54952551599E+03 -0.17885395579E+04  0.19094385845E+04  0.46999998093E+01 0.  1.
       -5    1    3    3    0  502 -0.38089575369E+03  0.54952551599E+03  0.20495874965E+03  0.69934973151E+03  0.46999998093E+01 0. -1.
</event>
<event>
 5   0  0.8872777E-05  0.2097183E+04  0.7818609E-02  0.8562485E-01
        2   -1    0    0  501    0  0.00000000000E+00  0.00000000000E+00  0.76128899971E+03  0.76128899972E+03  0.25500000920E-02 0.  1.
       -2   -1    0    0    0  501  0.00000000000E+00  0.00000000000E+00 -0.14443193469E+04  0.14443193469E+04  0.25500000920E-02 0. -1.
    10030    2    1    2    0    0  0.00000000000E+00  0.00000000000E+00 -0.68303034719E+03  0.22056083466E+04  0.20971832832E+04 0.  0.
        3    1    3    3  502    0  0.23511088124E+03  0.10008165419E+04 -0.12436122757E+03  0.10355561801E+04  0.10100000352E+00 0. -1.
       -3    1    3    3    0  502 -0.23511088124E+03 -0.10008165419E+04 -0.55866911963E+03  0.11700521665E+04  0.10100000352E+00 0.  1.
</event>
<event>
 5   0  0.4050368E-05  0.2115893E+04  0.7818609E-02  0.8554274E-01
        1   -1    0    0  501    0  0.00000000000E+00  0.00000000000E+00  0.12157019938E+04  0.12157019939E+04  0.50400001928E-02 0.  1.
       -1   -1    0    0    0  501  0.00000000000E+00  0.00000000000E+00 -0.92066253028E+03  0.92066253029E+03  0.50400001928E-02 0. -1.
    10030    2    1    2    0    0  0.00000000000E+00  0.00000000000E+00  0.29503946357E+03  0.21363645241E+04  0.21158934508E+04 0.  0.
        2    1    3    3  502    0 -0.45476293739E+03  0.47560908920E+03 -0.68888970768E+03  0.95267117323E+03  0.25500000920E-02 0. -1.
       -2    1    3    3    0  502  0.45476293739E+03 -0.47560908920E+03  0.98392917125E+03  0.11836933509E+04  0.25500000920E-02 0.  1.
</event>
<event>
 5   0  0.4050368E-05  0.2124782E+04  0.7818609E-02  0.8550404E-01
       -1   -1    0    0    0  501  0.00000000000E+00  0.00000000000E+00  0.70763109235E+03  0.70763109236E+03  0.50400001928E-02 0.  1.
        1   -1    0    0  501    0  0.00000000000E+00  0.00000000000E+00 -0.15950049740E+04  0.15950049740E+04  0.50400001928E-02 0. -1.
    10030    2    1    2    0    0  0.00000000000E+00  0.00000000000E+00 -0.88737388164E+03  0.23026360664E+04  0.21247824473E+04 0.  0.
        2    1    3    3  502    0 -0.99397709276E+03 -0.10270867367E+03 -0.83462581494E+03  0.13019753391E+04  0.25500000920E-02 0. -1.
       -2    1    3    3    0  502  0.99397709276E+03  0.10270867367E+03 -0.52748066694E+02  0.10006607273E+04  0.25500000920E-02 0.  1.
</event>
<event>
 5   0  0.4128678E-05  0.2096790E+04  0.7818609E-02  0.8562659E-01
        1   -1    0    0  501    0  0.00000000000E+00  0.00000000000E+00  0.21279299861E+04  0.21279299861E+04  0.50400001928E-02 0.  1.
       -1   -1    0    0    0  501  0.00000000000E+00  0.00000000000E+00 -0.51652620199E+03  0.51652620202E+03  0.50400001928E-02 0. -1.
    10030    2    1    2    0    0  0.00000000000E+00  0.00000000000E+00  0.16114037841E+04  0.26444561881E+04  0.20967895401E+04 0.  0.
        5    1    3    3  502    0  0.44933941743E+03 -0.91269583992E+03  0.11252342686E+04  0.15169356801E+04  0.46999998093E+01 0.  1.
       -5    1    3    3    0  502 -0.44933941743E+03  0.91269583992E+03  0.48616951551E+03  0.11275205081E+04  0.46999998093E+01 0. -1.
</event>
<event>
 5   0  0.9012466E-05  0.1995272E+04  0.7818609E-02  0.8608834E-01
       -2   -1    0    0    0  501  0.00000000000E+00  0.00000000000E+00  0.79867816775E+03  0.79867816776E+03  0.25500000920E-02 0. -1.
        2   -1    0    0  501    0  0.00000000000E+00  0.00000000000E+00 -0.12461565819E+04  0.12461565819E+04  0.25500000920E-02 0.  1.
    10030    2    1    2    0    0  0.00000000000E+00  0.00000000000E+00 -0.44747841413E+03  0.20448347496E+04  0.19952724682E+04 0.  0.
        2    1    3    3  502    0 -0.52535824466E+03  0.80715659945E+03  0.43063819431E+02  0.96403192573E+03  0.25500000920E-02 0.  1.
       -2    1    3    3    0  502  0.52535824466E+03 -0.80715659945E+03 -0.49054223357E+03  0.10808028239E+04  0.25500000920E-02 0. -1.
</event>
<event>
 5   0  0.9012466E-05  0.2145113E+04  0.7818609E-02  0.8541627E-01
       -2   -1    0    0    0  501  0.00000000000E+00  0.00000000000E+00  0.14716595950E+04  0.14716595950E+04  0.25500000920E-02 0. -1.
        2   -1    0    0  501    0  0.00000000000E+00  0.00000000000E+00 -0.78168731819E+03  0.78168731819E+03  0.25500000920E-02 0.  1.
    10030    2    1    2    0    0  0.00000000000E+00  0.00000000000E+00  0.68997227682E+03  0.22533469132E+04  0.21451131831E+04 0.  0.
        2    1    3    3  502    0 -0.86467793515E+03 -0.71990054046E+02 -0.31732375149E+03  0.92387491723E+03  0.25500000920E-02 0.  1.
       -2    1    3    3    0  502  0.86467793515E+03  0.71990054046E+02  0.10072960283E+04  0.13294719960E+04  0.25500000920E-02 0. -1.
</event>
<event>
 5   0  0.4174093E-05  0.2255826E+04  0.7818609E-02  0.8495545E-01
       -1   -1    0    0    0  501  0.00000000000E+00  0.00000000000E+00  0.88609628687E+03  0.88609628688E+03  0.50400001928E-02 0.  1.
        1   -1    0    0  501    0  0.00000000000E+00  0.00000000000E+00 -0.14357211909E+04  0.14357211909E+04  0.50400001928E-02 0. -1.
    10030    2    1    2    0    0  0.00000000000E+00  0.00000000000E+00 -0.54962490401E+03  0.23218174778E+04  0.22558255396E+04 0.  0.
        3    1    3    3  502    0 -0.17643798095E+03  0.73238924873E+03 -0.11388114716E+04  0.13654361760E+04  0.10100000352E+00 0. -1.
       -3    1    3    3    0  502  0.17643798095E+03 -0.73238924873E+03  0.58918656756E+03  0.95638130176E+03  0.10100000352E+00 0.  1.
</event>
<event>
 5   0  0.8547605E-05  0.2100755E+04  0.7818609E-02  0.8560911E-01
       -2   -1    0    0    0  501  0.00000000000E+00  0.00000000000E+00  0.42746516891E+03  0.42746516892E+03  0.25500000920E-02 0.  1.
        2   -1    0    0  501    0  0.00000000000E+00  0.00000000000E+00 -0.25810134016E+04  0.25810134016E+04  0.25500000920E-02 0. -1.
    10030    2    1    2    0    0  0.00000000000E+00  0.00000000000E+00 -0.21535482327E+04  0.30084785705E+04  0.21007554162E+04 0.  0.
        4    1    3    3  502    0 -0.63199941341E+02 -0.65339358803E+03 -0.22510685008E+04  0.23448301477E+04  0.12699999809E+01 0. -1.
       -4    1    3    3    0  502  0.63199941341E+02  0.65339358803E+03  0.97520268120E+02  0.66364842278E+03  0.12699999809E+01 0.  1.
</event>
<event>
 5   0  0.4182977E-05  0.2164553E+04  0.7818609E-02  0.8533328E-01
       -1   -1    0    0    0  501  0.00000000000E+00  0.00000000000E+00  0.11233056686E+04  0.11233056686E+04  0.50400001928E-02 0. -1.
        1   -1    0    0  501    0  0.00000000000E+00  0.00000000000E+00 -0.10427461115E+04  0.10427461115E+04  0.50400001928E-02 0.  1.
    10030    2    1    2    0    0  0.00000000000E+00  0.00000000000E+00  0.80559557146E+02  0.21660517801E+04  0.21645531807E+04 0.  0.
        1    1    3    3  502    0 -0.98792204722E+03  0.35012966014E+03 -0.22961395287E+03  0.10729880324E+04  0.50400001928E-02 0.  1.
       -1    1    3    3    0  502  0.98792204722E+03 -0.35012966014E+03  0.31017351001E+03  0.10930637477E+04  0.50400001928E-02 0. -1.
</event>
<event>
 5   0  0.9012466E-05  0.2098385E+04  0.7818609E-02  0.8561955E-01
       -2   -1    0    0    0  501  0.00000000000E+00  0.00000000000E+00  0.10988535458E+04  0.10988535458E+04  0.25500000920E-02 0.  1.
        2   -1    0    0  501    0  0.00000000000E+00  0.00000000000E+00 -0.10017756209E+04  0.10017756209E+04  0.25500000920E-02 0. -1.
    10030    2    1    2    0    0  0.00000000000E+00  0.00000000000E+00  0.97077924910E+02  0.21006291667E+04  0.20983848008E+04 0.  0.
        2    1    3    3  502    0  0.92613761941E+03  0.19631894519E+03 -0.40419764097E+03  0.10293919328E+04  0.25500000920E-02 0.  1.
       -2    1    3    3    0  502 -0.92613761941E+03 -0.19631894519E+03  0.50127556588E+03  0.10712372339E+04  0.25500000920E-02 0. -1.
</event>
<event>
 5   0  0.4174093E-05  0.2084426E+04  0.7818609E-02  0.8568135E-01
       -1   -1    0    0    0  501  0.00000000000E+00  0.00000000000E+00  0.72747147790E+03  0.72747147792E+03  0.50400001928E-02 0. -1.
        1   -1    0    0  501    0  0.00000000000E+00  0.00000000000E+00 -0.14931283012E+04  0.14931283012E+04  0.50400001928E-02 0.  1.
    10030    2    1    2    0    0  0.00000000000E+00  0.00000000000E+00 -0.76565682327E+03  0.22205997791E+04  0.20844263019E+04 0.  0.
        3    1    3    3  502    0 -0.74154772326E+02  0.52682395885E+03  0.57191431576E+03  0.78110716848E+03  0.10100000352E+00 0. -1.
       -3    1    3    3    0  502  0.74154772326E+02 -0.52682395885E+03 -0.13375711390E+04  0.14394926106E+04  0.10100000352E+00 0.  1.
</event>
<event>
 5   0  0.8858590E-05  0.2110049E+04  0.7818609E-02  0.8556829E-01
       -2   -1    0    0    0  501  0.00000000000E+00  0.00000000000E+00  0.62751550975E+03  0.62751550976E+03  0.25500000920E-02 0. -1.
        2   -1    0    0  501    0  0.00000000000E+00  0.00000000000E+00 -0.17737841044E+04  0.17737841044E+04  0.25500000920E-02 0.  1.
    10030    2    1    2    0    0  0.00000000000E+00  0.00000000000E+00 -0.11462685947E+04  0.24012996142E+04  0.21100493231E+04 0.  0.
        1    1    3    3  502    0 -0.93620286221E+03 -0.43109121646E+03 -0.31673230432E+03  0.10782554376E+04  0.50400001928E-02 0.  1.
       -1    1    3    3    0  502  0.93620286221E+03  0.43109121646E+03 -0.82953629034E+03  0.13230441766E+04  0.50400001928E-02 0. -1.
</event>
<event>
 5   0  0.9086985E-05  0.2133518E+04  0.7818609E-02  0.8546621E-01
       -2   -1    0    0    0  501  0.00000000000E+00  0.00000000000E+00  0.11390899711E+04  0.11390899711E+04  0.25500000920E-02 0.  1.
        2   -1    0    0  501    0  0.00000000000E+00  0.00000000000E+00 -0.99902059119E+03  0.99902059119E+03  0.25500000920E-02 0. -1.
    10030    2    1    2    0    0  0.00000000000E+00  0.00000000000E+00  0.14006937991E+03  0.21381105623E+04  0.21335175990E+04 0.  0.
        5    1    3    3  502    0 -0.31952372856E+03 -0.65630368374E+03  0.84960539571E+03  0.11201255987E+04  0.46999998093E+01 0.  1.
       -5    1    3    3    0  502  0.31952372856E+03  0.65630368374E+03 -0.70953601580E+03  0.10179849636E+04  0.46999998093E+01 0. -1.
</event>
<event>
 5   0  0.4182977E-05  0.2094827E+04  0.7818609E-02  0.8563526E-01
        1   -1    0    0  501    0  0.00000000000E+00  0.00000000000E+00  0.16080790918E+04  0.16080790919E+04  0.50400001928E-02 0.  1.
       -1   -1    0    0    0  501  0.00000000000E+00  0.00000000000E+00 -0.68222685368E+03  0.68222685370E+03  0.50400001928E-02 0. -1.
    10030    2    1    2    0    0  0.00000000000E+00  0.00000000000E+00  0.92585223816E+03  0.22903059456E+04  0.20948267130E+04 0.  0.
        1    1    3    3  502    0  0.26424524252E+03 -0.61848285977E+03  0.13408032008E+04  0.15000332727E+04  0.50400001928E-02 0.  1.
       -1    1    3    3    0  502 -0.26424524252E+03  0.61848285977E+03 -0.41495096262E+03  0.79027267283E+03  0.50400001928E-02 0. -1.
</event>
<event>
 5   0  0.4200061E-05  0.2080851E+04  0.7818609E-02  0.8569726E-01
       -1   -1    0    0    0  501  0.00000000000E+00  0.00000000000E+00  0.14681820217E+04  0.14681820217E+04  0.50400001928E-02 0. -1.
        1   -1    0    0  501    0  0.00000000000E+00  0.00000000000E+00 -0.73729604329E+03  0.73729604331E+03  0.50400001928E-02 0.  1.
    10030    2    1    2    0    0  0.00000000000E+00  0.00000000000E+00  0.73088597841E+03  0.22054780650E+04  0.20808505909E+04 0.  0.
        4    1    3    3  502    0 -0.26375748127E+02  0.87716010779E+03 -0.22693896457E+03  0.90642619188E+03  0.12699999809E+01 0.  1.
       -4    1    3    3    0  502  0.26375748127E+02 -0.87716010779E+03  0.95782494298E+03  0.12990518731E+04  0.12699999809E+01 0. -1.
</event>
<event>
 5   0  0.4200061E-05  0.2112666E+04  0.7818609E-02  0.8555684E-01
       -1   -1    0    0    0  501  0.00000000000E+00  0.00000000000E+00  0.55570144777E+03  0.55570144779E+03  0.50400001928E-02 0.  1.
        1   -1    0    0  501    0  0.00000000000E+00  0.00000000000E+00 -0.20079843336E+04  0.20079843336E+04  0.50400001928E-02 0. -1.
    10030    2    1    2    0    0  0.00000000000E+00  0.00000000000E+00 -0.14522828858E+04  0.25636857814E+04  0.21126663734E+04 0.  0.
        4    1    3    3  502    0  0.19233747370E+03  0.95435018067E+03 -0.22867208491E+03  0.10000352526E+04  0.12699999809E+01 0.  1.
       -4    1    3    3    0  502 -0.19233747370E+03 -0.95435018067E+03 -0.12236108009E+04  0.15636505288E+04  0.12699999809E+01 0. -1.
</event>
<event>
 5   0  0.9012466E-05  0.2122216E+04  0.7818609E-02  0.8551520E-01
        2   -1    0    0  501    0  0.00000000000E+00  0.00000000000E+00  0.13336149649E+04  0.13336149649E+04  0.25500000920E-02 0.  1.
       -2   -1    0    0    0  501  0.00000000000E+00  0.00000000000E+00 -0.84428396569E+03  0.84428396569E+03  0.25500000920E-02 0. -1.
    10030    2    1    2    0    0  0.00000000000E+00  0.00000000000E+00  0.48933099921E+03  0.21778989306E+04  0.21222155699E+04 0.  0.
        2    1    3    3  502    0 -0.48622813283E+03  0.93612655798E+03  0.36256684616E+03  0.11154395760E+04  0.25500000920E-02 0.  1.
       -2    1    3    3    0  502  0.48622813283E+03 -0.93612655798E+03  0.12676415306E+03  0.10624593546E+04  0.25500000920E-02 0. -1.
</event>
<event>
 5   0  0.9012466E-05  0.2087638E+04  0.7818609E-02  0.8566708E-01
        2   -1    0    0  501    0  0.00000000000E+00  0.00000000000E+00  0.83067440950E+03  0.83067440951E+03  0.25500000920E-02 0.  1.
       -2   -1    0    0    0  501  0.00000000000E+00  0.00000000000E+00 -0.13116552774E+04  0.13116552774E+04  0.25500000920E-02 0. -1.
    10030    2    1    2    0    0  0.00000000000E+00  0.00000000000E+00 -0.48098086788E+03  0.21423296869E+04  0.20876383528E+04 0.  0.
        2    1    3    3  502    0 -0.90092935747E+03 -0.18338406875E+03  0.26667869938E+03  0.95729877914E+03  0.25500000920E-02 0.  1.
       -2    1    3    3    0  502  0.90092935747E+03  0.18338406875E+03 -0.74765956726E+03  0.11850309078E+04  0.25500000920E-02 0. -1.
</event>
<event>
 5   0  0.8547605E-05  0.2112787E+04  0.7818609E-02  0.8555632E-01
        2   -1    0    0  501    0  0.00000000000E+00  0.00000000000E+00  0.20884905831E+04  0.20884905831E+04  0.25500000920E-02 0. -1.
       -2   -1    0    0    0  501  0.00000000000E+00  0.00000000000E+00 -0.53434136436E+03  0.53434136436E+03  0.25500000920E-02 0.  1.
    10030    2    1    2    0    0  0.00000000000E+00  0.00000000000E+00  0.15541492187E+04  0.26228319475E+04  0.21127866978E+04 0.  0.
        4    1    3    3  502    0 -0.56260279743E+03  0.46596255053E+03 -0.17024497915E+03  0.75008530982E+03  0.12699999809E+01 0.  1.
       -4    1    3    3    0  502  0.56260279743E+03 -0.46596255053E+03  0.17243941979E+04  0.18727466376E+04  0.12699999809E+01 0. -1.
</event>
<event>
 5   0  0.9086985E-05  0.2116160E+04  0.7818609E-02  0.8554158E-01
       -2   -1    0    0    0  501  0.00000000000E+00  0.00000000000E+00  0.94424144157E+03  0.94424144158E+03  0.25500000920E-02 0. -1.
        2   -1    0    0  501    0  0.00000000000E+00  0.00000000000E+00 -0.11856432474E+04  0.11856432474E+04  0.25500000920E-02 0.  1.
    10030    2    1    2    0    0  0.00000000000E+00  0.00000000000E+00 -0.24140180579E+03  0.21298846889E+04  0.21161601916E+04 0.  0.
        5    1    3    3  502    0 -0.72309246218E+03 -0.26436156038E+03 -0.85119149690E+03  0.11477363800E+04  0.46999998093E+01 0.  1.
       -5    1    3    3    0  502  0.72309246218E+03  0.26436156038E+03  0.60978969111E+03  0.98214830899E+03  0.46999998093E+01 0. -1.
</event>
<event>
 5   0  0.9012466E-05  0.2115860E+04  0.7818609E-02  0.8554289E-01
       -2   -1    0    0    0  501  0.00000000000E+00  0.00000000000E+00  0.92969072176E+03  0.92969072177E+03  0.25500000920E-02 0.  1.
        2   -1    0    0  501    0  0.00000000000E+00  0.00000000000E+00 -0.12038584359E+04  0.12038584359E+04  0.25500000920E-02 0. -1.
    10030    2    1    2    0    0  0.00000000000E+00  0.00000000000E+00 -0.27416771412E+03  0.21335491576E+04  0.21158601260E+04 0.  0.
        2    1    3    3  502    0 -0.79775413585E+03 -0.58527476152E+03  0.24055721928E+03  0.10182465239E+04  0.25500000920E-02 0.  1.
       -2    1    3    3    0  502  0.79775413585E+03  0.58527476152E+03 -0.51472493339E+03  0.11153026337E+04  0.25500000920E-02 0. -1.
</event>
<event>
 5   0  0.8858590E-05  0.2081314E+04  0.7818609E-02  0.8569519E-01
        2   -1    0    0  501    0  0.00000000000E+00  0.00000000000E+00  0.14310434747E+04  0.14310434747E+04  0.25500000920E-02 0. -1.
       -2   -1    0    0    0  501  0.00000000000E+00  0.00000000000E+00 -0.75676765469E+03  0.75676765469E+03  0.25500000920E-02 0.  1.
    10030    2    1    2    0    0  0.00000000000E+00  0.00000000000E+00  0.67427582001E+03  0.21878111294E+04  0.20813144060E+04 0.  0.
        1    1    3    3  502    0 -0.10044225405E+03 -0.99794613417E+03  0.62879163296E+03  0.11837922330E+04  0.50400001928E-02 0. -1.
       -1    1    3    3    0  502  0.10044225405E+03  0.99794613417E+03  0.45484187049E+02  0.10040188964E+04  0.50400001928E-02 0.  1.
</event>
<event>
 5   0  0.8547605E-05  0.2093594E+04  0.7818609E-02  0.8564071E-01
       -2   -1    0    0    0  501  0.00000000000E+00  0.00000000000E+00  0.78588698739E+03  0.78588698740E+03  0.25500000920E-02 0.  1.
        2   -1    0    0  501    0  0.00000000000E+00  0.00000000000E+00 -0.13943271566E+04  0.13943271566E+04  0.25500000920E-02 0. -1.
    10030    2    1    2    0    0  0.00000000000E+00  0.00000000000E+00 -0.60844016921E+03  0.21802141440E+04  0.20935936268E+04 0.  0.
        4    1    3    3  502    0  0.20017532921E+03  0.44972607060E+03  0.65783049775E+03  0.82162417057E+03  0.12699999809E+01 0.  1.
       -4    1    3    3    0  502 -0.20017532921E+03 -0.44972607060E+03 -0.12662706670E+04  0.13585899734E+04  0.12699999809E+01 0. -1.
</event>
<event>
 5   0  0.8547605E-05  0.2096215E+04  0.7818609E-02  0.8562912E-01
       -2   -1    0    0    0  501  0.00000000000E+00  0.00000000000E+00  0.71196551005E+03  0.71196551005E+03  0.25500000920E-02 0.  1.
        2   -1    0    0  501    0  0.00000000000E+00  0.00000000000E+00 -0.15429535999E+04  0.15429535999E+04  0.25500000920E-02 0. -1.
    10030    2    1    2    0    0  0.00000000000E+00  0.00000000000E+00 -0.83098808985E+03  0.22549191100E+04  0.20962153961E+04 0.  0.
        4    1    3    3  502    0 -0.92664624932E+03  0.12444684623E+03 -0.92503062637E+03  0.13152351735E+04  0.12699999809E+01 0. -1.
       -4    1    3    3    0  502  0.92664624932E+03 -0.12444684623E+03  0.94042536520E+02  0.93968393648E+03  0.12699999809E+01 0.  1.
</event>
<event>
 5   0  0.9086985E-05  0.2150720E+04  0.7818609E-02  0.8539224E-01
        2   -1    0    0  501    0  0.00000000000E+00  0.00000000000E+00  0.15374923723E+04  0.15374923723E+04  0.25500000920E-02 0.  1.
       -2   -1    0    0    0  501  0.00000000000E+00  0.00000000000E+00 -0.75213331902E+03  0.75213331902E+03  0.25500000920E-02 0. -1.
    10030    2    1    2    0    0  0.00000000000E+00  0.00000000000E+00  0.78535905328E+03  0.22896256913E+04  0.21507201036E+04 0.  0.
        5    1    3    3  502    0 -0.30166030339E+03 -0.34057775925E+03 -0.64461426429E+03  0.78901317382E+03  0.46999998093E+01 0. -1.
       -5    1    3    3    0  502  0.30166030339E+03  0.34057775925E+03  0.14299733176E+04  0.15006125175E+04  0.46999998093E+01 0.  1.
</event>
<event>
 5   0  0.4200061E-05  0.2119045E+04  0.7818609E-02  0.8552900E-01
        1   -1    0    0  501    0  0.00000000000E+00  0.00000000000E+00  0.21755588902E+04  0.21755588902E+04  0.50400001928E-02 0.  1.
       -1   -1    0    0    0  501  0.00000000000E+00  0.00000000000E+00 -0.51599991955E+03  0.51599991957E+03  0.50400001928E-02 0. -1.
    10030    2    1    2    0    0  0.00000000000E+00  0.00000000000E+00  0.16595589707E+04  0.26915588098E+04  0.21190452684E+04 0.  0.
        4    1    3    3  502    0  0.25287309130E+03  0.59955939177E+03 -0.23229539111E+03  0.69092620893E+03  0.12699999809E+01 0. -1.
       -4    1    3    3    0  502 -0.25287309130E+03 -0.59955939177E+03  0.18918543618E+04  0.20006326009E+04  0.12699999809E+01 0.  1.
</event>
<event>
 5   0  0.9086985E-05  0.2071224E+04  0.7818609E-02  0.8574027E-01
       -2   -1    0    0    0  501  0.00000000000E+00  0.00000000000E+00  0.39540156822E+03  0.39540156822E+03  0.25500000920E-02 0. -1.
        2   -1    0    0  501    0  0.00000000000E+00  0.00000000000E+00 -0.27124116561E+04  0.27124116561E+04  0.25500000920E-02 0.  1.
    10030    2    1    2    0    0  0.00000000000E+00  0.00000000000E+00 -0.23170100879E+04  0.31078132243E+04  0.20712236214E+04 0.  0.
        5    1    3    3  502    0 -0.80113022497E+03  0.63538429757E+03 -0.14048151555E+04  0.17375415258E+04  0.46999998093E+01 0. -1.
       -5    1    3    3    0  502  0.80113022497E+03 -0.63538429757E+03 -0.91219493240E+03  0.13702716985E+04  0.46999998093E+01 0.  1.
</event>
<event>
 5   0  0.8872777E-05  0.2092278E+04  0.7818609E-02  0.8564653E-01
        2   -1    0    0  501    0  0.00000000000E+00  0.00000000000E+00  0.12980493345E+04  0.12980493345E+04  0.25500000920E-02 0.  1.
       -2   -1    0    0    0  501  0.00000000000E+00  0.00000000000E+00 -0.84311622662E+03  0.84311622662E+03  0.25500000920E-02 0. -1.
    10030    2    1    2    0    0  0.00000000000E+00  0.00000000000E+00  0.45493310790E+03  0.21411655611E+04  0.20922776650E+04 0.  0.
        3    1    3    3  502    0  0.22661554322E+03  0.10187214376E+04  0.30167627991E+03  0.10863501093E+04  0.10100000352E+00 0. -1.
       -3    1    3    3    0  502 -0.22661554322E+03 -0.10187214376E+04  0.15325682799E+03  0.10548154518E+04  0.10100000352E+00 0.  1.
</event>
<event>
 5   0  0.9086985E-05  0.2063656E+04  0.7818609E-02  0.8577424E-01
       -2   -1    0    0    0  501  0.00000000000E+00  0.00000000000E+00  0.12006790451E+04  0.12006790451E+04  0.25500000920E-02 0. -1.
        2   -1    0    0  501    0  0.00000000000E+00  0.00000000000E+00 -0.88672267261E+03  0.88672267261E+03  0.25500000920E-02 0.  1.
    10030    2    1    2    0    0  0.00000000000E+00  0.00000000000E+00  0.31395637249E+03  0.20874017177E+04  0.20636563007E+04 0.  0.
        5    1    3    3  502    0  0.88716563897E+03 -0.12990005620E+03 -0.35949502709E+03  0.96602052777E+03  0.46999998093E+01 0.  1.
       -5    1    3    3    0  502 -0.88716563897E+03  0.12990005620E+03  0.67345139958E+03  0.11213811899E+04  0.46999998093E+01 0. -1.
</event>
<event>
 5   0  0.4182977E-05  0.2109260E+04  0.7818609E-02  0.8557175E-01
        1   -1    0    0  501    0  0.00000000000E+00  0.00000000000E+00  0.11668021216E+04  0.11668021216E+04  0.50400001928E-02 0.  1.
       -1   -1    0    0    0  501  0.00000000000E+00  0.00000000000E+00 -0.95324169863E+03  0.95324169864E+03  0.50400001928E-02 0. -1.
    10030    2    1    2    0    0  0.00000000000E+00  0.00000000000E+00  0.21356042293E+03  0.21200438202E+04  0.21092599995E+04 0.  0.
        1    1    3    3  502    0  0.59918049997E+03 -0.53171529963E+03  0.79622152835E+03  0.11294720685E+04  0.50400001928E-02 0.  1.
       -1    1    3    3    0  502 -0.59918049997E+03  0.53171529963E+03 -0.58266110542E+03  0.99057175166E+03  0.50400001928E-02 0. -1.
</event>
<event>
 5   0  0.4128678E-05  0.2109579E+04  0.7818609E-02  0.8557035E-01
       -1   -1    0    0    0  501  0.00000000000E+00  0.00000000000E+00  0.75905676986E+03  0.75905676988E+03  0.50400001928E-02 0. -1.
        1   -1    0    0  501    0  0.00000000000E+00  0.00000000000E+00 -0.14657419625E+04  0.14657419625E+04  0.50400001928E-02 0.  1.
    10030    2    1    2    0    0  0.00000000000E+00  0.00000000000E+00 -0.70668519265E+03  0.22247987324E+04  0.21095794458E+04 0.  0.
        5    1    3    3  502    0  0.54224729612E+03 -0.43989045740E+03  0.48042118402E+03  0.84756259280E+03  0.46999998093E+01 0. -1.
       -5    1    3    3    0  502 -0.54224729612E+03  0.43989045740E+03 -0.11871063767E+04  0.13772361396E+04  0.46999998093E+01 0.  1.
</event>
<event>
 5   0  0.4128678E-05  0.2097791E+04  0.7818609E-02  0.8562217E-01
       -1   -1    0    0    0  501  0.00000000000E+00  0.00000000000E+00  0.79253119900E+03  0.79253119901E+03  0.50400001928E-02 0. -1.
        1   -1    0    0  501    0  0.00000000000E+00  0.00000000000E+00 -0.13881869411E+04  0.13881869411E+04  0.50400001928E-02 0.  1.
    10030    2    1    2    0    0  0.00000000000E+00  0.00000000000E+00 -0.59565574207E+03  0.21807181401E+04  0.20977907054E+04 0.  0.
        5    1    3    3  502    0 -0.23271002832E+02 -0.10274311383E+04 -0.79766391886E+02  0.10307963188E+04  0.46999998093E+01 0.  1.
       -5    1    3    3    0  502  0.23271002832E+02  0.10274311383E+04 -0.51588935019E+03  0.11499218213E+04  0.46999998093E+01 0. -1.
</event>
<event>
 5   0  0.8858590E-05  0.2110432E+04  0.7818609E-02  0.8556662E-01
        2   -1    0    0  501    0  0.00000000000E+00  0.00000000000E+00  0.14318427005E+04  0.14318427005E+04  0.25500000920E-02 0. -1.
       -2   -1    0    0    0  501  0.00000000000E+00  0.00000000000E+00 -0.77765565744E+03  0.77765565745E+03  0.25500000920E-02 0.  1.
    10030    2    1    2    0    0  0.00000000000E+00  0.00000000000E+00  0.65418704301E+03  0.22094983579E+04  0.21104317820E+04 0.  0.
        1    1    3    3  502    0 -0.64351145622E+02  0.10215455561E+04  0.59561752221E+03  0.11842536155E+04  0.50400001928E-02 0. -1.
       -1    1    3    3    0  502  0.64351145622E+02 -0.10215455561E+04  0.58569520803E+02  0.10252447424E+04  0.50400001928E-02 0.  1.
</event>
<event>
 5   0  0.8858590E-05  0.2145008E+04  0.7818609E-02  0.8541672E-01
        2   -1    0    0  501    0  0.00000000000E+00  0.00000000000E+00  0.15087631462E+04  0.15087631462E+04  0.25500000920E-02 0. -1.
       -2   -1    0    0    0  501  0.00000000000E+00  0.00000000000E+00 -0.76238900432E+03  0.76238900433E+03  0.25500000920E-02 0.  1.
    10030    2    1    2    0    0  0.00000000000E+00  0.00000000000E+00  0.74637414190E+03  0.22711521505E+04  0.21450076296E+04 0.  0.
        1    1    3    3  502    0 -0.27425830336E+03 -0.19644750956E+03  0.14511222712E+04  0.14898204881E+04  0.50400001928E-02 0. -1.
       -1    1    3    3    0  502  0.27425830336E+03  0.19644750956E+03 -0.70474812926E+03  0.78133166242E+03  0.50400001928E-02 0.  1.
</event>
<event>
 5   0  0.4200061E-05  0.2027194E+04  0.7818609E-02  0.8594011E-01
        1   -1    0    0  501    0  0.00000000000E+00  0.00000000000E+00  0.15063556181E+04  0.15063556181E+04  0.50400001928E-02 0.  1.
       -1   -1    0    0    0  501  0.00000000000E+00  0.00000000000E+00 -0.68202949963E+03  0.68202949965E+03  0.50400001928E-02 0. -1.
    10030    2    1    2    0    0  0.00000000000E+00  0.00000000000E+00  0.82432611851E+03  0.21883851178E+04  0.20271940889E+04 0.  0.
        4    1    3    3  502    0  0.94373645610E+03 -0.16683289504E+03  0.55914093931E+02  0.95999985012E+03  0.12699999809E+01 0. -1.
       -4    1    3    3    0  502 -0.94373645610E+03  0.16683289504E+03  0.76841202458E+03  0.12283852677E+04  0.12699999809E+01 0.  1.
</event>
<event>
 5   0  0.9012466E-05  0.2099858E+04  0.7818609E-02  0.8561306E-01
        2   -1    0    0  501    0  0.00000000000E+00  0.00000000000E+00  0.23644795967E+04  0.23644795967E+04  0.25500000920E-02 0. -1.
       -2   -1    0    0    0  501  0.00000000000E+00  0.00000000000E+00 -0.46621303711E+03  0.46621303712E+03  0.25500000920E-02 0.  1.
    10030    2    1    2    0    0  0.00000000000E+00  0.00000000000E+00  0.18982665595E+04  0.28306926338E+04  0.20998582942E+04 0.  0.
        2    1    3    3  502    0 -0.45911340062E+03  0.48972656992E+03 -0.13913986218E+03  0.68554877957E+03  0.25500000920E-02 0.  1.
       -2    1    3    3    0  502  0.45911340062E+03 -0.48972656992E+03  0.20374064217E+04  0.21451438542E+04  0.25500000920E-02 0. -1.
</event>
<event>
 5   0  0.3176125E-05  0.2085103E+04  0.7818609E-02  0.8567834E-01
       -3   -1    0    0    0  501  0.00000000000E+00  0.00000000000E+00  0.10649351395E+04  0.10649351443E+04  0.10100000352E+00 0.  1.
        3   -1    0    0  501    0  0.00000000000E+00  0.00000000000E+00 -0.10206382152E+04  0.10206382202E+04  0.10100000352E+00 0. -1.
    10030    2    1    2    0    0  0.00000000000E+00  0.00000000000E+00  0.44296924287E+02  0.20855733645E+04  0.20851028850E+04 0.  0.
        4    1    3    3  502    0  0.19263760816E+03 -0.91299125660E+03  0.48727985667E+03  0.10526659272E+04  0.12699999809E+01 0.  1.
       -4    1    3    3    0  502 -0.19263760816E+03  0.91299125660E+03 -0.44298293238E+03  0.10329074373E+04  0.12699999809E+01 0. -1.
</event>
<event>
 5   0  0.9086985E-05  0.2078629E+04  0.7818609E-02  0.8570716E-01
       -2   -1    0    0    0  501  0.00000000000E+00  0.00000000000E+00  0.10955317187E+04  0.10955317187E+04  0.25500000920E-02 0. -1.
        2   -1    0    0  501    0  0.00000000000E+00  0.00000000000E+00 -0.98598251849E+03  0.98598251849E+03  0.25500000920E-02 0.  1.
    10030    2    1    2    0    0  0.00000000000E+00  0.00000000000E+00  0.10954920020E+03  0.20815142372E+04  0.20786294745E+04 0.  0.
        5    1    3    3  502    0 -0.56928554569E+03 -0.56127413978E+03  0.71980343654E+03  0.10757573006E+04  0.46999998093E+01 0. -1.
       -5    1    3    3    0  502  0.56928554569E+03  0.56127413978E+03 -0.61025423634E+03  0.10057569366E+04  0.46999998093E+01 0.  1.
</event>
<event>
 5   0  0.9086985E-05  0.2106373E+04  0.7818609E-02  0.8558441E-01
        2   -1    0    0  501    0  0.00000000000E+00  0.00000000000E+00  0.12539279211E+04  0.12539279211E+04  0.25500000920E-02 0. -1.
       -2   -1    0    0    0  501  0.00000000000E+00  0.00000000000E+00 -0.88458154636E+03  0.88458154636E+03  0.25500000920E-02 0.  1.
    10030    2    1    2    0    0  0.00000000000E+00  0.00000000000E+00  0.36934637475E+03  0.21385094675E+04  0.21063727111E+04 0.  0.
        5    1    3    3  502    0 -0.26401144496E+03 -0.36240836908E+03 -0.78282859112E+03  0.90215550884E+03  0.46999998093E+01 0.  1.
       -5    1    3    3    0  502  0.26401144496E+03  0.36240836908E+03  0.11521749659E+04  0.12363539586E+04  0.46999998093E+01 0. -1.
</event>
<event>
 5   0  0.4182977E-05  0.2103062E+04  0.7818609E-02  0.8559896E-01
       -1   -1    0    0    0  501  0.00000000000E+00  0.00000000000E+00  0.10992726555E+04  0.10992726555E+04  0.50400001928E-02 0. -1.
        1   -1    0    0  501    0  0.00000000000E+00  0.00000000000E+00 -0.10058624082E+04  0.10058624082E+04  0.50400001928E-02 0.  1.
    10030    2    1    2    0    0  0.00000000000E+00  0.00000000000E+00  0.93410247308E+02  0.21051350638E+04  0.21030616164E+04 0.  0.
        1    1    3    3  502    0 -0.10331017691E+04  0.11160531467E+03 -0.11458110363E+03  0.10454108479E+04  0.50400001928E-02 0.  1.
       -1    1    3    3    0  502  0.10331017691E+04 -0.11160531467E+03  0.20799135094E+03  0.10597242159E+04  0.50400001928E-02 0. -1.
</event>
<event>
 5   0  0.4200061E-05  0.2090798E+04  0.7818609E-02  0.8565308E-01
        1   -1    0    0  501    0  0.00000000000E+00  0.00000000000E+00  0.17160103141E+04  0.17160103141E+04  0.50400001928E-02 0.  1.
       -1   -1    0    0    0  501  0.00000000000E+00  0.00000000000E+00 -0.63686067114E+03  0.63686067116E+03  0.50400001928E-02 0. -1.
    10030    2    1    2    0    0  0.00000000000E+00  0.00000000000E+00  0.10791496430E+04  0.23528709853E+04  0.20907983933E+04 0.  0.
        4    1    3    3  502    0 -0.45212445402E+03 -0.92586940185E+03  0.34077621641E+03  0.10852560591E+04  0.12699999809E+01 0. -1.
       -4    1    3    3    0  502  0.45212445402E+03  0.92586940185E+03  0.73837342658E+03  0.12676149262E+04  0.12699999809E+01 0.  1.
</event>
<event>
 5   0  0.8872777E-05  0.1880507E+04  0.7818609E-02  0.8664621E-01
        2   -1    0    0  501    0  0.00000000000E+00  0.00000000000E+00  0.58756732772E+03  0.58756732773E+03  0.25500000920E-02 0. -1.
       -2   -1    0    0    0  501  0.00000000000E+00  0.00000000000E+00 -0.15046387243E+04  0.15046387243E+04  0.25500000920E-02 0.  1.
    10030    2    1    2    0    0  0.00000000000E+00  0.00000000000E+00 -0.91707139657E+03  0.20922060520E+04  0.18805069045E+04 0.  0.
        3    1    3    3  502    0  0.21909613784E+03 -0.14972674937E+03 -0.14621105220E+04  0.14859974448E+04  0.10100000352E+00 0.  1.
       -3    1    3    3    0  502 -0.21909613784E+03  0.14972674937E+03  0.54503912542E+03  0.60620860727E+03  0.10100000352E+00 0. -1.
</event>
<event>
 5   0  0.8858590E-05  0.2083007E+04  0.7818609E-02  0.8568766E-01
        2   -1    0    0  501    0  0.00000000000E+00  0.00000000000E+00  0.11203812604E+04  0.11203812604E+04  0.25500000920E-02 0.  1.
       -2   -1    0    0    0  501  0.00000000000E+00  0.00000000000E+00 -0.96817872788E+03  0.96817872788E+03  0.25500000920E-02 0. -1.
    10030    2    1    2    0    0  0.00000000000E+00  0.00000000000E+00  0.15220253250E+03  0.20885599883E+04  0.20830067724E+04 0.  0.
        1    1    3    3  502    0  0.62920564661E+03  0.49520135249E+03 -0.59171128206E+03  0.99561356288E+03  0.50400001928E-02 0. -1.
       -1    1    3    3    0  502 -0.62920564661E+03 -0.49520135249E+03  0.74391381456E+03  0.10929464254E+04  0.50400001928E-02 0.  1.
</event>
<event>
 5   0  0.9086985E-05  0.2109807E+04  0.7818609E-02  0.8556936E-01
       -2   -1    0    0    0  501  0.00000000000E+00  0.00000000000E+00  0.53597950838E+03  0.53597950839E+03  0.25500000920E-02 0. -1.
        2   -1    0    0  501    0  0.00000000000E+00  0.00000000000E+00 -0.20762380577E+04  0.20762380577E+04  0.25500000920E-02 0.  1.
    10030    2    1    2    0    0  0.00000000000E+00  0.00000000000E+00 -0.15402585493E+04  0.26122175661E+04  0.21098066769E+04 0.  0.
        5    1    3    3  502    0 -0.17560601704E+03  0.62944852774E+03 -0.17954305658E+04  0.19106637404E+04  0.46999998093E+01 0.  1.
       -5    1    3    3    0  502  0.17560601704E+03 -0.62944852774E+03  0.25517201651E+03  0.70155382566E+03  0.46999998093E+01 0. -1.
</event>
<event>
 5   0  0.3176125E-05  0.2073604E+04  0.7818609E-02  0.8572961E-01
       -4   -1    0    0    0  501  0.00000000000E+00  0.00000000000E+00  0.11082926567E+04  0.11082933843E+04  0.12699999809E+01 0.  1.
        4   -1    0    0  501    0  0.00000000000E+00  0.00000000000E+00 -0.96992177208E+03  0.96992260354E+03  0.12699999809E+01 0. -1.
    10030    2    1    2    0    0  0.00000000000E+00  0.00000000000E+00  0.13837088458E+03  0.20782159878E+04  0.20736043958E+04 0.  0.
        2    1    3    3  502    0 -0.57622685848E+03 -0.58437235884E+02 -0.79267266830E+03  0.98172412726E+03  0.25500000920E-02 0. -1.
       -2    1    3    3    0  502  0.57622685848E+03  0.58437235884E+02  0.93104355287E+03  0.10964918606E+04  0.25500000920E-02 0.  1.
</event>
<event>
 5   0  0.8872777E-05  0.2110845E+04  0.7818609E-02  0.8556481E-01
       -2   -1    0    0    0  501  0.00000000000E+00  0.00000000000E+00  0.10848485400E+04  0.10848485400E+04  0.25500000920E-02 0. -1.
        2   -1    0    0  501    0  0.00000000000E+00  0.00000000000E+00 -0.10267948921E+04  0.10267948921E+04  0.25500000920E-02 0.  1.
    10030    2    1    2    0    0  0.00000000000E+00  0.00000000000E+00  0.58053647870E+02  0.21116434322E+04  0.21108452711E+04 0.  0.
        3    1    3    3  502    0 -0.74553337806E+03 -0.31435118668E+02  0.77570623096E+03  0.10763495489E+04  0.10100000352E+00 0. -1.
       -3    1    3    3    0  502  0.74553337806E+03  0.31435118668E+02 -0.71765258309E+03  0.10352938833E+04  0.10100000352E+00 0.  1.
</event>
<event>
 5   0  0.8547605E-05  0.2102514E+04  0.7818609E-02  0.8560137E-01
        2   -1    0    0  501    0  0.00000000000E+00  0.00000000000E+00  0.22717667885E+04  0.22717667885E+04  0.25500000920E-02 0.  1.
       -2   -1    0    0    0  501  0.00000000000E+00  0.00000000000E+00 -0.48646780498E+03  0.48646780498E+03  0.25500000920E-02 0. -1.
    10030    2    1    2    0    0  0.00000000000E+00  0.00000000000E+00  0.17852989835E+04  0.27582345935E+04  0.21025141170E+04 0.  0.
        4    1    3    3  502    0  0.47213571503E+03 -0.76532405296E+02  0.21207563104E+04  0.21740235242E+04  0.12699999809E+01 0.  1.
       -4    1    3    3    0  502 -0.47213571503E+03  0.76532405296E+02 -0.33545732690E+03  0.58421106934E+03  0.12699999809E+01 0. -1.
</event>
<event>
 5   0  0.4128678E-05  0.2071668E+04  0.7818609E-02  0.8573828E-01
        1   -1    0    0  501    0  0.00000000000E+00  0.00000000000E+00  0.94977150307E+03  0.94977150309E+03  0.50400001928E-02 0.  1.
       -1   -1    0    0    0  501  0.00000000000E+00  0.00000000000E+00 -0.11296945578E+04  0.11296945578E+04  0.50400001928E-02 0. -1.
    10030    2    1    2    0    0  0.00000000000E+00  0.00000000000E+00 -0.17992305471E+03  0.20794660609E+04  0.20716676357E+04 0.  0.
        5    1    3    3  502    0 -0.97825692287E+03  0.98611267655E+02 -0.41710065352E+03  0.10680383113E+04  0.46999998093E+01 0. -1.
       -5    1    3    3    0  502  0.97825692287E+03 -0.98611267655E+02  0.23717759881E+03  0.10114277496E+04  0.46999998093E+01 0.  1.
</event>
<event>
 5   0  0.8872777E-05  0.2093770E+04  0.7818609E-02  0.8563993E-01
       -2   -1    0    0    0  501  0.00000000000E+00  0.00000000000E+00  0.11095669125E+04  0.11095669125E+04  0.25500000920E-02 0. -1.
        2   -1    0    0  501    0  0.00000000000E+00  0.00000000000E+00 -0.98774416654E+03  0.98774416654E+03  0.25500000920E-02 0.  1.
    10030    2    1    2    0    0  0.00000000000E+00  0.00000000000E+00  0.12182274592E+03  0.20973110790E+04  0.20937700401E+04 0.  0.
        3    1    3    3  502    0  0.84651920551E+03 -0.58560151159E+03 -0.13031549435E+03  0.10375480875E+04  0.10100000352E+00 0. -1.
       -3    1    3    3    0  502 -0.84651920551E+03  0.58560151159E+03  0.25213824027E+03  0.10597629915E+04  0.10100000352E+00 0.  1.
</event>
<event>
 5   0  0.8547605E-05  0.2097275E+04  0.7818609E-02  0.8562445E-01
        2   -1    0    0  501    0  0.00000000000E+00  0.00000000000E+00  0.14299906262E+04  0.14299906262E+04  0.25500000920E-02 0. -1.
       -2   -1    0    0    0  501  0.00000000000E+00  0.00000000000E+00 -0.76898460218E+03  0.76898460219E+03  0.25500000920E-02 0.  1.
    10030    2    1    2    0    0  0.00000000000E+00  0.00000000000E+00  0.66100602398E+03  0.21989752284E+04  0.20972751587E+04 0.  0.
        4    1    3    3  502    0 -0.97158526786E+03 -0.34403684928E+03  0.12800600721E+03  0.10386175606E+04  0.12699999809E+01 0.  1.
       -4    1    3    3    0  502  0.97158526786E+03  0.34403684928E+03  0.53300001677E+03  0.11603576678E+04  0.12699999809E+01 0. -1.
</event>
<event>
 5   0  0.8858590E-05  0.2102201E+04  0.7818609E-02  0.8560274E-01
        2   -1    0    0  501    0  0.00000000000E+00  0.00000000000E+00  0.84737486592E+03  0.84737486593E+03  0.25500000920E-02 0.  1.
       -2   -1    0    0    0  501  0.00000000000E+00  0.00000000000E+00 -0.13038063949E+04  0.13038063949E+04  0.25500000920E-02 0. -1.
    10030    2    1    2    0    0  0.00000000000E+00  0.00000000000E+00 -0.45643152894E+03  0.21511812608E+04  0.21022014832E+04 0.  0.
        1    1    3    3  502    0  0.91028140691E+03  0.35549250301E+03  0.16787589224E+03  0.99154902787E+03  0.50400001928E-02 0.  1.
       -1    1    3    3    0  502 -0.91028140691E+03 -0.35549250301E+03 -0.62430742118E+03  0.11596322329E+04  0.50400001928E-02 0. -1.
</event>
<event>
 5   0  0.4200061E-05  0.2097916E+04  0.7818609E-02  0.8562162E-01
        1   -1    0    0  501    0  0.00000000000E+00  0.00000000000E+00  0.12681732732E+04  0.12681732732E+04  0.50400001928E-02 0. -1.
       -1   -1    0    0    0  501  0.00000000000E+00  0.00000000000E+00 -0.86763586083E+03  0.86763586084E+03  0.50400001928E-02 0.  1.
    10030    2    1    2    0    0  0.00000000000E+00  0.00000000000E+00  0.40053741235E+03  0.21358091340E+04  0.20979157367E+04 0.  0.
        4    1    3    3  502    0  0.42021864274E+03 -0.23742152839E+03 -0.74787391578E+03  0.89009533009E+03  0.12699999809E+01 0.  1.
       -4    1    3    3    0  502 -0.42021864274E+03  0.23742152839E+03  0.11484113281E+04  0.12457138039E+04  0.12699999809E+01 0. -1.
</event>
<event>
 5   0  0.8872777E-05  0.2092979E+04  0.7818609E-02  0.8564343E-01
       -2   -1    0    0    0  501  0.00000000000E+00  0.00000000000E+00  0.12146601132E+04  0.12146601132E+04  0.25500000920E-02 0.  1.
        2   -1    0    0  501    0  0.00000000000E+00  0.00000000000E+00 -0.90160192832E+03  0.90160192832E+03  0.25500000920E-02 0. -1.
    10030    2    1    2    0    0  0.00000000000E+00  0.00000000000E+00  0.31305818486E+03  0.21162620415E+04  0.20929786433E+04 0.  0.
        3    1    3    3  502    0 -0.43263404519E+03  0.68981514821E+03 -0.50814416122E+03  0.95980605048E+03  0.10100000352E+00 0. -1.
       -3    1    3    3    0  502  0.43263404519E+03 -0.68981514821E+03  0.82120234607E+03  0.11564559910E+04  0.10100000352E+00 0.  1.
</event>
<event>
 5   0  0.9086985E-05  0.2070955E+04  0.7818609E-02  0.8574147E-01
       -2   -1    0    0    0  501  0.00000000000E+00  0.00000000000E+00  0.45407607207E+03  0.45407607208E+03  0.25500000920E-02 0. -1.
        2   -1    0    0  501    0  0.00000000000E+00  0.00000000000E+00 -0.23613077985E+04  0.23613077985E+04  0.25500000920E-02 0.  1.
    10030    2    1    2    0    0  0.00000000000E+00  0.00000000000E+00 -0.19072317265E+04  0.28153838706E+04  0.20709547268E+04 0.  0.
        5    1    3    3  502    0 -0.79745344500E+03 -0.32542341638E+03 -0.17349917558E+04  0.19370211355E+04  0.46999998093E+01 0.  1.
       -5    1    3    3    0  502  0.79745344500E+03  0.32542341638E+03 -0.17223997069E+03  0.87836273508E+03  0.46999998093E+01 0. -1.
</event>
<event>
 5   0  0.4174093E-05  0.2104528E+04  0.7818609E-02  0.8559251E-01
        1   -1    0    0  501    0  0.00000000000E+00  0.00000000000E+00  0.12727974461E+04  0.12727974461E+04  0.50400001928E-02 0.  1.
       -1   -1    0    0    0  501  0.00000000000E+00  0.00000000000E+00 -0.86994174876E+03  0.86994174877E+03  0.50400001928E-02 0. -1.
    10030    2    1    2    0    0  0.00000000000E+00  0.00000000000E+00  0.40285569730E+03  0.21427391948E+04  0.21045281049E+04 0.  0.
        3    1    3    3  502    0 -0.60525003641E+03 -0.13860027884E+03  0.10663948720E+04  0.12339917654E+04  0.10100000352E+00 0.  1.
       -3    1    3    3    0  502  0.60525003641E+03  0.13860027884E+03 -0.66353917472E+03  0.90874742941E+03  0.10100000352E+00 0. -1.
</event>
<event>
 5   0  0.4200061E-05  0.2098011E+04  0.7818609E-02  0.8562120E-01
        1   -1    0    0  501    0  0.00000000000E+00  0.00000000000E+00  0.16913984084E+04  0.16913984084E+04  0.50400001928E-02 0. -1.
       -1   -1    0    0    0  501  0.00000000000E+00  0.00000000000E+00 -0.65059322195E+03  0.65059322197E+03  0.50400001928E-02 0.  1.
    10030    2    1    2    0    0  0.00000000000E+00  0.00000000000E+00  0.10408051864E+04  0.23419916304E+04  0.20980108104E+04 0.  0.
        4    1    3    3  502    0 -0.55660308380E+03  0.61412836480E+02 -0.46978773204E+03  0.73094504270E+03  0.12699999809E+01 0.  1.
       -4    1    3    3    0  502  0.55660308380E+03 -0.61412836480E+02  0.15105929185E+04  0.16110465877E+04  0.12699999809E+01 0. -1.
</event>
<event>
 5   0  0.8547605E-05  0.2096195E+04  0.7818609E-02  0.8562921E-01
       -2   -1    0    0    0  501  0.00000000000E+00  0.00000000000E+00  0.88859757985E+03  0.88859757985E+03  0.25500000920E-02 0. -1.
        2   -1    0    0  501    0  0.00000000000E+00  0.00000000000E+00 -0.12362274458E+04  0.12362274458E+04  0.25500000920E-02 0.  1.
    10030    2    1    2    0    0  0.00000000000E+00  0.00000000000E+00 -0.34762986592E+03  0.21248250256E+04  0.20961953310E+04 0.  0.
        4    1    3    3  502    0 -0.91476254485E+03  0.48349294675E+01  0.34473150290E+03  0.97757624357E+03  0.12699999809E+01 0. -1.
       -4    1    3    3    0  502  0.91476254485E+03 -0.48349294675E+01 -0.69236136882E+03  0.11472487821E+04  0.12699999809E+01 0.  1.
</event>
<event>
 5   0  0.4174093E-05  0.2139720E+04  0.7818609E-02  0.8543945E-01
        1   -1    0    0  501    0  0.00000000000E+00  0.00000000000E+00  0.84162877475E+03  0.84162877477E+03  0.50400001928E-02 0. -1.
       -1   -1    0    0    0  501  0.00000000000E+00  0.00000000000E+00 -0.13599824475E+04  0.13599824475E+04  0.50400001928E-02 0.  1.
    10030    2    1    2    0    0  0.00000000000E+00  0.00000000000E+00 -0.51835367276E+03  0.22016112223E+04  0.21397199452E+04 0.  0.
        3    1    3    3  502    0 -0.62571729703E+03 -0.67128585390E+03  0.30668840127E+03  0.96757667351E+03  0.10100000352E+00 0. -1.
       -3    1    3    3    0  502  0.62571729703E+03  0.67128585390E+03 -0.82504207403E+03  0.12340345488E+04  0.10100000352E+00 0.  1.
</event>
<event>
 5   0  0.9086985E-05  0.2112886E+04  0.7818609E-02  0.8555588E-01
       -2   -1    0    0    0  501  0.00000000000E+00  0.00000000000E+00  0.51711276276E+03  0.51711276277E+03  0.25500000920E-02 0. -1.
        2   -1    0    0  501    0  0.00000000000E+00  0.00000000000E+00 -0.21582758825E+04  0.21582758825E+04  0.25500000920E-02 0.  1.
    10030    2    1    2    0    0  0.00000000000E+00  0.00000000000E+00 -0.16411631197E+04  0.26753886452E+04  0.21128861819E+04 0.  0.
        5    1    3    3  502    0 -0.52608569264E+03  0.87919699538E+02 -0.19752464889E+04  0.20460001983E+04  0.46999998093E+01 0.  1.
       -5    1    3    3    0  502  0.52608569264E+03 -0.87919699538E+02  0.33408336919E+03  0.62938844694E+03  0.46999998093E+01 0. -1.
</event>
<event>
 5   0  0.9012466E-05  0.2132287E+04  0.7818609E-02  0.8547153E-01
       -2   -1    0    0    0  501  0.00000000000E+00  0.00000000000E+00  0.57242295041E+03  0.57242295042E+03  0.25500000920E-02 0.  1.
        2   -1    0    0  501    0  0.00000000000E+00  0.00000000000E+00 -0.19857022842E+04  0.19857022842E+04  0.25500000920E-02 0. -1.
    10030    2    1    2    0    0  0.00000000000E+00  0.00000000000E+00 -0.14132793338E+04  0.25581252346E+04  0.21322866225E+04 0.  0.
        2    1    3    3  502    0  0.79252447511E+03 -0.30621803183E+03 -0.14793096490E+04  0.17059371514E+04  0.25500000920E-02 0. -1.
       -2    1    3    3    0  502 -0.79252447511E+03  0.30621803183E+03  0.66030315258E+02  0.85218808324E+03  0.25500000920E-02 0.  1.
</event>
<event>
 5   0  0.9086985E-05  0.2070640E+04  0.7818609E-02  0.8574288E-01
       -2   -1    0    0    0  501  0.00000000000E+00  0.00000000000E+00  0.40565218222E+03  0.40565218223E+03  0.25500000920E-02 0.  1.
        2   -1    0    0  501    0  0.00000000000E+00  0.00000000000E+00 -0.26423812830E+04  0.26423812830E+04  0.25500000920E-02 0. -1.
    10030    2    1    2    0    0  0.00000000000E+00  0.00000000000E+00 -0.22367291008E+04  0.30480334652E+04  0.20706402234E+04 0.  0.
        5    1    3    3  502    0 -0.47352286945E+03  0.17039636451E+03  0.21347762216E+03  0.54667505347E+03  0.46999998093E+01 0.  1.
       -5    1    3    3    0  502  0.47352286945E+03 -0.17039636451E+03 -0.24502067229E+04  0.25013584117E+04  0.46999998093E+01 0. -1.
</event>
<event>
 5   0  0.4128678E-05  0.2094820E+04  0.7818609E-02  0.8563529E-01
       -1   -1    0    0    0  501  0.00000000000E+00  0.00000000000E+00  0.61132356725E+03  0.61132356727E+03  0.50400001928E-02 0. -1.
        1   -1    0    0  501    0  0.00000000000E+00  0.00000000000E+00 -0.17945780079E+04  0.17945780079E+04  0.50400001928E-02 0.  1.
    10030    2    1    2    0    0  0.00000000000E+00  0.00000000000E+00 -0.11832544407E+04  0.24059015752E+04  0.20948201160E+04 0.  0.
        5    1    3    3  502    0 -0.60814383960E+03  0.40927463641E+03 -0.14508567495E+04  0.16255313148E+04  0.46999998093E+01 0.  1.
       -5    1    3    3    0  502  0.60814383960E+03 -0.40927463641E+03  0.26760230886E+03  0.78037026043E+03  0.46999998093E+01 0. -1.
</event>
<event>
 5   0  0.4200061E-05  0.2107066E+04  0.7818609E-02  0.8558137E-01
        1   -1    0    0  501    0  0.00000000000E+00  0.00000000000E+00  0.98500497948E+03  0.98500497950E+03  0.50400001928E-02 0. -1.
       -1   -1    0    0    0  501  0.00000000000E+00  0.00000000000E+00 -0.11268286929E+04  0.11268286929E+04  0.50400001928E-02 0.  1.
    10030    2    1    2    0    0  0.00000000000E+00  0.00000000000E+00 -0.14182371340E+03  0.21118336724E+04  0.21070660868E+04 0.  0.
        4    1    3    3  502    0  0.27569984384E+02  0.24144227869E+03 -0.10983536913E+04  0.11249164067E+04  0.12699999809E+01 0.  1.
       -4    1    3    3    0  502 -0.27569984384E+02 -0.24144227869E+03  0.95652997785E+03  0.98691726574E+03  0.12699999809E+01 0. -1.
</event>
<event>
 5   0  0.8872777E-05  0.2099885E+04  0.7818609E-02  0.8561294E-01
       -2   -1    0    0    0  501  0.00000000000E+00  0.00000000000E+00  0.12081481772E+04  0.12081481772E+04  0.25500000920E-02 0.  1.
        2   -1    0    0  501    0  0.00000000000E+00  0.00000000000E+00 -0.91245333554E+03  0.91245333554E+03  0.25500000920E-02 0. -1.
    10030    2    1    2    0    0  0.00000000000E+00  0.00000000000E+00  0.29569484168E+03  0.21206015128E+04  0.20998846008E+04 0.  0.
        3    1    3    3  502    0 -0.43686794852E+03 -0.94947509299E+03  0.24894636701E+03  0.10743979060E+04  0.10100000352E+00 0.  1.
       -3    1    3    3    0  502  0.43686794852E+03  0.94947509299E+03  0.46748474669E+02  0.10462036067E+04  0.10100000352E+00 0. -1.
</event>
<event>
 5   0  0.4050368E-05  0.2122288E+04  0.7818609E-02  0.8551489E-01
        1   -1    0    0  501    0  0.00000000000E+00  0.00000000000E+00  0.20963928879E+04  0.20963928879E+04  0.50400001928E-02 0. -1.
       -1   -1    0    0    0  501  0.00000000000E+00  0.00000000000E+00 -0.53712558404E+03  0.53712558406E+03  0.50400001928E-02 0.  1.
    10030    2    1    2    0    0  0.00000000000E+00  0.00000000000E+00  0.15592673039E+04  0.26335184720E+04  0.21222876849E+04 0.  0.
        2    1    3    3  502    0  0.22717915959E+03 -0.47538226256E+03  0.19226159543E+04  0.19935021379E+04  0.25500000920E-02 0. -1.
       -2    1    3    3    0  502 -0.22717915959E+03  0.47538226256E+03 -0.36334865042E+03  0.64001633407E+03  0.25500000920E-02 0.  1.
</event>
<event>
 5   0  0.8547605E-05  0.2103294E+04  0.7818609E-02  0.8559794E-01
       -2   -1    0    0    0  501  0.00000000000E+00  0.00000000000E+00  0.55959287055E+03  0.55959287055E+03  0.25500000920E-02 0.  1.
        2   -1    0    0  501    0  0.00000000000E+00  0.00000000000E+00 -0.19763670702E+04  0.19763670702E+04  0.25500000920E-02 0. -1.
    10030    2    1    2    0    0  0.00000000000E+00  0.00000000000E+00 -0.14167741997E+04  0.25359599408E+04  0.21032935336E+04 0.  0.
        4    1    3    3  502    0  0.43392687352E+03  0.43781786822E+03  0.31893236318E+03  0.69404357391E+03  0.12699999809E+01 0.  1.
       -4    1    3    3    0  502 -0.43392687352E+03 -0.43781786822E+03 -0.17357065628E+04  0.18419163668E+04  0.12699999809E+01 0. -1.
</event>
<event>
 5   0  0.4200061E-05  0.2097787E+04  0.7818609E-02  0.8562219E-01
        1   -1    0    0  501    0  0.00000000000E+00  0.00000000000E+00  0.64400124577E+03  0.64400124579E+03  0.50400001928E-02 0. -1.
       -1   -1    0    0    0  501  0.00000000000E+00  0.00000000000E+00 -0.17083473561E+04  0.17083473561E+04  0.50400001928E-02 0.  1.
    10030    2    1    2    0    0  0.00000000000E+00  0.00000000000E+00 -0.10643461103E+04  0.23523486019E+04  0.20977872395E+04 0.  0.
        4    1    3    3  502    0  0.95122342606E+03  0.38338595031E+03 -0.77878137343E+03  0.12877549587E+04  0.12699999809E+01 0. -1.
       -4    1    3    3    0  502 -0.95122342606E+03 -0.38338595031E+03 -0.28556473687E+03  0.10645936431E+04  0.12699999809E+01 0.  1.
</event>
<event>
 5   0  0.4182977E-05  0.2245843E+04  0.7818609E-02  0.8499586E-01
        1   -1    0    0  501    0  0.00000000000E+00  0.00000000000E+00  0.13986460718E+04  0.13986460718E+04  0.50400001928E-02 0. -1.
       -1   -1    0    0    0  501  0.00000000000E+00  0.00000000000E+00 -0.90155206874E+03  0.90155206875E+03  0.50400001928E-02 0.  1.
    10030    2    1    2    0    0  0.00000000000E+00  0.00000000000E+00  0.49709400301E+03  0.23001981405E+04  0.22458426120E+04 0.  0.
        1    1    3    3  502    0 -0.10118127762E+04 -0.38877200707E+03  0.54897814018E+03  0.12150250063E+04  0.50400001928E-02 0. -1.
       -1    1    3    3    0  502  0.10118127762E+04  0.38877200707E+03 -0.51884137168E+02  0.10851731342E+04  0.50400001928E-02 0.  1.
</event>
<event>
 5   0  0.4128678E-05  0.2087379E+04  0.7818609E-02  0.8566823E-01
        1   -1    0    0  501    0  0.00000000000E+00  0.00000000000E+00  0.12459229910E+04  0.12459229910E+04  0.50400001928E-02 0. -1.
       -1   -1    0    0    0  501  0.00000000000E+00  0.00000000000E+00 -0.87428182026E+03  0.87428182028E+03  0.50400001928E-02 0.  1.
    10030    2    1    2    0    0  0.00000000000E+00  0.00000000000E+00  0.37164117072E+03  0.21202048113E+04  0.20873790461E+04 0.  0.
        5    1    3    3  502    0 -0.76464195841E+03 -0.31038104544E+03  0.83481455788E+03  0.11738616418E+04  0.46999998093E+01 0. -1.
       -5    1    3    3    0  502  0.76464195841E+03  0.31038104544E+03 -0.46317338716E+03  0.94634316952E+03  0.46999998093E+01 0.  1.
</event>
<event>
 5   0  0.4174093E-05  0.2048239E+04  0.7818609E-02  0.8584393E-01
       -1   -1    0    0    0  501  0.00000000000E+00  0.00000000000E+00  0.73789362400E+03  0.73789362401E+03  0.50400001928E-02 0.  1.
        1   -1    0    0  501    0  0.00000000000E+00  0.00000000000E+00 -0.14213718025E+04  0.14213718025E+04  0.50400001928E-02 0. -1.
    10030    2    1    2    0    0  0.00000000000E+00  0.00000000000E+00 -0.68347817846E+03  0.21592654265E+04  0.20482394297E+04 0.  0.
        3    1    3    3  502    0  0.20111982204E+03 -0.80568316616E+03  0.29012207306E+03  0.87962797508E+03  0.10100000352E+00 0.  1.
       -3    1    3    3    0  502 -0.20111982204E+03  0.80568316616E+03 -0.97360025153E+03  0.12796374514E+04  0.10100000352E+00 0. -1.
</event>
<event>
 5   0  0.9012466E-05  0.2118377E+04  0.7818609E-02  0.8553191E-01
       -2   -1    0    0    0  501  0.00000000000E+00  0.00000000000E+00  0.12242977056E+04  0.12242977056E+04  0.25500000920E-02 0. -1.
        2   -1    0    0  501    0  0.00000000000E+00  0.00000000000E+00 -0.91634626308E+03  0.91634626309E+03  0.25500000920E-02 0.  1.
    10030    2    1    2    0    0  0.00000000000E+00  0.00000000000E+00  0.30795144247E+03  0.21406439686E+04  0.21183773294E+04 0.  0.
        2    1    3    3  502    0  0.42198920205E+03 -0.97147515321E+03  0.14744501647E+03  0.10693824820E+04  0.25500000920E-02 0.  1.
       -2    1    3    3    0  502 -0.42198920205E+03  0.97147515321E+03  0.16050642600E+03  0.10712614866E+04  0.25500000920E-02 0. -1.
</event>
<event>
 5   0  0.4200061E-05  0.2114951E+04  0.7818609E-02  0.8554686E-01
        1   -1    0    0  501    0  0.00000000000E+00  0.00000000000E+00  0.12913257881E+04  0.12913257881E+04  0.50400001928E-02 0.  1.
       -1   -1    0    0    0  501  0.00000000000E+00  0.00000000000E+00 -0.86597376849E+03  0.86597376851E+03  0.50400001928E-02 0. -1.
    10030    2    1    2    0    0  0.00000000000E+00  0.00000000000E+00  0.42535201958E+03  0.21572995566E+04  0.21149508354E+04 0.  0.
        4    1    3    3  502    0  0.19509964660E+03 -0.35438983697E+02  0.12721916858E+04  0.12875531414E+04  0.12699999809E+01 0.  1.
       -4    1    3    3    0  502 -0.19509964660E+03  0.35438983697E+02 -0.84683966618E+03  0.86974641521E+03  0.12699999809E+01 0. -1.
</event>
<event>
 5   0  0.8872777E-05  0.2098864E+04  0.7818609E-02  0.8561744E-01
        2   -1    0    0  501    0  0.00000000000E+00  0.00000000000E+00  0.10430853267E+04  0.10430853267E+04  0.25500000920E-02 0. -1.
       -2   -1    0    0    0  501  0.00000000000E+00  0.00000000000E+00 -0.10558176570E+04  0.10558176570E+04  0.25500000920E-02 0.  1.
    10030    2    1    2    0    0  0.00000000000E+00  0.00000000000E+00 -0.12732330283E+02  0.20989029837E+04  0.20988643650E+04 0.  0.
        3    1    3    3  502    0  0.49858190520E+03  0.61040858652E+03 -0.69928968572E+03  0.10536548930E+04  0.10100000352E+00 0.  1.
       -3    1    3    3    0  502 -0.49858190520E+03 -0.61040858652E+03  0.68655735544E+03  0.10452480907E+04  0.10100000352E+00 0. -1.
</event>
<event>
 5   0  0.8547605E-05  0.2064879E+04  0.7818609E-02  0.8576874E-01
        2   -1    0    0  501    0  0.00000000000E+00  0.00000000000E+00  0.18130698328E+04  0.18130698328E+04  0.25500000920E-02 0. -1.
       -2   -1    0    0    0  501  0.00000000000E+00  0.00000000000E+00 -0.58791530359E+03  0.58791530359E+03  0.25500000920E-02 0.  1.
    10030    2    1    2    0    0  0.00000000000E+00  0.00000000000E+00  0.12251545292E+04  0.24009851364E+04  0.20648791744E+04 0.  0.
        4    1    3    3  502    0 -0.43441862382E+03 -0.93193592123E+03  0.50408498662E+03  0.11451320398E+04  0.12699999809E+01 0. -1.
       -4    1    3    3    0  502  0.43441862382E+03  0.93193592123E+03  0.72106954260E+03  0.12558530966E+04  0.12699999809E+01 0.  1.
</event>
<event>
 5   0  0.4182977E-05  0.2119324E+04  0.7818609E-02  0.8552778E-01
        1   -1    0    0  501    0  0.00000000000E+00  0.00000000000E+00  0.65569668830E+03  0.65569668831E+03  0.50400001928E-02 0.  1.
       -1   -1    0    0    0  501  0.00000000000E+00  0.00000000000E+00 -0.17125044637E+04  0.17125044637E+04  0.50400001928E-02 0. -1.
    10030    2    1    2    0    0  0.00000000000E+00  0.00000000000E+00 -0.10568077754E+04  0.23682011520E+04  0.21193239540E+04 0.  0.
        1    1    3    3  502    0  0.32930726616E+03  0.56312608253E+03 -0.14615296522E+04  0.16005071648E+04  0.50400001928E-02 0. -1.
       -1    1    3    3    0  502 -0.32930726616E+03 -0.56312608253E+03  0.40472187680E+03  0.76769398719E+03  0.50400001928E-02 0.  1.
</event>
<event>
 5   0  0.9086985E-05  0.2137330E+04  0.7818609E-02  0.8544975E-01
        2   -1    0    0  501    0  0.00000000000E+00  0.00000000000E+00  0.18573838704E+04  0.18573838704E+04  0.25500000920E-02 0. -1.
       -2   -1    0    0    0  501  0.00000000000E+00  0.00000000000E+00 -0.61486749545E+03  0.61486749546E+03  0.25500000920E-02 0.  1.
    10030    2    1    2    0    0  0.00000000000E+00  0.00000000000E+00  0.12425163750E+04  0.24722513659E+04  0.21373300807E+04 0.  0.
        5    1    3    3  502    0  0.20045479662E+02  0.10286415612E+04  0.28697847541E+03  0.10681217244E+04  0.46999998093E+01 0. -1.
       -5    1    3    3    0  502 -0.20045479662E+02 -0.10286415612E+04  0.95553789955E+03  0.14041296415E+04  0.46999998093E+01 0.  1.
</event>
<event>
 5   0  0.3176125E-05  0.2076285E+04  0.7818609E-02  0.8571762E-01
        3   -1    0    0  501    0  0.00000000000E+00  0.00000000000E+00  0.75414787717E+03  0.75414788394E+03  0.10100000352E+00 0. -1.
       -3   -1    0    0    0  501  0.00000000000E+00  0.00000000000E+00 -0.14290831875E+04  0.14290831911E+04  0.10100000352E+00 0.  1.
    10030    2    1    2    0    0  0.00000000000E+00  0.00000000000E+00 -0.67493531032E+03  0.21832310750E+04  0.20762852053E+04 0.  0.
        5    1    3    3  502    0 -0.24553466841E+03 -0.71722956477E+03  0.40829745702E+03  0.86106586588E+03  0.46999998093E+01 0. -1.
       -5    1    3    3    0  502  0.24553466841E+03  0.71722956477E+03 -0.10832327673E+04  0.13221652091E+04  0.46999998093E+01 0.  1.
</event>
<event>
 5   0  0.8858590E-05  0.2103785E+04  0.7818609E-02  0.8559578E-01
       -2   -1    0    0    0  501  0.00000000000E+00  0.00000000000E+00  0.97298011792E+03  0.97298011792E+03  0.25500000920E-02 0.  1.
        2   -1    0    0  501    0  0.00000000000E+00  0.00000000000E+00 -0.11372046380E+04  0.11372046380E+04  0.25500000920E-02 0. -1.
    10030    2    1    2    0    0  0.00000000000E+00  0.00000000000E+00 -0.16422452009E+03  0.21101847559E+04  0.21037846875E+04 0.  0.
        1    1    3    3  502    0  0.59473841311E+02 -0.10429845971E+04 -0.20546399923E+03  0.10646921915E+04  0.50400001928E-02 0. -1.
       -1    1    3    3    0  502 -0.59473841311E+02  0.10429845971E+04  0.41239479142E+02  0.10454925644E+04  0.50400001928E-02 0.  1.
</event>
<event>
 5   0  0.8872777E-05  0.2065762E+04  0.7818609E-02  0.8576477E-01
       -2   -1    0    0    0  501  0.00000000000E+00  0.00000000000E+00  0.70967708888E+03  0.70967708889E+03  0.25500000920E-02 0.  1.
        2   -1    0    0  501    0  0.00000000000E+00  0.00000000000E+00 -0.15032803785E+04  0.15032803785E+04  0.25500000920E-02 0. -1.
    10030    2    1    2    0    0  0.00000000000E+00  0.00000000000E+00 -0.79360328962E+03  0.22129574674E+04  0.20657624673E+04 0.  0.
        3    1    3    3  502    0  0.91807000016E+03 -0.42678020920E+03 -0.17765280660E+03  0.10278883218E+04  0.10100000352E+00 0.  1.
       -3    1    3    3    0  502 -0.91807000016E+03  0.42678020920E+03 -0.61595048302E+03  0.11850691456E+04  0.10100000352E+00 0. -1.
</event>
<event>
 5   0  0.4182977E-05  0.2112722E+04  0.7818609E-02  0.8555660E-01
        1   -1    0    0  501    0  0.00000000000E+00  0.00000000000E+00  0.20821565159E+04  0.20821565159E+04  0.50400001928E-02 0. -1.
       -1   -1    0    0    0  501  0.00000000000E+00  0.00000000000E+00 -0.53593424299E+03  0.53593424302E+03  0.50400001928E-02 0.  1.
    10030    2    1    2    0    0  0.00000000000E+00  0.00000000000E+00  0.15462222729E+04  0.26180907589E+04  0.21127223918E+04 0.  0.
        1    1    3    3  502    0 -0.56408726970E+03  0.88624991506E+03  0.63586916401E+03  0.12279914306E+04  0.50400001928E-02 0. -1.
       -1    1    3    3    0  502  0.56408726970E+03 -0.88624991506E+03  0.91035310892E+03  0.13900993284E+04  0.50400001928E-02 0.  1.
</event>
<event>
 5   0  0.4050368E-05  0.2175790E+04  0.7818609E-02  0.8528573E-01
       -1   -1    0    0    0  501  0.00000000000E+00  0.00000000000E+00  0.13085215359E+04  0.13085215359E+04  0.50400001928E-02 0. -1.
        1   -1    0    0  501    0  0.00000000000E+00  0.00000000000E+00 -0.90446749894E+03  0.90446749896E+03  0.50400001928E-02 0.  1.
    10030    2    1    2    0    0  0.00000000000E+00  0.00000000000E+00  0.40405403692E+03  0.22129890348E+04  0.21757896965E+04 0.  0.
        2    1    3    3  502    0  0.75792253810E+03  0.27230947563E+02  0.99531509949E+03  0.12513353849E+04  0.25500000920E-02 0. -1.
       -2    1    3    3    0  502 -0.75792253810E+03 -0.27230947563E+02 -0.59126106257E+03  0.96165364991E+03  0.25500000920E-02 0.  1.
</event>
<event>
 5   0  0.8858590E-05  0.2108759E+04  0.7818609E-02  0.8557395E-01
        2   -1    0    0  501    0  0.00000000000E+00  0.00000000000E+00  0.10968268430E+04  0.10968268430E+04  0.25500000920E-02 0. -1.
       -2   -1    0    0    0  501  0.00000000000E+00  0.00000000000E+00 -0.10135743983E+04  0.10135743983E+04  0.25500000920E-02 0.  1.
    10030    2    1    2    0    0  0.00000000000E+00  0.00000000000E+00  0.83252444720E+02  0.21104012413E+04  0.21087585044E+04 0.  0.
        1    1    3    3  502    0  0.43508585360E+03 -0.29635964589E+03  0.95589514980E+03  0.10912672803E+04  0.50400001928E-02 0. -1.
       -1    1    3    3    0  502 -0.43508585360E+03  0.29635964589E+03 -0.87264270508E+03  0.10191339610E+04  0.50400001928E-02 0.  1.
</event>
<event>
 5   0  0.8872777E-05  0.2042242E+04  0.7818609E-02  0.8587122E-01
        2   -1    0    0  501    0  0.00000000000E+00  0.00000000000E+00  0.16533246995E+04  0.16533246995E+04  0.25500000920E-02 0. -1.
       -2   -1    0    0    0  501  0.00000000000E+00  0.00000000000E+00 -0.63066114627E+03  0.63066114627E+03  0.25500000920E-02 0.  1.
    10030    2    1    2    0    0  0.00000000000E+00  0.00000000000E+00  0.10226635532E+04  0.22839858458E+04  0.20422415627E+04 0.  0.
        3    1    3    3  502    0 -0.89401959147E+03 -0.10363308862E+03  0.10507962288E+04  0.13835402313E+04  0.10100000352E+00 0. -1.
       -3    1    3    3    0  502  0.89401959147E+03  0.10363308862E+03 -0.28132675554E+02  0.90044561448E+03  0.10100000352E+00 0.  1.
</event>
<event>
 5   0  0.4128678E-05  0.2107174E+04  0.7818609E-02  0.8558090E-01
       -1   -1    0    0    0  501  0.00000000000E+00  0.00000000000E+00  0.53744252351E+03  0.53744252354E+03  0.50400001928E-02 0.  1.
        1   -1    0    0  501    0  0.00000000000E+00  0.00000000000E+00 -0.20654226158E+04  0.20654226159E+04  0.50400001928E-02 0. -1.
    10030    2    1    2    0    0  0.00000000000E+00  0.00000000000E+00 -0.15279800923E+04  0.26028651394E+04  0.21071743571E+04 0.  0.
        5    1    3    3  502    0 -0.56588523854E+02  0.21113910136E+03  0.50911108070E+03  0.55407414995E+03  0.46999998093E+01 0.  1.
       -5    1    3    3    0  502  0.56588523854E+02 -0.21113910136E+03 -0.20370911730E+04  0.20487909894E+04  0.46999998093E+01 0. -1.
</event>
<event>
 5   0  0.8872777E-05  0.2094754E+04  0.7818609E-02  0.8563558E-01
        2   -1    0    0  501    0  0.00000000000E+00  0.00000000000E+00  0.10302756578E+04  0.10302756578E+04  0.25500000920E-02 0. -1.
       -2   -1    0    0    0  501  0.00000000000E+00  0.00000000000E+00 -0.10647616963E+04  0.10647616963E+04  0.25500000920E-02 0.  1.
    10030    2    1    2    0    0  0.00000000000E+00  0.00000000000E+00 -0.34486038500E+02  0.20950373541E+04  0.20947535006E+04 0.  0.
        3    1    3    3  502    0 -0.34251557948E+03 -0.97051807724E+03 -0.21162929667E+03  0.10507184351E+04  0.10100000352E+00 0. -1.
       -3    1    3    3    0  502  0.34251557948E+03  0.97051807724E+03  0.17714325817E+03  0.10443189190E+04  0.10100000352E+00 0.  1.
</event>
<event>
 5   0  0.4050368E-05  0.2117871E+04  0.7818609E-02  0.8553412E-01
        1   -1    0    0  501    0  0.00000000000E+00  0.00000000000E+00  0.22859665056E+04  0.22859665056E+04  0.50400001928E-02 0.  1.
       -1   -1    0    0    0  501  0.00000000000E+00  0.00000000000E+00 -0.49053391154E+03  0.49053391157E+03  0.50400001928E-02 0. -1.
    10030    2    1    2    0    0  0.00000000000E+00  0.00000000000E+00  0.17954325940E+04  0.27765004172E+04  0.21178707153E+04 0.  0.
        2    1    3    3  502    0  0.66462585353E+03 -0.41960060902E+03 -0.32578121545E+02  0.78667244154E+03  0.25500000920E-02 0. -1.
       -2    1    3    3    0  502 -0.66462585353E+03  0.41960060902E+03  0.18280107156E+04  0.19898279756E+04  0.25500000920E-02 0.  1.
</event>
<event>
 5   0  0.4200061E-05  0.2108979E+04  0.7818609E-02  0.8557298E-01
       -1   -1    0    0    0  501  0.00000000000E+00  0.00000000000E+00  0.72358901626E+03  0.72358901628E+03  0.50400001928E-02 0. -1.
        1   -1    0    0  501    0  0.00000000000E+00  0.00000000000E+00 -0.15367121942E+04  0.15367121942E+04  0.50400001928E-02 0.  1.
    10030    2    1    2    0    0  0.00000000000E+00  0.00000000000E+00 -0.81312317795E+03  0.22603012105E+04  0.21089789614E+04 0.  0.
        4    1    3    3  502    0  0.34772582428E+03 -0.91465998110E+02 -0.14689841747E+04  0.15123476440E+04  0.12699999809E+01 0.  1.
       -4    1    3    3    0  502 -0.34772582428E+03  0.91465998110E+02  0.65586099679E+03  0.74795356653E+03  0.12699999809E+01 0. -1.
</event>
<event>
 5   0  0.8872777E-05  0.2110991E+04  0.7818609E-02  0.8556417E-01
       -2   -1    0    0    0  501  0.00000000000E+00  0.00000000000E+00  0.12144422433E+04  0.12144422433E+04  0.25500000920E-02 0. -1.
        2   -1    0    0  501    0  0.00000000000E+00  0.00000000000E+00 -0.91735191183E+03  0.91735191183E+03  0.25500000920E-02 0.  1.
    10030    2    1    2    0    0  0.00000000000E+00  0.00000000000E+00  0.29709033144E+03  0.21317941551E+04  0.21109911546E+04 0.  0.
        3    1    3    3  502    0 -0.63142134052E+03 -0.64382187673E+03  0.70246803573E+03  0.11430926776E+04  0.10100000352E+00 0. -1.
       -3    1    3    3    0  502  0.63142134052E+03  0.64382187673E+03 -0.40537770429E+03  0.98870147747E+03  0.10100000352E+00 0.  1.
</event>
<event>
 5   0  0.4174093E-05  0.2092975E+04  0.7818609E-02  0.8564344E-01
       -1   -1    0    0    0  501  0.00000000000E+00  0.00000000000E+00  0.62416701091E+03  0.62416701093E+03  0.50400001928E-02 0.  1.
        1   -1    0    0  501    0  0.00000000000E+00  0.00000000000E+00 -0.17545557301E+04  0.17545557302E+04  0.50400001928E-02 0. -1.
    10030    2    1    2    0    0  0.00000000000E+00  0.00000000000E+00 -0.11303887192E+04  0.23787227411E+04  0.20929747305E+04 0.  0.
        3    1    3    3  502    0  0.78998027852E+03 -0.29711467896E+03  0.13797514987E+03  0.85520940423E+03  0.10100000352E+00 0.  1.
       -3    1    3    3    0  502 -0.78998027852E+03  0.29711467896E+03 -0.12683638691E+04  0.15235133368E+04  0.10100000352E+00 0. -1.
</event>
<event>
 5   0  0.4182977E-05  0.2090146E+04  0.7818609E-02  0.8565596E-01
       -1   -1    0    0    0  501  0.00000000000E+00  0.00000000000E+00  0.44855268248E+03  0.44855268251E+03  0.50400001928E-02 0.  1.
        1   -1    0    0  501    0  0.00000000000E+00  0.00000000000E+00 -0.24348930999E+04  0.24348930999E+04  0.50400001928E-02 0. -1.
    10030    2    1    2    0    0  0.00000000000E+00  0.00000000000E+00 -0.19863404174E+04  0.28834457824E+04  0.20901462452E+04 0.  0.
        1    1    3    3  502    0  0.10545744370E+03 -0.36766775606E+03 -0.23348610141E+04  0.23659832642E+04  0.50400001928E-02 0. -1.
       -1    1    3    3    0  502 -0.10545744370E+03  0.36766775606E+03  0.34852059676E+03  0.51746251813E+03  0.50400001928E-02 0.  1.
</event>
<event>
 5   0  0.4200061E-05  0.2095993E+04  0.7818609E-02  0.8563010E-01
       -1   -1    0    0    0  501  0.00000000000E+00  0.00000000000E+00  0.12665688037E+04  0.12665688037E+04  0.50400001928E-02 0.  1.
        1   -1    0    0  501    0  0.00000000000E+00  0.00000000000E+00 -0.86714371780E+03  0.86714371782E+03  0.50400001928E-02 0. -1.
    10030    2    1    2    0    0  0.00000000000E+00  0.00000000000E+00  0.39942508591E+03  0.21337125215E+04  0.20959934936E+04 0.  0.
        4    1    3    3  502    0  0.28579361980E+03  0.83580962654E+03 -0.37438639203E+03  0.95938652710E+03  0.12699999809E+01 0. -1.
       -4    1    3    3    0  502 -0.28579361980E+03 -0.83580962654E+03  0.77381147794E+03  0.11743259944E+04  0.12699999809E+01 0.  1.
</event>
<event>
 5   0  0.9012466E-05  0.2093520E+04  0.7818609E-02  0.8564103E-01
       -2   -1    0    0    0  501  0.00000000000E+00  0.00000000000E+00  0.14093374906E+04  0.14093374906E+04  0.25500000920E-02 0.  1.
        2   -1    0    0  501    0  0.00000000000E+00  0.00000000000E+00 -0.77746218339E+03  0.77746218340E+03  0.25500000920E-02 0. -1.
    10030    2    1    2    0    0  0.00000000000E+00  0.00000000000E+00  0.63187530723E+03  0.21867996740E+04  0.20935201003E+04 0.  0.
        2    1    3    3  502    0  0.25096212218E+03 -0.81971630873E+03 -0.31148325071E+03  0.91210669828E+03  0.25500000920E-02 0. -1.
       -2    1    3    3    0  502 -0.25096212218E+03  0.81971630873E+03  0.94335855794E+03  0.12746929757E+04  0.25500000920E-02 0.  1.
</event>
<event>
 5   0  0.9012466E-05  0.2092009E+04  0.7818609E-02  0.8564772E-01
        2   -1    0    0  501    0  0.00000000000E+00  0.00000000000E+00  0.21417246638E+04  0.21417246638E+04  0.25500000920E-02 0. -1.
       -2   -1    0    0    0  501  0.00000000000E+00  0.00000000000E+00 -0.51086175077E+03  0.51086175077E+03  0.25500000920E-02 0.  1.
    10030    2    1    2    0    0  0.00000000000E+00  0.00000000000E+00  0.16308629131E+04  0.26525864146E+04  0.20920088063E+04 0.  0.
        2    1    3    3  502    0  0.13757437094E+02 -0.69322088464E+03 -0.17761851564E+03  0.71574632313E+03  0.25500000920E-02 0.  1.
       -2    1    3    3    0  502 -0.13757437094E+02  0.69322088464E+03  0.18084814287E+04  0.19368400915E+04  0.25500000920E-02 0. -1.
</event>
<event>
 5   0  0.9012466E-05  0.2154017E+04  0.7818609E-02  0.8537815E-01
        2   -1    0    0  501    0  0.00000000000E+00  0.00000000000E+00  0.12141992801E+04  0.12141992801E+04  0.25500000920E-02 0. -1.
       -2   -1    0    0    0  501  0.00000000000E+00  0.00000000000E+00 -0.95531834783E+03  0.95531834784E+03  0.25500000920E-02 0.  1.
    10030    2    1    2    0    0  0.00000000000E+00  0.00000000000E+00  0.25888093226E+03  0.21695176279E+04  0.21540165739E+04 0.  0.
        2    1    3    3  502    0  0.75039038426E+03 -0.44719907406E+03 -0.50507253727E+03  0.10090446019E+04  0.25500000920E-02 0. -1.
       -2    1    3    3    0  502 -0.75039038426E+03  0.44719907406E+03  0.76395346954E+03  0.11604730261E+04  0.25500000920E-02 0.  1.
</event>
<event>
 5   0  0.4050368E-05  0.2066125E+04  0.7818609E-02  0.8576314E-01
        1   -1    0    0  501    0  0.00000000000E+00  0.00000000000E+00  0.38817553438E+03  0.38817553441E+03  0.50400001928E-02 0.  1.
       -1   -1    0    0    0  501  0.00000000000E+00  0.00000000000E+00 -0.27493181088E+04  0.27493181088E+04  0.50400001928E-02 0. -1.
    10030    2    1    2    0    0  0.00000000000E+00  0.00000000000E+00 -0.23611425744E+04  0.31374936432E+04  0.20661249005E+04 0.  0.
        2    1    3    3  502    0 -0.25780767007E+03 -0.51630872330E+03  0.12057798727E+03  0.58955792211E+03  0.25500000920E-02 0.  1.
       -2    1    3    3    0  502  0.25780767007E+03  0.51630872330E+03 -0.24817205617E+04  0.25479357211E+04  0.25500000920E-02 0. -1.
</event>
<event>
 5   0  0.4200061E-05  0.2092878E+04  0.7818609E-02  0.8564387E-01
        1   -1    0    0  501    0  0.00000000000E+00  0.00000000000E+00  0.13240382444E+04  0.13240382444E+04  0.50400001928E-02 0.  1.
       -1   -1    0    0    0  501  0.00000000000E+00  0.00000000000E+00 -0.82704148241E+03  0.82704148242E+03  0.50400001928E-02 0. -1.
    10030    2    1    2    0    0  0.00000000000E+00  0.00000000000E+00  0.49699676199E+03  0.21510797268E+04  0.20928779730E+04 0.  0.
        4    1    3    3  502    0  0.59488240155E+03 -0.37349092222E+02  0.11325058657E+04  0.12797855973E+04  0.12699999809E+01 0.  1.
       -4    1    3    3    0  502 -0.59488240155E+03  0.37349092222E+02 -0.63550910370E+03  0.87129412952E+03  0.12699999809E+01 0. -1.
</event>
<event>
 5   0  0.4174093E-05  0.2114692E+04  0.7818609E-02  0.8554799E-01
        1   -1    0    0  501    0  0.00000000000E+00  0.00000000000E+00  0.59557302822E+03  0.59557302824E+03  0.50400001928E-02 0. -1.
       -1   -1    0    0    0  501  0.00000000000E+00  0.00000000000E+00 -0.18771514857E+04  0.18771514857E+04  0.50400001928E-02 0.  1.
    10030    2    1    2    0    0  0.00000000000E+00  0.00000000000E+00 -0.12815784575E+04  0.24727245140E+04  0.21146922186E+04 0.  0.
        3    1    3    3  502    0 -0.54795428318E+03  0.66973008890E+03  0.69692063815E+02  0.86812976127E+03  0.10100000352E+00 0. -1.
       -3    1    3    3    0  502  0.54795428318E+03 -0.66973008890E+03 -0.13512705213E+04  0.16045947527E+04  0.10100000352E+00 0.  1.
</event>
<event>
 5   0  0.9086985E-05  0.2113215E+04  0.7818609E-02  0.8555444E-01
       -2   -1    0    0    0  501  0.00000000000E+00  0.00000000000E+00  0.84222118279E+03  0.84222118280E+03  0.25500000920E-02 0. -1.
        2   -1    0    0  501    0  0.00000000000E+00  0.00000000000E+00 -0.13255659288E+04  0.13255659288E+04  0.25500000920E-02 0.  1.
    10030    2    1    2    0    0  0.00000000000E+00  0.00000000000E+00 -0.48334474600E+03  0.21677871116E+04  0.21132152795E+04 0.  0.
        5    1    3    3  502    0 -0.28714073602E+03 -0.73790527949E+03 -0.95934142643E+03  0.12439099912E+04  0.46999998093E+01 0.  1.
       -5    1    3    3    0  502  0.28714073602E+03  0.73790527949E+03  0.47599668043E+03  0.92387712038E+03  0.46999998093E+01 0. -1.
</event>
<event>
 5   0  0.4200061E-05  0.2102751E+04  0.7818609E-02  0.8560033E-01
       -1   -1    0    0    0  501  0.00000000000E+00  0.00000000000E+00  0.82977954600E+03  0.82977954602E+03  0.50400001928E-02 0.  1.
        1   -1    0    0  501    0  0.00000000000E+00  0.00000000000E+00 -0.13321494918E+04  0.13321494918E+04  0.50400001928E-02 0. -1.
    10030    2    1    2    0    0  0.00000000000E+00  0.00000000000E+00 -0.50236994582E+03  0.21619290379E+04  0.21027509606E+04 0.  0.
        4    1    3    3  502    0  0.63552480822E+03 -0.57314898498E+03 -0.87910799725E+03  0.12268757168E+04  0.12699999809E+01 0. -1.
       -4    1    3    3    0  502 -0.63552480822E+03  0.57314898498E+03  0.37673805142E+03  0.93505332101E+03  0.12699999809E+01 0.  1.
</event>
<event>
 5   0  0.9086985E-05  0.2112693E+04  0.7818609E-02  0.8555673E-01
        2   -1    0    0  501    0  0.00000000000E+00  0.00000000000E+00  0.26108106700E+04  0.26108106700E+04  0.25500000920E-02 0. -1.
       -2   -1    0    0    0  501  0.00000000000E+00  0.00000000000E+00 -0.42740272698E+03  0.42740272699E+03  0.25500000920E-02 0.  1.
    10030    2    1    2    0    0  0.00000000000E+00  0.00000000000E+00  0.21834079431E+04  0.30382133970E+04  0.21126926895E+04 0.  0.
        5    1    3    3  502    0 -0.94008648009E+02 -0.51198911849E+00  0.26047678048E+04  0.26064679731E+04  0.46999998093E+01 0. -1.
       -5    1    3    3    0  502  0.94008648009E+02  0.51198911849E+00 -0.42135986171E+03  0.43174542394E+03  0.46999998093E+01 0.  1.
</event>
<event>
 5   0  0.4200061E-05  0.2110497E+04  0.7818609E-02  0.8556633E-01
        1   -1    0    0  501    0  0.00000000000E+00  0.00000000000E+00  0.81105504220E+03  0.81105504222E+03  0.50400001928E-02 0. -1.
       -1   -1    0    0    0  501  0.00000000000E+00  0.00000000000E+00 -0.13729639010E+04  0.13729639010E+04  0.50400001928E-02 0.  1.
    10030    2    1    2    0    0  0.00000000000E+00  0.00000000000E+00 -0.56190885876E+03  0.21840189432E+04  0.21104969033E+04 0.  0.
        4    1    3    3  502    0  0.19858824625E+03  0.89478848627E+03  0.26020063481E+03  0.95277999033E+03  0.12699999809E+01 0. -1.
       -4    1    3    3    0  502 -0.19858824625E+03 -0.89478848627E+03 -0.82210949357E+03  0.12312389529E+04  0.12699999809E+01 0.  1.
</event>
<event>
 5   0  0.4128678E-05  0.2091456E+04  0.7818609E-02  0.8565017E-01
       -1   -1    0    0    0  501  0.00000000000E+00  0.00000000000E+00  0.66587880078E+03  0.66587880080E+03  0.50400001928E-02 0.  1.
        1   -1    0    0  501    0  0.00000000000E+00  0.00000000000E+00 -0.16422606803E+04  0.16422606803E+04  0.50400001928E-02 0. -1.
    10030    2    1    2    0    0  0.00000000000E+00  0.00000000000E+00 -0.97638187950E+03  0.23081394811E+04  0.20914555433E+04 0.  0.
        5    1    3    3  502    0 -0.12982620877E+03 -0.22982208058E+02  0.65665775470E+03  0.66977945861E+03  0.46999998093E+01 0.  1.
       -5    1    3    3    0  502  0.12982620877E+03  0.22982208058E+02 -0.16330396342E+04  0.16383600225E+04  0.46999998093E+01 0. -1.
</event>
<event>
 5   0  0.4174093E-05  0.2104748E+04  0.7818609E-02  0.8559155E-01
       -1   -1    0    0    0  501  0.00000000000E+00  0.00000000000E+00  0.76733253278E+03  0.76733253279E+03  0.50400001928E-02 0. -1.
        1   -1    0    0  501    0  0.00000000000E+00  0.00000000000E+00 -0.14432998863E+04  0.14432998863E+04  0.50400001928E-02 0.  1.
    10030    2    1    2    0    0  0.00000000000E+00  0.00000000000E+00 -0.67596735354E+03  0.22106324191E+04  0.21047479254E+04 0.  0.
        3    1    3    3  502    0 -0.93139599832E+03 -0.10335266573E+03 -0.84093803325E+03  0.12591096319E+04  0.10100000352E+00 0.  1.
       -3    1    3    3    0  502  0.93139599832E+03  0.10335266573E+03  0.16497067971E+03  0.95152278720E+03  0.10100000352E+00 0. -1.
</event>
<event>
 5   0  0.4182977E-05  0.2041564E+04  0.7818609E-02  0.8587431E-01
       -1   -1    0    0    0  501  0.00000000000E+00  0.00000000000E+00  0.43356010942E+03  0.43356010945E+03  0.50400001928E-02 0.  1.
        1   -1    0    0  501    0  0.00000000000E+00  0.00000000000E+00 -0.24033469902E+04  0.24033469902E+04  0.50400001928E-02 0. -1.
    10030    2    1    2    0    0  0.00000000000E+00  0.00000000000E+00 -0.19697868808E+04  0.28369070996E+04  0.20415635029E+04 0.  0.
        1    1    3    3  502    0  0.30062687351E+03 -0.98022456860E+02 -0.23335770657E+04  0.23549027243E+04  0.50400001928E-02 0. -1.
       -1    1    3    3    0  502 -0.30062687351E+03  0.98022456860E+02  0.36379018498E+03  0.48200437533E+03  0.50400001928E-02 0.  1.
</event>
<event>
 5   0  0.8547605E-05  0.2114788E+04  0.7818609E-02  0.8554757E-01
        2   -1    0    0  501    0  0.00000000000E+00  0.00000000000E+00  0.11591067342E+04  0.11591067342E+04  0.25500000920E-02 0.  1.
       -2   -1    0    0    0  501  0.00000000000E+00  0.00000000000E+00 -0.96460650146E+03  0.96460650146E+03  0.25500000920E-02 0. -1.
    10030    2    1    2    0    0  0.00000000000E+00  0.00000000000E+00  0.19450023276E+03  0.21237132357E+04  0.21147878302E+04 0.  0.
        4    1    3    3  502    0 -0.56527651459E+03  0.48604325537E+03  0.85028470697E+03  0.11308232752E+04  0.12699999809E+01 0.  1.
       -4    1    3    3    0  502  0.56527651459E+03 -0.48604325537E+03 -0.65578447421E+03  0.99288996044E+03  0.12699999809E+01 0. -1.
</event>
<event>
 5   0  0.9012466E-05  0.2100849E+04  0.7818609E-02  0.8560870E-01
       -2   -1    0    0    0  501  0.00000000000E+00  0.00000000000E+00  0.12065749737E+04  0.12065749737E+04  0.25500000920E-02 0. -1.
        2   -1    0    0  501    0  0.00000000000E+00  0.00000000000E+00 -0.91448206223E+03  0.91448206223E+03  0.25500000920E-02 0.  1.
    10030    2    1    2    0    0  0.00000000000E+00  0.00000000000E+00  0.29209291151E+03  0.21210570360E+04  0.21008485621E+04 0.  0.
        2    1    3    3  502    0 -0.43838508295E+03  0.36020639782E+02 -0.81702241168E+03  0.92790332936E+03  0.25500000920E-02 0.  1.
       -2    1    3    3    0  502  0.43838508295E+03 -0.36020639782E+02  0.11091153232E+04  0.11931537066E+04  0.25500000920E-02 0. -1.
</event>
<event>
 5   0  0.4174093E-05  0.2187367E+04  0.7818609E-02  0.8523705E-01
        1   -1    0    0  501    0  0.00000000000E+00  0.00000000000E+00  0.19867783742E+04  0.19867783742E+04  0.50400001928E-02 0. -1.
       -1   -1    0    0    0  501  0.00000000000E+00  0.00000000000E+00 -0.60205208482E+03  0.60205208484E+03  0.50400001928E-02 0.  1.
    10030    2    1    2    0    0  0.00000000000E+00  0.00000000000E+00  0.13847262894E+04  0.25888304590E+04  0.21873674244E+04 0.  0.
        3    1    3    3  502    0  0.15291218557E+02 -0.60528120778E+02 -0.59994151957E+03  0.60318099430E+03  0.10100000352E+00 0.  1.
       -3    1    3    3    0  502 -0.15291218557E+02  0.60528120778E+02  0.19846678090E+04  0.19856494648E+04  0.10100000352E+00 0. -1.
</event>
<event>
 5   0  0.8872777E-05  0.2082646E+04  0.7818609E-02  0.8568927E-01
        2   -1    0    0  501    0  0.00000000000E+00  0.00000000000E+00  0.13790291185E+04  0.13790291185E+04  0.25500000920E-02 0. -1.
       -2   -1    0    0    0  501  0.00000000000E+00  0.00000000000E+00 -0.78631666622E+03  0.78631666622E+03  0.25500000920E-02 0.  1.
    10030    2    1    2    0    0  0.00000000000E+00  0.00000000000E+00  0.59271245232E+03  0.21653457848E+04  0.20826459892E+04 0.  0.
        3    1    3    3  502    0  0.18059191391E+03  0.24867606163E+03  0.13308015543E+04  0.13658279578E+04  0.10100000352E+00 0. -1.
       -3    1    3    3    0  502 -0.18059191391E+03 -0.24867606163E+03 -0.73808910201E+03  0.79951782701E+03  0.10100000352E+00 0.  1.
</event>
<event>
 5   0  0.4182977E-05  0.2100403E+04  0.7818609E-02  0.8561066E-01
       -1   -1    0    0    0  501  0.00000000000E+00  0.00000000000E+00  0.76843105559E+03  0.76843105560E+03  0.50400001928E-02 0.  1.
        1   -1    0    0  501    0  0.00000000000E+00  0.00000000000E+00 -0.14352916458E+04  0.14352916458E+04  0.50400001928E-02 0. -1.
    10030    2    1    2    0    0  0.00000000000E+00  0.00000000000E+00 -0.66686059017E+03  0.22037227014E+04  0.21004025085E+04 0.  0.
        1    1    3    3  502    0 -0.38312876966E+03 -0.16823933016E+03 -0.13440523015E+04  0.14076820364E+04  0.50400001928E-02 0. -1.
       -1    1    3    3    0  502  0.38312876966E+03  0.16823933016E+03  0.67719171134E+03  0.79604066498E+03  0.50400001928E-02 0.  1.
</event>
<event>
 5   0  0.4200061E-05  0.2094931E+04  0.7818609E-02  0.8563480E-01
        1   -1    0    0  501    0  0.00000000000E+00  0.00000000000E+00  0.20522310180E+04  0.20522310180E+04  0.50400001928E-02 0.  1.
       -1   -1    0    0    0  501  0.00000000000E+00  0.00000000000E+00 -0.53462974985E+03  0.53462974987E+03  0.50400001928E-02 0. -1.
    10030    2    1    2    0    0  0.00000000000E+00  0.00000000000E+00  0.15176012681E+04  0.25868607678E+04  0.20949307920E+04 0.  0.
        4    1    3    3  502    0 -0.36899266501E+03  0.90417936915E+03  0.29105636157E+03  0.10190246989E+04  0.12699999809E+01 0. -1.
       -4    1    3    3    0  502  0.36899266501E+03 -0.90417936915E+03  0.12265449066E+04  0.15678360690E+04  0.12699999809E+01 0.  1.
</event>
<event>
 5   0  0.4128678E-05  0.2091174E+04  0.7818609E-02  0.8565141E-01
        1   -1    0    0  501    0  0.00000000000E+00  0.00000000000E+00  0.14842588975E+04  0.14842588975E+04  0.50400001928E-02 0.  1.
       -1   -1    0    0    0  501  0.00000000000E+00  0.00000000000E+00 -0.73656465737E+03  0.73656465739E+03  0.50400001928E-02 0. -1.
    10030    2    1    2    0    0  0.00000000000E+00  0.00000000000E+00  0.74769424009E+03  0.22208235549E+04  0.20911744511E+04 0.  0.
        5    1    3    3  502    0 -0.49804220490E+03  0.17869657837E+03 -0.58386806735E+03  0.78797367662E+03  0.46999998093E+01 0. -1.
       -5    1    3    3    0  502  0.49804220490E+03 -0.17869657837E+03  0.13315623074E+04  0.14328498782E+04  0.46999998093E+01 0.  1.
</event>
<event>
 5   0  0.8872777E-05  0.2134031E+04  0.7818609E-02  0.8546399E-01
       -2   -1    0    0    0  501  0.00000000000E+00  0.00000000000E+00  0.91834801831E+03  0.91834801831E+03  0.25500000920E-02 0. -1.
        2   -1    0    0  501    0  0.00000000000E+00  0.00000000000E+00 -0.12397498386E+04  0.12397498386E+04  0.25500000920E-02 0.  1.
    10030    2    1    2    0    0  0.00000000000E+00  0.00000000000E+00 -0.32140182024E+03  0.21580978569E+04  0.21340307471E+04 0.  0.
        3    1    3    3  502    0  0.58849215587E+03 -0.86305861183E+03 -0.38070580641E+03  0.11118138811E+04  0.10100000352E+00 0.  1.
       -3    1    3    3    0  502 -0.58849215587E+03  0.86305861183E+03  0.59303986173E+02  0.10462839758E+04  0.10100000352E+00 0. -1.
</event>
<event>
 5   0  0.4182977E-05  0.2099685E+04  0.7818609E-02  0.8561382E-01
        1   -1    0    0  501    0  0.00000000000E+00  0.00000000000E+00  0.15745199855E+04  0.15745199855E+04  0.50400001928E-02 0.  1.
       -1   -1    0    0    0  501  0.00000000000E+00  0.00000000000E+00 -0.70000325137E+03  0.70000325139E+03  0.50400001928E-02 0. -1.
    10030    2    1    2    0    0  0.00000000000E+00  0.00000000000E+00  0.87451673416E+03  0.22745232369E+04  0.20996848423E+04 0.  0.
        1    1    3    3  502    0 -0.56431228976E+03  0.85269757603E+03  0.17947771687E+03  0.10381492029E+04  0.50400001928E-02 0. -1.
       -1    1    3    3    0  502  0.56431228976E+03 -0.85269757603E+03  0.69503901729E+03  0.12363740341E+04  0.50400001928E-02 0.  1.
</event>
<event>
 5   0  0.8858590E-05  0.2091688E+04  0.7818609E-02  0.8564914E-01
       -2   -1    0    0    0  501  0.00000000000E+00  0.00000000000E+00  0.16326531408E+04  0.16326531408E+04  0.25500000920E-02 0.  1.
        2   -1    0    0  501    0  0.00000000000E+00  0.00000000000E+00 -0.66994623166E+03  0.66994623166E+03  0.25500000920E-02 0. -1.
    10030    2    1    2    0    0  0.00000000000E+00  0.00000000000E+00  0.96270690914E+03  0.23025993725E+04  0.20916881405E+04 0.  0.
        1    1    3    3  502    0 -0.97170777604E+03 -0.30499730565E+03  0.21957161091E+03  0.10418498216E+04  0.50400001928E-02 0. -1.
       -1    1    3    3    0  502  0.97170777604E+03  0.30499730565E+03  0.74313529823E+03  0.12607495508E+04  0.50400001928E-02 0.  1.
</event>
<event>
 5   0  0.4200061E-05  0.2061038E+04  0.7818609E-02  0.8578603E-01
       -1   -1    0    0    0  501  0.00000000000E+00  0.00000000000E+00  0.55206902452E+03  0.55206902454E+03  0.50400001928E-02 0.  1.
        1   -1    0    0  501    0  0.00000000000E+00  0.00000000000E+00 -0.19236167455E+04  0.19236167455E+04  0.50400001928E-02 0. -1.
    10030    2    1    2    0    0  0.00000000000E+00  0.00000000000E+00 -0.13715477210E+04  0.24756857701E+04  0.20610378165E+04 0.  0.
        4    1    3    3  502    0 -0.11771981532E+03 -0.70198761879E+03  0.20934849661E+03  0.74193866174E+03  0.12699999809E+01 0.  1.
       -4    1    3    3    0  502  0.11771981532E+03  0.70198761879E+03 -0.15808962176E+04  0.17337471083E+04  0.12699999809E+01 0. -1.
</event>
<event>
 5   0  0.4128678E-05  0.2200861E+04  0.7818609E-02  0.8518070E-01
       -1   -1    0    0    0  501  0.00000000000E+00  0.00000000000E+00  0.10371339207E+04  0.10371339207E+04  0.50400001928E-02 0. -1.
        1   -1    0    0  501    0  0.00000000000E+00  0.00000000000E+00 -0.11675902024E+04  0.11675902024E+04  0.50400001928E-02 0.  1.
    10030    2    1    2    0    0  0.00000000000E+00  0.00000000000E+00 -0.13045628164E+03  0.22047241231E+04  0.22008611082E+04 0.  0.
        5    1    3    3  502    0 -0.10115574691E+04 -0.40589130469E+03  0.86461054782E+02  0.10933864223E+04  0.46999998093E+01 0.  1.
       -5    1    3    3    0  502  0.10115574691E+04  0.40589130469E+03 -0.21691733642E+03  0.11113377008E+04  0.46999998093E+01 0. -1.
</event>
<event>
 5   0  0.4050368E-05  0.2075486E+04  0.7818609E-02  0.8572119E-01
        1   -1    0    0  501    0  0.00000000000E+00  0.00000000000E+00  0.11433061676E+04  0.11433061676E+04  0.50400001928E-02 0. -1.
       -1   -1    0    0    0  501  0.00000000000E+00  0.00000000000E+00 -0.94192697792E+03  0.94192697793E+03  0.50400001928E-02 0.  1.
    10030    2    1    2    0    0  0.00000000000E+00  0.00000000000E+00  0.20137918971E+03  0.20852331456E+04  0.20754863751E+04 0.  0.
        2    1    3    3  502    0  0.31002356412E+03  0.25950482545E+03 -0.85954637176E+03  0.94988279801E+03  0.25500000920E-02 0.  1.
       -2    1    3    3    0  502 -0.31002356412E+03 -0.25950482545E+03  0.10609255615E+04  0.11353503476E+04  0.25500000920E-02 0. -1.
</event>
<event>
 5   0  0.4050368E-05  0.2117848E+04  0.7818609E-02  0.8553422E-01
        1   -1    0    0  501    0  0.00000000000E+00  0.00000000000E+00  0.87783039879E+03  0.87783039881E+03  0.50400001928E-02 0. -1.
       -1   -1    0    0    0  501  0.00000000000E+00  0.00000000000E+00 -0.12773767842E+04  0.12773767842E+04  0.50400001928E-02 0.  1.
    10030    2    1    2    0    0  0.00000000000E+00  0.00000000000E+00 -0.39954638540E+03  0.21552071830E+04  0.21178481267E+04 0.  0.
        2    1    3    3  502    0 -0.76379391939E+03  0.13390723126E+02  0.54648367826E+03  0.93925761821E+03  0.25500000920E-02 0. -1.
       -2    1    3    3    0  502  0.76379391939E+03 -0.13390723126E+02 -0.94603006366E+03  0.12159495648E+04  0.25500000920E-02 0.  1.
</event>
<event>
 5   0  0.4128678E-05  0.2074972E+04  0.7818609E-02  0.8572349E-01
       -1   -1    0    0    0  501  0.00000000000E+00  0.00000000000E+00  0.85760996660E+03  0.85760996662E+03  0.50400001928E-02 0.  1.
        1   -1    0    0  501    0  0.00000000000E+00  0.00000000000E+00 -0.12550896369E+04  0.12550896369E+04  0.50400001928E-02 0. -1.
    10030    2    1    2    0    0  0.00000000000E+00  0.00000000000E+00 -0.39747967029E+03  0.21126996035E+04  0.20749721749E+04 0.  0.
        5    1    3    3  502    0  0.51049423377E+03 -0.20390619719E+02 -0.11181166699E+04  0.12293197784E+04  0.46999998093E+01 0. -1.
       -5    1    3    3    0  502 -0.51049423377E+03  0.20390619719E+02  0.72063699965E+03  0.88337982507E+03  0.46999998093E+01 0.  1.
</event>
<event>
 5   0  0.9012466E-05  0.1971693E+04  0.7818609E-02  0.8619971E-01
       -2   -1    0    0    0  501  0.00000000000E+00  0.00000000000E+00  0.10979092714E+04  0.10979092714E+04  0.25500000920E-02 0.  1.
        2   -1    0    0  501    0  0.00000000000E+00  0.00000000000E+00 -0.88522211391E+03  0.88522211391E+03  0.25500000920E-02 0. -1.
    10030    2    1    2    0    0  0.00000000000E+00  0.00000000000E+00  0.21268715745E+03  0.19831313853E+04  0.19716932480E+04 0.  0.
        2    1    3    3  502    0 -0.28846789169E+03  0.47909665962E+03  0.92293163889E+03  0.10791432453E+04  0.25500000920E-02 0.  1.
       -2    1    3    3    0  502  0.28846789169E+03 -0.47909665962E+03 -0.71024448144E+03  0.90398813998E+03  0.25500000920E-02 0. -1.
</event>
<event>
 5   0  0.4200061E-05  0.2004032E+04  0.7818609E-02  0.8604738E-01
       -1   -1    0    0    0  501  0.00000000000E+00  0.00000000000E+00  0.10156459586E+04  0.10156459586E+04  0.50400001928E-02 0.  1.
        1   -1    0    0  501    0  0.00000000000E+00  0.00000000000E+00 -0.98856891487E+03  0.98856891488E+03  0.50400001928E-02 0. -1.
    10030    2    1    2    0    0  0.00000000000E+00  0.00000000000E+00  0.27077043721E+02  0.20042148735E+04  0.20040319590E+04 0.  0.
        4    1    3    3  502    0  0.53069425815E+03  0.19236029405E+03  0.84150026866E+03  0.10132932416E+04  0.12699999809E+01 0.  1.
       -4    1    3    3    0  502 -0.53069425815E+03 -0.19236029405E+03 -0.81442322494E+03  0.99092163191E+03  0.12699999809E+01 0. -1.
</event>
<event>
 5   0  0.4182977E-05  0.2111364E+04  0.7818609E-02  0.8556254E-01
       -1   -1    0    0    0  501  0.00000000000E+00  0.00000000000E+00  0.97611584050E+03  0.97611584051E+03  0.50400001928E-02 0.  1.
        1   -1    0    0  501    0  0.00000000000E+00  0.00000000000E+00 -0.11417335968E+04  0.11417335968E+04  0.50400001928E-02 0. -1.
    10030    2    1    2    0    0  0.00000000000E+00  0.00000000000E+00 -0.16561775629E+03  0.21178494373E+04  0.21113637768E+04 0.  0.
        1    1    3    3  502    0 -0.82012835965E+03 -0.65367431787E+03 -0.20385936082E+03  0.10683909767E+04  0.50400001928E-02 0.  1.
       -1    1    3    3    0  502  0.82012835965E+03  0.65367431787E+03  0.38241604527E+02  0.10494584606E+04  0.50400001928E-02 0. -1.
</event>
<event>
 5   0  0.4182977E-05  0.2084047E+04  0.7818609E-02  0.8568303E-01
        1   -1    0    0  501    0  0.00000000000E+00  0.00000000000E+00  0.10506215173E+04  0.10506215174E+04  0.50400001928E-02 0. -1.
       -1   -1    0    0    0  501  0.00000000000E+00  0.00000000000E+00 -0.10334963130E+04  0.10334963130E+04  0.50400001928E-02 0.  1.
    10030    2    1    2    0    0  0.00000000000E+00  0.00000000000E+00  0.17125204383E+02  0.20841178303E+04  0.20840474702E+04 0.  0.
        1    1    3    3  502    0  0.11592509546E+03 -0.14786069447E+03  0.10335421075E+04  0.10504811758E+04  0.50400001928E-02 0. -1.
       -1    1    3    3    0  502 -0.11592509546E+03  0.14786069447E+03 -0.10164169031E+04  0.10336366545E+04  0.50400001928E-02 0.  1.
</event>
<event>
 5   0  0.8547605E-05  0.2104731E+04  0.7818609E-02  0.8559162E-01
       -2   -1    0    0    0  501  0.00000000000E+00  0.00000000000E+00  0.10496938868E+04  0.10496938868E+04  0.25500000920E-02 0. -1.
        2   -1    0    0  501    0  0.00000000000E+00  0.00000000000E+00 -0.10550436202E+04  0.10550436202E+04  0.25500000920E-02 0.  1.
    10030    2    1    2    0    0  0.00000000000E+00  0.00000000000E+00 -0.53497333837E+01  0.21047375070E+04  0.21047307081E+04 0.  0.
        4    1    3    3  502    0  0.63808903643E+03  0.25595774339E+03 -0.79942033540E+03  0.10543938877E+04  0.12699999809E+01 0.  1.
       -4    1    3    3    0  502 -0.63808903643E+03 -0.25595774339E+03  0.79407060201E+03  0.10503436193E+04  0.12699999809E+01 0. -1.
</event>
<event>
 5   0  0.4174093E-05  0.2119640E+04  0.7818609E-02  0.8552641E-01
        1   -1    0    0  501    0  0.00000000000E+00  0.00000000000E+00  0.11525596290E+04  0.11525596291E+04  0.50400001928E-02 0. -1.
       -1   -1    0    0    0  501  0.00000000000E+00  0.00000000000E+00 -0.97454247027E+03  0.97454247029E+03  0.50400001928E-02 0.  1.
    10030    2    1    2    0    0  0.00000000000E+00  0.00000000000E+00  0.17801715877E+03  0.21271020993E+04  0.21196398827E+04 0.  0.
        3    1    3    3  502    0  0.63743015122E+03 -0.18965410126E+03 -0.73908279384E+03  0.99424808884E+03  0.10100000352E+00 0.  1.
       -3    1    3    3    0  502 -0.63743015122E+03  0.18965410126E+03  0.91709995262E+03  0.11328540105E+04  0.10100000352E+00 0. -1.
</event>
<event>
 5   0  0.8547605E-05  0.2113035E+04  0.7818609E-02  0.8555523E-01
       -2   -1    0    0    0  501  0.00000000000E+00  0.00000000000E+00  0.41933235165E+03  0.41933235166E+03  0.25500000920E-02 0.  1.
        2   -1    0    0  501    0  0.00000000000E+00  0.00000000000E+00 -0.26619212803E+04  0.26619212803E+04  0.25500000920E-02 0. -1.
    10030    2    1    2    0    0  0.00000000000E+00  0.00000000000E+00 -0.22425889286E+04  0.30812536319E+04  0.21130354568E+04 0.  0.
        4    1    3    3  502    0  0.21970299357E+02  0.80770429256E+03 -0.12868239991E+03  0.81818683149E+03  0.12699999809E+01 0.  1.
       -4    1    3    3    0  502 -0.21970299357E+02 -0.80770429256E+03 -0.21139065287E+04  0.22630668004E+04  0.12699999809E+01 0. -1.
</event>
<event>
 5   0  0.8872777E-05  0.2104851E+04  0.7818609E-02  0.8559109E-01
       -2   -1    0    0    0  501  0.00000000000E+00  0.00000000000E+00  0.10905751707E+04  0.10905751707E+04  0.25500000920E-02 0. -1.
        2   -1    0    0  501    0  0.00000000000E+00  0.00000000000E+00 -0.10156105244E+04  0.10156105244E+04  0.25500000920E-02 0.  1.
    10030    2    1    2    0    0  0.00000000000E+00  0.00000000000E+00  0.74964646255E+02  0.21061856951E+04  0.21048511786E+04 0.  0.
        3    1    3    3  502    0  0.88819965828E+03  0.54606784477E+03 -0.10582470252E+03  0.10479921765E+04  0.10100000352E+00 0.  1.
       -3    1    3    3    0  502 -0.88819965828E+03 -0.54606784477E+03  0.18078934878E+03  0.10581935186E+04  0.10100000352E+00 0. -1.
</event>
<event>
 5   0  0.8858590E-05  0.2082813E+04  0.7818609E-02  0.8568853E-01
       -2   -1    0    0    0  501  0.00000000000E+00  0.00000000000E+00  0.44709197202E+03  0.44709197203E+03  0.25500000920E-02 0.  1.
        2   -1    0    0  501    0  0.00000000000E+00  0.00000000000E+00 -0.24257363334E+04  0.24257363334E+04  0.25500000920E-02 0. -1.
    10030    2    1    2    0    0  0.00000000000E+00  0.00000000000E+00 -0.19786443613E+04  0.28728283054E+04  0.20828127529E+04 0.  0.
        1    1    3    3  502    0 -0.60688082451E+03  0.17090067179E+03 -0.21325764357E+04  0.22238241002E+04  0.50400001928E-02 0. -1.
       -1    1    3    3    0  502  0.60688082451E+03 -0.17090067179E+03  0.15393207433E+03  0.64900420515E+03  0.50400001928E-02 0.  1.
</event>
<event>
 5   0  0.8547605E-05  0.2112424E+04  0.7818609E-02  0.8555790E-01
        2   -1    0    0  501    0  0.00000000000E+00  0.00000000000E+00  0.16552297324E+04  0.16552297324E+04  0.25500000920E-02 0.  1.
       -2   -1    0    0    0  501  0.00000000000E+00  0.00000000000E+00 -0.67397504636E+03  0.67397504637E+03  0.25500000920E-02 0. -1.
    10030    2    1    2    0    0  0.00000000000E+00  0.00000000000E+00  0.98125468600E+03  0.23292047787E+04  0.21124237602E+04 0.  0.
        4    1    3    3  502    0 -0.46297254879E+03 -0.57531074634E+03 -0.34202079925E+03  0.81382177152E+03  0.12699999809E+01 0. -1.
       -4    1    3    3    0  502  0.46297254879E+03  0.57531074634E+03  0.13232754852E+04  0.15153830072E+04  0.12699999809E+01 0.  1.
</event>
<event>
 5   0  0.4174093E-05  0.2209755E+04  0.7818609E-02  0.8514379E-01
       -1   -1    0    0    0  501  0.00000000000E+00  0.00000000000E+00  0.51230888360E+03  0.51230888362E+03  0.50400001928E-02 0.  1.
        1   -1    0    0  501    0  0.00000000000E+00  0.00000000000E+00 -0.23828479116E+04  0.23828479116E+04  0.50400001928E-02 0. -1.
    10030    2    1    2    0    0  0.00000000000E+00  0.00000000000E+00 -0.18705390280E+04  0.28951567953E+04  0.22097548764E+04 0.  0.
        3    1    3    3  502    0  0.70601113968E+03  0.10516650911E+03 -0.20402047249E+04  0.21614687261E+04  0.10100000352E+00 0. -1.
       -3    1    3    3    0  502 -0.70601113968E+03 -0.10516650911E+03  0.16966569688E+03  0.73368806920E+03  0.10100000352E+00 0.  1.
</event>
<event>
 5   0  0.8872777E-05  0.2015447E+04  0.7818609E-02  0.8599433E-01
       -2   -1    0    0    0  501  0.00000000000E+00  0.00000000000E+00  0.61636331457E+03  0.61636331457E+03  0.25500000920E-02 0. -1.
        2   -1    0    0  501    0  0.00000000000E+00  0.00000000000E+00 -0.16475778554E+04  0.16475778554E+04  0.25500000920E-02 0.  1.
    10030    2    1    2    0    0  0.00000000000E+00  0.00000000000E+00 -0.10312145409E+04  0.22639411700E+04  0.20154468963E+04 0.  0.
        3    1    3    3  502    0 -0.77604514999E+03 -0.37127629270E+03  0.73897171033E+02  0.86345408820E+03  0.10100000352E+00 0. -1.
       -3    1    3    3    0  502  0.77604514999E+03  0.37127629270E+03 -0.11051117119E+04  0.14004870818E+04  0.10100000352E+00 0.  1.
</event>
<event>
 5   0  0.4174093E-05  0.2087702E+04  0.7818609E-02  0.8566680E-01
        1   -1    0    0  501    0  0.00000000000E+00  0.00000000000E+00  0.56436694630E+03  0.56436694633E+03  0.50400001928E-02 0.  1.
       -1   -1    0    0    0  501  0.00000000000E+00  0.00000000000E+00 -0.19307024933E+04  0.19307024933E+04  0.50400001928E-02 0. -1.
    10030    2    1    2    0    0  0.00000000000E+00  0.00000000000E+00 -0.13663355470E+04  0.24950694396E+04  0.20877017703E+04 0.  0.
        3    1    3    3  502    0 -0.86740398506E+03 -0.40791165272E+03 -0.18918379738E+03  0.97702206173E+03  0.10100000352E+00 0.  1.
       -3    1    3    3    0  502  0.86740398506E+03  0.40791165272E+03 -0.11771517496E+04  0.15180473779E+04  0.10100000352E+00 0. -1.
</event>
<event>
 5   0  0.8547605E-05  0.2169348E+04  0.7818609E-02  0.8531295E-01
        2   -1    0    0  501    0  0.00000000000E+00  0.00000000000E+00  0.28848152261E+04  0.28848152261E+04  0.25500000920E-02 0. -1.
       -2   -1    0    0    0  501  0.00000000000E+00  0.00000000000E+00 -0.40783134289E+03  0.40783134290E+03  0.25500000920E-02 0.  1.
    10030    2    1    2    0    0  0.00000000000E+00  0.00000000000E+00  0.24769838832E+04  0.32926465690E+04  0.21693483516E+04 0.  0.
        4    1    3    3  502    0 -0.10155041994E+04  0.38109066682E+03  0.12291874942E+04  0.16393237582E+04  0.12699999809E+01 0. -1.
       -4    1    3    3    0  502  0.10155041994E+04 -0.38109066682E+03  0.12477963889E+04  0.16533228108E+04  0.12699999809E+01 0.  1.
</event>
<event>
 5   0  0.9012466E-05  0.1911604E+04  0.7818609E-02  0.8649102E-01
        2   -1    0    0  501    0  0.00000000000E+00  0.00000000000E+00  0.11162538208E+04  0.11162538208E+04  0.25500000920E-02 0. -1.
       -2   -1    0    0    0  501  0.00000000000E+00  0.00000000000E+00 -0.81841331170E+03  0.81841331170E+03  0.25500000920E-02 0.  1.
    10030    2    1    2    0    0  0.00000000000E+00  0.00000000000E+00  0.29784050910E+03  0.19346671325E+04  0.19116035009E+04 0.  0.
        2    1    3    3  502    0  0.83254430370E+03  0.43250958372E+03 -0.35937326042E+02  0.93887488466E+03  0.25500000920E-02 0.  1.
       -2    1    3    3    0  502 -0.83254430370E+03 -0.43250958372E+03  0.33377783515E+03  0.99579224785E+03  0.25500000920E-02 0. -1.
</event>
<event>
 5   0  0.8858590E-05  0.2116154E+04  0.7818609E-02  0.8554161E-01
        2   -1    0    0  501    0  0.00000000000E+00  0.00000000000E+00  0.10381708425E+04  0.10381708425E+04  0.25500000920E-02 0.  1.
       -2   -1    0    0    0  501  0.00000000000E+00  0.00000000000E+00 -0.10783644304E+04  0.10783644304E+04  0.25500000920E-02 0. -1.
    10030    2    1    2    0    0  0.00000000000E+00  0.00000000000E+00 -0.40193587963E+02  0.21165352729E+04  0.21161535948E+04 0.  0.
        1    1    3    3  502    0  0.43607990841E+03 -0.24898880482E+03 -0.95158931090E+03  0.10759569360E+04  0.50400001928E-02 0. -1.
       -1    1    3    3    0  502 -0.43607990841E+03  0.24898880482E+03  0.91139572293E+03  0.10405783369E+04  0.50400001928E-02 0.  1.
</event>
<event>
 5   0  0.8872777E-05  0.2103937E+04  0.7818609E-02  0.8559511E-01
        2   -1    0    0  501    0  0.00000000000E+00  0.00000000000E+00  0.79844992499E+03  0.79844992500E+03  0.25500000920E-02 0.  1.
       -2   -1    0    0    0  501  0.00000000000E+00  0.00000000000E+00 -0.13859828154E+04  0.13859828154E+04  0.25500000920E-02 0. -1.
    10030    2    1    2    0    0  0.00000000000E+00  0.00000000000E+00 -0.58753289042E+03  0.21844327404E+04  0.21039371426E+04 0.  0.
        3    1    3    3  502    0  0.85003385027E+03 -0.20950344476E+02  0.34931895612E+03  0.91924980656E+03  0.10100000352E+00 0.  1.
       -3    1    3    3    0  502 -0.85003385027E+03  0.20950344476E+02 -0.93685184654E+03  0.12651829339E+04  0.10100000352E+00 0. -1.
</event>
<event>
 5   0  0.9012466E-05  0.2126300E+04  0.7818609E-02  0.8549745E-01
       -2   -1    0    0    0  501  0.00000000000E+00  0.00000000000E+00  0.40757019584E+03  0.40757019584E+03  0.25500000920E-02 0.  1.
        2   -1    0    0  501    0  0.00000000000E+00  0.00000000000E+00 -0.27732362621E+04  0.27732362621E+04  0.25500000920E-02 0. -1.
    10030    2    1    2    0    0  0.00000000000E+00  0.00000000000E+00 -0.23656660663E+04  0.31808064580E+04  0.21263004928E+04 0.  0.
        2    1    3    3  502    0 -0.25018361207E+03 -0.39546112276E+03  0.24522212830E+03  0.52831357315E+03  0.25500000920E-02 0.  1.
       -2    1    3    3    0  502  0.25018361207E+03  0.39546112276E+03 -0.26108881946E+04  0.26524928848E+04  0.25500000920E-02 0. -1.
</event>
<event>
 5   0  0.4050368E-05  0.2099606E+04  0.7818609E-02  0.8561417E-01
        1   -1    0    0  501    0  0.00000000000E+00  0.00000000000E+00  0.12606220274E+04  0.12606220274E+04  0.50400001928E-02 0. -1.
       -1   -1    0    0    0  501  0.00000000000E+00  0.00000000000E+00 -0.87424047111E+03  0.87424047112E+03  0.50400001928E-02 0.  1.
    10030    2    1    2    0    0  0.00000000000E+00  0.00000000000E+00  0.38638155632E+03  0.21348624986E+04  0.20996064347E+04 0.  0.
        2    1    3    3  502    0 -0.95376874672E+03  0.47311224418E+02  0.63660248101E+03  0.11476828364E+04  0.25500000920E-02 0. -1.
       -2    1    3    3    0  502  0.95376874672E+03 -0.47311224418E+02 -0.25022092470E+03  0.98717966214E+03  0.25500000920E-02 0.  1.
</event>
<event>
 5   0  0.4050368E-05  0.2110044E+04  0.7818609E-02  0.8556832E-01
       -1   -1    0    0    0  501  0.00000000000E+00  0.00000000000E+00  0.45646219110E+03  0.45646219112E+03  0.50400001928E-02 0. -1.
        1   -1    0    0  501    0  0.00000000000E+00  0.00000000000E+00 -0.24384754226E+04  0.24384754226E+04  0.50400001928E-02 0.  1.
    10030    2    1    2    0    0  0.00000000000E+00  0.00000000000E+00 -0.19820132315E+04  0.28949376137E+04  0.21100443923E+04 0.  0.
        2    1    3    3  502    0  0.17586313648E+03  0.10402544561E+04 -0.98575383874E+03  0.14438725036E+04  0.25500000920E-02 0. -1.
       -2    1    3    3    0  502 -0.17586313648E+03 -0.10402544561E+04 -0.99625939276E+03  0.14510651101E+04  0.25500000920E-02 0.  1.
</event>
<event>
 5   0  0.4200061E-05  0.2119102E+04  0.7818609E-02  0.8552875E-01
       -1   -1    0    0    0  501  0.00000000000E+00  0.00000000000E+00  0.94211678378E+03  0.94211678379E+03  0.50400001928E-02 0. -1.
        1   -1    0    0  501    0  0.00000000000E+00  0.00000000000E+00 -0.11916228459E+04  0.11916228459E+04  0.50400001928E-02 0.  1.
    10030    2    1    2    0    0  0.00000000000E+00  0.00000000000E+00 -0.24950606212E+03  0.21337396297E+04  0.21191015861E+04 0.  0.
        4    1    3    3  502    0  0.48796924740E+03  0.88449322282E+03  0.19714894405E+03  0.10292286270E+04  0.12699999809E+01 0. -1.
       -4    1    3    3    0  502 -0.48796924740E+03 -0.88449322282E+03 -0.44665500617E+03  0.11045110027E+04  0.12699999809E+01 0.  1.
</event>
<event>
 5   0  0.4128678E-05  0.2093012E+04  0.7818609E-02  0.8564328E-01
       -1   -1    0    0    0  501  0.00000000000E+00  0.00000000000E+00  0.20058476878E+04  0.20058476878E+04  0.50400001928E-02 0. -1.
        1   -1    0    0  501    0  0.00000000000E+00  0.00000000000E+00 -0.54599085380E+03  0.54599085382E+03  0.50400001928E-02 0.  1.
    10030    2    1    2    0    0  0.00000000000E+00  0.00000000000E+00  0.14598568340E+04  0.25518385416E+04  0.20930116977E+04 0.  0.
        5    1    3    3  502    0  0.85149311131E+03 -0.38284344285E+03  0.15347812700E+03  0.94614335373E+03  0.46999998093E+01 0.  1.
       -5    1    3    3    0  502 -0.85149311131E+03  0.38284344285E+03  0.13063787070E+04  0.16056951879E+04  0.46999998093E+01 0. -1.
</event>
<event>
 5   0  0.4128678E-05  0.2108241E+04  0.7818609E-02  0.8557622E-01
        1   -1    0    0  501    0  0.00000000000E+00  0.00000000000E+00  0.13853523149E+04  0.13853523150E+04  0.50400001928E-02 0. -1.
       -1   -1    0    0    0  501  0.00000000000E+00  0.00000000000E+00 -0.80208459053E+03  0.80208459055E+03  0.50400001928E-02 0.  1.
    10030    2    1    2    0    0  0.00000000000E+00  0.00000000000E+00  0.58326772442E+03  0.21874369055E+04  0.21082407304E+04 0.  0.
        5    1    3    3  502    0  0.17610018136E+03 -0.54821210893E+03 -0.62448370885E+03  0.84944086485E+03  0.46999998093E+01 0.  1.
       -5    1    3    3    0  502 -0.17610018136E+03  0.54821210893E+03  0.12077514333E+04  0.13379960407E+04  0.46999998093E+01 0. -1.
</event>
<event>
 5   0  0.8872777E-05  0.2158875E+04  0.7818609E-02  0.8535743E-01
       -2   -1    0    0    0  501  0.00000000000E+00  0.00000000000E+00  0.13471034920E+04  0.13471034920E+04  0.25500000920E-02 0. -1.
        2   -1    0    0  501    0  0.00000000000E+00  0.00000000000E+00 -0.86495599236E+03  0.86495599236E+03  0.25500000920E-02 0.  1.
    10030    2    1    2    0    0  0.00000000000E+00  0.00000000000E+00  0.48214749968E+03  0.22120594844E+04  0.21588749272E+04 0.  0.
        3    1    3    3  502    0 -0.80785802143E+03 -0.11552333306E+03 -0.48287660281E+03  0.94823522768E+03  0.10100000352E+00 0.  1.
       -3    1    3    3    0  502  0.80785802143E+03  0.11552333306E+03  0.96502410250E+03  0.12638242567E+04  0.10100000352E+00 0. -1.
</event>
<event>
 5   0  0.8872777E-05  0.2075133E+04  0.7818609E-02  0.8572277E-01
        2   -1    0    0  501    0  0.00000000000E+00  0.00000000000E+00  0.72840474868E+03  0.72840474869E+03  0.25500000920E-02 0. -1.
       -2   -1    0    0    0  501  0.00000000000E+00  0.00000000000E+00 -0.14779471611E+04  0.14779471611E+04  0.25500000920E-02 0.  1.
    10030    2    1    2    0    0  0.00000000000E+00  0.00000000000E+00 -0.74954241237E+03  0.22063519097E+04  0.20751325070E+04 0.  0.
        3    1    3    3  502    0  0.91379156269E+03 -0.12814051950E+03 -0.87922930220E+03  0.12745505831E+04  0.10100000352E+00 0.  1.
       -3    1    3    3    0  502 -0.91379156269E+03  0.12814051950E+03  0.12968688983E+03  0.93180132667E+03  0.10100000352E+00 0. -1.
</event>
<event>
 5   0  0.4128678E-05  0.2088702E+04  0.7818609E-02  0.8566237E-01
       -1   -1    0    0    0  501  0.00000000000E+00  0.00000000000E+00  0.71768687628E+03  0.71768687630E+03  0.50400001928E-02 0. -1.
        1   -1    0    0  501    0  0.00000000000E+00  0.00000000000E+00 -0.15197003696E+04  0.15197003697E+04  0.50400001928E-02 0.  1.
    10030    2    1    2    0    0  0.00000000000E+00  0.00000000000E+00 -0.80201349337E+03  0.22373872460E+04  0.20887020000E+04 0.  0.
        5    1    3    3  502    0 -0.62993960523E+03 -0.43214536233E+02 -0.12920602135E+04  0.14381005137E+04  0.46999998093E+01 0.  1.
       -5    1    3    3    0  502  0.62993960523E+03  0.43214536233E+02  0.49004672011E+03  0.79928673220E+03  0.46999998093E+01 0. -1.
</event>
<event>
 5   0  0.8858590E-05  0.2113441E+04  0.7818609E-02  0.8555346E-01
        2   -1    0    0  501    0  0.00000000000E+00  0.00000000000E+00  0.11131074670E+04  0.11131074670E+04  0.25500000920E-02 0.  1.
       -2   -1    0    0    0  501  0.00000000000E+00  0.00000000000E+00 -0.10031896800E+04  0.10031896800E+04  0.25500000920E-02 0. -1.
    10030    2    1    2    0    0  0.00000000000E+00  0.00000000000E+00  0.10991778694E+03  0.21162971470E+04  0.21134407242E+04 0.  0.
        1    1    3    3  502    0  0.15458991661E+02  0.10015854477E+04 -0.28201566823E+03  0.10406465426E+04  0.50400001928E-02 0.  1.
       -1    1    3    3    0  502 -0.15458991661E+02 -0.10015854477E+04  0.39193345517E+03  0.10756506044E+04  0.50400001928E-02 0. -1.
</event>
<event>
 5   0  0.4050368E-05  0.2097144E+04  0.7818609E-02  0.8562503E-01
        1   -1    0    0  501    0  0.00000000000E+00  0.00000000000E+00  0.74425977854E+03  0.74425977856E+03  0.50400001928E-02 0.  1.
       -1   -1    0    0    0  501  0.00000000000E+00  0.00000000000E+00 -0.14773110396E+04  0.14773110396E+04  0.50400001928E-02 0. -1.
    10030    2    1    2    0    0  0.00000000000E+00  0.00000000000E+00 -0.73305126103E+03  0.22215708181E+04  0.20971439504E+04 0.  0.
        2    1    3    3  502    0 -0.41617105330E+03 -0.77093178044E+02  0.64974912507E+03  0.77544543924E+03  0.25500000920E-02 0.  1.
       -2    1    3    3    0  502  0.41617105330E+03  0.77093178044E+02 -0.13828003861E+04  0.14461253789E+04  0.25500000920E-02 0. -1.
</event>
<event>
 5   0  0.8872777E-05  0.2122444E+04  0.7818609E-02  0.8551421E-01
       -2   -1    0    0    0  501  0.00000000000E+00  0.00000000000E+00  0.11331135786E+04  0.11331135786E+04  0.25500000920E-02 0.  1.
        2   -1    0    0  501    0  0.00000000000E+00  0.00000000000E+00 -0.99389151267E+03  0.99389151268E+03  0.25500000920E-02 0. -1.
    10030    2    1    2    0    0  0.00000000000E+00  0.00000000000E+00  0.13922206589E+03  0.21270050912E+04  0.21224438449E+04 0.  0.
        3    1    3    3  502    0  0.83596680061E+03  0.29609886224E+03  0.65368163433E+03  0.11017325979E+04  0.10100000352E+00 0.  1.
       -3    1    3    3    0  502 -0.83596680061E+03 -0.29609886224E+03 -0.51445956843E+03  0.10252724934E+04  0.10100000352E+00 0. -1.
</event>
<event>
 5   0  0.8547605E-05  0.2051905E+04  0.7818609E-02  0.8582731E-01
        2   -1    0    0  501    0  0.00000000000E+00  0.00000000000E+00  0.15372893929E+04  0.15372893929E+04  0.25500000920E-02 0.  1.
       -2   -1    0    0    0  501  0.00000000000E+00  0.00000000000E+00 -0.68469787387E+03  0.68469787388E+03  0.25500000920E-02 0. -1.
    10030    2    1    2    0    0  0.00000000000E+00  0.00000000000E+00  0.85259151901E+03  0.22219872668E+04  0.20519052403E+04 0.  0.
        4    1    3    3  502    0  0.91199191946E+03 -0.45241008844E+03  0.28858122385E+03  0.10581516361E+04  0.12699999809E+01 0. -1.
       -4    1    3    3    0  502 -0.91199191946E+03  0.45241008844E+03  0.56401029517E+03  0.11638356307E+04  0.12699999809E+01 0.  1.
</event>
<event>
 5   0  0.9086985E-05  0.2109804E+04  0.7818609E-02  0.8556937E-01
        2   -1    0    0  501    0  0.00000000000E+00  0.00000000000E+00  0.14970634985E+04  0.14970634985E+04  0.25500000920E-02 0.  1.
       -2   -1    0    0    0  501  0.00000000000E+00  0.00000000000E+00 -0.74333395869E+03  0.74333395869E+03  0.25500000920E-02 0. -1.
    10030    2    1    2    0    0  0.00000000000E+00  0.00000000000E+00  0.75372953977E+03  0.22403974571E+04  0.21098039119E+04 0.  0.
        5    1    3    3  502    0  0.92510590343E+03  0.31389680784E+03  0.79955358006E+03  0.12624025332E+04  0.46999998093E+01 0.  1.
       -5    1    3    3    0  502 -0.92510590343E+03 -0.31389680784E+03 -0.45824040296E+02  0.97799492391E+03  0.46999998093E+01 0. -1.
</event>
<event>
 5   0  0.4182977E-05  0.2096276E+04  0.7818609E-02  0.8562886E-01
        1   -1    0    0  501    0  0.00000000000E+00  0.00000000000E+00  0.10184520243E+04  0.10184520243E+04  0.50400001928E-02 0.  1.
       -1   -1    0    0    0  501  0.00000000000E+00  0.00000000000E+00 -0.10786888080E+04  0.10786888080E+04  0.50400001928E-02 0. -1.
    10030    2    1    2    0    0  0.00000000000E+00  0.00000000000E+00 -0.60236783692E+02  0.20971408323E+04  0.20962755545E+04 0.  0.
        1    1    3    3  502    0  0.59202915741E+03  0.35517206209E+03 -0.81908013374E+03  0.10712319928E+04  0.50400001928E-02 0. -1.
       -1    1    3    3    0  502 -0.59202915741E+03 -0.35517206209E+03  0.75884335005E+03  0.10259088394E+04  0.50400001928E-02 0.  1.
</event>
<event>
 5   0  0.4174093E-05  0.2102913E+04  0.7818609E-02  0.8559961E-01
        1   -1    0    0  501    0  0.00000000000E+00  0.00000000000E+00  0.22474662707E+04  0.22474662707E+04  0.50400001928E-02 0. -1.
       -1   -1    0    0    0  501  0.00000000000E+00  0.00000000000E+00 -0.49191425729E+03  0.49191425731E+03  0.50400001928E-02 0.  1.
    10030    2    1    2    0    0  0.00000000000E+00  0.00000000000E+00  0.17555520134E+04  0.27393805280E+04  0.21029129334E+04 0.  0.
        3    1    3    3  502    0  0.79463738782E+03  0.10815579618E+03 -0.80466103685E+01  0.80200437188E+03  0.10100000352E+00 0.  1.
       -3    1    3    3    0  502 -0.79463738782E+03 -0.10815579618E+03  0.17635986238E+04  0.19373761561E+04  0.10100000352E+00 0. -1.
</event>
<event>
 5   0  0.4200061E-05  0.2105851E+04  0.7818609E-02  0.8558670E-01
       -1   -1    0    0    0  501  0.00000000000E+00  0.00000000000E+00  0.92425374994E+03  0.92425374995E+03  0.50400001928E-02 0.  1.
        1   -1    0    0  501    0  0.00000000000E+00  0.00000000000E+00 -0.11995103277E+04  0.11995103277E+04  0.50400001928E-02 0. -1.
    10030    2    1    2    0    0  0.00000000000E+00  0.00000000000E+00 -0.27525657777E+03  0.21237640777E+04  0.21058508195E+04 0.  0.
        4    1    3    3  502    0 -0.15056584340E+03  0.53641611944E+03 -0.10386699301E+04  0.11786641434E+04  0.12699999809E+01 0. -1.
       -4    1    3    3    0  502  0.15056584340E+03 -0.53641611944E+03  0.76341335230E+03  0.94509993427E+03  0.12699999809E+01 0.  1.
</event>
<event>
 5   0  0.4128678E-05  0.2131185E+04  0.7818609E-02  0.8547629E-01
       -1   -1    0    0    0  501  0.00000000000E+00  0.00000000000E+00  0.62997367426E+03  0.62997367428E+03  0.50400001928E-02 0. -1.
        1   -1    0    0  501    0  0.00000000000E+00  0.00000000000E+00 -0.18024363141E+04  0.18024363141E+04  0.50400001928E-02 0.  1.
    10030    2    1    2    0    0  0.00000000000E+00  0.00000000000E+00 -0.11724626398E+04  0.24324099884E+04  0.21311850482E+04 0.  0.
        5    1    3    3  502    0  0.45215575741E+03 -0.55093377725E+03  0.31787578218E+03  0.78041012216E+03  0.46999998093E+01 0. -1.
       -5    1    3    3    0  502 -0.45215575741E+03  0.55093377725E+03 -0.14903384220E+04  0.16519998662E+04  0.46999998093E+01 0.  1.
</event>
<event>
 5   0  0.8872777E-05  0.2139608E+04  0.7818609E-02  0.8543994E-01
        2   -1    0    0  501    0  0.00000000000E+00  0.00000000000E+00  0.22656583792E+04  0.22656583792E+04  0.25500000920E-02 0.  1.
       -2   -1    0    0    0  501  0.00000000000E+00  0.00000000000E+00 -0.50514243857E+03  0.50514243858E+03  0.25500000920E-02 0. -1.
    10030    2    1    2    0    0  0.00000000000E+00  0.00000000000E+00  0.17605159406E+04  0.27708008177E+04  0.21396076263E+04 0.  0.
        3    1    3    3  502    0 -0.14824297484E+03 -0.62225957161E+03  0.19907172461E+04  0.20909658339E+04  0.10100000352E+00 0.  1.
       -3    1    3    3    0  502  0.14824297484E+03  0.62225957161E+03 -0.23020130555E+03  0.67983498389E+03  0.10100000352E+00 0. -1.
</event>
<event>
 5   0  0.4050368E-05  0.2104714E+04  0.7818609E-02  0.8559169E-01
       -1   -1    0    0    0  501  0.00000000000E+00  0.00000000000E+00  0.90034321309E+03  0.90034321310E+03  0.50400001928E-02 0.  1.
        1   -1    0    0  501    0  0.00000000000E+00  0.00000000000E+00 -0.12300372719E+04  0.12300372719E+04  0.50400001928E-02 0. -1.
    10030    2    1    2    0    0  0.00000000000E+00  0.00000000000E+00 -0.32969405883E+03  0.21303804850E+04  0.21047144316E+04 0.  0.
        2    1    3    3  502    0  0.41881346848E+02 -0.90682620650E+03 -0.70366158242E+03  0.11485762659E+04  0.25500000920E-02 0. -1.
       -2    1    3    3    0  502 -0.41881346848E+02  0.90682620650E+03  0.37396752358E+03  0.98180421913E+03  0.25500000920E-02 0.  1.
</event>
<event>
 5   0  0.4200061E-05  0.2105742E+04  0.7818609E-02  0.8558718E-01
       -1   -1    0    0    0  501  0.00000000000E+00  0.00000000000E+00  0.85105148740E+03  0.85105148741E+03  0.50400001928E-02 0.  1.
        1   -1    0    0  501    0  0.00000000000E+00  0.00000000000E+00 -0.13025496857E+04  0.13025496857E+04  0.50400001928E-02 0. -1.
    10030    2    1    2    0    0  0.00000000000E+00  0.00000000000E+00 -0.45149819832E+03  0.21536011731E+04  0.21057415297E+04 0.  0.
        4    1    3    3  502    0  0.15975092735E+03  0.94675549011E+03 -0.66762083346E+03  0.11694381159E+04  0.12699999809E+01 0. -1.
       -4    1    3    3    0  502 -0.15975092735E+03 -0.94675549011E+03  0.21612263514E+03  0.98416305720E+03  0.12699999809E+01 0.  1.
</event>
<event>
 5   0  0.4174093E-05  0.2074529E+04  0.7818609E-02  0.8572547E-01
        1   -1    0    0  501    0  0.00000000000E+00  0.00000000000E+00  0.22250202639E+04  0.22250202639E+04  0.50400001928E-02 0. -1.
       -1   -1    0    0    0  501  0.00000000000E+00  0.00000000000E+00 -0.48355402063E+03  0.48355402066E+03  0.50400001928E-02 0.  1.
    10030    2    1    2    0    0  0.00000000000E+00  0.00000000000E+00  0.17414662432E+04  0.27085742845E+04  0.20745288570E+04 0.  0.
        3    1    3    3  502    0 -0.49916205301E+03 -0.63984003942E+02  0.20549511438E+04  0.21156750511E+04  0.10100000352E+00 0. -1.
       -3    1    3    3    0  502  0.49916205301E+03  0.63984003942E+02 -0.31348490061E+03  0.59289923346E+03  0.10100000352E+00 0.  1.
</event>
<event>
 5   0  0.4200061E-05  0.2090135E+04  0.7818609E-02  0.8565602E-01
       -1   -1    0    0    0  501  0.00000000000E+00  0.00000000000E+00  0.70222873354E+03  0.70222873355E+03  0.50400001928E-02 0. -1.
        1   -1    0    0  501    0  0.00000000000E+00  0.00000000000E+00 -0.15552846498E+04  0.15552846498E+04  0.50400001928E-02 0.  1.
    10030    2    1    2    0    0  0.00000000000E+00  0.00000000000E+00 -0.85305591628E+03  0.22575133834E+04  0.20901345124E+04 0.  0.
        4    1    3    3  502    0 -0.96006395931E+02 -0.66709796818E+03 -0.12891918083E+04  0.14547350476E+04  0.12699999809E+01 0.  1.
       -4    1    3    3    0  502  0.96006395931E+02  0.66709796818E+03  0.43613589201E+03  0.80277833579E+03  0.12699999809E+01 0. -1.
</event>
<event>
 5   0  0.9012466E-05  0.2112709E+04  0.7818609E-02  0.8555665E-01
       -2   -1    0    0    0  501  0.00000000000E+00  0.00000000000E+00  0.87896683142E+03  0.87896683142E+03  0.25500000920E-02 0.  1.
        2   -1    0    0  501    0  0.00000000000E+00  0.00000000000E+00 -0.12695420546E+04  0.12695420547E+04  0.25500000920E-02 0. -1.
    10030    2    1    2    0    0  0.00000000000E+00  0.00000000000E+00 -0.39057522323E+03  0.21485088861E+04  0.21127094993E+04 0.  0.
        2    1    3    3  502    0  0.20788770346E+03  0.18005000594E+03  0.84192130821E+03  0.88570129903E+03  0.25500000920E-02 0.  1.
       -2    1    3    3    0  502 -0.20788770346E+03 -0.18005000594E+03 -0.12324965314E+04  0.12628075870E+04  0.25500000920E-02 0. -1.
</event>
<event>
 5   0  0.9086985E-05  0.2099004E+04  0.7818609E-02  0.8561682E-01
       -2   -1    0    0    0  501  0.00000000000E+00  0.00000000000E+00  0.11109186974E+04  0.11109186974E+04  0.25500000920E-02 0. -1.
        2   -1    0    0  501    0  0.00000000000E+00  0.00000000000E+00 -0.99148093163E+03  0.99148093164E+03  0.25500000920E-02 0.  1.
    10030    2    1    2    0    0  0.00000000000E+00  0.00000000000E+00  0.11943776577E+03  0.21023996290E+04  0.20990042449E+04 0.  0.
        5    1    3    3  502    0 -0.73367023485E+03  0.45744984449E+03 -0.53613858094E+03  0.10173490265E+04  0.46999998093E+01 0.  1.
       -5    1    3    3    0  502  0.73367023485E+03 -0.45744984449E+03  0.65557634671E+03  0.10850506026E+04  0.46999998093E+01 0. -1.
</event>
<event>
 5   0  0.8872777E-05  0.2106342E+04  0.7818609E-02  0.8558455E-01
        2   -1    0    0  501    0  0.00000000000E+00  0.00000000000E+00  0.15126622844E+04  0.15126622844E+04  0.25500000920E-02 0.  1.
       -2   -1    0    0    0  501  0.00000000000E+00  0.00000000000E+00 -0.73325598935E+03  0.73325598935E+03  0.25500000920E-02 0. -1.
    10030    2    1    2    0    0  0.00000000000E+00  0.00000000000E+00  0.77940629503E+03  0.22459182737E+04  0.21063415486E+04 0.  0.
        3    1    3    3  502    0  0.27124024930E+03  0.19904124926E+03 -0.67441649092E+03  0.75367519873E+03  0.10100000352E+00 0. -1.
       -3    1    3    3    0  502 -0.27124024930E+03 -0.19904124926E+03  0.14538227859E+04  0.14922430750E+04  0.10100000352E+00 0.  1.
</event>
<event>
 5   0  0.9086985E-05  0.2092129E+04  0.7818609E-02  0.8564718E-01
        2   -1    0    0  501    0  0.00000000000E+00  0.00000000000E+00  0.10275451555E+04  0.10275451555E+04  0.25500000920E-02 0.  1.
       -2   -1    0    0    0  501  0.00000000000E+00  0.00000000000E+00 -0.10649177594E+04  0.10649177594E+04  0.25500000920E-02 0. -1.
    10030    2    1    2    0    0  0.00000000000E+00  0.00000000000E+00 -0.37372603941E+02  0.20924629149E+04  0.20921291400E+04 0.  0.
        5    1    3    3  502    0  0.46204348443E+03 -0.91882771098E+03 -0.20976769309E+03  0.10496442821E+04  0.46999998093E+01 0. -1.
       -5    1    3    3    0  502 -0.46204348443E+03  0.91882771098E+03  0.17239508915E+03  0.10428186327E+04  0.46999998093E+01 0.  1.
</event>
<event>
 5   0  0.4200061E-05  0.2076799E+04  0.7818609E-02  0.8571533E-01
       -1   -1    0    0    0  501  0.00000000000E+00  0.00000000000E+00  0.82759365125E+03  0.82759365127E+03  0.50400001928E-02 0.  1.
        1   -1    0    0  501    0  0.00000000000E+00  0.00000000000E+00 -0.13029026953E+04  0.13029026953E+04  0.50400001928E-02 0. -1.
    10030    2    1    2    0    0  0.00000000000E+00  0.00000000000E+00 -0.47530904403E+03  0.21304963466E+04  0.20767994596E+04 0.  0.
        4    1    3    3  502    0 -0.30844808940E+03  0.52518675152E+02 -0.12533934881E+04  0.12918573002E+04  0.12699999809E+01 0. -1.
       -4    1    3    3    0  502  0.30844808940E+03 -0.52518675152E+02  0.77808444408E+03  0.83863904638E+03  0.12699999809E+01 0.  1.
</event>
<event>
 5   0  0.4174093E-05  0.2097282E+04  0.7818609E-02  0.8562442E-01
       -1   -1    0    0    0  501  0.00000000000E+00  0.00000000000E+00  0.73660771294E+03  0.73660771296E+03  0.50400001928E-02 0. -1.
        1   -1    0    0  501    0  0.00000000000E+00  0.00000000000E+00 -0.14928545829E+04  0.14928545829E+04  0.50400001928E-02 0.  1.
    10030    2    1    2    0    0  0.00000000000E+00  0.00000000000E+00 -0.75624686996E+03  0.22294622959E+04  0.20972822415E+04 0.  0.
        3    1    3    3  502    0  0.39210819768E+03 -0.97115923463E+03 -0.43385970544E+03  0.11336372224E+04  0.10100000352E+00 0. -1.
       -3    1    3    3    0  502 -0.39210819768E+03  0.97115923463E+03 -0.32238716452E+03  0.10958250735E+04  0.10100000352E+00 0.  1.
</event>
<event>
 5   0  0.4174093E-05  0.2093268E+04  0.7818609E-02  0.8564215E-01
        1   -1    0    0  501    0  0.00000000000E+00  0.00000000000E+00  0.72417185410E+03  0.72417185412E+03  0.50400001928E-02 0.  1.
       -1   -1    0    0    0  501  0.00000000000E+00  0.00000000000E+00 -0.15126837937E+04  0.15126837938E+04  0.50400001928E-02 0. -1.
    10030    2    1    2    0    0  0.00000000000E+00  0.00000000000E+00 -0.78851193965E+03  0.22368556479E+04  0.20932682844E+04 0.  0.
        3    1    3    3  502    0  0.90174727593E+03 -0.34509169535E+03 -0.82595583189E+03  0.12706059477E+04  0.10100000352E+00 0. -1.
       -3    1    3    3    0  502 -0.90174727593E+03  0.34509169535E+03  0.37443892241E+02  0.96624970019E+03  0.10100000352E+00 0.  1.
</event>
<event>
 5   0  0.4128678E-05  0.2061709E+04  0.7818609E-02  0.8578301E-01
       -1   -1    0    0    0  501  0.00000000000E+00  0.00000000000E+00  0.54495651727E+03  0.54495651729E+03  0.50400001928E-02 0. -1.
        1   -1    0    0  501    0  0.00000000000E+00  0.00000000000E+00 -0.19499924642E+04  0.19499924642E+04  0.50400001928E-02 0.  1.
    10030    2    1    2    0    0  0.00000000000E+00  0.00000000000E+00 -0.14050359470E+04  0.24949489815E+04  0.20617090988E+04 0.  0.
        5    1    3    3  502    0 -0.87975368704E+03 -0.13522218936E+03 -0.73261743524E+02  0.89310747585E+03  0.46999998093E+01 0. -1.
       -5    1    3    3    0  502  0.87975368704E+03  0.13522218936E+03 -0.13317742034E+04  0.16018415057E+04  0.46999998093E+01 0.  1.
</event>
<event>
 5   0  0.9012466E-05  0.2095287E+04  0.7818609E-02  0.8563322E-01
       -2   -1    0    0    0  501  0.00000000000E+00  0.00000000000E+00  0.58985995201E+03  0.58985995202E+03  0.25500000920E-02 0. -1.
        2   -1    0    0  501    0  0.00000000000E+00  0.00000000000E+00 -0.18607083086E+04  0.18607083086E+04  0.25500000920E-02 0.  1.
    10030    2    1    2    0    0  0.00000000000E+00  0.00000000000E+00 -0.12708483566E+04  0.24505682606E+04  0.20952873919E+04 0.  0.
        2    1    3    3  502    0  0.23627029821E+03  0.89716459644E+03 -0.12045928180E+04  0.15204511909E+04  0.25500000920E-02 0.  1.
       -2    1    3    3    0  502 -0.23627029821E+03 -0.89716459644E+03 -0.66255538632E+02  0.93011706969E+03  0.25500000920E-02 0. -1.
</event>
<event>
 5   0  0.8872777E-05  0.2098162E+04  0.7818609E-02  0.8562053E-01
       -2   -1    0    0    0  501  0.00000000000E+00  0.00000000000E+00  0.16325345013E+04  0.16325345013E+04  0.25500000920E-02 0.  1.
        2   -1    0    0  501    0  0.00000000000E+00  0.00000000000E+00 -0.67414893163E+03  0.67414893163E+03  0.25500000920E-02 0. -1.
    10030    2    1    2    0    0  0.00000000000E+00  0.00000000000E+00  0.95838556966E+03  0.23066834329E+04  0.20981624245E+04 0.  0.
        3    1    3    3  502    0  0.70578081331E+03 -0.50089950579E+03  0.11310298476E+04  0.14241683179E+04  0.10100000352E+00 0.  1.
       -3    1    3    3    0  502 -0.70578081331E+03  0.50089950579E+03 -0.17264427794E+03  0.88251511502E+03  0.10100000352E+00 0. -1.
</event>
<event>
 5   0  0.8872777E-05  0.2094035E+04  0.7818609E-02  0.8563876E-01
       -2   -1    0    0    0  501  0.00000000000E+00  0.00000000000E+00  0.88026175095E+03  0.88026175095E+03  0.25500000920E-02 0. -1.
        2   -1    0    0  501    0  0.00000000000E+00  0.00000000000E+00 -0.12453628056E+04  0.12453628056E+04  0.25500000920E-02 0.  1.
    10030    2    1    2    0    0  0.00000000000E+00  0.00000000000E+00 -0.36510105461E+03  0.21256245565E+04  0.20940346165E+04 0.  0.
        3    1    3    3  502    0 -0.19608988417E+03  0.88058354139E+03  0.35684752965E+03  0.97016430859E+03  0.10100000352E+00 0. -1.
       -3    1    3    3    0  502  0.19608988417E+03 -0.88058354139E+03 -0.72194858426E+03  0.11554602479E+04  0.10100000352E+00 0.  1.
</event>
<event>
 5   0  0.4050368E-05  0.2075160E+04  0.7818609E-02  0.8572265E-01
        1   -1    0    0  501    0  0.00000000000E+00  0.00000000000E+00  0.12182662106E+04  0.12182662106E+04  0.50400001928E-02 0. -1.
       -1   -1    0    0    0  501  0.00000000000E+00  0.00000000000E+00 -0.88369171235E+03  0.88369171237E+03  0.50400001928E-02 0.  1.
    10030    2    1    2    0    0  0.00000000000E+00  0.00000000000E+00  0.33457449820E+03  0.21019579229E+04  0.20751595155E+04 0.  0.
        2    1    3    3  502    0 -0.31824210338E+03 -0.36165125438E+03 -0.76354816023E+03  0.90281529625E+03  0.25500000920E-02 0.  1.
       -2    1    3    3    0  502  0.31824210338E+03  0.36165125438E+03  0.10981226584E+04  0.11991426267E+04  0.25500000920E-02 0. -1.
</event>
<event>
 5   0  0.8547605E-05  0.2109051E+04  0.7818609E-02  0.8557267E-01
       -2   -1    0    0    0  501  0.00000000000E+00  0.00000000000E+00  0.12978268683E+04  0.12978268683E+04  0.25500000920E-02 0. -1.
        2   -1    0    0  501    0  0.00000000000E+00  0.00000000000E+00 -0.85683506988E+03  0.85683506988E+03  0.25500000920E-02 0.  1.
    10030    2    1    2    0    0  0.00000000000E+00  0.00000000000E+00  0.44099179843E+03  0.21546619382E+04  0.21090505688E+04 0.  0.
        4    1    3    3  502    0 -0.65627170202E+03  0.79909309379E+03  0.43180136233E+03  0.11205785777E+04  0.12699999809E+01 0. -1.
       -4    1    3    3    0  502  0.65627170202E+03 -0.79909309379E+03  0.91904361027E+01  0.10340833605E+04  0.12699999809E+01 0.  1.
</event>
<event>
 5   0  0.8872777E-05  0.2102319E+04  0.7818609E-02  0.8560222E-01
        2   -1    0    0  501    0  0.00000000000E+00  0.00000000000E+00  0.11241438162E+04  0.11241438162E+04  0.25500000920E-02 0. -1.
       -2   -1    0    0    0  501  0.00000000000E+00  0.00000000000E+00 -0.98291391599E+03  0.98291391599E+03  0.25500000920E-02 0.  1.
    10030    2    1    2    0    0  0.00000000000E+00  0.00000000000E+00  0.14122990023E+03  0.21070577322E+04  0.21023192912E+04 0.  0.
        3    1    3    3  502    0 -0.74351566438E+03  0.11564967459E+03  0.80626263006E+03  0.11028371726E+04  0.10100000352E+00 0. -1.
       -3    1    3    3    0  502  0.74351566438E+03 -0.11564967459E+03 -0.66503272983E+03  0.10042205596E+04  0.10100000352E+00 0.  1.
</event>
<event>
 5   0  0.8872777E-05  0.1963172E+04  0.7818609E-02  0.8624035E-01
        2   -1    0    0  501    0  0.00000000000E+00  0.00000000000E+00  0.10254589942E+04  0.10254589942E+04  0.25500000920E-02 0. -1.
       -2   -1    0    0    0  501  0.00000000000E+00  0.00000000000E+00 -0.93959040443E+03  0.93959040443E+03  0.25500000920E-02 0.  1.
    10030    2    1    2    0    0  0.00000000000E+00  0.00000000000E+00  0.85868589815E+02  0.19650493987E+04  0.19631723624E+04 0.  0.
        3    1    3    3  502    0 -0.36035394428E+03 -0.25506701886E+03 -0.83460073170E+03  0.94417823573E+03  0.10100000352E+00 0.  1.
       -3    1    3    3    0  502  0.36035394428E+03  0.25506701886E+03  0.92046932152E+03  0.10208711629E+04  0.10100000352E+00 0. -1.
</event>
<event>
 5   0  0.8872777E-05  0.2119439E+04  0.7818609E-02  0.8552728E-01
        2   -1    0    0  501    0  0.00000000000E+00  0.00000000000E+00  0.13434606482E+04  0.13434606482E+04  0.25500000920E-02 0.  1.
       -2   -1    0    0    0  501  0.00000000000E+00  0.00000000000E+00 -0.83590525150E+03  0.83590525151E+03  0.25500000920E-02 0. -1.
    10030    2    1    2    0    0  0.00000000000E+00  0.00000000000E+00  0.50755539669E+03  0.21793658997E+04  0.21194393702E+04 0.  0.
        3    1    3    3  502    0  0.10544551813E+04 -0.10000992683E+03  0.28831435201E+03  0.10977262366E+04  0.10100000352E+00 0. -1.
       -3    1    3    3    0  502 -0.10544551813E+04  0.10000992683E+03  0.21924104468E+03  0.10816396631E+04  0.10100000352E+00 0.  1.
</event>
<event>
 5   0  0.9086985E-05  0.2117458E+04  0.7818609E-02  0.8553592E-01
        2   -1    0    0  501    0  0.00000000000E+00  0.00000000000E+00  0.14495623892E+04  0.14495623892E+04  0.25500000920E-02 0.  1.
       -2   -1    0    0    0  501  0.00000000000E+00  0.00000000000E+00 -0.77327246439E+03  0.77327246440E+03  0.25500000920E-02 0. -1.
    10030    2    1    2    0    0  0.00000000000E+00  0.00000000000E+00  0.67628992477E+03  0.22228348536E+04  0.21174576085E+04 0.  0.
        5    1    3    3  502    0 -0.40052178164E+02 -0.31326438295E+03 -0.72266199540E+03  0.78867052702E+03  0.46999998093E+01 0. -1.
       -5    1    3    3    0  502  0.40052178164E+02  0.31326438295E+03  0.13989519202E+04  0.14341643265E+04  0.46999998093E+01 0.  1.
</event>
<event>
 5   0  0.4174093E-05  0.2005526E+04  0.7818609E-02  0.8604041E-01
        1   -1    0    0  501    0  0.00000000000E+00  0.00000000000E+00  0.11967372674E+04  0.11967372674E+04  0.50400001928E-02 0.  1.
       -1   -1    0    0    0  501  0.00000000000E+00  0.00000000000E+00 -0.84022928306E+03  0.84022928307E+03  0.50400001928E-02 0. -1.
    10030    2    1    2    0    0  0.00000000000E+00  0.00000000000E+00  0.35650798434E+03  0.20369665505E+04  0.20055260619E+04 0.  0.
        3    1    3    3  502    0  0.66672235527E+03  0.63372954595E+03  0.58376464301E+03  0.10894553708E+04  0.10100000352E+00 0.  1.
       -3    1    3    3    0  502 -0.66672235527E+03 -0.63372954595E+03 -0.22725665867E+03  0.94751117964E+03  0.10100000352E+00 0. -1.
</event>
<event>
 5   0  0.4050368E-05  0.2142242E+04  0.7818609E-02  0.8542860E-01
        1   -1    0    0  501    0  0.00000000000E+00  0.00000000000E+00  0.11518079723E+04  0.11518079724E+04  0.50400001928E-02 0. -1.
       -1   -1    0    0    0  501  0.00000000000E+00  0.00000000000E+00 -0.99608647476E+03  0.99608647478E+03  0.50400001928E-02 0.  1.
    10030    2    1    2    0    0  0.00000000000E+00  0.00000000000E+00  0.15572149758E+03  0.21478944471E+04  0.21422421365E+04 0.  0.
        2    1    3    3  502    0 -0.11206230075E+03  0.52831133583E+03  0.10053038109E+04  0.11411864786E+04  0.25500000920E-02 0. -1.
       -2    1    3    3    0  502  0.11206230075E+03 -0.52831133583E+03 -0.84958231329E+03  0.10067079685E+04  0.25500000920E-02 0.  1.
</event>
<event>
 5   0  0.4200061E-05  0.2098605E+04  0.7818609E-02  0.8561858E-01
        1   -1    0    0  501    0  0.00000000000E+00  0.00000000000E+00  0.81249461801E+03  0.81249461802E+03  0.50400001928E-02 0.  1.
       -1   -1    0    0    0  501  0.00000000000E+00  0.00000000000E+00 -0.13551293146E+04  0.13551293146E+04  0.50400001928E-02 0. -1.
    10030    2    1    2    0    0  0.00000000000E+00  0.00000000000E+00 -0.54263469655E+03  0.21676239326E+04  0.20986045600E+04 0.  0.
        4    1    3    3  502    0  0.93740206624E+03  0.75905511340E+01 -0.75825969374E+03  0.12057112533E+04  0.12699999809E+01 0. -1.
       -4    1    3    3    0  502 -0.93740206624E+03 -0.75905511340E+01  0.21562499720E+03  0.96191267929E+03  0.12699999809E+01 0.  1.
</event>
<event>
 5   0  0.8872777E-05  0.2094305E+04  0.7818609E-02  0.8563756E-01
        2   -1    0    0  501    0  0.00000000000E+00  0.00000000000E+00  0.69518805760E+03  0.69518805761E+03  0.25500000920E-02 0. -1.
       -2   -1    0    0    0  501  0.00000000000E+00  0.00000000000E+00 -0.15773123325E+04  0.15773123325E+04  0.25500000920E-02 0.  1.
    10030    2    1    2    0    0  0.00000000000E+00  0.00000000000E+00 -0.88212427487E+03  0.22725003901E+04  0.20943053232E+04 0.  0.
        3    1    3    3  502    0  0.25480979937E+03  0.97171140053E+03 -0.12031407446E+03  0.10117443187E+04  0.10100000352E+00 0. -1.
       -3    1    3    3    0  502 -0.25480979937E+03 -0.97171140053E+03 -0.76181020041E+03  0.12607560713E+04  0.10100000352E+00 0.  1.
</event>
<event>
 5   0  0.8872777E-05  0.2103741E+04  0.7818609E-02  0.8559597E-01
       -2   -1    0    0    0  501  0.00000000000E+00  0.00000000000E+00  0.90897460977E+03  0.90897460977E+03  0.25500000920E-02 0. -1.
        2   -1    0    0  501    0  0.00000000000E+00  0.00000000000E+00 -0.12172309128E+04  0.12172309128E+04  0.25500000920E-02 0.  1.
    10030    2    1    2    0    0  0.00000000000E+00  0.00000000000E+00 -0.30825630303E+03  0.21262055226E+04  0.21037414232E+04 0.  0.
        3    1    3    3  502    0 -0.97981226702E+02  0.10266397657E+04  0.55066248828E+02  0.10327738529E+04  0.10100000352E+00 0. -1.
       -3    1    3    3    0  502  0.97981226702E+02 -0.10266397657E+04 -0.36332255186E+03  0.10934316697E+04  0.10100000352E+00 0.  1.
</event>
<event>
 5   0  0.8858590E-05  0.2109101E+04  0.7818609E-02  0.8557245E-01
        2   -1    0    0  501    0  0.00000000000E+00  0.00000000000E+00  0.10145218365E+04  0.10145218365E+04  0.25500000920E-02 0.  1.
       -2   -1    0    0    0  501  0.00000000000E+00  0.00000000000E+00 -0.10961586839E+04  0.10961586839E+04  0.25500000920E-02 0. -1.
    10030    2    1    2    0    0  0.00000000000E+00  0.00000000000E+00 -0.81636847387E+02  0.21106805204E+04  0.21091011555E+04 0.  0.
        1    1    3    3  502    0 -0.70243195649E+03  0.75801900345E+03  0.16927557898E+03  0.10472142497E+04  0.50400001928E-02 0.  1.
       -1    1    3    3    0  502  0.70243195649E+03 -0.75801900345E+03 -0.25091242637E+03  0.10634662707E+04  0.50400001928E-02 0. -1.
</event>
<event>
 5   0  0.4182977E-05  0.2104679E+04  0.7818609E-02  0.8559185E-01
       -1   -1    0    0    0  501  0.00000000000E+00  0.00000000000E+00  0.86728244546E+03  0.86728244548E+03  0.50400001928E-02 0.  1.
        1   -1    0    0  501    0  0.00000000000E+00  0.00000000000E+00 -0.12768834664E+04  0.12768834664E+04  0.50400001928E-02 0. -1.
    10030    2    1    2    0    0  0.00000000000E+00  0.00000000000E+00 -0.40960102089E+03  0.21441659118E+04  0.21046791825E+04 0.  0.
        1    1    3    3  502    0 -0.37481479063E+03  0.93169397817E+03  0.11554903880E+03  0.10108864311E+04  0.50400001928E-02 0.  1.
       -1    1    3    3    0  502  0.37481479063E+03 -0.93169397817E+03 -0.52515005970E+03  0.11332794807E+04  0.50400001928E-02 0. -1.
</event>
<event>
 5   0  0.9012466E-05  0.2092482E+04  0.7818609E-02  0.8564562E-01
        2   -1    0    0  501    0  0.00000000000E+00  0.00000000000E+00  0.17533681435E+04  0.17533681435E+04  0.25500000920E-02 0. -1.
       -2   -1    0    0    0  501  0.00000000000E+00  0.00000000000E+00 -0.62429571438E+03  0.62429571439E+03  0.25500000920E-02 0.  1.
    10030    2    1    2    0    0  0.00000000000E+00  0.00000000000E+00  0.11290724291E+04  0.23776638579E+04  0.20924819882E+04 0.  0.
        2    1    3    3  502    0 -0.80091816949E+03  0.67166999581E+03  0.51359649705E+03  0.11646423740E+04  0.25500000920E-02 0.  1.
       -2    1    3    3    0  502  0.80091816949E+03 -0.67166999581E+03  0.61547593210E+03  0.12130214839E+04  0.25500000920E-02 0. -1.
</event>
<event>
 5   0  0.8872777E-05  0.2101874E+04  0.7818609E-02  0.8560418E-01
       -2   -1    0    0    0  501  0.00000000000E+00  0.00000000000E+00  0.46882491101E+03  0.46882491101E+03  0.25500000920E-02 0. -1.
        2   -1    0    0  501    0  0.00000000000E+00  0.00000000000E+00 -0.23558225489E+04  0.23558225489E+04  0.25500000920E-02 0.  1.
    10030    2    1    2    0    0  0.00000000000E+00  0.00000000000E+00 -0.18869976379E+04  0.28246474599E+04  0.21018737325E+04 0.  0.
        3    1    3    3  502    0  0.92590773761E+03  0.49101433328E+03 -0.10481834707E+04  0.14822580114E+04  0.10100000352E+00 0.  1.
       -3    1    3    3    0  502 -0.92590773761E+03 -0.49101433328E+03 -0.83881416717E+03  0.13423894484E+04  0.10100000352E+00 0. -1.
</event>
<event>
 5   0  0.4182977E-05  0.2065178E+04  0.7818609E-02  0.8576740E-01
        1   -1    0    0  501    0  0.00000000000E+00  0.00000000000E+00  0.10384843013E+04  0.10384843014E+04  0.50400001928E-02 0. -1.
       -1   -1    0    0    0  501  0.00000000000E+00  0.00000000000E+00 -0.10267275072E+04  0.10267275072E+04  0.50400001928E-02 0.  1.
    10030    2    1    2    0    0  0.00000000000E+00  0.00000000000E+00  0.11756794135E+02  0.20652118086E+04  0.20651783439E+04 0.  0.
        1    1    3    3  502    0 -0.10120007231E+04 -0.99414978465E+02  0.18535719938E+03  0.10336276374E+04  0.50400001928E-02 0.  1.
       -1    1    3    3    0  502  0.10120007231E+04  0.99414978465E+02 -0.17360040524E+03  0.10315841712E+04  0.50400001928E-02 0. -1.
</event>
<event>
 5   0  0.8547605E-05  0.2090657E+04  0.7818609E-02  0.8565370E-01
       -2   -1    0    0    0  501  0.00000000000E+00  0.00000000000E+00  0.10624867770E+04  0.10624867770E+04  0.25500000920E-02 0. -1.
        2   -1    0    0  501    0  0.00000000000E+00  0.00000000000E+00 -0.10284470330E+04  0.10284470330E+04  0.25500000920E-02 0.  1.
    10030    2    1    2    0    0  0.00000000000E+00  0.00000000000E+00  0.34039743974E+02  0.20909338100E+04  0.20906567135E+04 0.  0.
        4    1    3    3  502    0  0.14146714390E+03 -0.10276555659E+04 -0.11191907393E+03  0.10433678196E+04  0.12699999809E+01 0.  1.
       -4    1    3    3    0  502 -0.14146714390E+03  0.10276555659E+04  0.14595881790E+03  0.10475659904E+04  0.12699999809E+01 0. -1.
</event>
<event>
 5   0  0.4128678E-05  0.2073504E+04  0.7818609E-02  0.8573006E-01
        1   -1    0    0  501    0  0.00000000000E+00  0.00000000000E+00  0.11911503243E+04  0.11911503243E+04  0.50400001928E-02 0.  1.
       -1   -1    0    0    0  501  0.00000000000E+00  0.00000000000E+00 -0.90236709823E+03  0.90236709824E+03  0.50400001928E-02 0. -1.
    10030    2    1    2    0    0  0.00000000000E+00  0.00000000000E+00  0.28878322604E+03  0.20935174225E+04  0.20735041468E+04 0.  0.
        5    1    3    3  502    0 -0.59792958558E+03 -0.36320397632E+03  0.91688806314E+03  0.11533181383E+04  0.46999998093E+01 0.  1.
       -5    1    3    3    0  502  0.59792958558E+03  0.36320397632E+03 -0.62810483710E+03  0.94019928425E+03  0.46999998093E+01 0. -1.
</event>
<event>
 5   0  0.9086985E-05  0.2072581E+04  0.7818609E-02  0.8573419E-01
       -2   -1    0    0    0  501  0.00000000000E+00  0.00000000000E+00  0.95450144378E+03  0.95450144378E+03  0.25500000920E-02 0.  1.
        2   -1    0    0  501    0  0.00000000000E+00  0.00000000000E+00 -0.11250880670E+04  0.11250880670E+04  0.25500000920E-02 0. -1.
    10030    2    1    2    0    0  0.00000000000E+00  0.00000000000E+00 -0.17058662325E+03  0.20795895108E+04  0.20725811775E+04 0.  0.
        5    1    3    3  502    0 -0.57270162369E+03 -0.69049031397E+03  0.43522097921E+03  0.99709749484E+03  0.46999998093E+01 0.  1.
       -5    1    3    3    0  502  0.57270162369E+03  0.69049031397E+03 -0.60580760246E+03  0.10824920160E+04  0.46999998093E+01 0. -1.
</event>
<event>
 5   0  0.8547605E-05  0.2086146E+04  0.7818609E-02  0.8567371E-01
       -2   -1    0    0    0  501  0.00000000000E+00  0.00000000000E+00  0.65231605293E+03  0.65231605293E+03  0.25500000920E-02 0. -1.
        2   -1    0    0  501    0  0.00000000000E+00  0.00000000000E+00 -0.16679044031E+04  0.16679044031E+04  0.25500000920E-02 0.  1.
    10030    2    1    2    0    0  0.00000000000E+00  0.00000000000E+00 -0.10155883502E+04  0.23202204560E+04  0.20861455528E+04 0.  0.
        4    1    3    3  502    0 -0.77079009830E+03  0.11004820875E+03 -0.12797724372E+04  0.14980143817E+04  0.12699999809E+01 0.  1.
       -4    1    3    3    0  502  0.77079009830E+03 -0.11004820875E+03  0.26418408704E+03  0.82220607431E+03  0.12699999809E+01 0. -1.
</event>
<event>
 5   0  0.8872777E-05  0.2064328E+04  0.7818609E-02  0.8577122E-01
       -2   -1    0    0    0  501  0.00000000000E+00  0.00000000000E+00  0.49493675845E+03  0.49493675846E+03  0.25500000920E-02 0. -1.
        2   -1    0    0  501    0  0.00000000000E+00  0.00000000000E+00 -0.21525219175E+04  0.21525219175E+04  0.25500000920E-02 0.  1.
    10030    2    1    2    0    0  0.00000000000E+00  0.00000000000E+00 -0.16575851590E+04  0.26474586759E+04  0.20643277069E+04 0.  0.
        3    1    3    3  502    0  0.63754268146E+03  0.53878629216E+03 -0.16074288279E+04  0.18112368112E+04  0.10100000352E+00 0.  1.
       -3    1    3    3    0  502 -0.63754268146E+03 -0.53878629216E+03 -0.50156331129E+02  0.83622186473E+03  0.10100000352E+00 0. -1.
</event>
<event>
 5   0  0.8872777E-05  0.2093062E+04  0.7818609E-02  0.8564306E-01
       -2   -1    0    0    0  501  0.00000000000E+00  0.00000000000E+00  0.48719834219E+03  0.48719834220E+03  0.25500000920E-02 0.  1.
        2   -1    0    0  501    0  0.00000000000E+00  0.00000000000E+00 -0.22480110433E+04  0.22480110433E+04  0.25500000920E-02 0. -1.
    10030    2    1    2    0    0  0.00000000000E+00  0.00000000000E+00 -0.17608127011E+04  0.27352093855E+04  0.20930621143E+04 0.  0.
        3    1    3    3  502    0  0.60169026734E+02  0.38459621481E+03 -0.21498801886E+04  0.21848385285E+04  0.10100000352E+00 0. -1.
       -3    1    3    3    0  502 -0.60169026734E+02 -0.38459621481E+03  0.38906748747E+03  0.55037085699E+03  0.10100000352E+00 0.  1.
</event>
<event>
 5   0  0.8547605E-05  0.2097377E+04  0.7818609E-02  0.8562400E-01
       -2   -1    0    0    0  501  0.00000000000E+00  0.00000000000E+00  0.27146563359E+04  0.27146563359E+04  0.25500000920E-02 0.  1.
        2   -1    0    0  501    0  0.00000000000E+00  0.00000000000E+00 -0.40511485713E+03  0.40511485714E+03  0.25500000920E-02 0. -1.
    10030    2    1    2    0    0  0.00000000000E+00  0.00000000000E+00  0.23095414788E+04  0.31197711931E+04  0.20973770416E+04 0.  0.
        4    1    3    3  502    0  0.54852579251E+02  0.42569396647E+03 -0.26847728234E+03  0.50626655289E+03  0.12699999809E+01 0. -1.
       -4    1    3    3    0  502 -0.54852579251E+02 -0.42569396647E+03  0.25780187611E+04  0.26135046402E+04  0.12699999809E+01 0.  1.
</event>
<event>
 5   0  0.8872777E-05  0.1946556E+04  0.7818609E-02  0.8632024E-01
        2   -1    0    0  501    0  0.00000000000E+00  0.00000000000E+00  0.12103735579E+04  0.12103735579E+04  0.25500000920E-02 0.  1.
       -2   -1    0    0    0  501  0.00000000000E+00  0.00000000000E+00 -0.78262586424E+03  0.78262586425E+03  0.25500000920E-02 0. -1.
    10030    2    1    2    0    0  0.00000000000E+00  0.00000000000E+00  0.42774769361E+03  0.19929994221E+04  0.19465555751E+04 0.  0.
        3    1    3    3  502    0  0.44521594112E+03  0.31479610473E+03  0.10393077136E+04  0.11736585345E+04  0.10100000352E+00 0.  1.
       -3    1    3    3    0  502 -0.44521594112E+03 -0.31479610473E+03 -0.61156002003E+03  0.81934088760E+03  0.10100000352E+00 0. -1.
</event>
<event>
 5   0  0.4128678E-05  0.2083560E+04  0.7818609E-02  0.8568520E-01
        1   -1    0    0  501    0  0.00000000000E+00  0.00000000000E+00  0.18245150563E+04  0.18245150563E+04  0.50400001928E-02 0. -1.
       -1   -1    0    0    0  501  0.00000000000E+00  0.00000000000E+00 -0.59484595866E+03  0.59484595868E+03  0.50400001928E-02 0.  1.
    10030    2    1    2    0    0  0.00000000000E+00  0.00000000000E+00  0.12296690977E+04  0.24193610150E+04  0.20835598458E+04 0.  0.
        5    1    3    3  502    0 -0.78080019603E+03  0.68740113752E+03  0.67963191260E+03  0.12426145406E+04  0.46999998093E+01 0. -1.
       -5    1    3    3    0  502  0.78080019603E+03 -0.68740113752E+03  0.55003718507E+03  0.11767464744E+04  0.46999998093E+01 0.  1.
</event>
<event>
 5   0  0.8858590E-05  0.2085080E+04  0.7818609E-02  0.8567844E-01
       -2   -1    0    0    0  501  0.00000000000E+00  0.00000000000E+00  0.77677475511E+03  0.77677475512E+03  0.25500000920E-02 0.  1.
        2   -1    0    0  501    0  0.00000000000E+00  0.00000000000E+00 -0.13992337937E+04  0.13992337937E+04  0.25500000920E-02 0. -1.
    10030    2    1    2    0    0  0.00000000000E+00  0.00000000000E+00 -0.62245903863E+03  0.21760085489E+04  0.20850798426E+04 0.  0.
        1    1    3    3  502    0  0.14814699059E+03 -0.91209646923E+03  0.19254518698E+03  0.94389678941E+03  0.50400001928E-02 0.  1.
       -1    1    3    3    0  502 -0.14814699059E+03  0.91209646923E+03 -0.81500422560E+03  0.12321117595E+04  0.50400001928E-02 0. -1.
</event>
<event>
 5   0  0.4174093E-05  0.2070354E+04  0.7818609E-02  0.8574416E-01
       -1   -1    0    0    0  501  0.00000000000E+00  0.00000000000E+00  0.46894671236E+03  0.46894671239E+03  0.50400001928E-02 0. -1.
        1   -1    0    0  501    0  0.00000000000E+00  0.00000000000E+00 -0.22851029469E+04  0.22851029469E+04  0.50400001928E-02 0.  1.
    10030    2    1    2    0    0  0.00000000000E+00  0.00000000000E+00 -0.18161562345E+04  0.27540496593E+04  0.20703540899E+04 0.  0.
        3    1    3    3  502    0 -0.42746214840E+03 -0.82223382743E+03 -0.15217158853E+04  0.17816878517E+04  0.10100000352E+00 0.  1.
       -3    1    3    3    0  502  0.42746214840E+03  0.82223382743E+03 -0.29444034922E+03  0.97236180753E+03  0.10100000352E+00 0. -1.
</event>
<event>
 5   0  0.8547605E-05  0.2118073E+04  0.7818609E-02  0.8553324E-01
        2   -1    0    0  501    0  0.00000000000E+00  0.00000000000E+00  0.13406725625E+04  0.13406725625E+04  0.25500000920E-02 0.  1.
       -2   -1    0    0    0  501  0.00000000000E+00  0.00000000000E+00 -0.83656359725E+03  0.83656359726E+03  0.25500000920E-02 0. -1.
    10030    2    1    2    0    0  0.00000000000E+00  0.00000000000E+00  0.50410896526E+03  0.21772361598E+04  0.21180725782E+04 0.  0.
        4    1    3    3  502    0 -0.18351134491E+03 -0.18990310828E+03  0.13062829041E+04  0.13327101120E+04  0.12699999809E+01 0.  1.
       -4    1    3    3    0  502  0.18351134491E+03  0.18990310828E+03 -0.80217393885E+03  0.84452604774E+03  0.12699999809E+01 0. -1.
</event>
<event>
 5   0  0.8547605E-05  0.2070259E+04  0.7818609E-02  0.8574459E-01
       -2   -1    0    0    0  501  0.00000000000E+00  0.00000000000E+00  0.79331022138E+03  0.79331022138E+03  0.25500000920E-02 0.  1.
        2   -1    0    0  501    0  0.00000000000E+00  0.00000000000E+00 -0.13506613541E+04  0.13506613541E+04  0.25500000920E-02 0. -1.
    10030    2    1    2    0    0  0.00000000000E+00  0.00000000000E+00 -0.55735113275E+03  0.21439715755E+04  0.20702593633E+04 0.  0.
        4    1    3    3  502    0 -0.86234774673E+03  0.14628983778E+03 -0.85196284056E+03  0.12210186925E+04  0.12699999809E+01 0. -1.
       -4    1    3    3    0  502  0.86234774673E+03 -0.14628983778E+03  0.29461170780E+03  0.92295288298E+03  0.12699999809E+01 0.  1.
</event>
<event>
 5   0  0.3176125E-05  0.2094097E+04  0.7818609E-02  0.8563848E-01
        3   -1    0    0  501    0  0.00000000000E+00  0.00000000000E+00  0.99054394429E+03  0.99054394944E+03  0.10100000352E+00 0.  1.
       -3   -1    0    0    0  501  0.00000000000E+00  0.00000000000E+00 -0.11067758174E+04  0.11067758220E+04  0.10100000352E+00 0. -1.
    10030    2    1    2    0    0  0.00000000000E+00  0.00000000000E+00 -0.11623187315E+03  0.20973197715E+04  0.20940965535E+04 0.  0.
        1    1    3    3  502    0  0.75452289366E+00 -0.86189078399E+03  0.53731895102E+03  0.10156613353E+04  0.50400001928E-02 0.  1.
       -1    1    3    3    0  502 -0.75452289366E+00  0.86189078399E+03 -0.65355082417E+03  0.10816584362E+04  0.50400001928E-02 0. -1.
</event>
<event>
 5   0  0.8547605E-05  0.2090706E+04  0.7818609E-02  0.8565348E-01
       -2   -1    0    0    0  501  0.00000000000E+00  0.00000000000E+00  0.89479546240E+03  0.89479546241E+03  0.25500000920E-02 0. -1.
        2   -1    0    0  501    0  0.00000000000E+00  0.00000000000E+00 -0.12212435218E+04  0.12212435218E+04  0.25500000920E-02 0.  1.
    10030    2    1    2    0    0  0.00000000000E+00  0.00000000000E+00 -0.32644805935E+03  0.21160389842E+04  0.20907062556E+04 0.  0.
        4    1    3    3  502    0 -0.56909192011E+03  0.82310757881E+03 -0.46919457870E+03  0.11052225411E+04  0.12699999809E+01 0.  1.
       -4    1    3    3    0  502  0.56909192011E+03 -0.82310757881E+03  0.14274651935E+03  0.10108164430E+04  0.12699999809E+01 0. -1.
</event>
<event>
 5   0  0.8858590E-05  0.2106532E+04  0.7818609E-02  0.8558372E-01
       -2   -1    0    0    0  501  0.00000000000E+00  0.00000000000E+00  0.61042500110E+03  0.61042500110E+03  0.25500000920E-02 0.  1.
        2   -1    0    0  501    0  0.00000000000E+00  0.00000000000E+00 -0.18173715207E+04  0.18173715207E+04  0.25500000920E-02 0. -1.
    10030    2    1    2    0    0  0.00000000000E+00  0.00000000000E+00 -0.12069465196E+04  0.24277965218E+04  0.21065317586E+04 0.  0.
        1    1    3    3  502    0  0.16990026166E+03 -0.10068967154E+04 -0.90103917036E+03  0.13618291673E+04  0.50400001928E-02 0. -1.
       -1    1    3    3    0  502 -0.16990026166E+03  0.10068967154E+04 -0.30590734926E+03  0.10659673545E+04  0.50400001928E-02 0.  1.
</event>
<event>
 5   0  0.4200061E-05  0.2086376E+04  0.7818609E-02  0.8567269E-01
       -1   -1    0    0    0  501  0.00000000000E+00  0.00000000000E+00  0.47626113819E+03  0.47626113822E+03  0.50400001928E-02 0.  1.
        1   -1    0    0  501    0  0.00000000000E+00  0.00000000000E+00 -0.22849684489E+04  0.22849684489E+04  0.50400001928E-02 0. -1.
    10030    2    1    2    0    0  0.00000000000E+00  0.00000000000E+00 -0.18087073107E+04  0.27612295871E+04  0.20863764514E+04 0.  0.
        4    1    3    3  502    0  0.73819535836E+03  0.73635764381E+03 -0.86075795522E+03  0.13520580006E+04  0.12699999809E+01 0.  1.
       -4    1    3    3    0  502 -0.73819535836E+03 -0.73635764381E+03 -0.94794935550E+03  0.14091715865E+04  0.12699999809E+01 0. -1.
</event>
<event>
 5   0  0.3176125E-05  0.2110732E+04  0.7818609E-02  0.8556531E-01
        3   -1    0    0  501    0  0.00000000000E+00  0.00000000000E+00  0.53994163243E+03  0.53994164187E+03  0.10100000352E+00 0. -1.
       -3   -1    0    0    0  501  0.00000000000E+00  0.00000000000E+00 -0.20628105850E+04  0.20628105874E+04  0.10100000352E+00 0.  1.
    10030    2    1    2    0    0  0.00000000000E+00  0.00000000000E+00 -0.15228689525E+04  0.26027522293E+04  0.21107319395E+04 0.  0.
        3    1    3    3  502    0  0.34063403496E+02 -0.42076251849E+03  0.43130035460E+03  0.60350759606E+03  0.10100000352E+00 0. -1.
       -3    1    3    3    0  502 -0.34063403496E+02  0.42076251849E+03 -0.19541693071E+04  0.19992446333E+04  0.10100000352E+00 0.  1.
</event>
<event>
 5   0  0.4128678E-05  0.2102611E+04  0.7818609E-02  0.8560094E-01
       -1   -1    0    0    0  501  0.00000000000E+00  0.00000000000E+00  0.11860164410E+04  0.11860164410E+04  0.50400001928E-02 0.  1.
        1   -1    0    0  501    0  0.00000000000E+00  0.00000000000E+00 -0.93189549906E+03  0.93189549907E+03  0.50400001928E-02 0. -1.
    10030    2    1    2    0    0  0.00000000000E+00  0.00000000000E+00  0.25412094194E+03  0.21179119401E+04  0.21026111226E+04 0.  0.
        5    1    3    3  502    0  0.60122777344E+03 -0.22830360235E+03 -0.71063071272E+03  0.95844429691E+03  0.46999998093E+01 0. -1.
       -5    1    3    3    0  502 -0.60122777344E+03  0.22830360235E+03  0.96475165467E+03  0.11594676432E+04  0.46999998093E+01 0.  1.
</event>
<event>
 5   0  0.8547605E-05  0.1893694E+04  0.7818609E-02  0.8658002E-01
        2   -1    0    0  501    0  0.00000000000E+00  0.00000000000E+00  0.17947006827E+04  0.17947006827E+04  0.25500000920E-02 0.  1.
       -2   -1    0    0    0  501  0.00000000000E+00  0.00000000000E+00 -0.49953696209E+03  0.49953696210E+03  0.25500000920E-02 0. -1.
    10030    2    1    2    0    0  0.00000000000E+00  0.00000000000E+00  0.12951637206E+04  0.22942376448E+04  0.18936940903E+04 0.  0.
        4    1    3    3  502    0  0.46833945979E+02  0.72708998866E+03  0.13801869713E+04  0.15606956650E+04  0.12699999809E+01 0.  1.
       -4    1    3    3    0  502 -0.46833945979E+02 -0.72708998866E+03 -0.85023250671E+02  0.73354197982E+03  0.12699999809E+01 0. -1.
</event>
<event>
 5   0  0.8858590E-05  0.2108138E+04  0.7818609E-02  0.8557667E-01
       -2   -1    0    0    0  501  0.00000000000E+00  0.00000000000E+00  0.66502073709E+03  0.66502073709E+03  0.25500000920E-02 0.  1.
        2   -1    0    0  501    0  0.00000000000E+00  0.00000000000E+00 -0.16707172721E+04  0.16707172721E+04  0.25500000920E-02 0. -1.
    10030    2    1    2    0    0  0.00000000000E+00  0.00000000000E+00 -0.10056965350E+04  0.23357380092E+04  0.21081381660E+04 0.  0.
        1    1    3    3  502    0 -0.78561517041E+03 -0.32644154552E+03 -0.11923769996E+04  0.14647587473E+04  0.50400001928E-02 0. -1.
       -1    1    3    3    0  502  0.78561517041E+03  0.32644154552E+03  0.18668046466E+03  0.87097926182E+03  0.50400001928E-02 0.  1.
</event>
<event>
 5   0  0.9012466E-05  0.2096201E+04  0.7818609E-02  0.8562919E-01
        2   -1    0    0  501    0  0.00000000000E+00  0.00000000000E+00  0.12391647513E+04  0.12391647513E+04  0.25500000920E-02 0.  1.
       -2   -1    0    0    0  501  0.00000000000E+00  0.00000000000E+00 -0.88649596400E+03  0.88649596400E+03  0.25500000920E-02 0. -1.
    10030    2    1    2    0    0  0.00000000000E+00  0.00000000000E+00  0.35266878727E+03  0.21256607153E+04  0.20962008976E+04 0.  0.
        2    1    3    3  502    0  0.81359671035E+03  0.33148436316E+03 -0.40326910528E+03  0.96666822716E+03  0.25500000920E-02 0. -1.
       -2    1    3    3    0  502 -0.81359671035E+03 -0.33148436316E+03  0.75593789255E+03  0.11589924881E+04  0.25500000920E-02 0.  1.
</event>
<event>
 5   0  0.9086985E-05  0.2100418E+04  0.7818609E-02  0.8561059E-01
        2   -1    0    0  501    0  0.00000000000E+00  0.00000000000E+00  0.10100142376E+04  0.10100142376E+04  0.25500000920E-02 0.  1.
       -2   -1    0    0    0  501  0.00000000000E+00  0.00000000000E+00 -0.10920028930E+04  0.10920028930E+04  0.25500000920E-02 0. -1.
    10030    2    1    2    0    0  0.00000000000E+00  0.00000000000E+00 -0.81988655360E+02  0.21020171306E+04  0.21004175484E+04 0.  0.
        5    1    3    3  502    0 -0.98704321089E+03  0.51004324786E+02 -0.39631490871E+03  0.10648677562E+04  0.46999998093E+01 0. -1.
       -5    1    3    3    0  502  0.98704321089E+03 -0.51004324786E+02  0.31432625335E+03  0.10371493744E+04  0.46999998093E+01 0.  1.
</event>
<event>
 5   0  0.9012466E-05  0.2090928E+04  0.7818609E-02  0.8565250E-01
        2   -1    0    0  501    0  0.00000000000E+00  0.00000000000E+00  0.19197189303E+04  0.19197189303E+04  0.25500000920E-02 0. -1.
       -2   -1    0    0    0  501  0.00000000000E+00  0.00000000000E+00 -0.56935181806E+03  0.56935181807E+03  0.25500000920E-02 0.  1.
    10030    2    1    2    0    0  0.00000000000E+00  0.00000000000E+00  0.13503671123E+04  0.24890707484E+04  0.20909284667E+04 0.  0.
        2    1    3    3  502    0  0.68078014193E+03 -0.56990699201E+02 -0.26688908238E+03  0.73344347003E+03  0.25500000920E-02 0.  1.
       -2    1    3    3    0  502 -0.68078014193E+03  0.56990699201E+02  0.16172561947E+04  0.17556272784E+04  0.25500000920E-02 0. -1.
</event>
<event>
 5   0  0.4174093E-05  0.2109319E+04  0.7818609E-02  0.8557149E-01
        1   -1    0    0  501    0  0.00000000000E+00  0.00000000000E+00  0.16281706784E+04  0.16281706784E+04  0.50400001928E-02 0. -1.
       -1   -1    0    0    0  501  0.00000000000E+00  0.00000000000E+00 -0.68316337348E+03  0.68316337350E+03  0.50400001928E-02 0.  1.
    10030    2    1    2    0    0  0.00000000000E+00  0.00000000000E+00  0.94500730494E+03  0.23113340519E+04  0.21093189169E+04 0.  0.
        3    1    3    3  502    0 -0.74866708475E+03 -0.70684300459E+02  0.12827887581E+04  0.14869585341E+04  0.10100000352E+00 0. -1.
       -3    1    3    3    0  502  0.74866708475E+03  0.70684300459E+02 -0.33778145312E+03  0.82437551783E+03  0.10100000352E+00 0.  1.
</event>
<event>
 5   0  0.8858590E-05  0.2088992E+04  0.7818609E-02  0.8566108E-01
       -2   -1    0    0    0  501  0.00000000000E+00  0.00000000000E+00  0.66747253513E+03  0.66747253513E+03  0.25500000920E-02 0. -1.
        2   -1    0    0  501    0  0.00000000000E+00  0.00000000000E+00 -0.16344818939E+04  0.16344818939E+04  0.25500000920E-02 0.  1.
    10030    2    1    2    0    0  0.00000000000E+00  0.00000000000E+00 -0.96700935881E+03  0.23019544291E+04  0.20889918845E+04 0.  0.
        1    1    3    3  502    0 -0.83458349335E+01  0.59861840119E+03 -0.14266552142E+04  0.15471776703E+04  0.50400001928E-02 0.  1.
       -1    1    3    3    0  502  0.83458349335E+01 -0.59861840119E+03  0.45964585539E+03  0.75477675879E+03  0.50400001928E-02 0. -1.
</event>
<event>
 5   0  0.4050368E-05  0.2078493E+04  0.7818609E-02  0.8570777E-01
       -1   -1    0    0    0  501  0.00000000000E+00  0.00000000000E+00  0.13765432835E+04  0.13765432835E+04  0.50400001928E-02 0. -1.
        1   -1    0    0  501    0  0.00000000000E+00  0.00000000000E+00 -0.78459796531E+03  0.78459796533E+03  0.50400001928E-02 0.  1.
    10030    2    1    2    0    0  0.00000000000E+00  0.00000000000E+00  0.59194531821E+03  0.21611412489E+04  0.20784927803E+04 0.  0.
        2    1    3    3  502    0  0.37633825310E+02  0.12821314341E+03  0.13675741591E+04  0.13740866041E+04  0.25500000920E-02 0. -1.
       -2    1    3    3    0  502 -0.37633825310E+02 -0.12821314341E+03 -0.77562884090E+03  0.78705464473E+03  0.25500000920E-02 0.  1.
</event>
<event>
 5   0  0.4200061E-05  0.2112997E+04  0.7818609E-02  0.8555540E-01
        1   -1    0    0  501    0  0.00000000000E+00  0.00000000000E+00  0.86443488467E+03  0.86443488468E+03  0.50400001928E-02 0. -1.
       -1   -1    0    0    0  501  0.00000000000E+00  0.00000000000E+00 -0.12912350282E+04  0.12912350282E+04  0.50400001928E-02 0.  1.
    10030    2    1    2    0    0  0.00000000000E+00  0.00000000000E+00 -0.42680014353E+03  0.21556699129E+04  0.21129965478E+04 0.  0.
        4    1    3    3  502    0  0.40207632125E+02 -0.54119595683E+02  0.86223716920E+03  0.86487000941E+03  0.12699999809E+01 0. -1.
       -4    1    3    3    0  502 -0.40207632125E+02  0.54119595683E+02 -0.12890373127E+04  0.12907999035E+04  0.12699999809E+01 0.  1.
</event>
<event>
 5   0  0.8872777E-05  0.2104837E+04  0.7818609E-02  0.8559116E-01
       -2   -1    0    0    0  501  0.00000000000E+00  0.00000000000E+00  0.12193125538E+04  0.12193125538E+04  0.25500000920E-02 0. -1.
        2   -1    0    0  501    0  0.00000000000E+00  0.00000000000E+00 -0.90836808837E+03  0.90836808837E+03  0.25500000920E-02 0.  1.
    10030    2    1    2    0    0  0.00000000000E+00  0.00000000000E+00  0.31094446544E+03  0.21276806422E+04  0.21048369187E+04 0.  0.
        3    1    3    3  502    0  0.77229457128E+03 -0.23837381798E+03  0.83682284177E+03  0.11634145695E+04  0.10100000352E+00 0. -1.
       -3    1    3    3    0  502 -0.77229457128E+03  0.23837381798E+03 -0.52587837634E+03  0.96426607263E+03  0.10100000352E+00 0.  1.
</event>
<event>
 5   0  0.9086985E-05  0.2103785E+04  0.7818609E-02  0.8559578E-01
        2   -1    0    0  501    0  0.00000000000E+00  0.00000000000E+00  0.76380279880E+03  0.76380279880E+03  0.25500000920E-02 0.  1.
       -2   -1    0    0    0  501  0.00000000000E+00  0.00000000000E+00 -0.14486430682E+04  0.14486430682E+04  0.25500000920E-02 0. -1.
    10030    2    1    2    0    0  0.00000000000E+00  0.00000000000E+00 -0.68484026942E+03  0.22124458670E+04  0.21037848084E+04 0.  0.
        5    1    3    3  502    0 -0.45466064243E+03  0.21617944202E+03 -0.13137065230E+04  0.14068748237E+04  0.46999998093E+01 0. -1.
       -5    1    3    3    0  502  0.45466064243E+03 -0.21617944202E+03  0.62886625360E+03  0.80557104332E+03  0.46999998093E+01 0.  1.
</event>
<event>
 5   0  0.3176125E-05  0.1872949E+04  0.7818609E-02  0.8668440E-01
        3   -1    0    0  501    0  0.00000000000E+00  0.00000000000E+00  0.18183398246E+04  0.18183398274E+04  0.10100000352E+00 0.  1.
       -3   -1    0    0    0  501  0.00000000000E+00  0.00000000000E+00 -0.48229952773E+03  0.48229953830E+03  0.10100000352E+00 0. -1.
    10030    2    1    2    0    0  0.00000000000E+00  0.00000000000E+00  0.13360402968E+04  0.23006393657E+04  0.18729489625E+04 0.  0.
        1    1    3    3  502    0 -0.77093946354E+03 -0.37743591607E+03  0.20811955609E+03  0.88324361127E+03  0.50400001928E-02 0.  1.
       -1    1    3    3    0  502  0.77093946354E+03  0.37743591607E+03  0.11279207407E+04  0.14173957544E+04  0.50400001928E-02 0. -1.
</event>
<event>
 5   0  0.9086985E-05  0.2092341E+04  0.7818609E-02  0.8564625E-01
       -2   -1    0    0    0  501  0.00000000000E+00  0.00000000000E+00  0.97919022147E+03  0.97919022147E+03  0.25500000920E-02 0.  1.
        2   -1    0    0  501    0  0.00000000000E+00  0.00000000000E+00 -0.11177322990E+04  0.11177322990E+04  0.25500000920E-02 0. -1.
    10030    2    1    2    0    0  0.00000000000E+00  0.00000000000E+00 -0.13854207750E+03  0.20969225204E+04  0.20923408301E+04 0.  0.
        5    1    3    3  502    0 -0.50866287830E+03 -0.21141988362E+03 -0.96060834077E+03  0.11073512385E+04  0.46999998093E+01 0. -1.
       -5    1    3    3    0  502  0.50866287830E+03  0.21141988362E+03  0.82206626326E+03  0.98957128199E+03  0.46999998093E+01 0.  1.
</event>
<event>
 5   0  0.8858590E-05  0.2094110E+04  0.7818609E-02  0.8563843E-01
        2   -1    0    0  501    0  0.00000000000E+00  0.00000000000E+00  0.15354205837E+04  0.15354205837E+04  0.25500000920E-02 0.  1.
       -2   -1    0    0    0  501  0.00000000000E+00  0.00000000000E+00 -0.71402173894E+03  0.71402173894E+03  0.25500000920E-02 0. -1.
    10030    2    1    2    0    0  0.00000000000E+00  0.00000000000E+00  0.82139884480E+03  0.22494423227E+04  0.20941095245E+04 0.  0.
        1    1    3    3  502    0  0.19091394210E+03 -0.94921820212E+03  0.83883687714E+03  0.12810584042E+04  0.50400001928E-02 0.  1.
       -1    1    3    3    0  502 -0.19091394210E+03  0.94921820212E+03 -0.17438032343E+02  0.96838391846E+03  0.50400001928E-02 0. -1.
</event>
<event>
 5   0  0.4200061E-05  0.2110134E+04  0.7818609E-02  0.8556793E-01
        1   -1    0    0  501    0  0.00000000000E+00  0.00000000000E+00  0.96263414690E+03  0.96263414692E+03  0.50400001928E-02 0. -1.
       -1   -1    0    0    0  501  0.00000000000E+00  0.00000000000E+00 -0.11563748304E+04  0.11563748305E+04  0.50400001928E-02 0.  1.
    10030    2    1    2    0    0  0.00000000000E+00  0.00000000000E+00 -0.19374068354E+03  0.21190089774E+04  0.21101335488E+04 0.  0.
        4    1    3    3  502    0  0.15372997595E+03 -0.10430885908E+04 -0.58009101014E+02  0.10559514111E+04  0.12699999809E+01 0.  1.
       -4    1    3    3    0  502 -0.15372997595E+03  0.10430885908E+04 -0.13573158252E+03  0.10630575663E+04  0.12699999809E+01 0. -1.
</event>
<event>
 5   0  0.4128678E-05  0.2097965E+04  0.7818609E-02  0.8562141E-01
        1   -1    0    0  501    0  0.00000000000E+00  0.00000000000E+00  0.91547713379E+03  0.91547713380E+03  0.50400001928E-02 0. -1.
       -1   -1    0    0    0  501  0.00000000000E+00  0.00000000000E+00 -0.12019566240E+04  0.12019566240E+04  0.50400001928E-02 0.  1.
    10030    2    1    2    0    0  0.00000000000E+00  0.00000000000E+00 -0.28647949019E+03  0.21174337578E+04  0.20979645422E+04 0.  0.
        5    1    3    3  502    0  0.26016919601E+03 -0.39457785457E+03  0.80191317755E+03  0.93084183844E+03  0.46999998093E+01 0. -1.
       -5    1    3    3    0  502 -0.26016919601E+03  0.39457785457E+03 -0.10883926677E+04  0.11865919194E+04  0.46999998093E+01 0.  1.
</event>
<event>
 5   0  0.9086985E-05  0.2040149E+04  0.7818609E-02  0.8588076E-01
       -2   -1    0    0    0  501  0.00000000000E+00  0.00000000000E+00  0.13643575174E+04  0.13643575174E+04  0.25500000920E-02 0. -1.
        2   -1    0    0  501    0  0.00000000000E+00  0.00000000000E+00 -0.76266845954E+03  0.76266845954E+03  0.25500000920E-02 0.  1.
    10030    2    1    2    0    0  0.00000000000E+00  0.00000000000E+00  0.60168905785E+03  0.21270259769E+04  0.20401494514E+04 0.  0.
        5    1    3    3  502    0 -0.81977708285E+02 -0.90141597950E+03 -0.18956796103E+03  0.92478603720E+03  0.46999998093E+01 0.  1.
       -5    1    3    3    0  502  0.81977708285E+02  0.90141597950E+03  0.79125701888E+03  0.12022399397E+04  0.46999998093E+01 0. -1.
</event>
<event>
 5   0  0.9012466E-05  0.1899483E+04  0.7818609E-02  0.8655114E-01
        2   -1    0    0  501    0  0.00000000000E+00  0.00000000000E+00  0.13799495644E+04  0.13799495644E+04  0.25500000920E-02 0. -1.
       -2   -1    0    0    0  501  0.00000000000E+00  0.00000000000E+00 -0.65365366131E+03  0.65365366132E+03  0.25500000920E-02 0.  1.
    10030    2    1    2    0    0  0.00000000000E+00  0.00000000000E+00  0.72629590307E+03  0.20336032257E+04  0.18994831773E+04 0.  0.
        2    1    3    3  502    0  0.91986489327E+03  0.17167282101E+03  0.53705549502E+03  0.10789122226E+04  0.25500000920E-02 0.  1.
       -2    1    3    3    0  502 -0.91986489327E+03 -0.17167282101E+03  0.18924040805E+03  0.95469100310E+03  0.25500000920E-02 0. -1.
</event>
<event>
 5   0  0.8872777E-05  0.2129477E+04  0.7818609E-02  0.8548369E-01
       -2   -1    0    0    0  501  0.00000000000E+00  0.00000000000E+00  0.17705589031E+04  0.17705589031E+04  0.25500000920E-02 0.  1.
        2   -1    0    0  501    0  0.00000000000E+00  0.00000000000E+00 -0.64028831270E+03  0.64028831271E+03  0.25500000920E-02 0. -1.
    10030    2    1    2    0    0  0.00000000000E+00  0.00000000000E+00  0.11302705904E+04  0.24108472159E+04  0.21294770932E+04 0.  0.
        3    1    3    3  502    0  0.98789056675E+02 -0.51842118004E+03  0.16120648269E+04  0.16962525796E+04  0.10100000352E+00 0.  1.
       -3    1    3    3    0  502 -0.98789056675E+02  0.51842118004E+03 -0.48179423645E+03  0.71459463622E+03  0.10100000352E+00 0. -1.
</event>
<event>
 5   0  0.4182977E-05  0.2091001E+04  0.7818609E-02  0.8565218E-01
       -1   -1    0    0    0  501  0.00000000000E+00  0.00000000000E+00  0.69548671618E+03  0.69548671620E+03  0.50400001928E-02 0. -1.
        1   -1    0    0  501    0  0.00000000000E+00  0.00000000000E+00 -0.15716644061E+04  0.15716644061E+04  0.50400001928E-02 0.  1.
    10030    2    1    2    0    0  0.00000000000E+00  0.00000000000E+00 -0.87617768990E+03  0.22671511223E+04  0.20910014029E+04 0.  0.
        1    1    3    3  502    0 -0.94989338502E+03 -0.35910534402E+03 -0.16851217376E+03  0.10293932406E+04  0.50400001928E-02 0. -1.
       -1    1    3    3    0  502  0.94989338502E+03  0.35910534402E+03 -0.70766551615E+03  0.12377578817E+04  0.50400001928E-02 0.  1.
</event>
<event>
 5   0  0.8872777E-05  0.2096622E+04  0.7818609E-02  0.8562733E-01
       -2   -1    0    0    0  501  0.00000000000E+00  0.00000000000E+00  0.61920238270E+03  0.61920238270E+03  0.25500000920E-02 0.  1.
        2   -1    0    0  501    0  0.00000000000E+00  0.00000000000E+00 -0.17747932653E+04  0.17747932653E+04  0.25500000920E-02 0. -1.
    10030    2    1    2    0    0  0.00000000000E+00  0.00000000000E+00 -0.11555908826E+04  0.23939956480E+04  0.20966222537E+04 0.  0.
        3    1    3    3  502    0  0.41767652589E+03 -0.37369344480E+03 -0.15893704332E+04  0.16852889530E+04  0.10100000352E+00 0. -1.
       -3    1    3    3    0  502 -0.41767652589E+03  0.37369344480E+03  0.43377955053E+03  0.70870669507E+03  0.10100000352E+00 0.  1.
</event>
<event>
 5   0  0.9086985E-05  0.2097921E+04  0.7818609E-02  0.8562160E-01
        2   -1    0    0  501    0  0.00000000000E+00  0.00000000000E+00  0.20138608794E+04  0.20138608794E+04  0.25500000920E-02 0.  1.
       -2   -1    0    0    0  501  0.00000000000E+00  0.00000000000E+00 -0.54637246472E+03  0.54637246473E+03  0.25500000920E-02 0. -1.
    10030    2    1    2    0    0  0.00000000000E+00  0.00000000000E+00  0.14674884147E+04  0.25602333441E+04  0.20979210017E+04 0.  0.
        5    1    3    3  502    0  0.11074794452E+03 -0.16353802466E+03  0.19909509096E+04  0.20007292188E+04  0.46999998093E+01 0.  1.
       -5    1    3    3    0  502 -0.11074794452E+03  0.16353802466E+03 -0.52346249487E+03  0.55950412533E+03  0.46999998093E+01 0. -1.
</event>
<event>
 5   0  0.4182977E-05  0.2109312E+04  0.7818609E-02  0.8557153E-01
        1   -1    0    0  501    0  0.00000000000E+00  0.00000000000E+00  0.20036558031E+04  0.20036558032E+04  0.50400001928E-02 0.  1.
       -1   -1    0    0    0  501  0.00000000000E+00  0.00000000000E+00 -0.55513476053E+03  0.55513476056E+03  0.50400001928E-02 0. -1.
    10030    2    1    2    0    0  0.00000000000E+00  0.00000000000E+00  0.14485210426E+04  0.25587905637E+04  0.21093117214E+04 0.  0.
        1    1    3    3  502    0  0.40534215422E+03  0.30751849102E+03 -0.39640935468E+03  0.64498857417E+03  0.50400001928E-02 0. -1.
       -1    1    3    3    0  502 -0.40534215422E+03 -0.30751849102E+03  0.18449303973E+04  0.19138019895E+04  0.50400001928E-02 0.  1.
</event>
<event>
 5   0  0.4050368E-05  0.1813478E+04  0.7818609E-02  0.8699165E-01
        1   -1    0    0  501    0  0.00000000000E+00  0.00000000000E+00  0.74354745178E+03  0.74354745180E+03  0.50400001928E-02 0. -1.
       -1   -1    0    0    0  501  0.00000000000E+00  0.00000000000E+00 -0.11057472919E+04  0.11057472919E+04  0.50400001928E-02 0.  1.
    10030    2    1    2    0    0  0.00000000000E+00  0.00000000000E+00 -0.36219984010E+03  0.18492947437E+04  0.18134779637E+04 0.  0.
        2    1    3    3  502    0 -0.62822378574E+03  0.14352854038E+03  0.46939370047E+03  0.79724275658E+03  0.25500000920E-02 0. -1.
       -2    1    3    3    0  502  0.62822378574E+03 -0.14352854038E+03 -0.83159354057E+03  0.10520519871E+04  0.25500000920E-02 0.  1.
</event>
<event>
 5   0  0.8547605E-05  0.2117305E+04  0.7818609E-02  0.8553658E-01
        2   -1    0    0  501    0  0.00000000000E+00  0.00000000000E+00  0.20118440621E+04  0.20118440621E+04  0.25500000920E-02 0.  1.
       -2   -1    0    0    0  501  0.00000000000E+00  0.00000000000E+00 -0.55707364337E+03  0.55707364338E+03  0.25500000920E-02 0. -1.
    10030    2    1    2    0    0  0.00000000000E+00  0.00000000000E+00  0.14547704187E+04  0.25689177054E+04  0.21173051755E+04 0.  0.
        4    1    3    3  502    0  0.23001720923E+03 -0.10332717686E+04  0.71087260254E+03  0.12751078128E+04  0.12699999809E+01 0. -1.
       -4    1    3    3    0  502 -0.23001720923E+03  0.10332717686E+04  0.74389781614E+03  0.12938098926E+04  0.12699999809E+01 0.  1.
</event>
<event>
 5   0  0.8547605E-05  0.2048396E+04  0.7818609E-02  0.8584322E-01
       -2   -1    0    0    0  501  0.00000000000E+00  0.00000000000E+00  0.73087681558E+03  0.73087681559E+03  0.25500000920E-02 0.  1.
        2   -1    0    0  501    0  0.00000000000E+00  0.00000000000E+00 -0.14352369531E+04  0.14352369531E+04  0.25500000920E-02 0. -1.
    10030    2    1    2    0    0  0.00000000000E+00  0.00000000000E+00 -0.70436013753E+03  0.21661137687E+04  0.20483958738E+04 0.  0.
        4    1    3    3  502    0 -0.29601248310E+03 -0.56324832724E+03  0.49650512813E+03  0.80708798990E+03  0.12699999809E+01 0.  1.
       -4    1    3    3    0  502  0.29601248310E+03  0.56324832724E+03 -0.12008652657E+04  0.13590257788E+04  0.12699999809E+01 0. -1.
</event>
<event>
 5   0  0.9012466E-05  0.2115043E+04  0.7818609E-02  0.8554646E-01
        2   -1    0    0  501    0  0.00000000000E+00  0.00000000000E+00  0.16352124332E+04  0.16352124332E+04  0.25500000920E-02 0.  1.
       -2   -1    0    0    0  501  0.00000000000E+00  0.00000000000E+00 -0.68391835416E+03  0.68391835417E+03  0.25500000920E-02 0. -1.
    10030    2    1    2    0    0  0.00000000000E+00  0.00000000000E+00  0.95129407908E+03  0.23191307874E+04  0.21150430691E+04 0.  0.
        2    1    3    3  502    0 -0.63430483966E+03  0.29976584646E+03  0.13432980581E+04  0.15154708395E+04  0.25500000920E-02 0.  1.
       -2    1    3    3    0  502  0.63430483966E+03 -0.29976584646E+03 -0.39200397905E+03  0.80365994794E+03  0.25500000920E-02 0. -1.
</event>
<event>
 5   0  0.8858590E-05  0.2115722E+04  0.7818609E-02  0.8554349E-01
       -2   -1    0    0    0  501  0.00000000000E+00  0.00000000000E+00  0.10006750319E+04  0.10006750319E+04  0.25500000920E-02 0. -1.
        2   -1    0    0  501    0  0.00000000000E+00  0.00000000000E+00 -0.11183148163E+04  0.11183148163E+04  0.25500000920E-02 0.  1.
    10030    2    1    2    0    0  0.00000000000E+00  0.00000000000E+00 -0.11763978444E+03  0.21189898482E+04  0.21157218290E+04 0.  0.
        1    1    3    3  502    0 -0.78130871722E+03 -0.18191487700E+03 -0.74947434016E+03  0.10978379301E+04  0.50400001928E-02 0.  1.
       -1    1    3    3    0  502  0.78130871722E+03  0.18191487700E+03  0.63183455572E+03  0.10211519181E+04  0.50400001928E-02 0. -1.
</event>
<event>
 5   0  0.8547605E-05  0.2066525E+04  0.7818609E-02  0.8576135E-01
        2   -1    0    0  501    0  0.00000000000E+00  0.00000000000E+00  0.15218574723E+04  0.15218574723E+04  0.25500000920E-02 0. -1.
       -2   -1    0    0    0  501  0.00000000000E+00  0.00000000000E+00 -0.70153166307E+03  0.70153166307E+03  0.25500000920E-02 0.  1.
    10030    2    1    2    0    0  0.00000000000E+00  0.00000000000E+00  0.82032580925E+03  0.22233891354E+04  0.20665248157E+04 0.  0.
        4    1    3    3  502    0 -0.56106339008E+03 -0.15913591270E+03 -0.50752561847E+03  0.77311075060E+03  0.12699999809E+01 0.  1.
       -4    1    3    3    0  502  0.56106339008E+03  0.15913591270E+03  0.13278514277E+04  0.14502783848E+04  0.12699999809E+01 0. -1.
</event>
<event>
 5   0  0.8872777E-05  0.2134465E+04  0.7818609E-02  0.8546211E-01
       -2   -1    0    0    0  501  0.00000000000E+00  0.00000000000E+00  0.17156207923E+04  0.17156207923E+04  0.25500000920E-02 0.  1.
        2   -1    0    0  501    0  0.00000000000E+00  0.00000000000E+00 -0.66389107894E+03  0.66389107895E+03  0.25500000920E-02 0. -1.
    10030    2    1    2    0    0  0.00000000000E+00  0.00000000000E+00  0.10517297133E+04  0.23795118712E+04  0.21344651216E+04 0.  0.
        3    1    3    3  502    0  0.18882845100E+03  0.19746724655E+03  0.16759716131E+04  0.16980960972E+04  0.10100000352E+00 0.  1.
       -3    1    3    3    0  502 -0.18882845100E+03 -0.19746724655E+03 -0.62424189978E+03  0.68141577397E+03  0.10100000352E+00 0. -1.
</event>
<event>
 5   0  0.4182977E-05  0.2112827E+04  0.7818609E-02  0.8555614E-01
       -1   -1    0    0    0  501  0.00000000000E+00  0.00000000000E+00  0.70245252717E+03  0.70245252719E+03  0.50400001928E-02 0.  1.
        1   -1    0    0  501    0  0.00000000000E+00  0.00000000000E+00 -0.15887322243E+04  0.15887322243E+04  0.50400001928E-02 0. -1.
    10030    2    1    2    0    0  0.00000000000E+00  0.00000000000E+00 -0.88627969710E+03  0.22911847515E+04  0.21128265106E+04 0.  0.
        1    1    3    3  502    0 -0.33507487062E+03 -0.25323215378E+03 -0.14943013770E+04  0.15522043351E+04  0.50400001928E-02 0. -1.
       -1    1    3    3    0  502  0.33507487062E+03  0.25323215378E+03  0.60802167985E+03  0.73898041640E+03  0.50400001928E-02 0.  1.
</event>
<event>
 5   0  0.4174093E-05  0.2014620E+04  0.7818609E-02  0.8599816E-01
        1   -1    0    0  501    0  0.00000000000E+00  0.00000000000E+00  0.18829302923E+04  0.18829302924E+04  0.50400001928E-02 0.  1.
       -1   -1    0    0    0  501  0.00000000000E+00  0.00000000000E+00 -0.53887974335E+03  0.53887974337E+03  0.50400001928E-02 0. -1.
    10030    2    1    2    0    0  0.00000000000E+00  0.00000000000E+00  0.13440505490E+04  0.24218100357E+04  0.20146195598E+04 0.  0.
        3    1    3    3  502    0 -0.22193495260E+03  0.96748336075E+03  0.46592672270E+03  0.10965249188E+04  0.10100000352E+00 0. -1.
       -3    1    3    3    0  502  0.22193495260E+03 -0.96748336075E+03  0.87812382630E+03  0.13252851169E+04  0.10100000352E+00 0.  1.
</event>
<event>
 5   0  0.4200061E-05  0.1817011E+04  0.7818609E-02  0.8697305E-01
       -1   -1    0    0    0  501  0.00000000000E+00  0.00000000000E+00  0.13497166864E+04  0.13497166864E+04  0.50400001928E-02 0.  1.
        1   -1    0    0  501    0  0.00000000000E+00  0.00000000000E+00 -0.61152267336E+03  0.61152267338E+03  0.50400001928E-02 0. -1.
    10030    2    1    2    0    0  0.00000000000E+00  0.00000000000E+00  0.73819401301E+03  0.19612393598E+04  0.18170111242E+04 0.  0.
        4    1    3    3  502    0  0.58694606857E+03  0.68262459650E+03  0.23734797257E+03  0.93103045071E+03  0.12699999809E+01 0. -1.
       -4    1    3    3    0  502 -0.58694606857E+03 -0.68262459650E+03  0.50084604044E+03  0.10302089091E+04  0.12699999809E+01 0.  1.
</event>
<event>
 5   0  0.4182977E-05  0.2079961E+04  0.7818609E-02  0.8570123E-01
        1   -1    0    0  501    0  0.00000000000E+00  0.00000000000E+00  0.12155465586E+04  0.12155465586E+04  0.50400001928E-02 0.  1.
       -1   -1    0    0    0  501  0.00000000000E+00  0.00000000000E+00 -0.88977196708E+03  0.88977196709E+03  0.50400001928E-02 0. -1.
    10030    2    1    2    0    0  0.00000000000E+00  0.00000000000E+00  0.32577459150E+03  0.21053185257E+04  0.20799608194E+04 0.  0.
        1    1    3    3  502    0  0.14570718014E+03 -0.10296402659E+04  0.14970573810E+03  0.10506195636E+04  0.50400001928E-02 0. -1.
       -1    1    3    3    0  502 -0.14570718014E+03  0.10296402659E+04  0.17606885340E+03  0.10546989621E+04  0.50400001928E-02 0.  1.
</event>
<event>
 5   0  0.8858590E-05  0.2088230E+04  0.7818609E-02  0.8566446E-01
       -2   -1    0    0    0  501  0.00000000000E+00  0.00000000000E+00  0.69072766936E+03  0.69072766936E+03  0.25500000920E-02 0. -1.
        2   -1    0    0  501    0  0.00000000000E+00  0.00000000000E+00 -0.15783004859E+04  0.15783004859E+04  0.25500000920E-02 0.  1.
    10030    2    1    2    0    0  0.00000000000E+00  0.00000000000E+00 -0.88757281656E+03  0.22690281553E+04  0.20882296964E+04 0.  0.
        1    1    3    3  502    0 -0.64700137125E+03 -0.34968237464E+03  0.36152043172E+03  0.81950323985E+03  0.50400001928E-02 0. -1.
       -1    1    3    3    0  502  0.64700137125E+03  0.34968237464E+03 -0.12490932483E+04  0.14495249154E+04  0.50400001928E-02 0.  1.
</event>
<event>
 5   0  0.8547605E-05  0.2102929E+04  0.7818609E-02  0.8559954E-01
        2   -1    0    0  501    0  0.00000000000E+00  0.00000000000E+00  0.16672193164E+04  0.16672193164E+04  0.25500000920E-02 0. -1.
       -2   -1    0    0    0  501  0.00000000000E+00  0.00000000000E+00 -0.66312638953E+03  0.66312638954E+03  0.25500000920E-02 0.  1.
    10030    2    1    2    0    0  0.00000000000E+00  0.00000000000E+00  0.10040929269E+04  0.23303457060E+04  0.21029285541E+04 0.  0.
        4    1    3    3  502    0  0.71840940257E+03 -0.73740519913E+03  0.26516026742E+03  0.10631039826E+04  0.12699999809E+01 0.  1.
       -4    1    3    3    0  502 -0.71840940257E+03  0.73740519913E+03  0.73893265948E+03  0.12672417234E+04  0.12699999809E+01 0. -1.
</event>
<event>
 5   0  0.9012466E-05  0.2100873E+04  0.7818609E-02  0.8560859E-01
        2   -1    0    0  501    0  0.00000000000E+00  0.00000000000E+00  0.80547974205E+03  0.80547974205E+03  0.25500000920E-02 0.  1.
       -2   -1    0    0    0  501  0.00000000000E+00  0.00000000000E+00 -0.13698873592E+04  0.13698873592E+04  0.25500000920E-02 0. -1.
    10030    2    1    2    0    0  0.00000000000E+00  0.00000000000E+00 -0.56440761718E+03  0.21753671013E+04  0.21008726918E+04 0.  0.
        2    1    3    3  502    0  0.48525066896E+02 -0.82202592786E+03  0.39309889364E+03  0.91247358777E+03  0.25500000920E-02 0.  1.
       -2    1    3    3    0  502 -0.48525066896E+02  0.82202592786E+03 -0.95750651082E+03  0.12628935135E+04  0.25500000920E-02 0. -1.
</event>
<event>
 5   0  0.4128678E-05  0.2075804E+04  0.7818609E-02  0.8571977E-01
        1   -1    0    0  501    0  0.00000000000E+00  0.00000000000E+00  0.97802260385E+03  0.97802260386E+03  0.50400001928E-02 0. -1.
       -1   -1    0    0    0  501  0.00000000000E+00  0.00000000000E+00 -0.11014474373E+04  0.11014474374E+04  0.50400001928E-02 0.  1.
    10030    2    1    2    0    0  0.00000000000E+00  0.00000000000E+00 -0.12342483350E+03  0.20794700412E+04  0.20758039317E+04 0.  0.
        5    1    3    3  502    0 -0.13995276585E+03  0.48223805619E+03  0.84822990074E+03  0.98572631801E+03  0.46999998093E+01 0. -1.
       -5    1    3    3    0  502  0.13995276585E+03 -0.48223805619E+03 -0.97165473423E+03  0.10937437232E+04  0.46999998093E+01 0.  1.
</event>
<event>
 5   0  0.4174093E-05  0.2097411E+04  0.7818609E-02  0.8562385E-01
        1   -1    0    0  501    0  0.00000000000E+00  0.00000000000E+00  0.20434043095E+04  0.20434043095E+04  0.50400001928E-02 0.  1.
       -1   -1    0    0    0  501  0.00000000000E+00  0.00000000000E+00 -0.53821113262E+03  0.53821113264E+03  0.50400001928E-02 0. -1.
    10030    2    1    2    0    0  0.00000000000E+00  0.00000000000E+00  0.15051931769E+04  0.25816154421E+04  0.20974107350E+04 0.  0.
        3    1    3    3  502    0  0.56565638305E+03 -0.52152340109E+03 -0.12453928006E+03  0.77939966900E+03  0.10100000352E+00 0. -1.
       -3    1    3    3    0  502 -0.56565638305E+03  0.52152340109E+03  0.16297324569E+04  0.18022157731E+04  0.10100000352E+00 0.  1.
</event>
<event>
 5   0  0.8858590E-05  0.2127875E+04  0.7818609E-02  0.8549063E-01
        2   -1    0    0  501    0  0.00000000000E+00  0.00000000000E+00  0.13368760005E+04  0.13368760005E+04  0.25500000920E-02 0.  1.
       -2   -1    0    0    0  501  0.00000000000E+00  0.00000000000E+00 -0.84672252865E+03  0.84672252865E+03  0.25500000920E-02 0. -1.
    10030    2    1    2    0    0  0.00000000000E+00  0.00000000000E+00  0.49015347186E+03  0.21835985292E+04  0.21278750223E+04 0.  0.
        1    1    3    3  502    0 -0.43637467224E+03  0.23828547270E+03  0.12103259731E+04  0.13084692515E+04  0.50400001928E-02 0.  1.
       -1    1    3    3    0  502  0.43637467224E+03 -0.23828547270E+03 -0.72017250120E+03  0.87512927764E+03  0.50400001928E-02 0. -1.
</event>
<event>
 5   0  0.4200061E-05  0.2098628E+04  0.7818609E-02  0.8561848E-01
        1   -1    0    0  501    0  0.00000000000E+00  0.00000000000E+00  0.88218361413E+03  0.88218361414E+03  0.50400001928E-02 0. -1.
       -1   -1    0    0    0  501  0.00000000000E+00  0.00000000000E+00 -0.12481072769E+04  0.12481072769E+04  0.50400001928E-02 0.  1.
    10030    2    1    2    0    0  0.00000000000E+00  0.00000000000E+00 -0.36592366274E+03  0.21302908910E+04  0.20986279216E+04 0.  0.
        4    1    3    3  502    0  0.41894104748E+03  0.54289849958E+03 -0.98917890048E+03  0.12036307125E+04  0.12699999809E+01 0.  1.
       -4    1    3    3    0  502 -0.41894104748E+03 -0.54289849958E+03  0.62325523774E+03  0.92666017848E+03  0.12699999809E+01 0. -1.
</event>
<event>
 5   0  0.4174093E-05  0.2113784E+04  0.7818609E-02  0.8555195E-01
       -1   -1    0    0    0  501  0.00000000000E+00  0.00000000000E+00  0.89417550210E+03  0.89417550211E+03  0.50400001928E-02 0.  1.
        1   -1    0    0  501    0  0.00000000000E+00  0.00000000000E+00 -0.12492189372E+04  0.12492189372E+04  0.50400001928E-02 0. -1.
    10030    2    1    2    0    0  0.00000000000E+00  0.00000000000E+00 -0.35504343512E+03  0.21433944393E+04  0.21137842562E+04 0.  0.
        3    1    3    3  502    0 -0.51838782834E+03 -0.35539383478E+03  0.68408108855E+03  0.92897667586E+03  0.10100000352E+00 0.  1.
       -3    1    3    3    0  502  0.51838782834E+03  0.35539383478E+03 -0.10391245237E+04  0.12144177635E+04  0.10100000352E+00 0. -1.
</event>
<event>
 5   0  0.4182977E-05  0.2107464E+04  0.7818609E-02  0.8557962E-01
       -1   -1    0    0    0  501  0.00000000000E+00  0.00000000000E+00  0.69936122578E+03  0.69936122579E+03  0.50400001928E-02 0.  1.
        1   -1    0    0  501    0  0.00000000000E+00  0.00000000000E+00 -0.15876652346E+04  0.15876652346E+04  0.50400001928E-02 0. -1.
    10030    2    1    2    0    0  0.00000000000E+00  0.00000000000E+00 -0.88830400879E+03  0.22870264604E+04  0.21074643576E+04 0.  0.
        1    1    3    3  502    0 -0.67615454825E+02  0.85237958624E+03 -0.11124367488E+04  0.14030817257E+04  0.50400001928E-02 0. -1.
       -1    1    3    3    0  502  0.67615454825E+02 -0.85237958624E+03  0.22413274005E+03  0.88394473467E+03  0.50400001928E-02 0.  1.
</event>
<event>
 5   0  0.4128678E-05  0.2107406E+04  0.7818609E-02  0.8557988E-01
        1   -1    0    0  501    0  0.00000000000E+00  0.00000000000E+00  0.22942474092E+04  0.22942474092E+04  0.50400001928E-02 0. -1.
       -1   -1    0    0    0  501  0.00000000000E+00  0.00000000000E+00 -0.48394541305E+03  0.48394541308E+03  0.50400001928E-02 0.  1.
    10030    2    1    2    0    0  0.00000000000E+00  0.00000000000E+00  0.18103019961E+04  0.27781928223E+04  0.21074064725E+04 0.  0.
        5    1    3    3  502    0  0.91370965253E+03 -0.92214223694E+02  0.15862152095E+04  0.18328855864E+04  0.46999998093E+01 0. -1.
       -5    1    3    3    0  502 -0.91370965253E+03  0.92214223694E+02  0.22408678666E+03  0.94530723584E+03  0.46999998093E+01 0.  1.
</event>
<event>
 5   0  0.4174093E-05  0.2110277E+04  0.7818609E-02  0.8556730E-01
       -1   -1    0    0    0  501  0.00000000000E+00  0.00000000000E+00  0.12940580613E+04  0.12940580613E+04  0.50400001928E-02 0.  1.
        1   -1    0    0  501    0  0.00000000000E+00  0.00000000000E+00 -0.86033009709E+03  0.86033009710E+03  0.50400001928E-02 0. -1.
    10030    2    1    2    0    0  0.00000000000E+00  0.00000000000E+00  0.43372796423E+03  0.21543881584E+04  0.21102768516E+04 0.  0.
        3    1    3    3  502    0 -0.88725916508E+02 -0.83584894410E+03 -0.43427801412E+03  0.94610419583E+03  0.10100000352E+00 0. -1.
       -3    1    3    3    0  502  0.88725916508E+02  0.83584894410E+03  0.86800597835E+03  0.12082839626E+04  0.10100000352E+00 0.  1.
</event>
<event>
 5   0  0.8547605E-05  0.2116149E+04  0.7818609E-02  0.8554163E-01
        2   -1    0    0  501    0  0.00000000000E+00  0.00000000000E+00  0.17703880515E+04  0.17703880515E+04  0.25500000920E-02 0. -1.
       -2   -1    0    0    0  501  0.00000000000E+00  0.00000000000E+00 -0.63235970507E+03  0.63235970508E+03  0.25500000920E-02 0.  1.
    10030    2    1    2    0    0  0.00000000000E+00  0.00000000000E+00  0.11380283464E+04  0.24027477565E+04  0.21161493956E+04 0.  0.
        4    1    3    3  502    0  0.66910183046E+03 -0.79952830984E+03  0.77395189394E+03  0.12984398041E+04  0.12699999809E+01 0. -1.
       -4    1    3    3    0  502 -0.66910183046E+03  0.79952830984E+03  0.36407645245E+03  0.11043079525E+04  0.12699999809E+01 0.  1.
</event>
<event>
 5   0  0.8858590E-05  0.2107895E+04  0.7818609E-02  0.8557774E-01
        2   -1    0    0  501    0  0.00000000000E+00  0.00000000000E+00  0.13043798557E+04  0.13043798557E+04  0.25500000920E-02 0.  1.
       -2   -1    0    0    0  501  0.00000000000E+00  0.00000000000E+00 -0.85159640633E+03  0.85159640634E+03  0.25500000920E-02 0. -1.
    10030    2    1    2    0    0  0.00000000000E+00  0.00000000000E+00  0.45278344933E+03  0.21559762620E+04  0.21078948717E+04 0.  0.
        1    1    3    3  502    0 -0.20217135503E+03 -0.30223612932E+03 -0.78540754861E+03  0.86549693940E+03  0.50400001928E-02 0. -1.
       -1    1    3    3    0  502  0.20217135503E+03  0.30223612932E+03  0.12381909979E+04  0.12904793226E+04  0.50400001928E-02 0.  1.
</event>
<event>
 5   0  0.4200061E-05  0.2099447E+04  0.7818609E-02  0.8561487E-01
       -1   -1    0    0    0  501  0.00000000000E+00  0.00000000000E+00  0.53587800678E+03  0.53587800680E+03  0.50400001928E-02 0. -1.
        1   -1    0    0  501    0  0.00000000000E+00  0.00000000000E+00 -0.20562868594E+04  0.20562868594E+04  0.50400001928E-02 0.  1.
    10030    2    1    2    0    0  0.00000000000E+00  0.00000000000E+00 -0.15204088526E+04  0.25921648662E+04  0.20994465019E+04 0.  0.
        4    1    3    3  502    0 -0.83865798930E+03 -0.60923298652E+03 -0.55580739709E+03  0.11761953624E+04  0.12699999809E+01 0.  1.
       -4    1    3    3    0  502  0.83865798930E+03  0.60923298652E+03 -0.96460145549E+03  0.14159695038E+04  0.12699999809E+01 0. -1.
</event>
<event>
 5   0  0.9086985E-05  0.2139861E+04  0.7818609E-02  0.8543885E-01
        2   -1    0    0  501    0  0.00000000000E+00  0.00000000000E+00  0.83014964801E+03  0.83014964801E+03  0.25500000920E-02 0. -1.
       -2   -1    0    0    0  501  0.00000000000E+00  0.00000000000E+00 -0.13789697356E+04  0.13789697356E+04  0.25500000920E-02 0.  1.
    10030    2    1    2    0    0  0.00000000000E+00  0.00000000000E+00 -0.54882008756E+03  0.22091193836E+04  0.21398609680E+04 0.  0.
        5    1    3    3  502    0 -0.11770723642E+03 -0.31524651218E+03 -0.13229064322E+04  0.13650417119E+04  0.46999998093E+01 0.  1.
       -5    1    3    3    0  502  0.11770723642E+03  0.31524651218E+03  0.77408634460E+03  0.84407767169E+03  0.46999998093E+01 0. -1.
</event>
<event>
 5   0  0.4200061E-05  0.2106576E+04  0.7818609E-02  0.8558352E-01
       -1   -1    0    0    0  501  0.00000000000E+00  0.00000000000E+00  0.11003822620E+04  0.11003822620E+04  0.50400001928E-02 0.  1.
        1   -1    0    0  501    0  0.00000000000E+00  0.00000000000E+00 -0.10082093702E+04  0.10082093702E+04  0.50400001928E-02 0. -1.
    10030    2    1    2    0    0  0.00000000000E+00  0.00000000000E+00  0.92172891731E+02  0.21085916322E+04  0.21065760915E+04 0.  0.
        4    1    3    3  502    0 -0.27508298121E+03  0.10058193423E+04  0.19479136523E+03  0.10607961561E+04  0.12699999809E+01 0.  1.
       -4    1    3    3    0  502  0.27508298121E+03 -0.10058193423E+04 -0.10261847350E+03  0.10477954761E+04  0.12699999809E+01 0. -1.
</event>
<event>
 5   0  0.4182977E-05  0.2098156E+04  0.7818609E-02  0.8562056E-01
       -1   -1    0    0    0  501  0.00000000000E+00  0.00000000000E+00  0.10992397555E+04  0.10992397555E+04  0.50400001928E-02 0. -1.
        1   -1    0    0  501    0  0.00000000000E+00  0.00000000000E+00 -0.10012054992E+04  0.10012054992E+04  0.50400001928E-02 0.  1.
    10030    2    1    2    0    0  0.00000000000E+00  0.00000000000E+00  0.98034256325E+02  0.21004452547E+04  0.20981562269E+04 0.  0.
        1    1    3    3  502    0  0.43416798928E+03  0.93016037518E+03  0.26573591731E+03  0.10603375615E+04  0.50400001928E-02 0.  1.
       -1    1    3    3    0  502 -0.43416798928E+03 -0.93016037518E+03 -0.16770166099E+03  0.10401076933E+04  0.50400001928E-02 0. -1.
</event>
<event>
 5   0  0.4182977E-05  0.2024030E+04  0.7818609E-02  0.8595468E-01
        1   -1    0    0  501    0  0.00000000000E+00  0.00000000000E+00  0.11444804021E+04  0.11444804021E+04  0.50400001928E-02 0. -1.
       -1   -1    0    0    0  501  0.00000000000E+00  0.00000000000E+00 -0.89488112868E+03  0.89488112870E+03  0.50400001928E-02 0.  1.
    10030    2    1    2    0    0  0.00000000000E+00  0.00000000000E+00  0.24959927345E+03  0.20393615308E+04  0.20240295591E+04 0.  0.
        1    1    3    3  502    0  0.63163304624E+03 -0.74970414797E+03 -0.12841519942E+03  0.98868957618E+03  0.50400001928E-02 0. -1.
       -1    1    3    3    0  502 -0.63163304624E+03  0.74970414797E+03  0.37801447286E+03  0.10506719547E+04  0.50400001928E-02 0.  1.
</event>
<event>
 5   0  0.4174093E-05  0.2090781E+04  0.7818609E-02  0.8565315E-01
       -1   -1    0    0    0  501  0.00000000000E+00  0.00000000000E+00  0.17102698306E+04  0.17102698306E+04  0.50400001928E-02 0. -1.
        1   -1    0    0  501    0  0.00000000000E+00  0.00000000000E+00 -0.63898747622E+03  0.63898747624E+03  0.50400001928E-02 0.  1.
    10030    2    1    2    0    0  0.00000000000E+00  0.00000000000E+00  0.10712823544E+04  0.23492573069E+04  0.20907807181E+04 0.  0.
        3    1    3    3  502    0 -0.12801543302E+03  0.71826674453E+03  0.13768962577E+04  0.15582484982E+04  0.10100000352E+00 0. -1.
       -3    1    3    3    0  502  0.12801543302E+03 -0.71826674453E+03 -0.30561390327E+03  0.79100880871E+03  0.10100000352E+00 0.  1.
</event>
<event>
 5   0  0.9086985E-05  0.1972227E+04  0.7818609E-02  0.8619717E-01
       -2   -1    0    0    0  501  0.00000000000E+00  0.00000000000E+00  0.71967722101E+03  0.71967722102E+03  0.25500000920E-02 0. -1.
        2   -1    0    0  501    0  0.00000000000E+00  0.00000000000E+00 -0.13511881834E+04  0.13511881834E+04  0.25500000920E-02 0.  1.
    10030    2    1    2    0    0  0.00000000000E+00  0.00000000000E+00 -0.63151096242E+03  0.20708654045E+04  0.19722265153E+04 0.  0.
        5    1    3    3  502    0  0.41229690501E+03 -0.87851593590E+03 -0.49948776385E+03  0.10914619113E+04  0.46999998093E+01 0.  1.
       -5    1    3    3    0  502 -0.41229690501E+03  0.87851593590E+03 -0.13202319857E+03  0.97940349319E+03  0.46999998093E+01 0. -1.
</event>
<event>
 5   0  0.8858590E-05  0.2112922E+04  0.7818609E-02  0.8555572E-01
        2   -1    0    0  501    0  0.00000000000E+00  0.00000000000E+00  0.14692650275E+04  0.14692650275E+04  0.25500000920E-02 0.  1.
       -2   -1    0    0    0  501  0.00000000000E+00  0.00000000000E+00 -0.75963828656E+03  0.75963828657E+03  0.25500000920E-02 0. -1.
    10030    2    1    2    0    0  0.00000000000E+00  0.00000000000E+00  0.70962674092E+03  0.22289033141E+04  0.21129221169E+04 0.  0.
        1    1    3    3  502    0 -0.54363341976E+03 -0.95608182048E+02 -0.59542757252E+03  0.81191884674E+03  0.50400001928E-02 0. -1.
       -1    1    3    3    0  502  0.54363341976E+03  0.95608182048E+02  0.13050543134E+04  0.14169844673E+04  0.50400001928E-02 0.  1.
</event>
<event>
 5   0  0.4200061E-05  0.2228988E+04  0.7818609E-02  0.8506459E-01
        1   -1    0    0  501    0  0.00000000000E+00  0.00000000000E+00  0.16288026160E+04  0.16288026160E+04  0.50400001928E-02 0.  1.
       -1   -1    0    0    0  501  0.00000000000E+00  0.00000000000E+00 -0.76258281754E+03  0.76258281756E+03  0.50400001928E-02 0. -1.
    10030    2    1    2    0    0  0.00000000000E+00  0.00000000000E+00  0.86621979843E+03  0.23913854335E+04  0.22289880108E+04 0.  0.
        4    1    3    3  502    0 -0.24038572623E+03 -0.88434321635E+03  0.11135474658E+04  0.14421642740E+04  0.12699999809E+01 0.  1.
       -4    1    3    3    0  502  0.24038572623E+03  0.88434321635E+03 -0.24732766742E+03  0.94922115951E+03  0.12699999809E+01 0. -1.
</event>
<event>
 5   0  0.4174093E-05  0.2087780E+04  0.7818609E-02  0.8566645E-01
        1   -1    0    0  501    0  0.00000000000E+00  0.00000000000E+00  0.86611469440E+03  0.86611469442E+03  0.50400001928E-02 0. -1.
       -1   -1    0    0    0  501  0.00000000000E+00  0.00000000000E+00 -0.12581551551E+04  0.12581551551E+04  0.50400001928E-02 0.  1.
    10030    2    1    2    0    0  0.00000000000E+00  0.00000000000E+00 -0.39204046067E+03  0.21242698495E+04  0.20877803215E+04 0.  0.
        3    1    3    3  502    0 -0.57980381993E+03  0.22015894235E+03 -0.10503769227E+04  0.12198090504E+04  0.10100000352E+00 0.  1.
       -3    1    3    3    0  502  0.57980381993E+03 -0.22015894235E+03  0.65833646208E+03  0.90446079905E+03  0.10100000352E+00 0. -1.
</event>
<event>
 5   0  0.9086985E-05  0.2084944E+04  0.7818609E-02  0.8567905E-01
        2   -1    0    0  501    0  0.00000000000E+00  0.00000000000E+00  0.11746614705E+04  0.11746614705E+04  0.25500000920E-02 0. -1.
       -2   -1    0    0    0  501  0.00000000000E+00  0.00000000000E+00 -0.92515827329E+03  0.92515827330E+03  0.25500000920E-02 0.  1.
    10030    2    1    2    0    0  0.00000000000E+00  0.00000000000E+00  0.24950319718E+03  0.20998197438E+04  0.20849439107E+04 0.  0.
        5    1    3    3  502    0 -0.70997810710E+03 -0.76272451069E+03  0.15510123641E+03  0.10535160537E+04  0.46999998093E+01 0.  1.
       -5    1    3    3    0  502  0.70997810710E+03  0.76272451069E+03  0.94401960772E+02  0.10463036901E+04  0.46999998093E+01 0. -1.
</event>
<event>
 5   0  0.4174093E-05  0.2103468E+04  0.7818609E-02  0.8559717E-01
        1   -1    0    0  501    0  0.00000000000E+00  0.00000000000E+00  0.12913120695E+04  0.12913120695E+04  0.50400001928E-02 0.  1.
       -1   -1    0    0    0  501  0.00000000000E+00  0.00000000000E+00 -0.85660473464E+03  0.85660473466E+03  0.50400001928E-02 0. -1.
    10030    2    1    2    0    0  0.00000000000E+00  0.00000000000E+00  0.43470733485E+03  0.21479168042E+04  0.21034676443E+04 0.  0.
        3    1    3    3  502    0 -0.50262030494E+03 -0.63004663518E+03 -0.47261543109E+03  0.93431862303E+03  0.10100000352E+00 0. -1.
       -3    1    3    3    0  502  0.50262030494E+03  0.63004663518E+03  0.90732276594E+03  0.12135981811E+04  0.10100000352E+00 0.  1.
</event>
<event>
 5   0  0.4174093E-05  0.2056067E+04  0.7818609E-02  0.8580847E-01
        1   -1    0    0  501    0  0.00000000000E+00  0.00000000000E+00  0.61138479409E+03  0.61138479411E+03  0.50400001928E-02 0.  1.
       -1   -1    0    0    0  501  0.00000000000E+00  0.00000000000E+00 -0.17286209543E+04  0.17286209543E+04  0.50400001928E-02 0. -1.
    10030    2    1    2    0    0  0.00000000000E+00  0.00000000000E+00 -0.11172361602E+04  0.23400057484E+04  0.20560666976E+04 0.  0.
        3    1    3    3  502    0 -0.52225476097E+03  0.66531827982E+03  0.10641905406E+03  0.85248077638E+03  0.10100000352E+00 0.  1.
       -3    1    3    3    0  502  0.52225476097E+03 -0.66531827982E+03 -0.12236552143E+04  0.14875249720E+04  0.10100000352E+00 0. -1.
</event>
<event>
 5   0  0.8547605E-05  0.2100266E+04  0.7818609E-02  0.8561126E-01
       -2   -1    0    0    0  501  0.00000000000E+00  0.00000000000E+00  0.14140020202E+04  0.14140020202E+04  0.25500000920E-02 0.  1.
        2   -1    0    0  501    0  0.00000000000E+00  0.00000000000E+00 -0.77989951298E+03  0.77989951299E+03  0.25500000920E-02 0. -1.
    10030    2    1    2    0    0  0.00000000000E+00  0.00000000000E+00  0.63410250725E+03  0.21939015332E+04  0.21002661612E+04 0.  0.
        4    1    3    3  502    0  0.15518362977E+03 -0.10281883100E+04  0.47030513927E+03  0.11412456776E+04  0.12699999809E+01 0.  1.
       -4    1    3    3    0  502 -0.15518362977E+03  0.10281883100E+04  0.16379736798E+03  0.10526558556E+04  0.12699999809E+01 0. -1.
</event>
<event>
 5   0  0.9012466E-05  0.2091281E+04  0.7818609E-02  0.8565094E-01
        2   -1    0    0  501    0  0.00000000000E+00  0.00000000000E+00  0.19883385765E+04  0.19883385765E+04  0.25500000920E-02 0.  1.
       -2   -1    0    0    0  501  0.00000000000E+00  0.00000000000E+00 -0.54988815508E+03  0.54988815509E+03  0.25500000920E-02 0. -1.
    10030    2    1    2    0    0  0.00000000000E+00  0.00000000000E+00  0.14384504215E+04  0.25382267316E+04  0.20912807861E+04 0.  0.
        2    1    3    3  502    0 -0.82468123711E+03 -0.77840266903E+02 -0.55281040489E+02  0.83018928169E+03  0.25500000920E-02 0. -1.
       -2    1    3    3    0  502  0.82468123711E+03  0.77840266903E+02  0.14937314619E+04  0.17080374499E+04  0.25500000920E-02 0.  1.
</event>
<event>
 5   0  0.4050368E-05  0.2065572E+04  0.7818609E-02  0.8576563E-01
       -1   -1    0    0    0  501  0.00000000000E+00  0.00000000000E+00  0.68350441798E+03  0.68350441800E+03  0.50400001928E-02 0.  1.
        1   -1    0    0  501    0  0.00000000000E+00  0.00000000000E+00 -0.15605555743E+04  0.15605555743E+04  0.50400001928E-02 0. -1.
    10030    2    1    2    0    0  0.00000000000E+00  0.00000000000E+00 -0.87705115635E+03  0.22440599923E+04  0.20655717171E+04 0.  0.
        2    1    3    3  502    0 -0.65266973137E+03 -0.33002934786E+03 -0.12307490803E+04  0.14316565396E+04  0.25500000920E-02 0. -1.
       -2    1    3    3    0  502  0.65266973137E+03  0.33002934786E+03  0.35369792392E+03  0.81240345278E+03  0.25500000920E-02 0.  1.
</event>
<event>
 5   0  0.9012466E-05  0.2109892E+04  0.7818609E-02  0.8556898E-01
       -2   -1    0    0    0  501  0.00000000000E+00  0.00000000000E+00  0.10652499206E+04  0.10652499206E+04  0.25500000920E-02 0. -1.
        2   -1    0    0  501    0  0.00000000000E+00  0.00000000000E+00 -0.10447415248E+04  0.10447415248E+04  0.25500000920E-02 0.  1.
    10030    2    1    2    0    0  0.00000000000E+00  0.00000000000E+00  0.20508395814E+02  0.21099914455E+04  0.21098917758E+04 0.  0.
        2    1    3    3  502    0  0.95259915721E+03  0.23294765730E+03  0.39911837292E+03  0.10587753496E+04  0.25500000920E-02 0. -1.
       -2    1    3    3    0  502 -0.95259915721E+03 -0.23294765730E+03 -0.37860997711E+03  0.10512160958E+04  0.25500000920E-02 0.  1.
</event>
<event>
 5   0  0.4050368E-05  0.2106114E+04  0.7818609E-02  0.8558555E-01
       -1   -1    0    0    0  501  0.00000000000E+00  0.00000000000E+00  0.86355829224E+03  0.86355829226E+03  0.50400001928E-02 0. -1.
        1   -1    0    0  501    0  0.00000000000E+00  0.00000000000E+00 -0.12841397792E+04  0.12841397793E+04  0.50400001928E-02 0.  1.
    10030    2    1    2    0    0  0.00000000000E+00  0.00000000000E+00 -0.42058148700E+03  0.21476980715E+04  0.21061144839E+04 0.  0.
        2    1    3    3  502    0  0.55661229228E+03 -0.56020859256E+03  0.50008290359E+03  0.93473730083E+03  0.25500000920E-02 0.  1.
       -2    1    3    3    0  502 -0.55661229228E+03  0.56020859256E+03 -0.92066439059E+03  0.12129607707E+04  0.25500000920E-02 0. -1.
</event>
<event>
 5   0  0.3176125E-05  0.2080983E+04  0.7818609E-02  0.8569667E-01
        3   -1    0    0  501    0  0.00000000000E+00  0.00000000000E+00  0.15422000574E+04  0.15422000607E+04  0.10100000352E+00 0.  1.
       -3   -1    0    0    0  501  0.00000000000E+00  0.00000000000E+00 -0.70199872742E+03  0.70199873468E+03  0.10100000352E+00 0. -1.
    10030    2    1    2    0    0  0.00000000000E+00  0.00000000000E+00  0.84020132999E+03  0.22441987954E+04  0.20809829308E+04 0.  0.
        4    1    3    3  502    0 -0.44923964298E+03 -0.93616566125E+03  0.49162335641E+03  0.11488766425E+04  0.12699999809E+01 0.  1.
       -4    1    3    3    0  502  0.44923964298E+03  0.93616566125E+03  0.34857797358E+03  0.10953221529E+04  0.12699999809E+01 0. -1.
</event>
<event>
 5   0  0.4182977E-05  0.2040680E+04  0.7818609E-02  0.8587834E-01
       -1   -1    0    0    0  501  0.00000000000E+00  0.00000000000E+00  0.15445832531E+04  0.15445832531E+04  0.50400001928E-02 0. -1.
        1   -1    0    0  501    0  0.00000000000E+00  0.00000000000E+00 -0.67402885366E+03  0.67402885368E+03  0.50400001928E-02 0.  1.
    10030    2    1    2    0    0  0.00000000000E+00  0.00000000000E+00  0.87055439946E+03  0.22186121068E+04  0.20406799646E+04 0.  0.
        1    1    3    3  502    0  0.10192473949E+04  0.23357924024E+02  0.47987641603E+03  0.11268062031E+04  0.50400001928E-02 0. -1.
       -1    1    3    3    0  502 -0.10192473949E+04 -0.23357924024E+02  0.39067798343E+03  0.10918059037E+04  0.50400001928E-02 0.  1.
</event>
<event>
 5   0  0.9012466E-05  0.2086727E+04  0.7818609E-02  0.8567113E-01
        2   -1    0    0  501    0  0.00000000000E+00  0.00000000000E+00  0.53011352344E+03  0.53011352345E+03  0.25500000920E-02 0. -1.
       -2   -1    0    0    0  501  0.00000000000E+00  0.00000000000E+00 -0.20535360059E+04  0.20535360059E+04  0.25500000920E-02 0.  1.
    10030    2    1    2    0    0  0.00000000000E+00  0.00000000000E+00 -0.15234224825E+04  0.25836495294E+04  0.20867268222E+04 0.  0.
        2    1    3    3  502    0 -0.45023145982E+03 -0.47284470166E+03  0.24591823922E+03  0.69768636198E+03  0.25500000920E-02 0. -1.
       -2    1    3    3    0  502  0.45023145982E+03  0.47284470166E+03 -0.17693407217E+04  0.18859631674E+04  0.25500000920E-02 0.  1.
</event>
<event>
 5   0  0.8547605E-05  0.2125638E+04  0.7818609E-02  0.8550033E-01
        2   -1    0    0  501    0  0.00000000000E+00  0.00000000000E+00  0.15444007196E+04  0.15444007196E+04  0.25500000920E-02 0. -1.
       -2   -1    0    0    0  501  0.00000000000E+00  0.00000000000E+00 -0.73140651035E+03  0.73140651035E+03  0.25500000920E-02 0.  1.
    10030    2    1    2    0    0  0.00000000000E+00  0.00000000000E+00  0.81299420921E+03  0.22758072299E+04  0.21256384837E+04 0.  0.
        4    1    3    3  502    0 -0.28703814015E+03  0.41251362004E+03 -0.59615897776E+03  0.77972143762E+03  0.12699999809E+01 0.  1.
       -4    1    3    3    0  502  0.28703814015E+03 -0.41251362004E+03  0.14091531870E+04  0.14960857923E+04  0.12699999809E+01 0. -1.
</event>
<event>
 5   0  0.8858590E-05  0.2107086E+04  0.7818609E-02  0.8558128E-01
       -2   -1    0    0    0  501  0.00000000000E+00  0.00000000000E+00  0.92072557732E+03  0.92072557733E+03  0.25500000920E-02 0.  1.
        2   -1    0    0  501    0  0.00000000000E+00  0.00000000000E+00 -0.12055202428E+04  0.12055202428E+04  0.25500000920E-02 0. -1.
    10030    2    1    2    0    0  0.00000000000E+00  0.00000000000E+00 -0.28479466544E+03  0.21262458201E+04  0.21070864448E+04 0.  0.
        1    1    3    3  502    0  0.19838346477E+03  0.10339285572E+04 -0.10217183726E+03  0.10577350069E+04  0.50400001928E-02 0.  1.
       -1    1    3    3    0  502 -0.19838346477E+03 -0.10339285572E+04 -0.18262282818E+03  0.10685108132E+04  0.50400001928E-02 0. -1.
</event>
<event>
 5   0  0.8858590E-05  0.2149550E+04  0.7818609E-02  0.8539725E-01
       -2   -1    0    0    0  501  0.00000000000E+00  0.00000000000E+00  0.88442846099E+03  0.88442846099E+03  0.25500000920E-02 0. -1.
        2   -1    0    0  501    0  0.00000000000E+00  0.00000000000E+00 -0.13060875001E+04  0.13060875001E+04  0.25500000920E-02 0.  1.
    10030    2    1    2    0    0  0.00000000000E+00  0.00000000000E+00 -0.42165903909E+03  0.21905159611E+04  0.21495496809E+04 0.  0.
        1    1    3    3  502    0 -0.69057258734E+03 -0.11311368414E+03 -0.10421309487E+04  0.12552777056E+04  0.50400001928E-02 0.  1.
       -1    1    3    3    0  502  0.69057258734E+03  0.11311368414E+03  0.62047190959E+03  0.93523825549E+03  0.50400001928E-02 0. -1.
</event>
<event>
 5   0  0.4050368E-05  0.2015241E+04  0.7818609E-02  0.8599528E-01
       -1   -1    0    0    0  501  0.00000000000E+00  0.00000000000E+00  0.76547034122E+03  0.76547034124E+03  0.50400001928E-02 0. -1.
        1   -1    0    0  501    0  0.00000000000E+00  0.00000000000E+00 -0.13263730655E+04  0.13263730655E+04  0.50400001928E-02 0.  1.
    10030    2    1    2    0    0  0.00000000000E+00  0.00000000000E+00 -0.56090272430E+03  0.20918434068E+04  0.20152411698E+04 0.  0.
        2    1    3    3  502    0  0.85840535776E+03  0.47384436309E+03 -0.52146457673E+03  0.11105465067E+04  0.25500000920E-02 0. -1.
       -2    1    3    3    0  502 -0.85840535776E+03 -0.47384436309E+03 -0.39438147566E+02  0.98129690010E+03  0.25500000920E-02 0.  1.
</event>
<event>
 5   0  0.3176125E-05  0.2082256E+04  0.7818609E-02  0.8569100E-01
       -4   -1    0    0    0  501  0.00000000000E+00  0.00000000000E+00  0.11932185624E+04  0.11932192383E+04  0.12699999809E+01 0. -1.
        4   -1    0    0  501    0  0.00000000000E+00  0.00000000000E+00 -0.90842217296E+03  0.90842306071E+03  0.12699999809E+01 0.  1.
    10030    2    1    2    0    0  0.00000000000E+00  0.00000000000E+00  0.28479638945E+03  0.21016422990E+04  0.20822563169E+04 0.  0.
        2    1    3    3  502    0  0.51607344196E+03  0.88678866397E+03 -0.35944099149E+02  0.10266537441E+04  0.25500000920E-02 0.  1.
       -2    1    3    3    0  502 -0.51607344196E+03 -0.88678866397E+03  0.32074048860E+03  0.10749885549E+04  0.25500000920E-02 0. -1.
</event>
<event>
 5   0  0.8858590E-05  0.1926111E+04  0.7818609E-02  0.8641968E-01
       -2   -1    0    0    0  501  0.00000000000E+00  0.00000000000E+00  0.10404971452E+04  0.10404971452E+04  0.25500000920E-02 0.  1.
        2   -1    0    0  501    0  0.00000000000E+00  0.00000000000E+00 -0.89137720812E+03  0.89137720812E+03  0.25500000920E-02 0. -1.
    10030    2    1    2    0    0  0.00000000000E+00  0.00000000000E+00  0.14911993706E+03  0.19318743533E+04  0.19261105268E+04 0.  0.
        1    1    3    3  502    0  0.24969416741E+03  0.34473135636E+03 -0.79190510811E+03  0.89905538516E+03  0.50400001928E-02 0. -1.
       -1    1    3    3    0  502 -0.24969416741E+03 -0.34473135636E+03  0.94102504517E+03  0.10328189681E+04  0.50400001928E-02 0.  1.
</event>
<event>
 5   0  0.9086985E-05  0.2134790E+04  0.7818609E-02  0.8546071E-01
        2   -1    0    0  501    0  0.00000000000E+00  0.00000000000E+00  0.13685090275E+04  0.13685090275E+04  0.25500000920E-02 0.  1.
       -2   -1    0    0    0  501  0.00000000000E+00  0.00000000000E+00 -0.83253525044E+03  0.83253525044E+03  0.25500000920E-02 0. -1.
    10030    2    1    2    0    0  0.00000000000E+00  0.00000000000E+00  0.53597377704E+03  0.22010442779E+04  0.21347899250E+04 0.  0.
        5    1    3    3  502    0 -0.76343317846E+02 -0.79332461772E+03 -0.46406116905E+03  0.92226195296E+03  0.46999998093E+01 0. -1.
       -5    1    3    3    0  502  0.76343317846E+02  0.79332461772E+03  0.10000349461E+04  0.12787823250E+04  0.46999998093E+01 0.  1.
</event>
<event>
 5   0  0.8547605E-05  0.2332805E+04  0.7818609E-02  0.8465098E-01
        2   -1    0    0  501    0  0.00000000000E+00  0.00000000000E+00  0.19618876676E+04  0.19618876676E+04  0.25500000920E-02 0. -1.
       -2   -1    0    0    0  501  0.00000000000E+00  0.00000000000E+00 -0.69346238228E+03  0.69346238228E+03  0.25500000920E-02 0.  1.
    10030    2    1    2    0    0  0.00000000000E+00  0.00000000000E+00  0.12684252853E+04  0.26553500499E+04  0.23328054319E+04 0.  0.
        4    1    3    3  502    0 -0.69380088274E+03  0.83898996831E+03  0.11106955318E+04  0.15552845428E+04  0.12699999809E+01 0. -1.
       -4    1    3    3    0  502  0.69380088274E+03 -0.83898996831E+03  0.15772975351E+03  0.11000655071E+04  0.12699999809E+01 0.  1.
</event>
<event>
 5   0  0.4182977E-05  0.2085437E+04  0.7818609E-02  0.8567686E-01
       -1   -1    0    0    0  501  0.00000000000E+00  0.00000000000E+00  0.10884325739E+04  0.10884325739E+04  0.50400001928E-02 0.  1.
        1   -1    0    0  501    0  0.00000000000E+00  0.00000000000E+00 -0.99892404535E+03  0.99892404536E+03  0.50400001928E-02 0. -1.
    10030    2    1    2    0    0  0.00000000000E+00  0.00000000000E+00  0.89508528541E+02  0.20873566193E+04  0.20854366160E+04 0.  0.
        1    1    3    3  502    0  0.36130341065E+03  0.34757099607E+03  0.95988028567E+03  0.10829200869E+04  0.50400001928E-02 0.  1.
       -1    1    3    3    0  502 -0.36130341065E+03 -0.34757099607E+03 -0.87037175712E+03  0.10044365323E+04  0.50400001928E-02 0. -1.
</event>
<event>
 5   0  0.8872777E-05  0.2101198E+04  0.7818609E-02  0.8560716E-01
        2   -1    0    0  501    0  0.00000000000E+00  0.00000000000E+00  0.63145877060E+03  0.63145877060E+03  0.25500000920E-02 0.  1.
       -2   -1    0    0    0  501  0.00000000000E+00  0.00000000000E+00 -0.17479491516E+04  0.17479491516E+04  0.25500000920E-02 0. -1.
    10030    2    1    2    0    0  0.00000000000E+00  0.00000000000E+00 -0.11164903810E+04  0.23794079222E+04  0.21011975846E+04 0.  0.
        3    1    3    3  502    0  0.10805611727E+03  0.51520892073E+03  0.47133600262E+03  0.70659323097E+03  0.10100000352E+00 0.  1.
       -3    1    3    3    0  502 -0.10805611727E+03 -0.51520892073E+03 -0.15878263836E+04  0.16728146912E+04  0.10100000352E+00 0. -1.
</event>
<event>
 5   0  0.8858590E-05  0.2080339E+04  0.7818609E-02  0.8569954E-01
       -2   -1    0    0    0  501  0.00000000000E+00  0.00000000000E+00  0.55150211260E+03  0.55150211260E+03  0.25500000920E-02 0. -1.
        2   -1    0    0  501    0  0.00000000000E+00  0.00000000000E+00 -0.19618288848E+04  0.19618288848E+04  0.25500000920E-02 0.  1.
    10030    2    1    2    0    0  0.00000000000E+00  0.00000000000E+00 -0.14103267722E+04  0.25133309974E+04  0.20803391786E+04 0.  0.
        1    1    3    3  502    0  0.99330860139E+03  0.27313829262E+03 -0.87892611725E+03  0.13541704561E+04  0.50400001928E-02 0.  1.
       -1    1    3    3    0  502 -0.99330860139E+03 -0.27313829262E+03 -0.53140065495E+03  0.11591605413E+04  0.50400001928E-02 0. -1.
</event>
<event>
 5   0  0.4200061E-05  0.2161697E+04  0.7818609E-02  0.8534542E-01
        1   -1    0    0  501    0  0.00000000000E+00  0.00000000000E+00  0.12111396352E+04  0.12111396352E+04  0.50400001928E-02 0. -1.
       -1   -1    0    0    0  501  0.00000000000E+00  0.00000000000E+00 -0.96457408743E+03  0.96457408745E+03  0.50400001928E-02 0.  1.
    10030    2    1    2    0    0  0.00000000000E+00  0.00000000000E+00  0.24656554772E+03  0.21757137226E+04  0.21616973964E+04 0.  0.
        4    1    3    3  502    0 -0.81130578168E+03  0.64643808928E+03  0.42878508976E+03  0.11224783030E+04  0.12699999809E+01 0. -1.
       -4    1    3    3    0  502  0.81130578168E+03 -0.64643808928E+03 -0.18221954204E+03  0.10532354196E+04  0.12699999809E+01 0.  1.
</event>
<event>
 5   0  0.8872777E-05  0.2103484E+04  0.7818609E-02  0.8559710E-01
       -2   -1    0    0    0  501  0.00000000000E+00  0.00000000000E+00  0.49182642237E+03  0.49182642238E+03  0.25500000920E-02 0.  1.
        2   -1    0    0  501    0  0.00000000000E+00  0.00000000000E+00 -0.22490886055E+04  0.22490886055E+04  0.25500000920E-02 0. -1.
    10030    2    1    2    0    0  0.00000000000E+00  0.00000000000E+00 -0.17572621832E+04  0.27409150279E+04  0.21034839695E+04 0.  0.
        3    1    3    3  502    0  0.75476908128E+03  0.70416702160E+03 -0.11412942647E+04  0.15388567734E+04  0.10100000352E+00 0. -1.
       -3    1    3    3    0  502 -0.75476908128E+03 -0.70416702160E+03 -0.61596791849E+03  0.12020582545E+04  0.10100000352E+00 0.  1.
</event>
<event>
 5   0  0.8858590E-05  0.2093915E+04  0.7818609E-02  0.8563929E-01
       -2   -1    0    0    0  501  0.00000000000E+00  0.00000000000E+00  0.13000626783E+04  0.13000626783E+04  0.25500000920E-02 0. -1.
        2   -1    0    0  501    0  0.00000000000E+00  0.00000000000E+00 -0.84312823421E+03  0.84312823421E+03  0.25500000920E-02 0.  1.
    10030    2    1    2    0    0  0.00000000000E+00  0.00000000000E+00  0.45693444411E+03  0.21431909125E+04  0.20939145640E+04 0.  0.
        1    1    3    3  502    0  0.41054822175E+03  0.94720672208E+03  0.40683569834E+03  0.11096241265E+04  0.50400001928E-02 0. -1.
       -1    1    3    3    0  502 -0.41054822175E+03 -0.94720672208E+03  0.50098745769E+02  0.10335667860E+04  0.50400001928E-02 0.  1.
</event>
<event>
 5   0  0.4050368E-05  0.2129961E+04  0.7818609E-02  0.8548159E-01
       -1   -1    0    0    0  501  0.00000000000E+00  0.00000000000E+00  0.11649530000E+04  0.11649530001E+04  0.50400001928E-02 0.  1.
        1   -1    0    0  501    0  0.00000000000E+00  0.00000000000E+00 -0.97358716764E+03  0.97358716765E+03  0.50400001928E-02 0. -1.
    10030    2    1    2    0    0  0.00000000000E+00  0.00000000000E+00  0.19136583241E+03  0.21385401677E+04  0.21299608370E+04 0.  0.
        2    1    3    3  502    0  0.88794237455E+03  0.36032250618E+03  0.56221497355E+03  0.11110173921E+04  0.25500000920E-02 0.  1.
       -2    1    3    3    0  502 -0.88794237455E+03 -0.36032250618E+03 -0.37084914114E+03  0.10275227756E+04  0.25500000920E-02 0. -1.
</event>
<event>
 5   0  0.9086985E-05  0.2038574E+04  0.7818609E-02  0.8588795E-01
        2   -1    0    0  501    0  0.00000000000E+00  0.00000000000E+00  0.24783387891E+04  0.24783387891E+04  0.25500000920E-02 0.  1.
       -2   -1    0    0    0  501  0.00000000000E+00  0.00000000000E+00 -0.41921077371E+03  0.41921077371E+03  0.25500000920E-02 0. -1.
    10030    2    1    2    0    0  0.00000000000E+00  0.00000000000E+00  0.20591280154E+04  0.28975495628E+04  0.20385743266E+04 0.  0.
        5    1    3    3  502    0 -0.15175343895E+03 -0.72385575149E+03  0.20264720135E+04  0.21572220949E+04  0.46999998093E+01 0.  1.
       -5    1    3    3    0  502  0.15175343895E+03  0.72385575149E+03  0.32656001820E+02  0.74032746785E+03  0.46999998093E+01 0. -1.
</event>
<event>
 5   0  0.4182977E-05  0.2070811E+04  0.7818609E-02  0.8574211E-01
       -1   -1    0    0    0  501  0.00000000000E+00  0.00000000000E+00  0.19002943794E+04  0.19002943794E+04  0.50400001928E-02 0.  1.
        1   -1    0    0  501    0  0.00000000000E+00  0.00000000000E+00 -0.56415714961E+03  0.56415714964E+03  0.50400001928E-02 0. -1.
    10030    2    1    2    0    0  0.00000000000E+00  0.00000000000E+00  0.13361372298E+04  0.24644515291E+04  0.20708111073E+04 0.  0.
        1    1    3    3  502    0 -0.51220716286E+03  0.47856670844E+03  0.15749471492E+04  0.17239027800E+04  0.50400001928E-02 0.  1.
       -1    1    3    3    0  502  0.51220716286E+03 -0.47856670844E+03 -0.23880991939E+03  0.74054874906E+03  0.50400001928E-02 0. -1.
</event>
<event>
 5   0  0.8858590E-05  0.2087657E+04  0.7818609E-02  0.8566700E-01
       -2   -1    0    0    0  501  0.00000000000E+00  0.00000000000E+00  0.42182018502E+03  0.42182018503E+03  0.25500000920E-02 0.  1.
        2   -1    0    0  501    0  0.00000000000E+00  0.00000000000E+00 -0.25830391167E+04  0.25830391167E+04  0.25500000920E-02 0. -1.
    10030    2    1    2    0    0  0.00000000000E+00  0.00000000000E+00 -0.21612189317E+04  0.30048593017E+04  0.20876570965E+04 0.  0.
        1    1    3    3  502    0  0.95924826653E+03  0.25325889548E+03 -0.61358522224E+03  0.11665265235E+04  0.50400001928E-02 0.  1.
       -1    1    3    3    0  502 -0.95924826653E+03 -0.25325889548E+03 -0.15476337094E+04  0.18383327782E+04  0.50400001928E-02 0. -1.
</event>
<event>
 5   0  0.9012466E-05  0.2115627E+04  0.7818609E-02  0.8554391E-01
       -2   -1    0    0    0  501  0.00000000000E+00  0.00000000000E+00  0.59102211976E+03  0.59102211977E+03  0.25500000920E-02 0. -1.
        2   -1    0    0  501    0  0.00000000000E+00  0.00000000000E+00 -0.18932788455E+04  0.18932788455E+04  0.25500000920E-02 0.  1.
    10030    2    1    2    0    0  0.00000000000E+00  0.00000000000E+00 -0.13022567257E+04  0.24843009652E+04  0.21156272607E+04 0.  0.
        2    1    3    3  502    0  0.51906208779E+03 -0.31126959935E+03 -0.16698679026E+04  0.17761680739E+04  0.25500000920E-02 0.  1.
       -2    1    3    3    0  502 -0.51906208779E+03  0.31126959935E+03  0.36761117689E+03  0.70813289137E+03  0.25500000920E-02 0. -1.
</event>
<event>
 5   0  0.4128678E-05  0.2097330E+04  0.7818609E-02  0.8562420E-01
        1   -1    0    0  501    0  0.00000000000E+00  0.00000000000E+00  0.94314091712E+03  0.94314091713E+03  0.50400001928E-02 0. -1.
       -1   -1    0    0    0  501  0.00000000000E+00  0.00000000000E+00 -0.11659960297E+04  0.11659960297E+04  0.50400001928E-02 0.  1.
    10030    2    1    2    0    0  0.00000000000E+00  0.00000000000E+00 -0.22285511260E+03  0.21091369469E+04  0.20973302695E+04 0.  0.
        5    1    3    3  502    0 -0.56423779173E+03  0.74545665886E+03 -0.58908199240E+03  0.11050382797E+04  0.46999998093E+01 0.  1.
       -5    1    3    3    0  502  0.56423779173E+03 -0.74545665886E+03  0.36622687980E+03  0.10040986671E+04  0.46999998093E+01 0. -1.
</event>
<event>
 5   0  0.4174093E-05  0.2018346E+04  0.7818609E-02  0.8598091E-01
       -1   -1    0    0    0  501  0.00000000000E+00  0.00000000000E+00  0.56556516505E+03  0.56556516507E+03  0.50400001928E-02 0. -1.
        1   -1    0    0  501    0  0.00000000000E+00  0.00000000000E+00 -0.18007296125E+04  0.18007296125E+04  0.50400001928E-02 0.  1.
    10030    2    1    2    0    0  0.00000000000E+00  0.00000000000E+00 -0.12351644475E+04  0.23662947776E+04  0.20183457985E+04 0.  0.
        3    1    3    3  502    0  0.62505896666E+03  0.24635836874E+03  0.26525299136E+03  0.72232286221E+03  0.10100000352E+00 0. -1.
       -3    1    3    3    0  502 -0.62505896666E+03 -0.24635836874E+03 -0.15004174388E+04  0.16439719154E+04  0.10100000352E+00 0.  1.
</event>
<event>
 5   0  0.8858590E-05  0.2110584E+04  0.7818609E-02  0.8556595E-01
        2   -1    0    0  501    0  0.00000000000E+00  0.00000000000E+00  0.17874309539E+04  0.17874309539E+04  0.25500000920E-02 0.  1.
       -2   -1    0    0    0  501  0.00000000000E+00  0.00000000000E+00 -0.62303996752E+03  0.62303996753E+03  0.25500000920E-02 0. -1.
    10030    2    1    2    0    0  0.00000000000E+00  0.00000000000E+00  0.11643909864E+04  0.24104709214E+04  0.21105837330E+04 0.  0.
        1    1    3    3  502    0  0.10197076715E+04 -0.22450376465E+03  0.40735819543E+03  0.11207793605E+04  0.50400001928E-02 0. -1.
       -1    1    3    3    0  502 -0.10197076715E+04  0.22450376465E+03  0.75703279095E+03  0.12896915609E+04  0.50400001928E-02 0.  1.
</event>
<event>
 5   0  0.9086985E-05  0.2117546E+04  0.7818609E-02  0.8553554E-01
        2   -1    0    0  501    0  0.00000000000E+00  0.00000000000E+00  0.17605024168E+04  0.17605024168E+04  0.25500000920E-02 0. -1.
       -2   -1    0    0    0  501  0.00000000000E+00  0.00000000000E+00 -0.63675002510E+03  0.63675002510E+03  0.25500000920E-02 0.  1.
    10030    2    1    2    0    0  0.00000000000E+00  0.00000000000E+00  0.11237523917E+04  0.23972524419E+04  0.21175457096E+04 0.  0.
        5    1    3    3  502    0  0.76722811763E+02 -0.47979527619E+03  0.16268161513E+04  0.16978347319E+04  0.46999998093E+01 0. -1.
       -5    1    3    3    0  502 -0.76722811763E+02  0.47979527619E+03 -0.50306375954E+03  0.69941771000E+03  0.46999998093E+01 0.  1.
</event>
<event>
 5   0  0.4128678E-05  0.2106953E+04  0.7818609E-02  0.8558187E-01
        1   -1    0    0  501    0  0.00000000000E+00  0.00000000000E+00  0.13058397573E+04  0.13058397573E+04  0.50400001928E-02 0.  1.
       -1   -1    0    0    0  501  0.00000000000E+00  0.00000000000E+00 -0.84988394587E+03  0.84988394589E+03  0.50400001928E-02 0. -1.
    10030    2    1    2    0    0  0.00000000000E+00  0.00000000000E+00  0.45595581139E+03  0.21557237032E+04  0.21069525344E+04 0.  0.
        5    1    3    3  502    0 -0.38680080051E+03 -0.94990017076E+03  0.47409749456E+03  0.11299184564E+04  0.46999998093E+01 0.  1.
       -5    1    3    3    0  502  0.38680080051E+03  0.94990017076E+03 -0.18141683170E+02  0.10258052468E+04  0.46999998093E+01 0. -1.
</event>
<event>
 5   0  0.8858590E-05  0.2102381E+04  0.7818609E-02  0.8560195E-01
       -2   -1    0    0    0  501  0.00000000000E+00  0.00000000000E+00  0.78886858960E+03  0.78886858960E+03  0.25500000920E-02 0.  1.
        2   -1    0    0  501    0  0.00000000000E+00  0.00000000000E+00 -0.14007420021E+04  0.14007420021E+04  0.25500000920E-02 0. -1.
    10030    2    1    2    0    0  0.00000000000E+00  0.00000000000E+00 -0.61187341253E+03  0.21896105917E+04  0.21023809052E+04 0.  0.
        1    1    3    3  502    0 -0.65956928133E+03  0.74893044213E+03 -0.64990147293E+03  0.11909241658E+04  0.50400001928E-02 0. -1.
       -1    1    3    3    0  502  0.65956928133E+03 -0.74893044213E+03  0.38028060407E+02  0.99868642598E+03  0.50400001928E-02 0.  1.
</event>
<event>
 5   0  0.4182977E-05  0.2087253E+04  0.7818609E-02  0.8566879E-01
       -1   -1    0    0    0  501  0.00000000000E+00  0.00000000000E+00  0.12969155417E+04  0.12969155417E+04  0.50400001928E-02 0. -1.
        1   -1    0    0  501    0  0.00000000000E+00  0.00000000000E+00 -0.83980544248E+03  0.83980544250E+03  0.50400001928E-02 0.  1.
    10030    2    1    2    0    0  0.00000000000E+00  0.00000000000E+00  0.45711009925E+03  0.21367209842E+04  0.20872534397E+04 0.  0.
        1    1    3    3  502    0  0.49039791268E+03 -0.89776114410E+03  0.44007121758E+03  0.11136102825E+04  0.50400001928E-02 0. -1.
       -1    1    3    3    0  502 -0.49039791268E+03  0.89776114410E+03  0.17038881676E+02  0.10231107018E+04  0.50400001928E-02 0.  1.
</event>
<event>
 5   0  0.8872777E-05  0.2104682E+04  0.7818609E-02  0.8559184E-01
       -2   -1    0    0    0  501  0.00000000000E+00  0.00000000000E+00  0.67349122831E+03  0.67349122832E+03  0.25500000920E-02 0.  1.
        2   -1    0    0  501    0  0.00000000000E+00  0.00000000000E+00 -0.16442994288E+04  0.16442994288E+04  0.25500000920E-02 0. -1.
    10030    2    1    2    0    0  0.00000000000E+00  0.00000000000E+00 -0.97080820053E+03  0.23177906572E+04  0.21046816786E+04 0.  0.
        3    1    3    3  502    0  0.13008564688E+03 -0.34177151409E+03 -0.15720759263E+04  0.16140485655E+04  0.10100000352E+00 0. -1.
       -3    1    3    3    0  502 -0.13008564688E+03  0.34177151409E+03  0.60126772578E+03  0.70374209170E+03  0.10100000352E+00 0.  1.
</event>
<event>
 5   0  0.8547605E-05  0.2043845E+04  0.7818609E-02  0.8586392E-01
        2   -1    0    0  501    0  0.00000000000E+00  0.00000000000E+00  0.14286056476E+04  0.14286056476E+04  0.25500000920E-02 0. -1.
       -2   -1    0    0    0  501  0.00000000000E+00  0.00000000000E+00 -0.73101013503E+03  0.73101013503E+03  0.25500000920E-02 0.  1.
    10030    2    1    2    0    0  0.00000000000E+00  0.00000000000E+00  0.69759551258E+03  0.21596157826E+04  0.20438446197E+04 0.  0.
        4    1    3    3  502    0  0.62882072976E+03  0.22621014850E+03 -0.46813010063E+03  0.81592520826E+03  0.12699999809E+01 0.  1.
       -4    1    3    3    0  502 -0.62882072976E+03 -0.22621014850E+03  0.11657256132E+04  0.13436905744E+04  0.12699999809E+01 0. -1.
</event>
<event>
 5   0  0.9012466E-05  0.2104905E+04  0.7818609E-02  0.8559086E-01
       -2   -1    0    0    0  501  0.00000000000E+00  0.00000000000E+00  0.15054480704E+04  0.15054480704E+04  0.25500000920E-02 0.  1.
        2   -1    0    0  501    0  0.00000000000E+00  0.00000000000E+00 -0.73576488103E+03  0.73576488104E+03  0.25500000920E-02 0. -1.
    10030    2    1    2    0    0  0.00000000000E+00  0.00000000000E+00  0.76968318936E+03  0.22412129514E+04  0.21049045778E+04 0.  0.
        2    1    3    3  502    0 -0.10249724865E+04  0.11495458657E+03  0.16181958737E+03  0.10440156771E+04  0.25500000920E-02 0. -1.
       -2    1    3    3    0  502  0.10249724865E+04 -0.11495458657E+03  0.60786360199E+03  0.11971972744E+04  0.25500000920E-02 0.  1.
</event>
<event>
 5   0  0.9012466E-05  0.2080694E+04  0.7818609E-02  0.8569796E-01
        2   -1    0    0  501    0  0.00000000000E+00  0.00000000000E+00  0.75962773081E+03  0.75962773081E+03  0.25500000920E-02 0.  1.
       -2   -1    0    0    0  501  0.00000000000E+00  0.00000000000E+00 -0.14248056224E+04  0.14248056224E+04  0.25500000920E-02 0. -1.
    10030    2    1    2    0    0  0.00000000000E+00  0.00000000000E+00 -0.66517789157E+03  0.21844333532E+04  0.20806939821E+04 0.  0.
        2    1    3    3  502    0 -0.94123335901E+03 -0.17316646643E+03 -0.76086798852E+03  0.12226311615E+04  0.25500000920E-02 0. -1.
       -2    1    3    3    0  502  0.94123335901E+03  0.17316646643E+03  0.95690096951E+02  0.96180219165E+03  0.25500000920E-02 0.  1.
</event>
<event>
 5   0  0.8858590E-05  0.2103295E+04  0.7818609E-02  0.8559793E-01
        2   -1    0    0  501    0  0.00000000000E+00  0.00000000000E+00  0.58125997123E+03  0.58125997124E+03  0.25500000920E-02 0.  1.
       -2   -1    0    0    0  501  0.00000000000E+00  0.00000000000E+00 -0.19026979972E+04  0.19026979972E+04  0.25500000920E-02 0. -1.
    10030    2    1    2    0    0  0.00000000000E+00  0.00000000000E+00 -0.13214380259E+04  0.24839579684E+04  0.21032947327E+04 0.  0.
        1    1    3    3  502    0 -0.34181703220E+03 -0.19443289155E+03  0.49116096177E+03  0.62919164267E+03  0.50400001928E-02 0.  1.
       -1    1    3    3    0  502  0.34181703220E+03  0.19443289155E+03 -0.18125989877E+04  0.18547663257E+04  0.50400001928E-02 0. -1.
</event>
<event>
 5   0  0.4128678E-05  0.2089272E+04  0.7818609E-02  0.8565984E-01
        1   -1    0    0  501    0  0.00000000000E+00  0.00000000000E+00  0.11551201412E+04  0.11551201413E+04  0.50400001928E-02 0.  1.
       -1   -1    0    0    0  501  0.00000000000E+00  0.00000000000E+00 -0.94471966926E+03  0.94471966927E+03  0.50400001928E-02 0. -1.
    10030    2    1    2    0    0  0.00000000000E+00  0.00000000000E+00  0.21040047199E+03  0.20998398105E+04  0.20892723306E+04 0.  0.
        5    1    3    3  502    0  0.28664103609E+03 -0.51419448443E+03  0.97251552145E+03  0.11368234607E+04  0.46999998093E+01 0.  1.
       -5    1    3    3    0  502 -0.28664103609E+03  0.51419448443E+03 -0.76211504946E+03  0.96301634981E+03  0.46999998093E+01 0. -1.
</event>
<event>
 5   0  0.4182977E-05  0.2099362E+04  0.7818609E-02  0.8561525E-01
        1   -1    0    0  501    0  0.00000000000E+00  0.00000000000E+00  0.88855537389E+03  0.88855537391E+03  0.50400001928E-02 0.  1.
       -1   -1    0    0    0  501  0.00000000000E+00  0.00000000000E+00 -0.12400236520E+04  0.12400236520E+04  0.50400001928E-02 0. -1.
    10030    2    1    2    0    0  0.00000000000E+00  0.00000000000E+00 -0.35146827813E+03  0.21285790259E+04  0.20993615027E+04 0.  0.
        1    1    3    3  502    0  0.71292054621E+03  0.74616155009E+03  0.18813628255E+02  0.10321660316E+04  0.50400001928E-02 0.  1.
       -1    1    3    3    0  502 -0.71292054621E+03 -0.74616155009E+03 -0.37028190639E+03  0.10964129944E+04  0.50400001928E-02 0. -1.
</event>
<event>
 5   0  0.8858590E-05  0.2212896E+04  0.7818609E-02  0.8513080E-01
       -2   -1    0    0    0  501  0.00000000000E+00  0.00000000000E+00  0.77654044015E+03  0.77654044015E+03  0.25500000920E-02 0.  1.
        2   -1    0    0  501    0  0.00000000000E+00  0.00000000000E+00 -0.15765148047E+04  0.15765148047E+04  0.25500000920E-02 0. -1.
    10030    2    1    2    0    0  0.00000000000E+00  0.00000000000E+00 -0.79997436452E+03  0.23530552448E+04  0.22128962925E+04 0.  0.
        1    1    3    3  502    0  0.13792678624E+03 -0.46366134160E+03 -0.14581130161E+04  0.15362614380E+04  0.50400001928E-02 0. -1.
       -1    1    3    3    0  502 -0.13792678624E+03  0.46366134160E+03  0.65813865162E+03  0.81679380681E+03  0.50400001928E-02 0.  1.
</event>
<event>
 5   0  0.4050368E-05  0.1990726E+04  0.7818609E-02  0.8610969E-01
        1   -1    0    0  501    0  0.00000000000E+00  0.00000000000E+00  0.15882819308E+04  0.15882819308E+04  0.50400001928E-02 0.  1.
       -1   -1    0    0    0  501  0.00000000000E+00  0.00000000000E+00 -0.62378571833E+03  0.62378571835E+03  0.50400001928E-02 0. -1.
    10030    2    1    2    0    0  0.00000000000E+00  0.00000000000E+00  0.96449621244E+03  0.22120676491E+04  0.19907260837E+04 0.  0.
        2    1    3    3  502    0 -0.80779987066E+03 -0.26534776059E+03 -0.92781456791E+02  0.85531191025E+03  0.25500000920E-02 0. -1.
       -2    1    3    3    0  502  0.80779987066E+03  0.26534776059E+03  0.10572776692E+04  0.13567557389E+04  0.25500000920E-02 0.  1.
</event>
<event>
 5   0  0.4174093E-05  0.2102520E+04  0.7818609E-02  0.8560134E-01
       -1   -1    0    0    0  501  0.00000000000E+00  0.00000000000E+00  0.96471016556E+03  0.96471016558E+03  0.50400001928E-02 0.  1.
        1   -1    0    0  501    0  0.00000000000E+00  0.00000000000E+00 -0.11455750416E+04  0.11455750416E+04  0.50400001928E-02 0. -1.
    10030    2    1    2    0    0  0.00000000000E+00  0.00000000000E+00 -0.18086487607E+03  0.21102852072E+04  0.21025202859E+04 0.  0.
        3    1    3    3  502    0  0.28666553181E+03 -0.51287515890E+02 -0.11042819322E+04  0.11420359593E+04  0.10100000352E+00 0. -1.
       -3    1    3    3    0  502 -0.28666553181E+03  0.51287515890E+02  0.92341705610E+03  0.96824924793E+03  0.10100000352E+00 0.  1.
</event>
<event>
 5   0  0.4200061E-05  0.2042999E+04  0.7818609E-02  0.8586777E-01
        1   -1    0    0  501    0  0.00000000000E+00  0.00000000000E+00  0.24865307436E+04  0.24865307436E+04  0.50400001928E-02 0.  1.
       -1   -1    0    0    0  501  0.00000000000E+00  0.00000000000E+00 -0.41964539323E+03  0.41964539326E+03  0.50400001928E-02 0. -1.
    10030    2    1    2    0    0  0.00000000000E+00  0.00000000000E+00  0.20668853504E+04  0.29061761369E+04  0.20429989444E+04 0.  0.
        4    1    3    3  502    0 -0.93506345406E+03 -0.32232135016E+03  0.67014693035E+03  0.11947105244E+04  0.12699999809E+01 0.  1.
       -4    1    3    3    0  502  0.93506345406E+03  0.32232135016E+03  0.13967384200E+04  0.17114656125E+04  0.12699999809E+01 0. -1.
</event>
<event>
 5   0  0.8858590E-05  0.2076745E+04  0.7818609E-02  0.8571557E-01
        2   -1    0    0  501    0  0.00000000000E+00  0.00000000000E+00  0.67489699368E+03  0.67489699369E+03  0.25500000920E-02 0.  1.
       -2   -1    0    0    0  501  0.00000000000E+00  0.00000000000E+00 -0.15976035019E+04  0.15976035019E+04  0.25500000920E-02 0. -1.
    10030    2    1    2    0    0  0.00000000000E+00  0.00000000000E+00 -0.92270650824E+03  0.22725004956E+04  0.20767453388E+04 0.  0.
        1    1    3    3  502    0 -0.10347580773E+04 -0.82212580068E+02 -0.49101182475E+03  0.11482925581E+04  0.50400001928E-02 0. -1.
       -1    1    3    3    0  502  0.10347580773E+04  0.82212580068E+02 -0.43169468349E+03  0.11242079375E+04  0.50400001928E-02 0.  1.
</event>
<event>
 5   0  0.4050368E-05  0.2047787E+04  0.7818609E-02  0.8584599E-01
        1   -1    0    0  501    0  0.00000000000E+00  0.00000000000E+00  0.13118792813E+04  0.13118792813E+04  0.50400001928E-02 0. -1.
       -1   -1    0    0    0  501  0.00000000000E+00  0.00000000000E+00 -0.79912666262E+03  0.79912666263E+03  0.50400001928E-02 0.  1.
    10030    2    1    2    0    0  0.00000000000E+00  0.00000000000E+00  0.51275261864E+03  0.21110059439E+04  0.20477868168E+04 0.  0.
        2    1    3    3  502    0  0.43241008823E+03 -0.57451704892E+03  0.10077888833E+04  0.12380172686E+04  0.25500000920E-02 0. -1.
       -2    1    3    3    0  502 -0.43241008823E+03  0.57451704892E+03 -0.49503626468E+03  0.87298867534E+03  0.25500000920E-02 0.  1.
</event>
<event>
 5   0  0.4174093E-05  0.2079107E+04  0.7818609E-02  0.8570503E-01
       -1   -1    0    0    0  501  0.00000000000E+00  0.00000000000E+00  0.14661419285E+04  0.14661419285E+04  0.50400001928E-02 0. -1.
        1   -1    0    0  501    0  0.00000000000E+00  0.00000000000E+00 -0.73708545049E+03  0.73708545051E+03  0.50400001928E-02 0.  1.
    10030    2    1    2    0    0  0.00000000000E+00  0.00000000000E+00  0.72905647804E+03  0.22032273790E+04  0.20791073891E+04 0.  0.
        3    1    3    3  502    0  0.77158488050E+03  0.11341447631E+03 -0.36386782035E+03  0.86058461068E+03  0.10100000352E+00 0.  1.
       -3    1    3    3    0  502 -0.77158488050E+03 -0.11341447631E+03  0.10929242984E+04  0.13426427684E+04  0.10100000352E+00 0. -1.
</event>
<event>
 5   0  0.4128678E-05  0.2099301E+04  0.7818609E-02  0.8561551E-01
       -1   -1    0    0    0  501  0.00000000000E+00  0.00000000000E+00  0.96643197863E+03  0.96643197865E+03  0.50400001928E-02 0.  1.
        1   -1    0    0  501    0  0.00000000000E+00  0.00000000000E+00 -0.11400350521E+04  0.11400350521E+04  0.50400001928E-02 0. -1.
    10030    2    1    2    0    0  0.00000000000E+00  0.00000000000E+00 -0.17360307344E+03  0.21064670307E+04  0.20993011514E+04 0.  0.
        5    1    3    3  502    0  0.36635022726E+02 -0.43548218903E+03  0.87079214425E+03  0.97431407172E+03  0.46999998093E+01 0.  1.
       -5    1    3    3    0  502 -0.36635022726E+02  0.43548218903E+03 -0.10443952177E+04  0.11321529590E+04  0.46999998093E+01 0. -1.
</event>
<event>
 5   0  0.8858590E-05  0.2097802E+04  0.7818609E-02  0.8562212E-01
        2   -1    0    0  501    0  0.00000000000E+00  0.00000000000E+00  0.19398194052E+04  0.19398194052E+04  0.25500000920E-02 0.  1.
       -2   -1    0    0    0  501  0.00000000000E+00  0.00000000000E+00 -0.56716299106E+03  0.56716299107E+03  0.25500000920E-02 0. -1.
    10030    2    1    2    0    0  0.00000000000E+00  0.00000000000E+00  0.13726564142E+04  0.25069823963E+04  0.20978024464E+04 0.  0.
        1    1    3    3  502    0 -0.92922565177E+03 -0.34296619596E+03  0.27389224198E+03  0.10276687617E+04  0.50400001928E-02 0. -1.
       -1    1    3    3    0  502  0.92922565177E+03  0.34296619596E+03  0.10987641722E+04  0.14793136346E+04  0.50400001928E-02 0.  1.
</event>
<event>
 5   0  0.4128678E-05  0.2128333E+04  0.7818609E-02  0.8548864E-01
        1   -1    0    0  501    0  0.00000000000E+00  0.00000000000E+00  0.20232092596E+04  0.20232092597E+04  0.50400001928E-02 0.  1.
       -1   -1    0    0    0  501  0.00000000000E+00  0.00000000000E+00 -0.55972953535E+03  0.55972953537E+03  0.50400001928E-02 0. -1.
    10030    2    1    2    0    0  0.00000000000E+00  0.00000000000E+00  0.14634797243E+04  0.25829387950E+04  0.21283326609E+04 0.  0.
        5    1    3    3  502    0 -0.66615238706E+03 -0.31741127110E+03  0.16622762120E+04  0.18187064669E+04  0.46999998093E+01 0.  1.
       -5    1    3    3    0  502  0.66615238706E+03  0.31741127110E+03 -0.19879648770E+03  0.76423232811E+03  0.46999998093E+01 0. -1.
</event>
<event>
 5   0  0.9012466E-05  0.2131544E+04  0.7818609E-02  0.8547474E-01
        2   -1    0    0  501    0  0.00000000000E+00  0.00000000000E+00  0.14501986077E+04  0.14501986077E+04  0.25500000920E-02 0.  1.
       -2   -1    0    0    0  501  0.00000000000E+00  0.00000000000E+00 -0.78325113785E+03  0.78325113786E+03  0.25500000920E-02 0. -1.
    10030    2    1    2    0    0  0.00000000000E+00  0.00000000000E+00  0.66694746985E+03  0.22334497456E+04  0.21315437688E+04 0.  0.
        2    1    3    3  502    0 -0.89898307701E+02  0.46477325887E+02 -0.77820512573E+03  0.78475796604E+03  0.25500000920E-02 0. -1.
       -2    1    3    3    0  502  0.89898307701E+02 -0.46477325887E+02  0.14451525956E+04  0.14486917795E+04  0.25500000920E-02 0.  1.
</event>
<event>
 5   0  0.4050368E-05  0.2077770E+04  0.7818609E-02  0.8571099E-01
       -1   -1    0    0    0  501  0.00000000000E+00  0.00000000000E+00  0.88300616941E+03  0.88300616943E+03  0.50400001928E-02 0. -1.
        1   -1    0    0  501    0  0.00000000000E+00  0.00000000000E+00 -0.12222817566E+04  0.12222817567E+04  0.50400001928E-02 0.  1.
    10030    2    1    2    0    0  0.00000000000E+00  0.00000000000E+00 -0.33927558723E+03  0.21052879261E+04  0.20777702779E+04 0.  0.
        2    1    3    3  502    0  0.84538655016E+03 -0.59881369149E+03 -0.24829368522E+03  0.10653196752E+04  0.25500000920E-02 0.  1.
       -2    1    3    3    0  502 -0.84538655016E+03  0.59881369149E+03 -0.90981902016E+02  0.10399682509E+04  0.25500000920E-02 0. -1.
</event>
<event>
 5   0  0.9086985E-05  0.2070425E+04  0.7818609E-02  0.8574385E-01
       -2   -1    0    0    0  501  0.00000000000E+00  0.00000000000E+00  0.82788990745E+03  0.82788990745E+03  0.25500000920E-02 0. -1.
        2   -1    0    0  501    0  0.00000000000E+00  0.00000000000E+00 -0.12944528283E+04  0.12944528283E+04  0.25500000920E-02 0.  1.
    10030    2    1    2    0    0  0.00000000000E+00  0.00000000000E+00 -0.46656292080E+03  0.21223427357E+04  0.20704245286E+04 0.  0.
        5    1    3    3  502    0  0.32489561439E+03 -0.31388713790E+03 -0.11880671182E+04  0.12710656407E+04  0.46999998093E+01 0.  1.
       -5    1    3    3    0  502 -0.32489561439E+03  0.31388713790E+03  0.72150419742E+03  0.85127709500E+03  0.46999998093E+01 0. -1.
</event>
<event>
 5   0  0.8547605E-05  0.2101498E+04  0.7818609E-02  0.8560584E-01
       -2   -1    0    0    0  501  0.00000000000E+00  0.00000000000E+00  0.66032825080E+03  0.66032825080E+03  0.25500000920E-02 0. -1.
        2   -1    0    0  501    0  0.00000000000E+00  0.00000000000E+00 -0.16720069035E+04  0.16720069035E+04  0.25500000920E-02 0.  1.
    10030    2    1    2    0    0  0.00000000000E+00  0.00000000000E+00 -0.10116786527E+04  0.23323351543E+04  0.21014979362E+04 0.  0.
        4    1    3    3  502    0 -0.97283090748E+03  0.39400679198E+03 -0.45112441189E+03  0.11424343196E+04  0.12699999809E+01 0.  1.
       -4    1    3    3    0  502  0.97283090748E+03 -0.39400679198E+03 -0.56055424080E+03  0.11899008347E+04  0.12699999809E+01 0. -1.
</event>
<event>
 5   0  0.8547605E-05  0.2095394E+04  0.7818609E-02  0.8563275E-01
       -2   -1    0    0    0  501  0.00000000000E+00  0.00000000000E+00  0.75515013987E+03  0.75515013987E+03  0.25500000920E-02 0.  1.
        2   -1    0    0  501    0  0.00000000000E+00  0.00000000000E+00 -0.14535772610E+04  0.14535772610E+04  0.25500000920E-02 0. -1.
    10030    2    1    2    0    0  0.00000000000E+00  0.00000000000E+00 -0.69842712116E+03  0.22087274009E+04  0.20953940651E+04 0.  0.
        4    1    3    3  502    0 -0.68760113734E+03  0.51619346872E+03  0.28184602672E+03  0.90481479701E+03  0.12699999809E+01 0.  1.
       -4    1    3    3    0  502  0.68760113734E+03 -0.51619346872E+03 -0.98027314789E+03  0.13039126039E+04  0.12699999809E+01 0. -1.
</event>
<event>
 5   0  0.4128678E-05  0.2101975E+04  0.7818609E-02  0.8560374E-01
       -1   -1    0    0    0  501  0.00000000000E+00  0.00000000000E+00  0.15040472219E+04  0.15040472219E+04  0.50400001928E-02 0. -1.
        1   -1    0    0  501    0  0.00000000000E+00  0.00000000000E+00 -0.73440165714E+03  0.73440165715E+03  0.50400001928E-02 0.  1.
    10030    2    1    2    0    0  0.00000000000E+00  0.00000000000E+00  0.76964556477E+03  0.22384488791E+04  0.21019750448E+04 0.  0.
        5    1    3    3  502    0  0.18076396412E+03  0.99791300869E+03  0.91152630885E+02  0.10182518724E+04  0.46999998093E+01 0.  1.
       -5    1    3    3    0  502 -0.18076396412E+03 -0.99791300869E+03  0.67849293388E+03  0.12201970066E+04  0.46999998093E+01 0. -1.
</event>
<event>
 5   0  0.4128678E-05  0.2153361E+04  0.7818609E-02  0.8538095E-01
        1   -1    0    0  501    0  0.00000000000E+00  0.00000000000E+00  0.14236349319E+04  0.14236349319E+04  0.50400001928E-02 0. -1.
       -1   -1    0    0    0  501  0.00000000000E+00  0.00000000000E+00 -0.81428224811E+03  0.81428224812E+03  0.50400001928E-02 0.  1.
    10030    2    1    2    0    0  0.00000000000E+00  0.00000000000E+00  0.60935268382E+03  0.22379171801E+04  0.21533607713E+04 0.  0.
        5    1    3    3  502    0 -0.46529660248E+03 -0.87304265034E+03  0.74622935937E+03  0.12391871305E+04  0.46999998093E+01 0. -1.
       -5    1    3    3    0  502  0.46529660248E+03  0.87304265034E+03 -0.13687667555E+03  0.99873004956E+03  0.46999998093E+01 0.  1.
</event>
<event>
 5   0  0.4128678E-05  0.2124079E+04  0.7818609E-02  0.8550710E-01
        1   -1    0    0  501    0  0.00000000000E+00  0.00000000000E+00  0.12249441882E+04  0.12249441882E+04  0.50400001928E-02 0. -1.
       -1   -1    0    0    0  501  0.00000000000E+00  0.00000000000E+00 -0.92079932677E+03  0.92079932678E+03  0.50400001928E-02 0.  1.
    10030    2    1    2    0    0  0.00000000000E+00  0.00000000000E+00  0.30414486141E+03  0.21457435150E+04  0.21240788910E+04 0.  0.
        5    1    3    3  502    0  0.21183116210E+03 -0.62344227475E+03 -0.68970507922E+03  0.95355539823E+03  0.46999998093E+01 0.  1.
       -5    1    3    3    0  502 -0.21183116210E+03  0.62344227475E+03  0.99384994063E+03  0.11921881167E+04  0.46999998093E+01 0. -1.
</event>
<event>
 5   0  0.8547605E-05  0.2100178E+04  0.7818609E-02  0.8561165E-01
        2   -1    0    0  501    0  0.00000000000E+00  0.00000000000E+00  0.21187608516E+04  0.21187608516E+04  0.25500000920E-02 0. -1.
       -2   -1    0    0    0  501  0.00000000000E+00  0.00000000000E+00 -0.52043928660E+03  0.52043928660E+03  0.25500000920E-02 0.  1.
    10030    2    1    2    0    0  0.00000000000E+00  0.00000000000E+00  0.15983215650E+04  0.26392001382E+04  0.21001775031E+04 0.  0.
        4    1    3    3  502    0 -0.50266001734E+03  0.51172053688E+03 -0.16458830943E+03  0.73594559948E+03  0.12699999809E+01 0.  1.
       -4    1    3    3    0  502  0.50266001734E+03 -0.51172053688E+03  0.17629098744E+04  0.19032545387E+04  0.12699999809E+01 0. -1.
</event>
<event>
 5   0  0.9086985E-05  0.2124534E+04  0.7818609E-02  0.8550512E-01
        2   -1    0    0  501    0  0.00000000000E+00  0.00000000000E+00  0.67573502201E+03  0.67573502201E+03  0.25500000920E-02 0. -1.
       -2   -1    0    0    0  501  0.00000000000E+00  0.00000000000E+00 -0.16699015532E+04  0.16699015532E+04  0.25500000920E-02 0.  1.
    10030    2    1    2    0    0  0.00000000000E+00  0.00000000000E+00 -0.99416653122E+03  0.23456365752E+04  0.21245337962E+04 0.  0.
        5    1    3    3  502    0  0.11841920836E+03  0.40369191891E+03 -0.15739905994E+04  0.16292509847E+04  0.46999998093E+01 0.  1.
       -5    1    3    3    0  502 -0.11841920836E+03 -0.40369191891E+03  0.57982406815E+03  0.71638559052E+03  0.46999998093E+01 0. -1.
</event>
<event>
 5   0  0.4174093E-05  0.2099537E+04  0.7818609E-02  0.8561447E-01
       -1   -1    0    0    0  501  0.00000000000E+00  0.00000000000E+00  0.52529927968E+03  0.52529927971E+03  0.50400001928E-02 0.  1.
        1   -1    0    0  501    0  0.00000000000E+00  0.00000000000E+00 -0.20978776202E+04  0.20978776202E+04  0.50400001928E-02 0. -1.
    10030    2    1    2    0    0  0.00000000000E+00  0.00000000000E+00 -0.15725783405E+04  0.26231768999E+04  0.20995367135E+04 0.  0.
        3    1    3    3  502    0 -0.69239082485E+01  0.36272955313E+03 -0.20170620453E+04  0.20494291825E+04  0.10100000352E+00 0. -1.
       -3    1    3    3    0  502  0.69239082485E+01 -0.36272955313E+03  0.44448370479E+03  0.57374771742E+03  0.10100000352E+00 0.  1.
</event>
<event>
 5   0  0.8547605E-05  0.2066562E+04  0.7818609E-02  0.8576118E-01
       -2   -1    0    0    0  501  0.00000000000E+00  0.00000000000E+00  0.90846198203E+03  0.90846198204E+03  0.25500000920E-02 0. -1.
        2   -1    0    0  501    0  0.00000000000E+00  0.00000000000E+00 -0.11752496870E+04  0.11752496870E+04  0.25500000920E-02 0.  1.
    10030    2    1    2    0    0  0.00000000000E+00  0.00000000000E+00 -0.26678770495E+03  0.20837116690E+04  0.20665620339E+04 0.  0.
        4    1    3    3  502    0 -0.10112604887E+04 -0.12855051454E+03 -0.30359942919E+03  0.10636480795E+04  0.12699999809E+01 0.  1.
       -4    1    3    3    0  502  0.10112604887E+04  0.12855051454E+03  0.36811724237E+02  0.10200635895E+04  0.12699999809E+01 0. -1.
</event>
<event>
 5   0  0.8858590E-05  0.2079446E+04  0.7818609E-02  0.8570352E-01
       -2   -1    0    0    0  501  0.00000000000E+00  0.00000000000E+00  0.13373266676E+04  0.13373266676E+04  0.25500000920E-02 0. -1.
        2   -1    0    0  501    0  0.00000000000E+00  0.00000000000E+00 -0.80834698289E+03  0.80834698289E+03  0.25500000920E-02 0.  1.
    10030    2    1    2    0    0  0.00000000000E+00  0.00000000000E+00  0.52897968468E+03  0.21456736505E+04  0.20794460578E+04 0.  0.
        1    1    3    3  502    0  0.10296482747E+04  0.11554400778E+03  0.35383858061E+03  0.10948642512E+04  0.50400001928E-02 0. -1.
       -1    1    3    3    0  502 -0.10296482747E+04 -0.11554400778E+03  0.17514110407E+03  0.10508093993E+04  0.50400001928E-02 0.  1.
</event>
<event>
 5   0  0.4174093E-05  0.1988985E+04  0.7818609E-02  0.8611788E-01
        1   -1    0    0  501    0  0.00000000000E+00  0.00000000000E+00  0.12640252332E+04  0.12640252332E+04  0.50400001928E-02 0.  1.
       -1   -1    0    0    0  501  0.00000000000E+00  0.00000000000E+00 -0.78243332194E+03  0.78243332196E+03  0.50400001928E-02 0. -1.
    10030    2    1    2    0    0  0.00000000000E+00  0.00000000000E+00  0.48159191129E+03  0.20464585552E+04  0.19889851304E+04 0.  0.
        3    1    3    3  502    0 -0.21430177331E+03 -0.92696990875E+03  0.53867328295E+03  0.10933285772E+04  0.10100000352E+00 0.  1.
       -3    1    3    3    0  502  0.21430177331E+03  0.92696990875E+03 -0.57081371653E+02  0.95312997800E+03  0.10100000352E+00 0. -1.
</event>
<event>
 5   0  0.8872777E-05  0.2105254E+04  0.7818609E-02  0.8558932E-01
       -2   -1    0    0    0  501  0.00000000000E+00  0.00000000000E+00  0.71619635597E+03  0.71619635597E+03  0.25500000920E-02 0. -1.
        2   -1    0    0  501    0  0.00000000000E+00  0.00000000000E+00 -0.15470951927E+04  0.15470951927E+04  0.25500000920E-02 0.  1.
    10030    2    1    2    0    0  0.00000000000E+00  0.00000000000E+00 -0.83089883670E+03  0.22632915486E+04  0.21052543213E+04 0.  0.
        3    1    3    3  502    0  0.46305319061E+03 -0.80446455558E+03  0.11824626929E+03  0.93571559190E+03  0.10100000352E+00 0. -1.
       -3    1    3    3    0  502 -0.46305319061E+03  0.80446455558E+03 -0.94914510598E+03  0.13275759567E+04  0.10100000352E+00 0.  1.
</event>
<event>
 5   0  0.4174093E-05  0.2127511E+04  0.7818609E-02  0.8549220E-01
        1   -1    0    0  501    0  0.00000000000E+00  0.00000000000E+00  0.75842549910E+03  0.75842549912E+03  0.50400001928E-02 0. -1.
       -1   -1    0    0    0  501  0.00000000000E+00  0.00000000000E+00 -0.14920069198E+04  0.14920069198E+04  0.50400001928E-02 0.  1.
    10030    2    1    2    0    0  0.00000000000E+00  0.00000000000E+00 -0.73358142071E+03  0.22504324189E+04  0.21275113093E+04 0.  0.
        3    1    3    3  502    0  0.83194977133E+03  0.47037801802E+03  0.12729437780E+03  0.96415754453E+03  0.10100000352E+00 0. -1.
       -3    1    3    3    0  502 -0.83194977133E+03 -0.47037801802E+03 -0.86087579852E+03  0.12862748744E+04  0.10100000352E+00 0.  1.
</event>
<event>
 5   0  0.4128678E-05  0.2093169E+04  0.7818609E-02  0.8564259E-01
        1   -1    0    0  501    0  0.00000000000E+00  0.00000000000E+00  0.10596716468E+04  0.10596716468E+04  0.50400001928E-02 0.  1.
       -1   -1    0    0    0  501  0.00000000000E+00  0.00000000000E+00 -0.10336585992E+04  0.10336585992E+04  0.50400001928E-02 0. -1.
    10030    2    1    2    0    0  0.00000000000E+00  0.00000000000E+00  0.26013047559E+02  0.20933302460E+04  0.20931686125E+04 0.  0.
        5    1    3    3  502    0 -0.11230674186E+03 -0.33395797143E+03  0.99856518894E+03  0.10589122993E+04  0.46999998093E+01 0.  1.
       -5    1    3    3    0  502  0.11230674186E+03  0.33395797143E+03 -0.97255214138E+03  0.10344179468E+04  0.46999998093E+01 0. -1.
</event>
<event>
 5   0  0.4182977E-05  0.2113173E+04  0.7818609E-02  0.8555463E-01
       -1   -1    0    0    0  501  0.00000000000E+00  0.00000000000E+00  0.67632373149E+03  0.67632373151E+03  0.50400001928E-02 0. -1.
        1   -1    0    0  501    0  0.00000000000E+00  0.00000000000E+00 -0.16506512625E+04  0.16506512625E+04  0.50400001928E-02 0.  1.
    10030    2    1    2    0    0  0.00000000000E+00  0.00000000000E+00 -0.97432753103E+03  0.23269749940E+04  0.21131726113E+04 0.  0.
        1    1    3    3  502    0 -0.32829166660E+03  0.54492294436E+03  0.44178651086E+03  0.77452679415E+03  0.50400001928E-02 0. -1.
       -1    1    3    3    0  502  0.32829166660E+03 -0.54492294436E+03 -0.14161140419E+04  0.15524481999E+04  0.50400001928E-02 0.  1.
</event>
<event>
 5   0  0.4182977E-05  0.2116820E+04  0.7818609E-02  0.8553870E-01
        1   -1    0    0  501    0  0.00000000000E+00  0.00000000000E+00  0.26555269955E+04  0.26555269955E+04  0.50400001928E-02 0. -1.
       -1   -1    0    0    0  501  0.00000000000E+00  0.00000000000E+00 -0.42184928916E+03  0.42184928919E+03  0.50400001928E-02 0.  1.
    10030    2    1    2    0    0  0.00000000000E+00  0.00000000000E+00  0.22336777064E+04  0.30773762847E+04  0.21168204227E+04 0.  0.
        1    1    3    3  502    0 -0.19916469085E+03 -0.55688676112E+03 -0.15920843349E+03  0.61248409294E+03  0.50400001928E-02 0.  1.
       -1    1    3    3    0  502  0.19916469085E+03  0.55688676112E+03  0.23928861399E+04  0.24648921918E+04  0.50400001928E-02 0. -1.
</event>
<event>
 5   0  0.8872777E-05  0.2112324E+04  0.7818609E-02  0.8555834E-01
        2   -1    0    0  501    0  0.00000000000E+00  0.00000000000E+00  0.11693290658E+04  0.11693290658E+04  0.25500000920E-02 0.  1.
       -2   -1    0    0    0  501  0.00000000000E+00  0.00000000000E+00 -0.95394747827E+03  0.95394747827E+03  0.25500000920E-02 0. -1.
    10030    2    1    2    0    0  0.00000000000E+00  0.00000000000E+00  0.21538158756E+03  0.21232765441E+04  0.21123243251E+04 0.  0.
        3    1    3    3  502    0 -0.26470812065E+03 -0.32078094964E+03 -0.86817122321E+03  0.96264847676E+03  0.10100000352E+00 0. -1.
       -3    1    3    3    0  502  0.26470812065E+03  0.32078094964E+03  0.10835528108E+04  0.11606280674E+04  0.10100000352E+00 0.  1.
</event>
<event>
 5   0  0.4182977E-05  0.2112212E+04  0.7818609E-02  0.8555883E-01
       -1   -1    0    0    0  501  0.00000000000E+00  0.00000000000E+00  0.99289443513E+03  0.99289443514E+03  0.50400001928E-02 0. -1.
        1   -1    0    0  501    0  0.00000000000E+00  0.00000000000E+00 -0.11233421665E+04  0.11233421665E+04  0.50400001928E-02 0.  1.
    10030    2    1    2    0    0  0.00000000000E+00  0.00000000000E+00 -0.13044773134E+03  0.21162366016E+04  0.21122122865E+04 0.  0.
        1    1    3    3  502    0  0.36412161843E+03  0.56904431033E+03  0.74808886322E+03  0.10079845869E+04  0.50400001928E-02 0. -1.
       -1    1    3    3    0  502 -0.36412161843E+03 -0.56904431033E+03 -0.87853659456E+03  0.11082520147E+04  0.50400001928E-02 0.  1.
</event>
<event>
 5   0  0.4050368E-05  0.2121087E+04  0.7818609E-02  0.8552011E-01
       -1   -1    0    0    0  501  0.00000000000E+00  0.00000000000E+00  0.58426520555E+03  0.58426520557E+03  0.50400001928E-02 0. -1.
        1   -1    0    0  501    0  0.00000000000E+00  0.00000000000E+00 -0.19250727583E+04  0.19250727583E+04  0.50400001928E-02 0.  1.
    10030    2    1    2    0    0  0.00000000000E+00  0.00000000000E+00 -0.13408075527E+04  0.25093379638E+04  0.21210874860E+04 0.  0.
        2    1    3    3  502    0  0.24438825153E+01  0.10331442712E+04 -0.38706563218E+03  0.11032737019E+04  0.25500000920E-02 0.  1.
       -2    1    3    3    0  502 -0.24438825153E+01 -0.10331442712E+04 -0.95374192053E+03  0.14060642619E+04  0.25500000920E-02 0. -1.
</event>
<event>
 5   0  0.4128678E-05  0.2096016E+04  0.7818609E-02  0.8563000E-01
        1   -1    0    0  501    0  0.00000000000E+00  0.00000000000E+00  0.17091494663E+04  0.17091494663E+04  0.50400001928E-02 0.  1.
       -1   -1    0    0    0  501  0.00000000000E+00  0.00000000000E+00 -0.64261253635E+03  0.64261253636E+03  0.50400001928E-02 0. -1.
    10030    2    1    2    0    0  0.00000000000E+00  0.00000000000E+00  0.10665369300E+04  0.23517620027E+04  0.20960161007E+04 0.  0.
        5    1    3    3  502    0  0.89175384424E+03 -0.54810796111E+03  0.59104438236E+03  0.12020826959E+04  0.46999998093E+01 0. -1.
       -5    1    3    3    0  502 -0.89175384424E+03  0.54810796111E+03  0.47549254762E+03  0.11496793068E+04  0.46999998093E+01 0.  1.
</event>
<event>
 5   0  0.8547605E-05  0.2078286E+04  0.7818609E-02  0.8570870E-01
       -2   -1    0    0    0  501  0.00000000000E+00  0.00000000000E+00  0.47157915933E+03  0.47157915933E+03  0.25500000920E-02 0.  1.
        2   -1    0    0  501    0  0.00000000000E+00  0.00000000000E+00 -0.22897910503E+04  0.22897910503E+04  0.25500000920E-02 0. -1.
    10030    2    1    2    0    0  0.00000000000E+00  0.00000000000E+00 -0.18182118910E+04  0.27613702096E+04  0.20782855805E+04 0.  0.
        4    1    3    3  502    0  0.52883679974E+03 -0.67575650920E+03 -0.13038231478E+03  0.86793800550E+03  0.12699999809E+01 0.  1.
       -4    1    3    3    0  502 -0.52883679974E+03  0.67575650920E+03 -0.16878295762E+04  0.18934322041E+04  0.12699999809E+01 0. -1.
</event>
<event>
 5   0  0.8872777E-05  0.2094757E+04  0.7818609E-02  0.8563556E-01
       -2   -1    0    0    0  501  0.00000000000E+00  0.00000000000E+00  0.78200094589E+03  0.78200094590E+03  0.25500000920E-02 0.  1.
        2   -1    0    0  501    0  0.00000000000E+00  0.00000000000E+00 -0.14028139956E+04  0.14028139956E+04  0.25500000920E-02 0. -1.
    10030    2    1    2    0    0  0.00000000000E+00  0.00000000000E+00 -0.62081304969E+03  0.21848149415E+04  0.20947571425E+04 0.  0.
        3    1    3    3  502    0 -0.51790789036E+03  0.14913485739E+03 -0.12470877136E+04  0.13585645234E+04  0.10100000352E+00 0. -1.
       -3    1    3    3    0  502  0.51790789036E+03 -0.14913485739E+03  0.62627466390E+03  0.82625041811E+03  0.10100000352E+00 0.  1.
</event>
<event>
 5   0  0.4200061E-05  0.2065532E+04  0.7818609E-02  0.8576581E-01
       -1   -1    0    0    0  501  0.00000000000E+00  0.00000000000E+00  0.50449399314E+03  0.50449399316E+03  0.50400001928E-02 0. -1.
        1   -1    0    0  501    0  0.00000000000E+00  0.00000000000E+00 -0.21142079243E+04  0.21142079243E+04  0.50400001928E-02 0.  1.
    10030    2    1    2    0    0  0.00000000000E+00  0.00000000000E+00 -0.16097139311E+04  0.26187019174E+04  0.20655316004E+04 0.  0.
        4    1    3    3  502    0 -0.45490647108E+03 -0.22805497103E+03 -0.19442329543E+04  0.20097244490E+04  0.12699999809E+01 0.  1.
       -4    1    3    3    0  502  0.45490647108E+03  0.22805497103E+03  0.33451902323E+03  0.60897746842E+03  0.12699999809E+01 0. -1.
</event>
<event>
 5   0  0.4050368E-05  0.2092855E+04  0.7818609E-02  0.8564397E-01
       -1   -1    0    0    0  501  0.00000000000E+00  0.00000000000E+00  0.13874242158E+04  0.13874242158E+04  0.50400001928E-02 0.  1.
        1   -1    0    0  501    0  0.00000000000E+00  0.00000000000E+00 -0.78924022354E+03  0.78924022356E+03  0.50400001928E-02 0. -1.
    10030    2    1    2    0    0  0.00000000000E+00  0.00000000000E+00  0.59818399221E+03  0.21766644393E+04  0.20928554639E+04 0.  0.
        2    1    3    3  502    0  0.58137711114E+03  0.18685589778E+03 -0.58469961261E+03  0.84545142314E+03  0.25500000920E-02 0. -1.
       -2    1    3    3    0  502 -0.58137711114E+03 -0.18685589778E+03  0.11828836048E+04  0.13312130162E+04  0.25500000920E-02 0.  1.
</event>
<event>
 5   0  0.4200061E-05  0.2072900E+04  0.7818609E-02  0.8573276E-01
       -1   -1    0    0    0  501  0.00000000000E+00  0.00000000000E+00  0.62212352180E+03  0.62212352182E+03  0.50400001928E-02 0.  1.
        1   -1    0    0  501    0  0.00000000000E+00  0.00000000000E+00 -0.17267126665E+04  0.17267126665E+04  0.50400001928E-02 0. -1.
    10030    2    1    2    0    0  0.00000000000E+00  0.00000000000E+00 -0.11045891447E+04  0.23488361883E+04  0.20728999640E+04 0.  0.
        4    1    3    3  502    0 -0.15658025817E+03  0.99654303514E+03 -0.28269020416E+03  0.10476310241E+04  0.12699999809E+01 0.  1.
       -4    1    3    3    0  502  0.15658025817E+03 -0.99654303514E+03 -0.82189894050E+03  0.13012051642E+04  0.12699999809E+01 0. -1.
</event>
<event>
 5   0  0.4182977E-05  0.2097433E+04  0.7818609E-02  0.8562375E-01
        1   -1    0    0  501    0  0.00000000000E+00  0.00000000000E+00  0.66415318021E+03  0.66415318023E+03  0.50400001928E-02 0. -1.
       -1   -1    0    0    0  501  0.00000000000E+00  0.00000000000E+00 -0.16559522053E+04  0.16559522053E+04  0.50400001928E-02 0.  1.
    10030    2    1    2    0    0  0.00000000000E+00  0.00000000000E+00 -0.99179902506E+03  0.23201053855E+04  0.20974326434E+04 0.  0.
        1    1    3    3  502    0 -0.26445198691E+03 -0.63938162892E+02 -0.16162333006E+04  0.16389731615E+04  0.50400001928E-02 0.  1.
       -1    1    3    3    0  502  0.26445198691E+03  0.63938162892E+02  0.62443427557E+03  0.68113222401E+03  0.50400001928E-02 0. -1.
</event>
<event>
 5   0  0.3176125E-05  0.2098796E+04  0.7818609E-02  0.8561774E-01
        3   -1    0    0  501    0  0.00000000000E+00  0.00000000000E+00  0.13393931874E+04  0.13393931912E+04  0.10100000352E+00 0. -1.
       -3   -1    0    0    0  501  0.00000000000E+00  0.00000000000E+00 -0.82219053877E+03  0.82219054498E+03  0.10100000352E+00 0.  1.
    10030    2    1    2    0    0  0.00000000000E+00  0.00000000000E+00  0.51720264865E+03  0.21615837362E+04  0.20987962428E+04 0.  0.
        1    1    3    3  502    0  0.66782760673E+03  0.66948604238E+03  0.72722003723E+03  0.11929183777E+04  0.50400001928E-02 0.  1.
       -1    1    3    3    0  502 -0.66782760673E+03 -0.66948604238E+03 -0.21001738858E+03  0.96866535852E+03  0.50400001928E-02 0. -1.
</event>
<event>
 5   0  0.4200061E-05  0.2090426E+04  0.7818609E-02  0.8565472E-01
        1   -1    0    0  501    0  0.00000000000E+00  0.00000000000E+00  0.88515364366E+03  0.88515364368E+03  0.50400001928E-02 0.  1.
       -1   -1    0    0    0  501  0.00000000000E+00  0.00000000000E+00 -0.12342156228E+04  0.12342156228E+04  0.50400001928E-02 0. -1.
    10030    2    1    2    0    0  0.00000000000E+00  0.00000000000E+00 -0.34906197910E+03  0.21193692664E+04  0.20904262298E+04 0.  0.
        4    1    3    3  502    0  0.58027066128E+02 -0.97559279492E+03 -0.55022936508E+03  0.11215624856E+04  0.12699999809E+01 0. -1.
       -4    1    3    3    0  502 -0.58027066128E+02  0.97559279492E+03  0.20116738598E+03  0.99780678089E+03  0.12699999809E+01 0.  1.
</event>
<event>
 5   0  0.8547605E-05  0.2071137E+04  0.7818609E-02  0.8574065E-01
        2   -1    0    0  501    0  0.00000000000E+00  0.00000000000E+00  0.19492330915E+04  0.19492330915E+04  0.25500000920E-02 0. -1.
       -2   -1    0    0    0  501  0.00000000000E+00  0.00000000000E+00 -0.55016627554E+03  0.55016627554E+03  0.25500000920E-02 0.  1.
    10030    2    1    2    0    0  0.00000000000E+00  0.00000000000E+00  0.13990668159E+04  0.24993993670E+04  0.20711371853E+04 0.  0.
        4    1    3    3  502    0 -0.80704999880E+03  0.64889899371E+03  0.70079481875E+03  0.12504057723E+04  0.12699999809E+01 0. -1.
       -4    1    3    3    0  502  0.80704999880E+03 -0.64889899371E+03  0.69827199717E+03  0.12489935947E+04  0.12699999809E+01 0.  1.
</event>
<event>
 5   0  0.8547605E-05  0.2087457E+04  0.7818609E-02  0.8566789E-01
       -2   -1    0    0    0  501  0.00000000000E+00  0.00000000000E+00  0.18856025276E+04  0.18856025276E+04  0.25500000920E-02 0. -1.
        2   -1    0    0  501    0  0.00000000000E+00  0.00000000000E+00 -0.57773012369E+03  0.57773012369E+03  0.25500000920E-02 0.  1.
    10030    2    1    2    0    0  0.00000000000E+00  0.00000000000E+00  0.13078724039E+04  0.24633326513E+04  0.20874571914E+04 0.  0.
        4    1    3    3  502    0  0.37649286965E+03  0.39274746953E+03 -0.39716239960E+03  0.67360005959E+03  0.12699999809E+01 0.  1.
       -4    1    3    3    0  502 -0.37649286965E+03 -0.39274746953E+03  0.17050348035E+04  0.17897325917E+04  0.12699999809E+01 0. -1.
</event>
<event>
 5   0  0.4182977E-05  0.2085395E+04  0.7818609E-02  0.8567705E-01
       -1   -1    0    0    0  501  0.00000000000E+00  0.00000000000E+00  0.90530331794E+03  0.90530331796E+03  0.50400001928E-02 0. -1.
        1   -1    0    0  501    0  0.00000000000E+00  0.00000000000E+00 -0.12009429841E+04  0.12009429841E+04  0.50400001928E-02 0.  1.
    10030    2    1    2    0    0  0.00000000000E+00  0.00000000000E+00 -0.29563966615E+03  0.21062463021E+04  0.20853946084E+04 0.  0.
        1    1    3    3  502    0  0.58088320193E+03 -0.62427011559E+03 -0.75388583847E+03  0.11381925711E+04  0.50400001928E-02 0.  1.
       -1    1    3    3    0  502 -0.58088320193E+03  0.62427011559E+03  0.45824617232E+03  0.96805373093E+03  0.50400001928E-02 0. -1.
</event>
<event>
 5   0  0.4200061E-05  0.2101995E+04  0.7818609E-02  0.8560365E-01
        1   -1    0    0  501    0  0.00000000000E+00  0.00000000000E+00  0.11838705662E+04  0.11838705662E+04  0.50400001928E-02 0.  1.
       -1   -1    0    0    0  501  0.00000000000E+00  0.00000000000E+00 -0.93303783860E+03  0.93303783861E+03  0.50400001928E-02 0. -1.
    10030    2    1    2    0    0  0.00000000000E+00  0.00000000000E+00  0.25083272761E+03  0.21169084048E+04  0.21019952753E+04 0.  0.
        4    1    3    3  502    0  0.76006394184E+03  0.69309471941E+03 -0.91791668032E+02  0.10327171970E+04  0.12699999809E+01 0.  1.
       -4    1    3    3    0  502 -0.76006394184E+03 -0.69309471941E+03  0.34262439564E+03  0.10841912078E+04  0.12699999809E+01 0. -1.
</event>
<event>
 5   0  0.8547605E-05  0.2020083E+04  0.7818609E-02  0.8597288E-01
        2   -1    0    0  501    0  0.00000000000E+00  0.00000000000E+00  0.21386204733E+04  0.21386204733E+04  0.25500000920E-02 0.  1.
       -2   -1    0    0    0  501  0.00000000000E+00  0.00000000000E+00 -0.47702905282E+03  0.47702905282E+03  0.25500000920E-02 0. -1.
    10030    2    1    2    0    0  0.00000000000E+00  0.00000000000E+00  0.16615914205E+04  0.26156495261E+04  0.20200832643E+04 0.  0.
        4    1    3    3  502    0 -0.69831221608E+03  0.49863651245E+03  0.14087979781E+03  0.86955566412E+03  0.12699999809E+01 0. -1.
       -4    1    3    3    0  502  0.69831221608E+03 -0.49863651245E+03  0.15207116227E+04  0.17460938620E+04  0.12699999809E+01 0.  1.
</event>
<event>
 5   0  0.8547605E-05  0.2119986E+04  0.7818609E-02  0.8552490E-01
       -2   -1    0    0    0  501  0.00000000000E+00  0.00000000000E+00  0.58826528949E+03  0.58826528950E+03  0.25500000920E-02 0. -1.
        2   -1    0    0  501    0  0.00000000000E+00  0.00000000000E+00 -0.19099982691E+04  0.19099982691E+04  0.25500000920E-02 0.  1.
    10030    2    1    2    0    0  0.00000000000E+00  0.00000000000E+00 -0.13217329796E+04  0.24982635586E+04  0.21199864949E+04 0.  0.
        4    1    3    3  502    0  0.61828923457E+03  0.42343449656E+03 -0.15443033734E+04  0.17165234844E+04  0.12699999809E+01 0.  1.
       -4    1    3    3    0  502 -0.61828923457E+03 -0.42343449656E+03  0.22257039383E+03  0.78174007417E+03  0.12699999809E+01 0. -1.
</event>
<event>
 5   0  0.9086985E-05  0.1783434E+04  0.7818609E-02  0.8715159E-01
        2   -1    0    0  501    0  0.00000000000E+00  0.00000000000E+00  0.12671451020E+04  0.12671451020E+04  0.25500000920E-02 0.  1.
       -2   -1    0    0    0  501  0.00000000000E+00  0.00000000000E+00 -0.62752034316E+03  0.62752034316E+03  0.25500000920E-02 0. -1.
    10030    2    1    2    0    0  0.00000000000E+00  0.00000000000E+00  0.63962475886E+03  0.18946654452E+04  0.17834341359E+04 0.  0.
        5    1    3    3  502    0 -0.49910664782E+03 -0.70186794218E+03  0.56533503155E+03  0.10302193175E+04  0.46999998093E+01 0.  1.
       -5    1    3    3    0  502  0.49910664782E+03  0.70186794218E+03  0.74289727307E+02  0.86444612772E+03  0.46999998093E+01 0. -1.
</event>
<event>
 5   0  0.8858590E-05  0.2077560E+04  0.7818609E-02  0.8571193E-01
       -2   -1    0    0    0  501  0.00000000000E+00  0.00000000000E+00  0.64976428281E+03  0.64976428281E+03  0.25500000920E-02 0.  1.
        2   -1    0    0  501    0  0.00000000000E+00  0.00000000000E+00 -0.16607009143E+04  0.16607009143E+04  0.25500000920E-02 0. -1.
    10030    2    1    2    0    0  0.00000000000E+00  0.00000000000E+00 -0.10109366315E+04  0.23104651971E+04  0.20775602408E+04 0.  0.
        1    1    3    3  502    0  0.41697125664E+02  0.10019662382E+04 -0.20419426844E+03  0.10234111061E+04  0.50400001928E-02 0.  1.
       -1    1    3    3    0  502 -0.41697125664E+02 -0.10019662382E+04 -0.80674236302E+03  0.12870540910E+04  0.50400001928E-02 0. -1.
</event>
<event>
 5   0  0.4128678E-05  0.2094419E+04  0.7818609E-02  0.8563706E-01
       -1   -1    0    0    0  501  0.00000000000E+00  0.00000000000E+00  0.77081812946E+03  0.77081812947E+03  0.50400001928E-02 0.  1.
        1   -1    0    0  501    0  0.00000000000E+00  0.00000000000E+00 -0.14227058757E+04  0.14227058757E+04  0.50400001928E-02 0. -1.
    10030    2    1    2    0    0  0.00000000000E+00  0.00000000000E+00 -0.65188774627E+03  0.21935240052E+04  0.20944187565E+04 0.  0.
        5    1    3    3  502    0  0.10285814149E+04  0.15618449430E+03 -0.20091283859E+03  0.10596043517E+04  0.46999998093E+01 0.  1.
       -5    1    3    3    0  502 -0.10285814149E+04 -0.15618449430E+03 -0.45097490768E+03  0.11339196535E+04  0.46999998093E+01 0. -1.
</event>
<event>
 5   0  0.9086985E-05  0.2095716E+04  0.7818609E-02  0.8563133E-01
        2   -1    0    0  501    0  0.00000000000E+00  0.00000000000E+00  0.13556336992E+04  0.13556336992E+04  0.25500000920E-02 0.  1.
       -2   -1    0    0    0  501  0.00000000000E+00  0.00000000000E+00 -0.80995778331E+03  0.80995778332E+03  0.25500000920E-02 0. -1.
    10030    2    1    2    0    0  0.00000000000E+00  0.00000000000E+00  0.54567591592E+03  0.21655914826E+04  0.20957156926E+04 0.  0.
        5    1    3    3  502    0  0.30425758694E+03 -0.41407031159E+03 -0.67082306590E+03  0.84501631812E+03  0.46999998093E+01 0. -1.
       -5    1    3    3    0  502 -0.30425758694E+03  0.41407031159E+03  0.12164989818E+04  0.13205751644E+04  0.46999998093E+01 0.  1.
</event>
<event>
 5   0  0.4050368E-05  0.2084780E+04  0.7818609E-02  0.8567978E-01
       -1   -1    0    0    0  501  0.00000000000E+00  0.00000000000E+00  0.59260451762E+03  0.59260451764E+03  0.50400001928E-02 0. -1.
        1   -1    0    0  501    0  0.00000000000E+00  0.00000000000E+00 -0.18335618490E+04  0.18335618490E+04  0.50400001928E-02 0.  1.
    10030    2    1    2    0    0  0.00000000000E+00  0.00000000000E+00 -0.12409573314E+04  0.24261663666E+04  0.20847801180E+04 0.  0.
        2    1    3    3  502    0 -0.85996368001E+03  0.50934569286E+03 -0.27602690408E+03  0.10368999072E+04  0.25500000920E-02 0. -1.
       -2    1    3    3    0  502  0.85996368001E+03 -0.50934569286E+03 -0.96493042728E+03  0.13892664594E+04  0.25500000920E-02 0.  1.
</event>
<event>
 5   0  0.9086985E-05  0.2107228E+04  0.7818609E-02  0.8558066E-01
        2   -1    0    0  501    0  0.00000000000E+00  0.00000000000E+00  0.93131918385E+03  0.93131918385E+03  0.25500000920E-02 0. -1.
       -2   -1    0    0    0  501  0.00000000000E+00  0.00000000000E+00 -0.11919677182E+04  0.11919677182E+04  0.25500000920E-02 0.  1.
    10030    2    1    2    0    0  0.00000000000E+00  0.00000000000E+00 -0.26064853431E+03  0.21232869020E+04  0.21072279444E+04 0.  0.
        5    1    3    3  502    0  0.33176707285E+03 -0.45045998018E+03 -0.10299309583E+04  0.11720765561E+04  0.46999998093E+01 0.  1.
       -5    1    3    3    0  502 -0.33176707285E+03  0.45045998018E+03  0.76928242400E+03  0.95121034595E+03  0.46999998093E+01 0. -1.
</event>
<event>
 5   0  0.4174093E-05  0.2095259E+04  0.7818609E-02  0.8563335E-01
       -1   -1    0    0    0  501  0.00000000000E+00  0.00000000000E+00  0.61209011446E+03  0.61209011448E+03  0.50400001928E-02 0. -1.
        1   -1    0    0  501    0  0.00000000000E+00  0.00000000000E+00 -0.17930819858E+04  0.17930819858E+04  0.50400001928E-02 0.  1.
    10030    2    1    2    0    0  0.00000000000E+00  0.00000000000E+00 -0.11809918713E+04  0.24051721003E+04  0.20952591801E+04 0.  0.
        3    1    3    3  502    0 -0.20578736698E+02 -0.83865813351E+03  0.12981902983E+03  0.84889571798E+03  0.10100000352E+00 0. -1.
       -3    1    3    3    0  502  0.20578736698E+02  0.83865813351E+03 -0.13108109012E+04  0.15562763823E+04  0.10100000352E+00 0.  1.
</event>
<event>
 5   0  0.4200061E-05  0.2092817E+04  0.7818609E-02  0.8564414E-01
        1   -1    0    0  501    0  0.00000000000E+00  0.00000000000E+00  0.15753592113E+04  0.15753592113E+04  0.50400001928E-02 0.  1.
       -1   -1    0    0    0  501  0.00000000000E+00  0.00000000000E+00 -0.69506123848E+03  0.69506123850E+03  0.50400001928E-02 0. -1.
    10030    2    1    2    0    0  0.00000000000E+00  0.00000000000E+00  0.88029797281E+03  0.22704204498E+04  0.20928173590E+04 0.  0.
        4    1    3    3  502    0  0.36407930757E+03 -0.44146093582E+03 -0.51028526330E+03  0.76670343869E+03  0.12699999809E+01 0. -1.
       -4    1    3    3    0  502 -0.36407930757E+03  0.44146093582E+03  0.13905832361E+04  0.15037170111E+04  0.12699999809E+01 0.  1.
</event>
<event>
 5   0  0.4174093E-05  0.2103445E+04  0.7818609E-02  0.8559727E-01
        1   -1    0    0  501    0  0.00000000000E+00  0.00000000000E+00  0.12806654296E+04  0.12806654296E+04  0.50400001928E-02 0.  1.
       -1   -1    0    0    0  501  0.00000000000E+00  0.00000000000E+00 -0.86370780291E+03  0.86370780292E+03  0.50400001928E-02 0. -1.
    10030    2    1    2    0    0  0.00000000000E+00  0.00000000000E+00  0.41695762667E+03  0.21443732325E+04  0.21034454825E+04 0.  0.
        3    1    3    3  502    0  0.26391919017E+03 -0.76560497403E+03 -0.47563443116E+03  0.93916582003E+03  0.10100000352E+00 0. -1.
       -3    1    3    3    0  502 -0.26391919017E+03  0.76560497403E+03  0.89259205784E+03  0.12052074125E+04  0.10100000352E+00 0.  1.
</event>
<event>
 5   0  0.4174093E-05  0.2098687E+04  0.7818609E-02  0.8561822E-01
        1   -1    0    0  501    0  0.00000000000E+00  0.00000000000E+00  0.14092366529E+04  0.14092366529E+04  0.50400001928E-02 0. -1.
       -1   -1    0    0    0  501  0.00000000000E+00  0.00000000000E+00 -0.78136050125E+03  0.78136050126E+03  0.50400001928E-02 0.  1.
    10030    2    1    2    0    0  0.00000000000E+00  0.00000000000E+00  0.62787615166E+03  0.21905971542E+04  0.20986870729E+04 0.  0.
        3    1    3    3  502    0  0.34842231953E+03  0.97183458993E+03  0.50994155132E+03  0.11514777370E+04  0.10100000352E+00 0.  1.
       -3    1    3    3    0  502 -0.34842231953E+03 -0.97183458993E+03  0.11793460034E+03  0.10391194171E+04  0.10100000352E+00 0. -1.
</event>
<event>
 5   0  0.9012466E-05  0.2092690E+04  0.7818609E-02  0.8564470E-01
       -2   -1    0    0    0  501  0.00000000000E+00  0.00000000000E+00  0.84387856746E+03  0.84387856747E+03  0.25500000920E-02 0. -1.
        2   -1    0    0  501    0  0.00000000000E+00  0.00000000000E+00 -0.12973879776E+04  0.12973879776E+04  0.25500000920E-02 0.  1.
    10030    2    1    2    0    0  0.00000000000E+00  0.00000000000E+00 -0.45350941009E+03  0.21412665450E+04  0.20926900468E+04 0.  0.
        2    1    3    3  502    0 -0.63635959127E+03 -0.76750640500E+03  0.98134664334E+02  0.10018233494E+04  0.25500000920E-02 0. -1.
       -2    1    3    3    0  502  0.63635959127E+03  0.76750640500E+03 -0.55164407442E+03  0.11394431956E+04  0.25500000920E-02 0.  1.
</event>
<event>
 5   0  0.4128678E-05  0.2067336E+04  0.7818609E-02  0.8575770E-01
        1   -1    0    0  501    0  0.00000000000E+00  0.00000000000E+00  0.85699860826E+03  0.85699860827E+03  0.50400001928E-02 0.  1.
       -1   -1    0    0    0  501  0.00000000000E+00  0.00000000000E+00 -0.12467581196E+04  0.12467581196E+04  0.50400001928E-02 0. -1.
    10030    2    1    2    0    0  0.00000000000E+00  0.00000000000E+00 -0.38975951133E+03  0.21037567279E+04  0.20673364248E+04 0.  0.
        5    1    3    3  502    0 -0.10150573742E+04  0.80336603771E+02 -0.13834161021E+02  0.10183363476E+04  0.46999998093E+01 0.  1.
       -5    1    3    3    0  502  0.10150573742E+04 -0.80336603771E+02 -0.37592535031E+03  0.10854203803E+04  0.46999998093E+01 0. -1.
</event>
<event>
 5   0  0.4050368E-05  0.2094693E+04  0.7818609E-02  0.8563585E-01
       -1   -1    0    0    0  501  0.00000000000E+00  0.00000000000E+00  0.11156771813E+04  0.11156771813E+04  0.50400001928E-02 0.  1.
        1   -1    0    0  501    0  0.00000000000E+00  0.00000000000E+00 -0.98320061718E+03  0.98320061719E+03  0.50400001928E-02 0. -1.
    10030    2    1    2    0    0  0.00000000000E+00  0.00000000000E+00  0.13247656411E+03  0.20988777985E+04  0.20946928111E+04 0.  0.
        2    1    3    3  502    0  0.71840347250E+03 -0.75409898969E+03 -0.44280122714E+02  0.10424632199E+04  0.25500000920E-02 0.  1.
       -2    1    3    3    0  502 -0.71840347250E+03  0.75409898969E+03  0.17675668683E+03  0.10564145786E+04  0.25500000920E-02 0. -1.
</event>
<event>
 5   0  0.4174093E-05  0.2095388E+04  0.7818609E-02  0.8563278E-01
       -1   -1    0    0    0  501  0.00000000000E+00  0.00000000000E+00  0.91102060352E+03  0.91102060353E+03  0.50400001928E-02 0.  1.
        1   -1    0    0  501    0  0.00000000000E+00  0.00000000000E+00 -0.12048710756E+04  0.12048710756E+04  0.50400001928E-02 0. -1.
    10030    2    1    2    0    0  0.00000000000E+00  0.00000000000E+00 -0.29385047207E+03  0.21158916791E+04  0.20953876725E+04 0.  0.
        3    1    3    3  502    0  0.38006715605E+03  0.35921152618E+02  0.83828632207E+03  0.92112178364E+03  0.10100000352E+00 0.  1.
       -3    1    3    3    0  502 -0.38006715605E+03 -0.35921152618E+02 -0.11321367941E+04  0.11947698955E+04  0.10100000352E+00 0. -1.
</event>
<event>
 5   0  0.8858590E-05  0.2104664E+04  0.7818609E-02  0.8559192E-01
        2   -1    0    0  501    0  0.00000000000E+00  0.00000000000E+00  0.17502126111E+04  0.17502126111E+04  0.25500000920E-02 0. -1.
       -2   -1    0    0    0  501  0.00000000000E+00  0.00000000000E+00 -0.63272436588E+03  0.63272436589E+03  0.25500000920E-02 0.  1.
    10030    2    1    2    0    0  0.00000000000E+00  0.00000000000E+00  0.11174882452E+04  0.23829369770E+04  0.21046635499E+04 0.  0.
        1    1    3    3  502    0 -0.30232972537E+03  0.44087708019E+03  0.15850269062E+04  0.16727480851E+04  0.50400001928E-02 0. -1.
       -1    1    3    3    0  502  0.30232972537E+03 -0.44087708019E+03 -0.46753866098E+03  0.71018889193E+03  0.50400001928E-02 0.  1.
</event>
<event>
 5   0  0.9012466E-05  0.2112829E+04  0.7818609E-02  0.8555613E-01
        2   -1    0    0  501    0  0.00000000000E+00  0.00000000000E+00  0.10323929911E+04  0.10323929912E+04  0.25500000920E-02 0.  1.
       -2   -1    0    0    0  501  0.00000000000E+00  0.00000000000E+00 -0.10809953398E+04  0.10809953398E+04  0.25500000920E-02 0. -1.
    10030    2    1    2    0    0  0.00000000000E+00  0.00000000000E+00 -0.48602348620E+02  0.21133883309E+04  0.21128293942E+04 0.  0.
        2    1    3    3  502    0 -0.98219918850E+03 -0.36614162035E+03 -0.15562596762E+03  0.10597142888E+04  0.25500000920E-02 0. -1.
       -2    1    3    3    0  502  0.98219918850E+03  0.36614162035E+03  0.10702361900E+03  0.10536740421E+04  0.25500000920E-02 0.  1.
</event>
<event>
 5   0  0.4174093E-05  0.2100085E+04  0.7818609E-02  0.8561206E-01
       -1   -1    0    0    0  501  0.00000000000E+00  0.00000000000E+00  0.56110500420E+03  0.56110500422E+03  0.50400001928E-02 0.  1.
        1   -1    0    0  501    0  0.00000000000E+00  0.00000000000E+00 -0.19650327863E+04  0.19650327863E+04  0.50400001928E-02 0. -1.
    10030    2    1    2    0    0  0.00000000000E+00  0.00000000000E+00 -0.14039277821E+04  0.25261377906E+04  0.21000854553E+04 0.  0.
        3    1    3    3  502    0  0.16987238063E+03  0.38392300007E+03 -0.18596861742E+04  0.19064852930E+04  0.10100000352E+00 0. -1.
       -3    1    3    3    0  502 -0.16987238063E+03 -0.38392300007E+03  0.45575839203E+03  0.61965249761E+03  0.10100000352E+00 0.  1.
</event>
<event>
 5   0  0.8858590E-05  0.2032932E+04  0.7818609E-02  0.8591377E-01
        2   -1    0    0  501    0  0.00000000000E+00  0.00000000000E+00  0.20437548008E+04  0.20437548008E+04  0.25500000920E-02 0. -1.
       -2   -1    0    0    0  501  0.00000000000E+00  0.00000000000E+00 -0.50554139345E+03  0.50554139345E+03  0.25500000920E-02 0.  1.
    10030    2    1    2    0    0  0.00000000000E+00  0.00000000000E+00  0.15382134074E+04  0.25492961943E+04  0.20329315285E+04 0.  0.
        1    1    3    3  502    0 -0.18133830697E+03 -0.99612706995E+03  0.65659607138E+03  0.12067605902E+04  0.50400001928E-02 0.  1.
       -1    1    3    3    0  502  0.18133830697E+03  0.99612706995E+03  0.88161733598E+03  0.13425356041E+04  0.50400001928E-02 0. -1.
</event>
<event>
 5   0  0.4182977E-05  0.2024647E+04  0.7818609E-02  0.8595183E-01
       -1   -1    0    0    0  501  0.00000000000E+00  0.00000000000E+00  0.54254947133E+03  0.54254947135E+03  0.50400001928E-02 0.  1.
        1   -1    0    0  501    0  0.00000000000E+00  0.00000000000E+00 -0.18888579377E+04  0.18888579377E+04  0.50400001928E-02 0. -1.
    10030    2    1    2    0    0  0.00000000000E+00  0.00000000000E+00 -0.13463084664E+04  0.24314074091E+04  0.20246470068E+04 0.  0.
        1    1    3    3  502    0 -0.21815706900E+03 -0.32795800793E+03  0.44674938847E+03  0.59559548172E+03  0.50400001928E-02 0.  1.
       -1    1    3    3    0  502  0.21815706900E+03  0.32795800793E+03 -0.17930578549E+04  0.18358119273E+04  0.50400001928E-02 0. -1.
</event>
<event>
 5   0  0.4174093E-05  0.2089407E+04  0.7818609E-02  0.8565924E-01
       -1   -1    0    0    0  501  0.00000000000E+00  0.00000000000E+00  0.12217149965E+04  0.12217149965E+04  0.50400001928E-02 0.  1.
        1   -1    0    0  501    0  0.00000000000E+00  0.00000000000E+00 -0.89333895734E+03  0.89333895735E+03  0.50400001928E-02 0. -1.
    10030    2    1    2    0    0  0.00000000000E+00  0.00000000000E+00  0.32837603919E+03  0.21150539539E+04  0.20894071898E+04 0.  0.
        3    1    3    3  502    0  0.71190534432E+03  0.71958989348E+03  0.42579151545E+03  0.10981426405E+04  0.10100000352E+00 0.  1.
       -3    1    3    3    0  502 -0.71190534432E+03 -0.71958989348E+03 -0.97415476261E+02  0.10169113134E+04  0.10100000352E+00 0. -1.
</event>
<event>
 5   0  0.8547605E-05  0.2102547E+04  0.7818609E-02  0.8560122E-01
       -2   -1    0    0    0  501  0.00000000000E+00  0.00000000000E+00  0.69472570472E+03  0.69472570473E+03  0.25500000920E-02 0.  1.
        2   -1    0    0  501    0  0.00000000000E+00  0.00000000000E+00 -0.15908092281E+04  0.15908092281E+04  0.25500000920E-02 0. -1.
    10030    2    1    2    0    0  0.00000000000E+00  0.00000000000E+00 -0.89608352337E+03  0.22855349328E+04  0.21025470859E+04 0.  0.
        4    1    3    3  502    0  0.25512225189E+03  0.90833525005E+03  0.56010610867E+02  0.94514501074E+03  0.12699999809E+01 0.  1.
       -4    1    3    3    0  502 -0.25512225189E+03 -0.90833525005E+03 -0.95209413424E+03  0.13403899221E+04  0.12699999809E+01 0. -1.
</event>
<event>
 5   0  0.9086985E-05  0.2103075E+04  0.7818609E-02  0.8559890E-01
       -2   -1    0    0    0  501  0.00000000000E+00  0.00000000000E+00  0.87852148232E+03  0.87852148233E+03  0.25500000920E-02 0. -1.
        2   -1    0    0  501    0  0.00000000000E+00  0.00000000000E+00 -0.12586268493E+04  0.12586268493E+04  0.25500000920E-02 0.  1.
    10030    2    1    2    0    0  0.00000000000E+00  0.00000000000E+00 -0.38010536701E+03  0.21371483317E+04  0.21030746305E+04 0.  0.
        5    1    3    3  502    0 -0.15733129258E+03  0.76106049670E+03 -0.90986685330E+03  0.11965976751E+04  0.46999998093E+01 0.  1.
       -5    1    3    3    0  502  0.15733129258E+03 -0.76106049670E+03  0.52976148629E+03  0.94055065659E+03  0.46999998093E+01 0. -1.
</event>
<event>
 5   0  0.3176125E-05  0.2098006E+04  0.7818609E-02  0.8562122E-01
       -3   -1    0    0    0  501  0.00000000000E+00  0.00000000000E+00  0.67510607829E+03  0.67510608585E+03  0.10100000352E+00 0. -1.
        3   -1    0    0  501    0  0.00000000000E+00  0.00000000000E+00 -0.16299773215E+04  0.16299773246E+04  0.10100000352E+00 0.  1.
    10030    2    1    2    0    0  0.00000000000E+00  0.00000000000E+00 -0.95487124317E+03  0.23050834104E+04  0.20980063008E+04 0.  0.
        5    1    3    3  502    0  0.62117265162E+03  0.83549979072E+03 -0.61843873905E+03  0.12109516619E+04  0.46999998093E+01 0. -1.
       -5    1    3    3    0  502 -0.62117265162E+03 -0.83549979072E+03 -0.33643250412E+03  0.10941317486E+04  0.46999998093E+01 0.  1.
</event>
<event>
 5   0  0.8858590E-05  0.2110040E+04  0.7818609E-02  0.8556833E-01
       -2   -1    0    0    0  501  0.00000000000E+00  0.00000000000E+00  0.49355072162E+03  0.49355072163E+03  0.25500000920E-02 0. -1.
        2   -1    0    0  501    0  0.00000000000E+00  0.00000000000E+00 -0.22552243312E+04  0.22552243312E+04  0.25500000920E-02 0.  1.
    10030    2    1    2    0    0  0.00000000000E+00  0.00000000000E+00 -0.17616736096E+04  0.27487750529E+04  0.21100403751E+04 0.  0.
        1    1    3    3  502    0  0.87765770952E+03  0.29951732029E+03 -0.22548857955E+03  0.95437874021E+03  0.50400001928E-02 0. -1.
       -1    1    3    3    0  502 -0.87765770952E+03 -0.29951732029E+03 -0.15361850301E+04  0.17943963127E+04  0.50400001928E-02 0.  1.
</event>
<event>
 5   0  0.9086985E-05  0.2149538E+04  0.7818609E-02  0.8539730E-01
        2   -1    0    0  501    0  0.00000000000E+00  0.00000000000E+00  0.18448949229E+04  0.18448949229E+04  0.25500000920E-02 0. -1.
       -2   -1    0    0    0  501  0.00000000000E+00  0.00000000000E+00 -0.62612172191E+03  0.62612172192E+03  0.25500000920E-02 0.  1.
    10030    2    1    2    0    0  0.00000000000E+00  0.00000000000E+00  0.12187732010E+04  0.24710166448E+04  0.21495383559E+04 0.  0.
        5    1    3    3  502    0 -0.45261374650E+03 -0.22307242813E+03 -0.48147335340E+03  0.69746626567E+03  0.46999998093E+01 0.  1.
       -5    1    3    3    0  502  0.45261374650E+03  0.22307242813E+03  0.17002465544E+04  0.17735503792E+04  0.46999998093E+01 0. -1.
</event>
<event>
 5   0  0.8547605E-05  0.2100492E+04  0.7818609E-02  0.8561027E-01
       -2   -1    0    0    0  501  0.00000000000E+00  0.00000000000E+00  0.86497157965E+03  0.86497157966E+03  0.25500000920E-02 0. -1.
        2   -1    0    0  501    0  0.00000000000E+00  0.00000000000E+00 -0.12752059599E+04  0.12752059599E+04  0.25500000920E-02 0.  1.
    10030    2    1    2    0    0  0.00000000000E+00  0.00000000000E+00 -0.41023438020E+03  0.21401775395E+04  0.21004922409E+04 0.  0.
        4    1    3    3  502    0 -0.38443951477E+02  0.85609491168E+03  0.41351039367E+03  0.95150874603E+03  0.12699999809E+01 0.  1.
       -4    1    3    3    0  502  0.38443951477E+02 -0.85609491168E+03 -0.82374477388E+03  0.11886687935E+04  0.12699999809E+01 0. -1.
</event>
<event>
 5   0  0.4174093E-05  0.2033092E+04  0.7818609E-02  0.8591304E-01
       -1   -1    0    0    0  501  0.00000000000E+00  0.00000000000E+00  0.76434715190E+03  0.76434715191E+03  0.50400001928E-02 0.  1.
        1   -1    0    0  501    0  0.00000000000E+00  0.00000000000E+00 -0.13519585072E+04  0.13519585072E+04  0.50400001928E-02 0. -1.
    10030    2    1    2    0    0  0.00000000000E+00  0.00000000000E+00 -0.58761135532E+03  0.21163056591E+04  0.20330918666E+04 0.  0.
        3    1    3    3  502    0  0.88653351237E+02 -0.50014104267E+03  0.62278308278E+03  0.80365369261E+03  0.10100000352E+00 0.  1.
       -3    1    3    3    0  502 -0.88653351237E+02  0.50014104267E+03 -0.12103944381E+04  0.13126519665E+04  0.10100000352E+00 0. -1.
</event>
<event>
 5   0  0.4174093E-05  0.2122669E+04  0.7818609E-02  0.8551323E-01
       -1   -1    0    0    0  501  0.00000000000E+00  0.00000000000E+00  0.10555622512E+04  0.10555622512E+04  0.50400001928E-02 0. -1.
        1   -1    0    0  501    0  0.00000000000E+00  0.00000000000E+00 -0.10671384049E+04  0.10671384050E+04  0.50400001928E-02 0.  1.
    10030    2    1    2    0    0  0.00000000000E+00  0.00000000000E+00 -0.11576153753E+02  0.21227006562E+04  0.21226690906E+04 0.  0.
        3    1    3    3  502    0 -0.74574225398E+03 -0.59943663324E+03 -0.46511529682E+03  0.10638552703E+04  0.10100000352E+00 0.  1.
       -3    1    3    3    0  502  0.74574225398E+03  0.59943663324E+03  0.45353914306E+03  0.10588453858E+04  0.10100000352E+00 0. -1.
</event>
<event>
 5   0  0.8872777E-05  0.2092231E+04  0.7818609E-02  0.8564673E-01
        2   -1    0    0  501    0  0.00000000000E+00  0.00000000000E+00  0.16717073085E+04  0.16717073085E+04  0.25500000920E-02 0. -1.
       -2   -1    0    0    0  501  0.00000000000E+00  0.00000000000E+00 -0.65463486251E+03  0.65463486251E+03  0.25500000920E-02 0.  1.
    10030    2    1    2    0    0  0.00000000000E+00  0.00000000000E+00  0.10170724459E+04  0.23263421710E+04  0.20922312339E+04 0.  0.
        3    1    3    3  502    0  0.28856527504E+02  0.10456935138E+04  0.50065432355E+03  0.11597251338E+04  0.10100000352E+00 0.  1.
       -3    1    3    3    0  502 -0.28856527504E+02 -0.10456935138E+04  0.51641812240E+03  0.11666170372E+04  0.10100000352E+00 0. -1.
</event>
<event>
 5   0  0.8547605E-05  0.2132598E+04  0.7818609E-02  0.8547018E-01
        2   -1    0    0  501    0  0.00000000000E+00  0.00000000000E+00  0.16813148230E+04  0.16813148230E+04  0.25500000920E-02 0. -1.
       -2   -1    0    0    0  501  0.00000000000E+00  0.00000000000E+00 -0.67625290419E+03  0.67625290419E+03  0.25500000920E-02 0.  1.
    10030    2    1    2    0    0  0.00000000000E+00  0.00000000000E+00  0.10050619189E+04  0.23575677272E+04  0.21325984450E+04 0.  0.
        4    1    3    3  502    0  0.42682688611E+03  0.75739995411E+02 -0.57444320106E+03  0.71965571057E+03  0.12699999809E+01 0.  1.
       -4    1    3    3    0  502 -0.42682688611E+03 -0.75739995411E+02  0.15795051199E+04  0.16379120167E+04  0.12699999809E+01 0. -1.
</event>
<event>
 5   0  0.4050368E-05  0.2090058E+04  0.7818609E-02  0.8565636E-01
       -1   -1    0    0    0  501  0.00000000000E+00  0.00000000000E+00  0.59566266465E+03  0.59566266467E+03  0.50400001928E-02 0.  1.
        1   -1    0    0  501    0  0.00000000000E+00  0.00000000000E+00 -0.18333962424E+04  0.18333962424E+04  0.50400001928E-02 0. -1.
    10030    2    1    2    0    0  0.00000000000E+00  0.00000000000E+00 -0.12377335778E+04  0.24290589071E+04  0.20900580768E+04 0.  0.
        2    1    3    3  502    0 -0.61948201022E+03 -0.15124087110E+03 -0.15810744889E+04  0.17048250061E+04  0.25500000920E-02 0. -1.
       -2    1    3    3    0  502  0.61948201022E+03  0.15124087110E+03  0.34334091111E+03  0.72423390098E+03  0.25500000920E-02 0.  1.
</event>
<event>
 5   0  0.4182977E-05  0.2089057E+04  0.7818609E-02  0.8566079E-01
        1   -1    0    0  501    0  0.00000000000E+00  0.00000000000E+00  0.94001112991E+03  0.94001112992E+03  0.50400001928E-02 0.  1.
       -1   -1    0    0    0  501  0.00000000000E+00  0.00000000000E+00 -0.11606672029E+04  0.11606672029E+04  0.50400001928E-02 0. -1.
    10030    2    1    2    0    0  0.00000000000E+00  0.00000000000E+00 -0.22065607298E+03  0.21006783328E+04  0.20890572887E+04 0.  0.
        1    1    3    3  502    0 -0.44432778276E+03  0.49906439994E+03  0.69697524112E+03  0.96553971465E+03  0.50400001928E-02 0.  1.
       -1    1    3    3    0  502  0.44432778276E+03 -0.49906439994E+03 -0.91763131410E+03  0.11351386182E+04  0.50400001928E-02 0. -1.
</event>
<event>
 5   0  0.4050368E-05  0.2089479E+04  0.7818609E-02  0.8565892E-01
       -1   -1    0    0    0  501  0.00000000000E+00  0.00000000000E+00  0.76893598611E+03  0.76893598612E+03  0.50400001928E-02 0. -1.
        1   -1    0    0  501    0  0.00000000000E+00  0.00000000000E+00 -0.14194687716E+04  0.14194687716E+04  0.50400001928E-02 0.  1.
    10030    2    1    2    0    0  0.00000000000E+00  0.00000000000E+00 -0.65053278551E+03  0.21884047578E+04  0.20894789970E+04 0.  0.
        2    1    3    3  502    0  0.52534225297E+03 -0.88033072789E+00  0.62053595543E+03  0.81304989375E+03  0.25500000920E-02 0. -1.
       -2    1    3    3    0  502 -0.52534225297E+03  0.88033072789E+00 -0.12710687409E+04  0.13753548640E+04  0.25500000920E-02 0.  1.
</event>
<event>
 5   0  0.8547605E-05  0.2108946E+04  0.7818609E-02  0.8557313E-01
        2   -1    0    0  501    0  0.00000000000E+00  0.00000000000E+00  0.19410797026E+04  0.19410797026E+04  0.25500000920E-02 0.  1.
       -2   -1    0    0    0  501  0.00000000000E+00  0.00000000000E+00 -0.57283220485E+03  0.57283220485E+03  0.25500000920E-02 0. -1.
    10030    2    1    2    0    0  0.00000000000E+00  0.00000000000E+00  0.13682474977E+04  0.25139119074E+04  0.21089456758E+04 0.  0.
        4    1    3    3  502    0  0.60532768884E+03 -0.59277988631E+03 -0.64198819185E+02  0.84966623199E+03  0.12699999809E+01 0. -1.
       -4    1    3    3    0  502 -0.60532768884E+03  0.59277988631E+03  0.14324463169E+04  0.16642456755E+04  0.12699999809E+01 0.  1.
</event>
<event>
 5   0  0.8547605E-05  0.2192117E+04  0.7818609E-02  0.8521716E-01
       -2   -1    0    0    0  501  0.00000000000E+00  0.00000000000E+00  0.12223449524E+04  0.12223449524E+04  0.25500000920E-02 0.  1.
        2   -1    0    0  501    0  0.00000000000E+00  0.00000000000E+00 -0.98281960841E+03  0.98281960841E+03  0.25500000920E-02 0. -1.
    10030    2    1    2    0    0  0.00000000000E+00  0.00000000000E+00  0.23952534398E+03  0.22051645608E+04  0.21921173212E+04 0.  0.
        4    1    3    3  502    0 -0.54659872165E+03  0.76645615050E+02  0.10723402934E+04  0.12060514212E+04  0.12699999809E+01 0.  1.
       -4    1    3    3    0  502  0.54659872165E+03 -0.76645615050E+02 -0.83281494943E+03  0.99911313960E+03  0.12699999809E+01 0. -1.
</event>
<event>
 5   0  0.9086985E-05  0.2104531E+04  0.7818609E-02  0.8559250E-01
       -2   -1    0    0    0  501  0.00000000000E+00  0.00000000000E+00  0.63069420088E+03  0.63069420089E+03  0.25500000920E-02 0. -1.
        2   -1    0    0  501    0  0.00000000000E+00  0.00000000000E+00 -0.17556260849E+04  0.17556260849E+04  0.25500000920E-02 0.  1.
    10030    2    1    2    0    0  0.00000000000E+00  0.00000000000E+00 -0.11249318840E+04  0.23863202858E+04  0.21045314829E+04 0.  0.
        5    1    3    3  502    0  0.17107339642E+03 -0.93084950851E+03 -0.10839277701E+04  0.14389817286E+04  0.46999998093E+01 0.  1.
       -5    1    3    3    0  502 -0.17107339642E+03  0.93084950851E+03 -0.41004113850E+02  0.94733855712E+03  0.46999998093E+01 0. -1.
</event>
<event>
 5   0  0.4174093E-05  0.2113635E+04  0.7818609E-02  0.8555261E-01
       -1   -1    0    0    0  501  0.00000000000E+00  0.00000000000E+00  0.12587523298E+04  0.12587523299E+04  0.50400001928E-02 0.  1.
        1   -1    0    0  501    0  0.00000000000E+00  0.00000000000E+00 -0.88727838299E+03  0.88727838300E+03  0.50400001928E-02 0. -1.
    10030    2    1    2    0    0  0.00000000000E+00  0.00000000000E+00  0.37147394686E+03  0.21460307129E+04  0.21136354765E+04 0.  0.
        3    1    3    3  502    0  0.91452491225E+03 -0.46061331888E+03  0.45116925658E+03  0.11189611937E+04  0.10100000352E+00 0.  1.
       -3    1    3    3    0  502 -0.91452491225E+03  0.46061331888E+03 -0.79695309723E+02  0.10270695192E+04  0.10100000352E+00 0. -1.
</event>
<event>
 5   0  0.4050368E-05  0.2078360E+04  0.7818609E-02  0.8570836E-01
       -1   -1    0    0    0  501  0.00000000000E+00  0.00000000000E+00  0.49258150800E+03  0.49258150802E+03  0.50400001928E-02 0. -1.
        1   -1    0    0  501    0  0.00000000000E+00  0.00000000000E+00 -0.21923175565E+04  0.21923175565E+04  0.50400001928E-02 0.  1.
    10030    2    1    2    0    0  0.00000000000E+00  0.00000000000E+00 -0.16997360485E+04  0.26848990645E+04  0.20783600150E+04 0.  0.
        2    1    3    3  502    0 -0.75769232735E+03 -0.30885319997E+03 -0.16774568755E+04  0.18663733633E+04  0.25500000920E-02 0.  1.
       -2    1    3    3    0  502  0.75769232735E+03  0.30885319997E+03 -0.22279173024E+02  0.81852570125E+03  0.25500000920E-02 0. -1.
</event>
<event>
 5   0  0.8858590E-05  0.2081036E+04  0.7818609E-02  0.8569644E-01
       -2   -1    0    0    0  501  0.00000000000E+00  0.00000000000E+00  0.13718954691E+04  0.13718954691E+04  0.25500000920E-02 0. -1.
        2   -1    0    0  501    0  0.00000000000E+00  0.00000000000E+00 -0.78918370439E+03  0.78918370440E+03  0.25500000920E-02 0.  1.
    10030    2    1    2    0    0  0.00000000000E+00  0.00000000000E+00  0.58271176472E+03  0.21610791735E+04  0.20810358463E+04 0.  0.
        1    1    3    3  502    0  0.19475468172E+03  0.99082365555E+03  0.30669251744E+02  0.10102482395E+04  0.50400001928E-02 0. -1.
       -1    1    3    3    0  502 -0.19475468172E+03 -0.99082365555E+03  0.55204251298E+03  0.11508309340E+04  0.50400001928E-02 0.  1.
</event>
<event>
 5   0  0.4200061E-05  0.2103089E+04  0.7818609E-02  0.8559884E-01
       -1   -1    0    0    0  501  0.00000000000E+00  0.00000000000E+00  0.15827680785E+04  0.15827680785E+04  0.50400001928E-02 0. -1.
        1   -1    0    0  501    0  0.00000000000E+00  0.00000000000E+00 -0.69861488100E+03  0.69861488102E+03  0.50400001928E-02 0.  1.
    10030    2    1    2    0    0  0.00000000000E+00  0.00000000000E+00  0.88415319749E+03  0.22813829595E+04  0.21030885220E+04 0.  0.
        4    1    3    3  502    0  0.14348885074E+03 -0.25663353583E+03 -0.65311562709E+03  0.71624818132E+03  0.12699999809E+01 0.  1.
       -4    1    3    3    0  502 -0.14348885074E+03  0.25663353583E+03  0.15372688246E+04  0.15651347782E+04  0.12699999809E+01 0. -1.
</event>
<event>
 5   0  0.8547605E-05  0.2092347E+04  0.7818609E-02  0.8564622E-01
       -2   -1    0    0    0  501  0.00000000000E+00  0.00000000000E+00  0.61607960672E+03  0.61607960673E+03  0.25500000920E-02 0.  1.
        2   -1    0    0  501    0  0.00000000000E+00  0.00000000000E+00 -0.17765228391E+04  0.17765228391E+04  0.25500000920E-02 0. -1.
    10030    2    1    2    0    0  0.00000000000E+00  0.00000000000E+00 -0.11604432324E+04  0.23926024458E+04  0.20923474779E+04 0.  0.
        4    1    3    3  502    0 -0.88604506416E+03  0.55593396311E+03 -0.55915348659E+03  0.11860829067E+04  0.12699999809E+01 0. -1.
       -4    1    3    3    0  502  0.88604506416E+03 -0.55593396311E+03 -0.60128974581E+03  0.12065195392E+04  0.12699999809E+01 0.  1.
</event>
<event>
 5   0  0.3176125E-05  0.2110378E+04  0.7818609E-02  0.8556686E-01
       -3   -1    0    0    0  501  0.00000000000E+00  0.00000000000E+00  0.53922566832E+03  0.53922567778E+03  0.10100000352E+00 0. -1.
        3   -1    0    0  501    0  0.00000000000E+00  0.00000000000E+00 -0.20648564024E+04  0.20648564049E+04  0.10100000352E+00 0.  1.
    10030    2    1    2    0    0  0.00000000000E+00  0.00000000000E+00 -0.15256307341E+04  0.26040820827E+04  0.21103777758E+04 0.  0.
        3    1    3    3  502    0 -0.15191613237E+03 -0.10251270510E+04 -0.10079308738E+04  0.14456447138E+04  0.10100000352E+00 0.  1.
       -3    1    3    3    0  502  0.15191613237E+03  0.10251270510E+04 -0.51769986030E+03  0.11584373689E+04  0.10100000352E+00 0. -1.
</event>
<event>
 5   0  0.9012466E-05  0.2085584E+04  0.7818609E-02  0.8567620E-01
        2   -1    0    0  501    0  0.00000000000E+00  0.00000000000E+00  0.12823067037E+04  0.12823067037E+04  0.25500000920E-02 0.  1.
       -2   -1    0    0    0  501  0.00000000000E+00  0.00000000000E+00 -0.84801521831E+03  0.84801521832E+03  0.25500000920E-02 0. -1.
    10030    2    1    2    0    0  0.00000000000E+00  0.00000000000E+00  0.43429148543E+03  0.21303219221E+04  0.20855844258E+04 0.  0.
        2    1    3    3  502    0 -0.10571998502E+03 -0.64472894007E+03 -0.61303898652E+03  0.89591792057E+03  0.25500000920E-02 0. -1.
       -2    1    3    3    0  502  0.10571998502E+03  0.64472894007E+03  0.10473304720E+04  0.12344040015E+04  0.25500000920E-02 0.  1.
</event>
<event>
 5   0  0.4200061E-05  0.2104629E+04  0.7818609E-02  0.8559207E-01
       -1   -1    0    0    0  501  0.00000000000E+00  0.00000000000E+00  0.11480669530E+04  0.11480669531E+04  0.50400001928E-02 0.  1.
        1   -1    0    0  501    0  0.00000000000E+00  0.00000000000E+00 -0.96454798499E+03  0.96454798500E+03  0.50400001928E-02 0. -1.
    10030    2    1    2    0    0  0.00000000000E+00  0.00000000000E+00  0.18351896806E+03  0.21126149381E+04  0.21046288663E+04 0.  0.
        4    1    3    3  502    0  0.97085007697E+03 -0.83595346537E+02 -0.30702118501E+03  0.10216661269E+04  0.12699999809E+01 0. -1.
       -4    1    3    3    0  502 -0.97085007697E+03  0.83595346537E+02  0.49054015306E+03  0.10909488112E+04  0.12699999809E+01 0.  1.
</event>
<event>
 5   0  0.8547605E-05  0.2078708E+04  0.7818609E-02  0.8570681E-01
        2   -1    0    0  501    0  0.00000000000E+00  0.00000000000E+00  0.13484621768E+04  0.13484621768E+04  0.25500000920E-02 0.  1.
       -2   -1    0    0    0  501  0.00000000000E+00  0.00000000000E+00 -0.80110273221E+03  0.80110273222E+03  0.25500000920E-02 0. -1.
    10030    2    1    2    0    0  0.00000000000E+00  0.00000000000E+00  0.54735944463E+03  0.21495649091E+04  0.20787079970E+04 0.  0.
        4    1    3    3  502    0  0.17476684735E+03  0.37443651344E+02  0.13324503079E+04  0.13443849575E+04  0.12699999809E+01 0.  1.
       -4    1    3    3    0  502 -0.17476684735E+03 -0.37443651344E+02 -0.78509086327E+03  0.80517995159E+03  0.12699999809E+01 0. -1.
</event>
<event>
 5   0  0.4174093E-05  0.2102530E+04  0.7818609E-02  0.8560130E-01
       -1   -1    0    0    0  501  0.00000000000E+00  0.00000000000E+00  0.89514497128E+03  0.89514497130E+03  0.50400001928E-02 0.  1.
        1   -1    0    0  501    0  0.00000000000E+00  0.00000000000E+00 -0.12346137417E+04  0.12346137417E+04  0.50400001928E-02 0. -1.
    10030    2    1    2    0    0  0.00000000000E+00  0.00000000000E+00 -0.33946877043E+03  0.21297587130E+04  0.21025301733E+04 0.  0.
        3    1    3    3  502    0 -0.38383053481E+03  0.39562000113E+03  0.73702153764E+03  0.92034875014E+03  0.10100000352E+00 0.  1.
       -3    1    3    3    0  502  0.38383053481E+03 -0.39562000113E+03 -0.10764903081E+04  0.12094099629E+04  0.10100000352E+00 0. -1.
</event>
<event>
 5   0  0.9086985E-05  0.2046483E+04  0.7818609E-02  0.8585192E-01
        2   -1    0    0  501    0  0.00000000000E+00  0.00000000000E+00  0.24796085086E+04  0.24796085086E+04  0.25500000920E-02 0.  1.
       -2   -1    0    0    0  501  0.00000000000E+00  0.00000000000E+00 -0.42225321188E+03  0.42225321189E+03  0.25500000920E-02 0. -1.
    10030    2    1    2    0    0  0.00000000000E+00  0.00000000000E+00  0.20573552967E+04  0.29018617204E+04  0.20464825012E+04 0.  0.
        5    1    3    3  502    0 -0.35873476690E+02  0.20660731185E+03  0.24487975285E+04  0.24577642103E+04  0.46999998093E+01 0.  1.
       -5    1    3    3    0  502  0.35873476690E+02 -0.20660731185E+03 -0.39144223186E+03  0.44409751015E+03  0.46999998093E+01 0. -1.
</event>
<event>
 5   0  0.9086985E-05  0.2105221E+04  0.7818609E-02  0.8558947E-01
       -2   -1    0    0    0  501  0.00000000000E+00  0.00000000000E+00  0.99796776548E+03  0.99796776548E+03  0.25500000920E-02 0. -1.
        2   -1    0    0  501    0  0.00000000000E+00  0.00000000000E+00 -0.11102451631E+04  0.11102451631E+04  0.25500000920E-02 0.  1.
    10030    2    1    2    0    0  0.00000000000E+00  0.00000000000E+00 -0.11227739759E+03  0.21082129286E+04  0.21052210188E+04 0.  0.
        5    1    3    3  502    0 -0.57387428020E+03 -0.68311645071E+03  0.50321309827E+03  0.10243169856E+04  0.46999998093E+01 0. -1.
       -5    1    3    3    0  502  0.57387428020E+03  0.68311645071E+03 -0.61549049585E+03  0.10838959430E+04  0.46999998093E+01 0.  1.
</event>
<event>
 5   0  0.8858590E-05  0.2079477E+04  0.7818609E-02  0.8570338E-01
       -2   -1    0    0    0  501  0.00000000000E+00  0.00000000000E+00  0.28050048960E+04  0.28050048960E+04  0.25500000920E-02 0.  1.
        2   -1    0    0  501    0  0.00000000000E+00  0.00000000000E+00 -0.38540247203E+03  0.38540247204E+03  0.25500000920E-02 0. -1.
    10030    2    1    2    0    0  0.00000000000E+00  0.00000000000E+00  0.24196024239E+04  0.31904073680E+04  0.20794766851E+04 0.  0.
        1    1    3    3  502    0 -0.40868437681E+03  0.51458395643E+03  0.24460146648E+04  0.25327469887E+04  0.50400001928E-02 0.  1.
       -1    1    3    3    0  502  0.40868437681E+03 -0.51458395643E+03 -0.26412240877E+02  0.65766037935E+03  0.50400001928E-02 0. -1.
</event>
<event>
 5   0  0.4050368E-05  0.2090831E+04  0.7818609E-02  0.8565293E-01
        1   -1    0    0  501    0  0.00000000000E+00  0.00000000000E+00  0.18458284176E+04  0.18458284176E+04  0.50400001928E-02 0.  1.
       -1   -1    0    0    0  501  0.00000000000E+00  0.00000000000E+00 -0.59208862313E+03  0.59208862315E+03  0.50400001928E-02 0. -1.
    10030    2    1    2    0    0  0.00000000000E+00  0.00000000000E+00  0.12537397944E+04  0.24379170407E+04  0.20908314196E+04 0.  0.
        2    1    3    3  502    0 -0.26431183024E+03  0.40207355669E+03  0.17090381921E+04  0.17754817461E+04  0.25500000920E-02 0.  1.
       -2    1    3    3    0  502  0.26431183024E+03 -0.40207355669E+03 -0.45529839770E+03  0.66243529461E+03  0.25500000920E-02 0. -1.
</event>
<event>
 5   0  0.4174093E-05  0.2170694E+04  0.7818609E-02  0.8530726E-01
        1   -1    0    0  501    0  0.00000000000E+00  0.00000000000E+00  0.21529808858E+04  0.21529808858E+04  0.50400001928E-02 0.  1.
       -1   -1    0    0    0  501  0.00000000000E+00  0.00000000000E+00 -0.54713796695E+03  0.54713796697E+03  0.50400001928E-02 0. -1.
    10030    2    1    2    0    0  0.00000000000E+00  0.00000000000E+00  0.16058429188E+04  0.27001188528E+04  0.21706935157E+04 0.  0.
        3    1    3    3  502    0  0.65391819790E+02  0.70897255780E+03 -0.21605664789E+03  0.74404211111E+03  0.10100000352E+00 0. -1.
       -3    1    3    3    0  502 -0.65391819790E+02 -0.70897255780E+03  0.18218995667E+04  0.19560767417E+04  0.10100000352E+00 0.  1.
</event>
<event>
 5   0  0.4174093E-05  0.2101564E+04  0.7818609E-02  0.8560555E-01
        1   -1    0    0  501    0  0.00000000000E+00  0.00000000000E+00  0.12019468697E+04  0.12019468697E+04  0.50400001928E-02 0.  1.
       -1   -1    0    0    0  501  0.00000000000E+00  0.00000000000E+00 -0.91862835882E+03  0.91862835884E+03  0.50400001928E-02 0. -1.
    10030    2    1    2    0    0  0.00000000000E+00  0.00000000000E+00  0.28331851090E+03  0.21205752286E+04  0.21015636848E+04 0.  0.
        3    1    3    3  502    0  0.31289748616E+03  0.72033400748E+03 -0.56276537494E+03  0.96617327463E+03  0.10100000352E+00 0. -1.
       -3    1    3    3    0  502 -0.31289748616E+03 -0.72033400748E+03  0.84608388584E+03  0.11544019539E+04  0.10100000352E+00 0.  1.
</event>
<event>
 5   0  0.8547605E-05  0.2110197E+04  0.7818609E-02  0.8556765E-01
       -2   -1    0    0    0  501  0.00000000000E+00  0.00000000000E+00  0.99543871817E+03  0.99543871818E+03  0.25500000920E-02 0. -1.
        2   -1    0    0  501    0  0.00000000000E+00  0.00000000000E+00 -0.11183336864E+04  0.11183336864E+04  0.25500000920E-02 0.  1.
    10030    2    1    2    0    0  0.00000000000E+00  0.00000000000E+00 -0.12289496824E+03  0.21137724046E+04  0.21101968167E+04 0.  0.
        4    1    3    3  502    0 -0.34900756209E+03 -0.18704391742E+03  0.91818679684E+03  0.99993015368E+03  0.12699999809E+01 0. -1.
       -4    1    3    3    0  502  0.34900756209E+03  0.18704391742E+03 -0.10410817651E+04  0.11138422509E+04  0.12699999809E+01 0.  1.
</event>
<event>
 5   0  0.4128678E-05  0.2083828E+04  0.7818609E-02  0.8568401E-01
        1   -1    0    0  501    0  0.00000000000E+00  0.00000000000E+00  0.14342537929E+04  0.14342537929E+04  0.50400001928E-02 0.  1.
       -1   -1    0    0    0  501  0.00000000000E+00  0.00000000000E+00 -0.75689878033E+03  0.75689878034E+03  0.50400001928E-02 0. -1.
    10030    2    1    2    0    0  0.00000000000E+00  0.00000000000E+00  0.67735501260E+03  0.21911525733E+04  0.20838281566E+04 0.  0.
        5    1    3    3  502    0 -0.65442913506E+03  0.20684590750E+03  0.11629517098E+04  0.13503856825E+04  0.46999998093E+01 0.  1.
       -5    1    3    3    0  502  0.65442913506E+03 -0.20684590750E+03 -0.48559669720E+03  0.84076689075E+03  0.46999998093E+01 0. -1.
</event>
<event>
 5   0  0.4200061E-05  0.2118069E+04  0.7818609E-02  0.8553325E-01
       -1   -1    0    0    0  501  0.00000000000E+00  0.00000000000E+00  0.60495962600E+03  0.60495962602E+03  0.50400001928E-02 0.  1.
        1   -1    0    0  501    0  0.00000000000E+00  0.00000000000E+00 -0.18539325370E+04  0.18539325371E+04  0.50400001928E-02 0. -1.
    10030    2    1    2    0    0  0.00000000000E+00  0.00000000000E+00 -0.12489729110E+04  0.24588921631E+04  0.21180692475E+04 0.  0.
        4    1    3    3  502    0  0.63389861569E+03  0.51014132830E+03  0.16243819554E+03  0.82973454194E+03  0.12699999809E+01 0.  1.
       -4    1    3    3    0  502 -0.63389861569E+03 -0.51014132830E+03 -0.14114111066E+04  0.16291576211E+04  0.12699999809E+01 0. -1.
</event>
<event>
 5   0  0.4050368E-05  0.2061060E+04  0.7818609E-02  0.8578593E-01
       -1   -1    0    0    0  501  0.00000000000E+00  0.00000000000E+00  0.56721061163E+03  0.56721061165E+03  0.50400001928E-02 0. -1.
        1   -1    0    0  501    0  0.00000000000E+00  0.00000000000E+00 -0.18723072700E+04  0.18723072700E+04  0.50400001928E-02 0.  1.
    10030    2    1    2    0    0  0.00000000000E+00  0.00000000000E+00 -0.13050966583E+04  0.24395178816E+04  0.20610604569E+04 0.  0.
        2    1    3    3  502    0  0.92051348815E+03 -0.37948150487E+03 -0.96713657022E+03  0.13880577941E+04  0.25500000920E-02 0.  1.
       -2    1    3    3    0  502 -0.92051348815E+03  0.37948150487E+03 -0.33796008811E+03  0.10514600875E+04  0.25500000920E-02 0. -1.
</event>
<event>
 5   0  0.8872777E-05  0.2097816E+04  0.7818609E-02  0.8562206E-01
        2   -1    0    0  501    0  0.00000000000E+00  0.00000000000E+00  0.93056384874E+03  0.93056384874E+03  0.25500000920E-02 0. -1.
       -2   -1    0    0    0  501  0.00000000000E+00  0.00000000000E+00 -0.11823028102E+04  0.11823028102E+04  0.25500000920E-02 0.  1.
    10030    2    1    2    0    0  0.00000000000E+00  0.00000000000E+00 -0.25173896150E+03  0.21128666590E+04  0.20978162488E+04 0.  0.
        3    1    3    3  502    0 -0.14986003419E+03 -0.10381457025E+04 -0.12392851499E+03  0.10562020718E+04  0.10100000352E+00 0. -1.
       -3    1    3    3    0  502  0.14986003419E+03  0.10381457025E+04 -0.12781044652E+03  0.10566645872E+04  0.10100000352E+00 0.  1.
</event>
<event>
 5   0  0.8547605E-05  0.2211567E+04  0.7818609E-02  0.8513629E-01
        2   -1    0    0  501    0  0.00000000000E+00  0.00000000000E+00  0.18146252371E+04  0.18146252371E+04  0.25500000920E-02 0.  1.
       -2   -1    0    0    0  501  0.00000000000E+00  0.00000000000E+00 -0.67383445031E+03  0.67383445031E+03  0.25500000920E-02 0. -1.
    10030    2    1    2    0    0  0.00000000000E+00  0.00000000000E+00  0.11407907868E+04  0.24884596874E+04  0.22115668646E+04 0.  0.
        4    1    3    3  502    0  0.34935334950E+03  0.10247508723E+04  0.82348652268E+03  0.13602550419E+04  0.12699999809E+01 0. -1.
       -4    1    3    3    0  502 -0.34935334950E+03 -0.10247508723E+04  0.31730426408E+03  0.11282046455E+04  0.12699999809E+01 0.  1.
</event>
<event>
 5   0  0.8858590E-05  0.2122716E+04  0.7818609E-02  0.8551302E-01
        2   -1    0    0  501    0  0.00000000000E+00  0.00000000000E+00  0.15345162394E+04  0.15345162394E+04  0.25500000920E-02 0. -1.
       -2   -1    0    0    0  501  0.00000000000E+00  0.00000000000E+00 -0.73409495256E+03  0.73409495256E+03  0.25500000920E-02 0.  1.
    10030    2    1    2    0    0  0.00000000000E+00  0.00000000000E+00  0.80042128683E+03  0.22686111919E+04  0.21227158321E+04 0.  0.
        1    1    3    3  502    0 -0.56238199216E+02  0.83572237143E+03 -0.29642297081E+03  0.88851628844E+03  0.50400001928E-02 0.  1.
       -1    1    3    3    0  502  0.56238199216E+02 -0.83572237143E+03  0.10968442576E+04  0.13800949035E+04  0.50400001928E-02 0. -1.
</event>
<event>
 5   0  0.8872777E-05  0.2103157E+04  0.7818609E-02  0.8559854E-01
       -2   -1    0    0    0  501  0.00000000000E+00  0.00000000000E+00  0.10588423438E+04  0.10588423438E+04  0.25500000920E-02 0. -1.
        2   -1    0    0  501    0  0.00000000000E+00  0.00000000000E+00 -0.10443649486E+04  0.10443649486E+04  0.25500000920E-02 0.  1.
    10030    2    1    2    0    0  0.00000000000E+00  0.00000000000E+00  0.14477395229E+02  0.21032072924E+04  0.21031574644E+04 0.  0.
        3    1    3    3  502    0 -0.26030480656E+03 -0.31890361964E+02  0.10256155297E+04  0.10586136276E+04  0.10100000352E+00 0. -1.
       -3    1    3    3    0  502  0.26030480656E+03  0.31890361964E+02 -0.10111381345E+04  0.10445936649E+04  0.10100000352E+00 0.  1.
</event>
<event>
 5   0  0.4128678E-05  0.2104098E+04  0.7818609E-02  0.8559440E-01
       -1   -1    0    0    0  501  0.00000000000E+00  0.00000000000E+00  0.79229253216E+03  0.79229253218E+03  0.50400001928E-02 0.  1.
        1   -1    0    0  501    0  0.00000000000E+00  0.00000000000E+00 -0.13969678072E+04  0.13969678072E+04  0.50400001928E-02 0. -1.
    10030    2    1    2    0    0  0.00000000000E+00  0.00000000000E+00 -0.60467527499E+03  0.21892603393E+04  0.21040980598E+04 0.  0.
        5    1    3    3  502    0  0.70977224000E+03  0.66638877951E+03  0.11246397141E+03  0.98006166796E+03  0.46999998093E+01 0.  1.
       -5    1    3    3    0  502 -0.70977224000E+03 -0.66638877951E+03 -0.71713924641E+03  0.12091986714E+04  0.46999998093E+01 0. -1.
</event>
<event>
 5   0  0.4200061E-05  0.2106415E+04  0.7818609E-02  0.8558423E-01
        1   -1    0    0  501    0  0.00000000000E+00  0.00000000000E+00  0.13137442168E+04  0.13137442168E+04  0.50400001928E-02 0.  1.
       -1   -1    0    0    0  501  0.00000000000E+00  0.00000000000E+00 -0.84433956062E+03  0.84433956063E+03  0.50400001928E-02 0. -1.
    10030    2    1    2    0    0  0.00000000000E+00  0.00000000000E+00  0.46940465617E+03  0.21580837774E+04  0.21064151678E+04 0.  0.
        4    1    3    3  502    0  0.23009271752E+03  0.39889809555E+03  0.12051333334E+04  0.12901202709E+04  0.12699999809E+01 0.  1.
       -4    1    3    3    0  502 -0.23009271752E+03 -0.39889809555E+03 -0.73572867720E+03  0.86796350652E+03  0.12699999809E+01 0. -1.
</event>
<event>
 5   0  0.4128678E-05  0.2088556E+04  0.7818609E-02  0.8566301E-01
       -1   -1    0    0    0  501  0.00000000000E+00  0.00000000000E+00  0.10347187695E+04  0.10347187695E+04  0.50400001928E-02 0.  1.
        1   -1    0    0  501    0  0.00000000000E+00  0.00000000000E+00 -0.10539259540E+04  0.10539259540E+04  0.50400001928E-02 0. -1.
    10030    2    1    2    0    0  0.00000000000E+00  0.00000000000E+00 -0.19207184470E+02  0.20886447236E+04  0.20885564070E+04 0.  0.
        5    1    3    3  502    0  0.76166412844E+03 -0.49251006147E+03 -0.52711602652E+03  0.10490814080E+04  0.46999998093E+01 0. -1.
       -5    1    3    3    0  502 -0.76166412844E+03  0.49251006147E+03  0.50790884205E+03  0.10395633155E+04  0.46999998093E+01 0.  1.
</event>
<event>
 5   0  0.4182977E-05  0.2104421E+04  0.7818609E-02  0.8559298E-01
        1   -1    0    0  501    0  0.00000000000E+00  0.00000000000E+00  0.14613039564E+04  0.14613039564E+04  0.50400001928E-02 0. -1.
       -1   -1    0    0    0  501  0.00000000000E+00  0.00000000000E+00 -0.75764337211E+03  0.75764337212E+03  0.50400001928E-02 0.  1.
    10030    2    1    2    0    0  0.00000000000E+00  0.00000000000E+00  0.70366058432E+03  0.22189473286E+04  0.21044213050E+04 0.  0.
        1    1    3    3  502    0 -0.95593147725E+03 -0.13256565526E+03  0.79389410882E+03  0.12496585526E+04  0.50400001928E-02 0. -1.
       -1    1    3    3    0  502  0.95593147725E+03  0.13256565526E+03 -0.90233524494E+02  0.96928877592E+03  0.50400001928E-02 0.  1.
</event>
<event>
 5   0  0.8547605E-05  0.2127323E+04  0.7818609E-02  0.8549302E-01
        2   -1    0    0  501    0  0.00000000000E+00  0.00000000000E+00  0.27427542630E+04  0.27427542630E+04  0.25500000920E-02 0.  1.
       -2   -1    0    0    0  501  0.00000000000E+00  0.00000000000E+00 -0.41249640361E+03  0.41249640362E+03  0.25500000920E-02 0. -1.
    10030    2    1    2    0    0  0.00000000000E+00  0.00000000000E+00  0.23302578594E+04  0.31552506667E+04  0.21273234540E+04 0.  0.
        4    1    3    3  502    0 -0.35863158880E+03  0.76894726043E+03  0.21370574872E+03  0.87496757983E+03  0.12699999809E+01 0. -1.
       -4    1    3    3    0  502  0.35863158880E+03 -0.76894726043E+03  0.21165521107E+04  0.22802830868E+04  0.12699999809E+01 0.  1.
</event>
<event>
 5   0  0.8858590E-05  0.2025475E+04  0.7818609E-02  0.8594802E-01
        2   -1    0    0  501    0  0.00000000000E+00  0.00000000000E+00  0.17732624627E+04  0.17732624627E+04  0.25500000920E-02 0.  1.
       -2   -1    0    0    0  501  0.00000000000E+00  0.00000000000E+00 -0.57839024773E+03  0.57839024773E+03  0.25500000920E-02 0. -1.
    10030    2    1    2    0    0  0.00000000000E+00  0.00000000000E+00  0.11948722150E+04  0.23516527105E+04  0.20254754653E+04 0.  0.
        1    1    3    3  502    0  0.85107475092E+03  0.44063218857E+03  0.21737986034E+03  0.98272018447E+03  0.50400001928E-02 0. -1.
       -1    1    3    3    0  502 -0.85107475092E+03 -0.44063218857E+03  0.97749235465E+03  0.13689325260E+04  0.50400001928E-02 0.  1.
</event>
<event>
 5   0  0.9012466E-05  0.2086761E+04  0.7818609E-02  0.8567098E-01
       -2   -1    0    0    0  501  0.00000000000E+00  0.00000000000E+00  0.60812118254E+03  0.60812118255E+03  0.25500000920E-02 0. -1.
        2   -1    0    0  501    0  0.00000000000E+00  0.00000000000E+00 -0.17901739001E+04  0.17901739001E+04  0.25500000920E-02 0.  1.
    10030    2    1    2    0    0  0.00000000000E+00  0.00000000000E+00 -0.11820527175E+04  0.23982950826E+04  0.20867608095E+04 0.  0.
        2    1    3    3  502    0  0.30535293210E+03 -0.77512838178E+03  0.13090601104E+03  0.84332722304E+03  0.25500000920E-02 0.  1.
       -2    1    3    3    0  502 -0.30535293210E+03  0.77512838178E+03 -0.13129587286E+04  0.15549678596E+04  0.25500000920E-02 0. -1.
</event>
<event>
 5   0  0.4174093E-05  0.2108008E+04  0.7818609E-02  0.8557724E-01
        1   -1    0    0  501    0  0.00000000000E+00  0.00000000000E+00  0.20481705231E+04  0.20481705231E+04  0.50400001928E-02 0. -1.
       -1   -1    0    0    0  501  0.00000000000E+00  0.00000000000E+00 -0.54239841558E+03  0.54239841561E+03  0.50400001928E-02 0.  1.
    10030    2    1    2    0    0  0.00000000000E+00  0.00000000000E+00  0.15057721075E+04  0.25905689387E+04  0.21080080138E+04 0.  0.
        3    1    3    3  502    0 -0.32164976128E+03 -0.12048268050E+03  0.19774643016E+04  0.20070724251E+04  0.10100000352E+00 0. -1.
       -3    1    3    3    0  502  0.32164976128E+03  0.12048268050E+03 -0.47169219410E+03  0.58349651362E+03  0.10100000352E+00 0.  1.
</event>
<event>
 5   0  0.8872777E-05  0.2100536E+04  0.7818609E-02  0.8561007E-01
       -2   -1    0    0    0  501  0.00000000000E+00  0.00000000000E+00  0.69807764533E+03  0.69807764534E+03  0.25500000920E-02 0.  1.
        2   -1    0    0  501    0  0.00000000000E+00  0.00000000000E+00 -0.15801442760E+04  0.15801442760E+04  0.25500000920E-02 0. -1.
    10030    2    1    2    0    0  0.00000000000E+00  0.00000000000E+00 -0.88206663064E+03  0.22782219213E+04  0.21005364986E+04 0.  0.
        3    1    3    3  502    0 -0.77200895414E+03  0.34237395116E+03 -0.11182258059E+04  0.14013017915E+04  0.10100000352E+00 0. -1.
       -3    1    3    3    0  502  0.77200895414E+03 -0.34237395116E+03  0.23615917531E+03  0.87692012976E+03  0.10100000352E+00 0.  1.
</event>
<event>
 5   0  0.9086985E-05  0.2114976E+04  0.7818609E-02  0.8554675E-01
       -2   -1    0    0    0  501  0.00000000000E+00  0.00000000000E+00  0.10341668954E+04  0.10341668954E+04  0.25500000920E-02 0. -1.
        2   -1    0    0  501    0  0.00000000000E+00  0.00000000000E+00 -0.10813346267E+04  0.10813346267E+04  0.25500000920E-02 0.  1.
    10030    2    1    2    0    0  0.00000000000E+00  0.00000000000E+00 -0.47167731316E+02  0.21155015222E+04  0.21149756252E+04 0.  0.
        5    1    3    3  502    0  0.10256673514E+04 -0.46064919061E+02  0.22974357875E+03  0.10521025114E+04  0.46999998093E+01 0. -1.
       -5    1    3    3    0  502 -0.10256673514E+04  0.46064919061E+02 -0.27691131007E+03  0.10633990108E+04  0.46999998093E+01 0.  1.
</event>
<event>
 5   0  0.8858590E-05  0.2096524E+04  0.7818609E-02  0.8562776E-01
       -2   -1    0    0    0  501  0.00000000000E+00  0.00000000000E+00  0.10950966257E+04  0.10950966257E+04  0.25500000920E-02 0.  1.
        2   -1    0    0  501    0  0.00000000000E+00  0.00000000000E+00 -0.10034307529E+04  0.10034307529E+04  0.25500000920E-02 0. -1.
    10030    2    1    2    0    0  0.00000000000E+00  0.00000000000E+00  0.91665872762E+02  0.20985273786E+04  0.20965243921E+04 0.  0.
        1    1    3    3  502    0  0.80478802421E+03 -0.66400870331E+03 -0.55566905377E+02  0.10448344381E+04  0.50400001928E-02 0. -1.
       -1    1    3    3    0  502 -0.80478802421E+03  0.66400870331E+03  0.14723277814E+03  0.10536929406E+04  0.50400001928E-02 0.  1.
</event>
<event>
 5   0  0.4174093E-05  0.2070459E+04  0.7818609E-02  0.8574369E-01
       -1   -1    0    0    0  501  0.00000000000E+00  0.00000000000E+00  0.81682000167E+03  0.81682000169E+03  0.50400001928E-02 0.  1.
        1   -1    0    0  501    0  0.00000000000E+00  0.00000000000E+00 -0.13120398584E+04  0.13120398584E+04  0.50400001928E-02 0. -1.
    10030    2    1    2    0    0  0.00000000000E+00  0.00000000000E+00 -0.49521985670E+03  0.21288598601E+04  0.20704592721E+04 0.  0.
        3    1    3    3  502    0  0.66957134055E+03 -0.57852012756E+03 -0.80006320399E+03  0.11929427726E+04  0.10100000352E+00 0. -1.
       -3    1    3    3    0  502 -0.66957134055E+03  0.57852012756E+03  0.30484334728E+03  0.93591708749E+03  0.10100000352E+00 0.  1.
</event>
<event>
 5   0  0.4200061E-05  0.2082703E+04  0.7818609E-02  0.8568901E-01
       -1   -1    0    0    0  501  0.00000000000E+00  0.00000000000E+00  0.78137573155E+03  0.78137573156E+03  0.50400001928E-02 0. -1.
        1   -1    0    0  501    0  0.00000000000E+00  0.00000000000E+00 -0.13878254054E+04  0.13878254055E+04  0.50400001928E-02 0.  1.
    10030    2    1    2    0    0  0.00000000000E+00  0.00000000000E+00 -0.60644967390E+03  0.21692011370E+04  0.20827031392E+04 0.  0.
        4    1    3    3  502    0  0.41954952705E+03 -0.29084254226E+03  0.64210512217E+03  0.82031200824E+03  0.12699999809E+01 0. -1.
       -4    1    3    3    0  502 -0.41954952705E+03  0.29084254226E+03 -0.12485547961E+04  0.13488891288E+04  0.12699999809E+01 0.  1.
</event>
<event>
 5   0  0.4174093E-05  0.2086050E+04  0.7818609E-02  0.8567413E-01
       -1   -1    0    0    0  501  0.00000000000E+00  0.00000000000E+00  0.73686425721E+03  0.73686425723E+03  0.50400001928E-02 0.  1.
        1   -1    0    0  501    0  0.00000000000E+00  0.00000000000E+00 -0.14763927967E+04  0.14763927967E+04  0.50400001928E-02 0. -1.
    10030    2    1    2    0    0  0.00000000000E+00  0.00000000000E+00 -0.73952853948E+03  0.22132570539E+04  0.20860499337E+04 0.  0.
        3    1    3    3  502    0  0.66757284916E+03  0.63803209772E+02 -0.12173382845E+04  0.13898333956E+04  0.10100000352E+00 0. -1.
       -3    1    3    3    0  502 -0.66757284916E+03 -0.63803209772E+02  0.47780974497E+03  0.82342365833E+03  0.10100000352E+00 0.  1.
</event>
<event>
 5   0  0.8547605E-05  0.2136873E+04  0.7818609E-02  0.8545172E-01
        2   -1    0    0  501    0  0.00000000000E+00  0.00000000000E+00  0.92078538818E+03  0.92078538819E+03  0.25500000920E-02 0.  1.
       -2   -1    0    0    0  501  0.00000000000E+00  0.00000000000E+00 -0.12397643478E+04  0.12397643478E+04  0.25500000920E-02 0. -1.
    10030    2    1    2    0    0  0.00000000000E+00  0.00000000000E+00 -0.31897895965E+03  0.21605497360E+04  0.21368733199E+04 0.  0.
        4    1    3    3  502    0 -0.10452572738E+04  0.21857742526E+03 -0.19475318955E+03  0.10854811270E+04  0.12699999809E+01 0. -1.
       -4    1    3    3    0  502  0.10452572738E+04 -0.21857742526E+03 -0.12422577010E+03  0.10750686090E+04  0.12699999809E+01 0.  1.
</event>
<event>
 5   0  0.9086985E-05  0.2102359E+04  0.7818609E-02  0.8560205E-01
        2   -1    0    0  501    0  0.00000000000E+00  0.00000000000E+00  0.12160508214E+04  0.12160508214E+04  0.25500000920E-02 0.  1.
       -2   -1    0    0    0  501  0.00000000000E+00  0.00000000000E+00 -0.90866172625E+03  0.90866172625E+03  0.25500000920E-02 0. -1.
    10030    2    1    2    0    0  0.00000000000E+00  0.00000000000E+00  0.30738909513E+03  0.21247125476E+04  0.21023594731E+04 0.  0.
        5    1    3    3  502    0 -0.45864020096E+03 -0.84401446528E+03  0.58513574215E+03  0.11247742788E+04  0.46999998093E+01 0.  1.
       -5    1    3    3    0  502  0.45864020096E+03  0.84401446528E+03 -0.27774664702E+03  0.99993826883E+03  0.46999998093E+01 0. -1.
</event>
<event>
 5   0  0.9012466E-05  0.2088589E+04  0.7818609E-02  0.8566287E-01
        2   -1    0    0  501    0  0.00000000000E+00  0.00000000000E+00  0.11461334341E+04  0.11461334341E+04  0.25500000920E-02 0. -1.
       -2   -1    0    0    0  501  0.00000000000E+00  0.00000000000E+00 -0.95150484471E+03  0.95150484471E+03  0.25500000920E-02 0.  1.
    10030    2    1    2    0    0  0.00000000000E+00  0.00000000000E+00  0.19462858943E+03  0.20976382788E+04  0.20885894908E+04 0.  0.
        2    1    3    3  502    0  0.15113553307E+03  0.58430054290E+03 -0.75861179270E+03  0.96940235497E+03  0.25500000920E-02 0.  1.
       -2    1    3    3    0  502 -0.15113553307E+03 -0.58430054290E+03  0.95324038213E+03  0.11282359239E+04  0.25500000920E-02 0. -1.
</event>
<event>
 5   0  0.8872777E-05  0.2137268E+04  0.7818609E-02  0.8545002E-01
        2   -1    0    0  501    0  0.00000000000E+00  0.00000000000E+00  0.14503371557E+04  0.14503371557E+04  0.25500000920E-02 0.  1.
       -2   -1    0    0    0  501  0.00000000000E+00  0.00000000000E+00 -0.78738860695E+03  0.78738860696E+03  0.25500000920E-02 0. -1.
    10030    2    1    2    0    0  0.00000000000E+00  0.00000000000E+00  0.66294854876E+03  0.22377257627E+04  0.21372683057E+04 0.  0.
        3    1    3    3  502    0 -0.61145276658E+03  0.94984504267E+02 -0.58073036688E+03  0.84861316925E+03  0.10100000352E+00 0. -1.
       -3    1    3    3    0  502  0.61145276658E+03 -0.94984504267E+02  0.12436789156E+04  0.13891125934E+04  0.10100000352E+00 0.  1.
</event>
<event>
 5   0  0.9012466E-05  0.2098206E+04  0.7818609E-02  0.8562034E-01
        2   -1    0    0  501    0  0.00000000000E+00  0.00000000000E+00  0.14885708381E+04  0.14885708382E+04  0.25500000920E-02 0.  1.
       -2   -1    0    0    0  501  0.00000000000E+00  0.00000000000E+00 -0.73937804031E+03  0.73937804031E+03  0.25500000920E-02 0. -1.
    10030    2    1    2    0    0  0.00000000000E+00  0.00000000000E+00  0.74919279784E+03  0.22279488785E+04  0.20982055087E+04 0.  0.
        2    1    3    3  502    0 -0.15876779198E+03 -0.10010082325E+04  0.86935222865E+02  0.10172425602E+04  0.25500000920E-02 0. -1.
       -2    1    3    3    0  502  0.15876779198E+03  0.10010082325E+04  0.66225757498E+03  0.12107063182E+04  0.25500000920E-02 0.  1.
</event>
<event>
 5   0  0.8872777E-05  0.2168040E+04  0.7818609E-02  0.8531849E-01
       -2   -1    0    0    0  501  0.00000000000E+00  0.00000000000E+00  0.22398098136E+04  0.22398098136E+04  0.25500000920E-02 0.  1.
        2   -1    0    0  501    0  0.00000000000E+00  0.00000000000E+00 -0.52464270739E+03  0.52464270739E+03  0.25500000920E-02 0. -1.
    10030    2    1    2    0    0  0.00000000000E+00  0.00000000000E+00  0.17151671062E+04  0.27644525210E+04  0.21680404836E+04 0.  0.
        3    1    3    3  502    0  0.12173862273E+03  0.79365202480E+02  0.22273326711E+04  0.22320685396E+04  0.10100000352E+00 0.  1.
       -3    1    3    3    0  502 -0.12173862273E+03 -0.79365202480E+02 -0.51216556485E+03  0.53238398140E+03  0.10100000352E+00 0. -1.
</event>
<event>
 5   0  0.8872777E-05  0.2090894E+04  0.7818609E-02  0.8565265E-01
        2   -1    0    0  501    0  0.00000000000E+00  0.00000000000E+00  0.83248755009E+03  0.83248755010E+03  0.25500000920E-02 0.  1.
       -2   -1    0    0    0  501  0.00000000000E+00  0.00000000000E+00 -0.13128837486E+04  0.13128837486E+04  0.25500000920E-02 0. -1.
    10030    2    1    2    0    0  0.00000000000E+00  0.00000000000E+00 -0.48039619854E+03  0.21453712987E+04  0.20908939480E+04 0.  0.
        3    1    3    3  502    0  0.35836471945E+03 -0.29804267169E+03  0.71997446147E+03  0.85768172516E+03  0.10100000352E+00 0.  1.
       -3    1    3    3    0  502 -0.35836471945E+03  0.29804267169E+03 -0.12003706600E+04  0.12876895736E+04  0.10100000352E+00 0. -1.
</event>
<event>
 5   0  0.8547605E-05  0.2075530E+04  0.7818609E-02  0.8572100E-01
       -2   -1    0    0    0  501  0.00000000000E+00  0.00000000000E+00  0.54124658131E+03  0.54124658132E+03  0.25500000920E-02 0. -1.
        2   -1    0    0  501    0  0.00000000000E+00  0.00000000000E+00 -0.19897703220E+04  0.19897703220E+04  0.25500000920E-02 0.  1.
    10030    2    1    2    0    0  0.00000000000E+00  0.00000000000E+00 -0.14485237407E+04  0.25310169034E+04  0.20755301823E+04 0.  0.
        4    1    3    3  502    0 -0.60971847102E+03 -0.48465082684E+03  0.11203197244E+03  0.78688996284E+03  0.12699999809E+01 0. -1.
       -4    1    3    3    0  502  0.60971847102E+03  0.48465082684E+03 -0.15605557132E+04  0.17441269405E+04  0.12699999809E+01 0.  1.
</event>
<event>
 5   0  0.4174093E-05  0.2095144E+04  0.7818609E-02  0.8563386E-01
       -1   -1    0    0    0  501  0.00000000000E+00  0.00000000000E+00  0.88640610421E+03  0.88640610423E+03  0.50400001928E-02 0.  1.
        1   -1    0    0  501    0  0.00000000000E+00  0.00000000000E+00 -0.12380404200E+04  0.12380404200E+04  0.50400001928E-02 0. -1.
    10030    2    1    2    0    0  0.00000000000E+00  0.00000000000E+00 -0.35163431576E+03  0.21244465242E+04  0.20951435135E+04 0.  0.
        3    1    3    3  502    0  0.15161253315E+03  0.10232787572E+04 -0.82153359603E+01  0.10344821299E+04  0.10100000352E+00 0. -1.
       -3    1    3    3    0  502 -0.15161253315E+03 -0.10232787572E+04 -0.34341897980E+03  0.10899643943E+04  0.10100000352E+00 0.  1.
</event>
<event>
 5   0  0.4050368E-05  0.1856337E+04  0.7818609E-02  0.8676901E-01
        1   -1    0    0  501    0  0.00000000000E+00  0.00000000000E+00  0.75532286649E+03  0.75532286651E+03  0.50400001928E-02 0.  1.
       -1   -1    0    0    0  501  0.00000000000E+00  0.00000000000E+00 -0.11405672205E+04  0.11405672206E+04  0.50400001928E-02 0. -1.
    10030    2    1    2    0    0  0.00000000000E+00  0.00000000000E+00 -0.38524435405E+03  0.18958900871E+04  0.18563367178E+04 0.  0.
        2    1    3    3  502    0  0.11342929841E+03  0.91994988987E+03 -0.14340304298E+03  0.93794372877E+03  0.25500000920E-02 0. -1.
       -2    1    3    3    0  502 -0.11342929841E+03 -0.91994988987E+03 -0.24184131107E+03  0.95794635828E+03  0.25500000920E-02 0.  1.
</event>
<event>
 5   0  0.4050368E-05  0.2113854E+04  0.7818609E-02  0.8555165E-01
       -1   -1    0    0    0  501  0.00000000000E+00  0.00000000000E+00  0.10727559226E+04  0.10727559226E+04  0.50400001928E-02 0.  1.
        1   -1    0    0  501    0  0.00000000000E+00  0.00000000000E+00 -0.10413317826E+04  0.10413317826E+04  0.50400001928E-02 0. -1.
    10030    2    1    2    0    0  0.00000000000E+00  0.00000000000E+00  0.31424140004E+02  0.21140877051E+04  0.21138541455E+04 0.  0.
        2    1    3    3  502    0  0.44116950085E+03  0.56895381609E+02  0.97458138651E+03  0.10712966405E+04  0.25500000920E-02 0.  1.
       -2    1    3    3    0  502 -0.44116950085E+03 -0.56895381609E+02 -0.94315724650E+03  0.10427910647E+04  0.25500000920E-02 0. -1.
</event>
<event>
 5   0  0.4174093E-05  0.2121945E+04  0.7818609E-02  0.8551637E-01
       -1   -1    0    0    0  501  0.00000000000E+00  0.00000000000E+00  0.13901016179E+04  0.13901016179E+04  0.50400001928E-02 0.  1.
        1   -1    0    0  501    0  0.00000000000E+00  0.00000000000E+00 -0.80977029098E+03  0.80977029100E+03  0.50400001928E-02 0. -1.
    10030    2    1    2    0    0  0.00000000000E+00  0.00000000000E+00  0.58033132695E+03  0.21998719089E+04  0.21219453260E+04 0.  0.
        3    1    3    3  502    0 -0.34632805113E+03  0.15329512405E+02 -0.74939772019E+03  0.82569671561E+03  0.10100000352E+00 0. -1.
       -3    1    3    3    0  502  0.34632805113E+03 -0.15329512405E+02  0.13297290471E+04  0.13741751933E+04  0.10100000352E+00 0.  1.
</event>
<event>
 5   0  0.8858590E-05  0.2102799E+04  0.7818609E-02  0.8560012E-01
       -2   -1    0    0    0  501  0.00000000000E+00  0.00000000000E+00  0.57413152871E+03  0.57413152872E+03  0.25500000920E-02 0.  1.
        2   -1    0    0  501    0  0.00000000000E+00  0.00000000000E+00 -0.19254132087E+04  0.19254132087E+04  0.25500000920E-02 0. -1.
    10030    2    1    2    0    0  0.00000000000E+00  0.00000000000E+00 -0.13512816800E+04  0.24995447375E+04  0.21027985438E+04 0.  0.
        1    1    3    3  502    0  0.77710508742E+03 -0.28092882887E+03  0.97114331518E+02  0.83201232995E+03  0.50400001928E-02 0.  1.
       -1    1    3    3    0  502 -0.77710508742E+03  0.28092882887E+03 -0.14483960116E+04  0.16675324075E+04  0.50400001928E-02 0. -1.
</event>
<event>
 5   0  0.4174093E-05  0.1998428E+04  0.7818609E-02  0.8607356E-01
        1   -1    0    0  501    0  0.00000000000E+00  0.00000000000E+00  0.15696929996E+04  0.15696929996E+04  0.50400001928E-02 0. -1.
       -1   -1    0    0    0  501  0.00000000000E+00  0.00000000000E+00 -0.63606594699E+03  0.63606594701E+03  0.50400001928E-02 0.  1.
    10030    2    1    2    0    0  0.00000000000E+00  0.00000000000E+00  0.93362705263E+03  0.22057589466E+04  0.19984276462E+04 0.  0.
        3    1    3    3  502    0  0.92218821885E+03 -0.90374557708E+01  0.42314776467E+02  0.92320276056E+03  0.10100000352E+00 0. -1.
       -3    1    3    3    0  502 -0.92218821885E+03  0.90374557708E+01  0.89131227617E+03  0.12825561861E+04  0.10100000352E+00 0.  1.
</event>
<event>
 5   0  0.8872777E-05  0.2103325E+04  0.7818609E-02  0.8559780E-01
        2   -1    0    0  501    0  0.00000000000E+00  0.00000000000E+00  0.17610917614E+04  0.17610917614E+04  0.25500000920E-02 0. -1.
       -2   -1    0    0    0  501  0.00000000000E+00  0.00000000000E+00 -0.62801589989E+03  0.62801589989E+03  0.25500000920E-02 0.  1.
    10030    2    1    2    0    0  0.00000000000E+00  0.00000000000E+00  0.11330758615E+04  0.23891076613E+04  0.21033246324E+04 0.  0.
        3    1    3    3  502    0  0.33795946184E+02  0.61825215481E+02  0.17584077168E+04  0.17598188066E+04  0.10100000352E+00 0. -1.
       -3    1    3    3    0  502 -0.33795946184E+02 -0.61825215481E+02 -0.62533185529E+03  0.62928885473E+03  0.10100000352E+00 0.  1.
</event>
<event>
 5   0  0.4182977E-05  0.2092080E+04  0.7818609E-02  0.8564740E-01
       -1   -1    0    0    0  501  0.00000000000E+00  0.00000000000E+00  0.61924783803E+03  0.61924783805E+03  0.50400001928E-02 0. -1.
        1   -1    0    0  501    0  0.00000000000E+00  0.00000000000E+00 -0.17669822797E+04  0.17669822797E+04  0.50400001928E-02 0.  1.
    10030    2    1    2    0    0  0.00000000000E+00  0.00000000000E+00 -0.11477344416E+04  0.23862301177E+04  0.20920802629E+04 0.  0.
        1    1    3    3  502    0  0.31907746789E+03  0.57598408956E+03  0.35320535884E+03  0.74720956062E+03  0.50400001928E-02 0.  1.
       -1    1    3    3    0  502 -0.31907746789E+03 -0.57598408956E+03 -0.15009398005E+04  0.16390205571E+04  0.50400001928E-02 0. -1.
</event>
<event>
 5   0  0.8547605E-05  0.2099973E+04  0.7818609E-02  0.8561255E-01
       -2   -1    0    0    0  501  0.00000000000E+00  0.00000000000E+00  0.17194956206E+04  0.17194956206E+04  0.25500000920E-02 0.  1.
        2   -1    0    0  501    0  0.00000000000E+00  0.00000000000E+00 -0.64116014616E+03  0.64116014616E+03  0.25500000920E-02 0. -1.
    10030    2    1    2    0    0  0.00000000000E+00  0.00000000000E+00  0.10783354745E+04  0.23606557668E+04  0.20999733936E+04 0.  0.
        4    1    3    3  502    0  0.91327066564E+02 -0.34948231735E+02 -0.63602949444E+03  0.64350380161E+03  0.12699999809E+01 0. -1.
       -4    1    3    3    0  502 -0.91327066564E+02  0.34948231735E+02  0.17143649689E+04  0.17171519652E+04  0.12699999809E+01 0.  1.
</event>
<event>
 5   0  0.8547605E-05  0.2099310E+04  0.7818609E-02  0.8561547E-01
        2   -1    0    0  501    0  0.00000000000E+00  0.00000000000E+00  0.67520958269E+03  0.67520958269E+03  0.25500000920E-02 0. -1.
       -2   -1    0    0    0  501  0.00000000000E+00  0.00000000000E+00 -0.16317531298E+04  0.16317531298E+04  0.25500000920E-02 0.  1.
    10030    2    1    2    0    0  0.00000000000E+00  0.00000000000E+00 -0.95654354716E+03  0.23069627125E+04  0.20993097436E+04 0.  0.
        4    1    3    3  502    0 -0.96817659662E+03 -0.40331200143E+03 -0.43233707615E+03  0.11344353014E+04  0.12699999809E+01 0. -1.
       -4    1    3    3    0  502  0.96817659662E+03  0.40331200143E+03 -0.52420647101E+03  0.11725274111E+04  0.12699999809E+01 0.  1.
</event>
<event>
 5   0  0.4128678E-05  0.2106625E+04  0.7818609E-02  0.8558331E-01
        1   -1    0    0  501    0  0.00000000000E+00  0.00000000000E+00  0.15830282157E+04  0.15830282157E+04  0.50400001928E-02 0. -1.
       -1   -1    0    0    0  501  0.00000000000E+00  0.00000000000E+00 -0.70085113559E+03  0.70085113561E+03  0.50400001928E-02 0.  1.
    10030    2    1    2    0    0  0.00000000000E+00  0.00000000000E+00  0.88217708007E+03  0.22838793513E+04  0.21066249051E+04 0.  0.
        5    1    3    3  502    0  0.17585766010E+03  0.39756423739E+03  0.14812214243E+04  0.15437040640E+04  0.46999998093E+01 0. -1.
       -5    1    3    3    0  502 -0.17585766010E+03 -0.39756423739E+03 -0.59904434425E+03  0.74017528724E+03  0.46999998093E+01 0.  1.
</event>
<event>
 5   0  0.4174093E-05  0.2112431E+04  0.7818609E-02  0.8555787E-01
        1   -1    0    0  501    0  0.00000000000E+00  0.00000000000E+00  0.17704606473E+04  0.17704606473E+04  0.50400001928E-02 0. -1.
       -1   -1    0    0    0  501  0.00000000000E+00  0.00000000000E+00 -0.63011379875E+03  0.63011379877E+03  0.50400001928E-02 0.  1.
    10030    2    1    2    0    0  0.00000000000E+00  0.00000000000E+00  0.11403468486E+04  0.24005744461E+04  0.21124314749E+04 0.  0.
        3    1    3    3  502    0 -0.23694334471E+03  0.48611294148E+03  0.16012012518E+04  0.16900572178E+04  0.10100000352E+00 0. -1.
       -3    1    3    3    0  502  0.23694334471E+03 -0.48611294148E+03 -0.46085440325E+03  0.71051722828E+03  0.10100000352E+00 0.  1.
</event>
<event>
 5   0  0.4050368E-05  0.2081039E+04  0.7818609E-02  0.8569642E-01
       -1   -1    0    0    0  501  0.00000000000E+00  0.00000000000E+00  0.15885624088E+04  0.15885624088E+04  0.50400001928E-02 0.  1.
        1   -1    0    0  501    0  0.00000000000E+00  0.00000000000E+00 -0.68154723048E+03  0.68154723050E+03  0.50400001928E-02 0. -1.
    10030    2    1    2    0    0  0.00000000000E+00  0.00000000000E+00  0.90701517828E+03  0.22701096393E+04  0.20810385005E+04 0.  0.
        2    1    3    3  502    0  0.87153024852E+03  0.36258236646E+03 -0.24044125240E+02  0.94425053165E+03  0.25500000920E-02 0. -1.
       -2    1    3    3    0  502 -0.87153024852E+03 -0.36258236646E+03  0.93105930352E+03  0.13258591076E+04  0.25500000920E-02 0.  1.
</event>
<event>
 5   0  0.8547605E-05  0.2106481E+04  0.7818609E-02  0.8558394E-01
       -2   -1    0    0    0  501  0.00000000000E+00  0.00000000000E+00  0.73464366621E+03  0.73464366622E+03  0.25500000920E-02 0. -1.
        2   -1    0    0  501    0  0.00000000000E+00  0.00000000000E+00 -0.15100047259E+04  0.15100047259E+04  0.25500000920E-02 0.  1.
    10030    2    1    2    0    0  0.00000000000E+00  0.00000000000E+00 -0.77536105973E+03  0.22446483922E+04  0.21064808643E+04 0.  0.
        4    1    3    3  502    0 -0.89073551649E+03 -0.55648951978E+03 -0.47174381760E+03  0.11513618842E+04  0.12699999809E+01 0.  1.
       -4    1    3    3    0  502  0.89073551649E+03  0.55648951978E+03 -0.30361724213E+03  0.10932865080E+04  0.12699999809E+01 0. -1.
</event>
<event>
 5   0  0.4174093E-05  0.2033065E+04  0.7818609E-02  0.8591316E-01
       -1   -1    0    0    0  501  0.00000000000E+00  0.00000000000E+00  0.85631066701E+03  0.85631066703E+03  0.50400001928E-02 0. -1.
        1   -1    0    0  501    0  0.00000000000E+00  0.00000000000E+00 -0.12067327633E+04  0.12067327633E+04  0.50400001928E-02 0.  1.
    10030    2    1    2    0    0  0.00000000000E+00  0.00000000000E+00 -0.35042209631E+03  0.20630434304E+04  0.20330648170E+04 0.  0.
        3    1    3    3  502    0 -0.70042755813E+03  0.36834077824E+03 -0.82263494496E+03  0.11414911108E+04  0.10100000352E+00 0.  1.
       -3    1    3    3    0  502  0.70042755813E+03 -0.36834077824E+03  0.47221284866E+03  0.92155231958E+03  0.10100000352E+00 0. -1.
</event>
<event>
 5   0  0.9012466E-05  0.1885243E+04  0.7818609E-02  0.8662237E-01
        2   -1    0    0  501    0  0.00000000000E+00  0.00000000000E+00  0.10274666832E+04  0.10274666832E+04  0.25500000920E-02 0.  1.
       -2   -1    0    0    0  501  0.00000000000E+00  0.00000000000E+00 -0.86478213605E+03  0.86478213605E+03  0.25500000920E-02 0. -1.
    10030    2    1    2    0    0  0.00000000000E+00  0.00000000000E+00  0.16268454715E+03  0.18922488193E+04  0.18852425128E+04 0.  0.
        2    1    3    3  502    0  0.80464275233E+03 -0.32521549820E+03 -0.28788316737E+03  0.91438055383E+03  0.25500000920E-02 0. -1.
       -2    1    3    3    0  502 -0.80464275233E+03  0.32521549820E+03  0.45056771452E+03  0.97786826543E+03  0.25500000920E-02 0.  1.
</event>
<event>
 5   0  0.8547605E-05  0.2091186E+04  0.7818609E-02  0.8565136E-01
        2   -1    0    0  501    0  0.00000000000E+00  0.00000000000E+00  0.20593098409E+04  0.20593098409E+04  0.25500000920E-02 0. -1.
       -2   -1    0    0    0  501  0.00000000000E+00  0.00000000000E+00 -0.53088891893E+03  0.53088891894E+03  0.25500000920E-02 0.  1.
    10030    2    1    2    0    0  0.00000000000E+00  0.00000000000E+00  0.15284209220E+04  0.25901987598E+04  0.20911860512E+04 0.  0.
        4    1    3    3  502    0  0.25970401797E+03  0.18494587989E+03 -0.46921044735E+03  0.56728406662E+03  0.12699999809E+01 0.  1.
       -4    1    3    3    0  502 -0.25970401797E+03 -0.18494587989E+03  0.19976313693E+04  0.20229146932E+04  0.12699999809E+01 0. -1.
</event>
<event>
 5   0  0.4128678E-05  0.2314947E+04  0.7818609E-02  0.8472051E-01
        1   -1    0    0  501    0  0.00000000000E+00  0.00000000000E+00  0.27761034851E+04  0.27761034851E+04  0.50400001928E-02 0.  1.
       -1   -1    0    0    0  501  0.00000000000E+00  0.00000000000E+00 -0.48259903834E+03  0.48259903836E+03  0.50400001928E-02 0. -1.
    10030    2    1    2    0    0  0.00000000000E+00  0.00000000000E+00  0.22935044467E+04  0.32587025234E+04  0.23149469733E+04 0.  0.
        5    1    3    3  502    0 -0.84219705484E+03 -0.63641934655E+03  0.18150623501E+04  0.20997140017E+04  0.46999998093E+01 0.  1.
       -5    1    3    3    0  502  0.84219705484E+03  0.63641934655E+03  0.47844209660E+03  0.11589885218E+04  0.46999998093E+01 0. -1.
</event>
<event>
 5   0  0.3176125E-05  0.2128033E+04  0.7818609E-02  0.8548994E-01
        4   -1    0    0  501    0  0.00000000000E+00  0.00000000000E+00  0.97116320793E+03  0.97116403833E+03  0.12699999809E+01 0. -1.
       -4   -1    0    0    0  501  0.00000000000E+00  0.00000000000E+00 -0.11657463287E+04  0.11657470205E+04  0.12699999809E+01 0.  1.
    10030    2    1    2    0    0  0.00000000000E+00  0.00000000000E+00 -0.19458312076E+03  0.21369110588E+04  0.21280334307E+04 0.  0.
        5    1    3    3  502    0 -0.45647555790E+03 -0.75788060353E+03 -0.69082123463E+03  0.11225012305E+04  0.46999998093E+01 0.  1.
       -5    1    3    3    0  502  0.45647555790E+03  0.75788060353E+03  0.49623811388E+03  0.10144098283E+04  0.46999998093E+01 0. -1.
</event>
<event>
 5   0  0.9012466E-05  0.2042844E+04  0.7818609E-02  0.8586848E-01
        2   -1    0    0  501    0  0.00000000000E+00  0.00000000000E+00  0.13284480225E+04  0.13284480225E+04  0.25500000920E-02 0. -1.
       -2   -1    0    0    0  501  0.00000000000E+00  0.00000000000E+00 -0.78535438264E+03  0.78535438265E+03  0.25500000920E-02 0.  1.
    10030    2    1    2    0    0  0.00000000000E+00  0.00000000000E+00  0.54309363989E+03  0.21138024052E+04  0.20428435835E+04 0.  0.
        2    1    3    3  502    0 -0.39852239821E+03 -0.89255424118E+03 -0.35107429152E+02  0.97811334053E+03  0.25500000920E-02 0.  1.
       -2    1    3    3    0  502  0.39852239821E+03  0.89255424118E+03  0.57820106904E+03  0.11356890647E+04  0.25500000920E-02 0. -1.
</event>
<event>
 5   0  0.8872777E-05  0.2078316E+04  0.7818609E-02  0.8570856E-01
        2   -1    0    0  501    0  0.00000000000E+00  0.00000000000E+00  0.11732017667E+04  0.11732017667E+04  0.25500000920E-02 0.  1.
       -2   -1    0    0    0  501  0.00000000000E+00  0.00000000000E+00 -0.92042943068E+03  0.92042943068E+03  0.25500000920E-02 0. -1.
    10030    2    1    2    0    0  0.00000000000E+00  0.00000000000E+00  0.25277233598E+03  0.20936311973E+04  0.20783160820E+04 0.  0.
        3    1    3    3  502    0 -0.19684753380E+03  0.59595717541E+03 -0.70792917148E+03  0.94608542348E+03  0.10100000352E+00 0. -1.
       -3    1    3    3    0  502  0.19684753380E+03 -0.59595717541E+03  0.96070150746E+03  0.11475457739E+04  0.10100000352E+00 0.  1.
</event>
<event>
 5   0  0.9086985E-05  0.2134310E+04  0.7818609E-02  0.8546279E-01
        2   -1    0    0  501    0  0.00000000000E+00  0.00000000000E+00  0.11962467110E+04  0.11962467110E+04  0.25500000920E-02 0.  1.
       -2   -1    0    0    0  501  0.00000000000E+00  0.00000000000E+00 -0.95199375059E+03  0.95199375060E+03  0.25500000920E-02 0. -1.
    10030    2    1    2    0    0  0.00000000000E+00  0.00000000000E+00  0.24425296036E+03  0.21482404616E+04  0.21343096242E+04 0.  0.
        5    1    3    3  502    0 -0.11641739008E+03  0.96176257763E+03  0.57254824112E+03  0.11253327698E+04  0.46999998093E+01 0.  1.
       -5    1    3    3    0  502  0.11641739008E+03 -0.96176257763E+03 -0.32829528076E+03  0.10229076917E+04  0.46999998093E+01 0. -1.
</event>
<event>
 5   0  0.4050368E-05  0.2165255E+04  0.7818609E-02  0.8533031E-01
        1   -1    0    0  501    0  0.00000000000E+00  0.00000000000E+00  0.75744281534E+03  0.75744281535E+03  0.50400001928E-02 0.  1.
       -1   -1    0    0    0  501  0.00000000000E+00  0.00000000000E+00 -0.15474196976E+04  0.15474196976E+04  0.50400001928E-02 0. -1.
    10030    2    1    2    0    0  0.00000000000E+00  0.00000000000E+00 -0.78997688226E+03  0.23048625130E+04  0.21652546569E+04 0.  0.
        2    1    3    3  502    0 -0.10479487037E+04  0.27117927534E+03 -0.37515237754E+03  0.11456325726E+04  0.25500000920E-02 0. -1.
       -2    1    3    3    0  502  0.10479487037E+04 -0.27117927534E+03 -0.41482450472E+03  0.11592299404E+04  0.25500000920E-02 0.  1.
</event>
<event>
 5   0  0.9012466E-05  0.2114141E+04  0.7818609E-02  0.8555040E-01
        2   -1    0    0  501    0  0.00000000000E+00  0.00000000000E+00  0.21736111658E+04  0.21736111658E+04  0.25500000920E-02 0. -1.
       -2   -1    0    0    0  501  0.00000000000E+00  0.00000000000E+00 -0.51407432327E+03  0.51407432327E+03  0.25500000920E-02 0.  1.
    10030    2    1    2    0    0  0.00000000000E+00  0.00000000000E+00  0.16595368425E+04  0.26876854891E+04  0.21141406662E+04 0.  0.
        2    1    3    3  502    0 -0.53966853256E+02  0.48054469858E+03 -0.36521834594E+03  0.60598685531E+03  0.25500000920E-02 0.  1.
       -2    1    3    3    0  502  0.53966853256E+02 -0.48054469858E+03  0.20247551885E+04  0.20816986338E+04  0.25500000920E-02 0. -1.
</event>
<event>
 5   0  0.4050368E-05  0.2103378E+04  0.7818609E-02  0.8559757E-01
        1   -1    0    0  501    0  0.00000000000E+00  0.00000000000E+00  0.13715274913E+04  0.13715274913E+04  0.50400001928E-02 0.  1.
       -1   -1    0    0    0  501  0.00000000000E+00  0.00000000000E+00 -0.80643632841E+03  0.80643632843E+03  0.50400001928E-02 0. -1.
    10030    2    1    2    0    0  0.00000000000E+00  0.00000000000E+00  0.56509116291E+03  0.21779638198E+04  0.21033778495E+04 0.  0.
        2    1    3    3  502    0  0.51651431937E+02 -0.88794681084E+03 -0.29854239341E+03  0.93821371231E+03  0.25500000920E-02 0. -1.
       -2    1    3    3    0  502 -0.51651431937E+02  0.88794681084E+03  0.86363355631E+03  0.12397501074E+04  0.25500000920E-02 0.  1.
</event>
<event>
 5   0  0.9086985E-05  0.2117976E+04  0.7818609E-02  0.8553366E-01
       -2   -1    0    0    0  501  0.00000000000E+00  0.00000000000E+00  0.69039458915E+03  0.69039458915E+03  0.25500000920E-02 0.  1.
        2   -1    0    0  501    0  0.00000000000E+00  0.00000000000E+00 -0.16243688580E+04  0.16243688580E+04  0.25500000920E-02 0. -1.
    10030    2    1    2    0    0  0.00000000000E+00  0.00000000000E+00 -0.93397426888E+03  0.23147634472E+04  0.21179758926E+04 0.  0.
        5    1    3    3  502    0 -0.68209442170E+03  0.67802506961E+03  0.17436730678E+02  0.96192355451E+03  0.46999998093E+01 0.  1.
       -5    1    3    3    0  502  0.68209442170E+03 -0.67802506961E+03 -0.95141099956E+03  0.13528398927E+04  0.46999998093E+01 0. -1.
</event>
<event>
 5   0  0.4182977E-05  0.2110055E+04  0.7818609E-02  0.8556827E-01
       -1   -1    0    0    0  501  0.00000000000E+00  0.00000000000E+00  0.57884203584E+03  0.57884203586E+03  0.50400001928E-02 0. -1.
        1   -1    0    0  501    0  0.00000000000E+00  0.00000000000E+00 -0.19229470321E+04  0.19229470321E+04  0.50400001928E-02 0.  1.
    10030    2    1    2    0    0  0.00000000000E+00  0.00000000000E+00 -0.13441049963E+04  0.25017890680E+04  0.21100545727E+04 0.  0.
        1    1    3    3  502    0 -0.65979333058E+03 -0.32473381577E+03 -0.15690063971E+04  0.17327897635E+04  0.50400001928E-02 0.  1.
       -1    1    3    3    0  502  0.65979333058E+03  0.32473381577E+03  0.22490140086E+03  0.76899930450E+03  0.50400001928E-02 0. -1.
</event>
<event>
 5   0  0.4050368E-05  0.2099772E+04  0.7818609E-02  0.8561344E-01
        1   -1    0    0  501    0  0.00000000000E+00  0.00000000000E+00  0.73104723458E+03  0.73104723460E+03  0.50400001928E-02 0. -1.
       -1   -1    0    0    0  501  0.00000000000E+00  0.00000000000E+00 -0.15077826980E+04  0.15077826980E+04  0.50400001928E-02 0.  1.
    10030    2    1    2    0    0  0.00000000000E+00  0.00000000000E+00 -0.77673546342E+03  0.22388299326E+04  0.20997717702E+04 0.  0.
        2    1    3    3  502    0 -0.24523042596E+03  0.60373226316E+03  0.48933055156E+03  0.81490796786E+03  0.25500000920E-02 0. -1.
       -2    1    3    3    0  502  0.24523042596E+03 -0.60373226316E+03 -0.12660660150E+04  0.14239219647E+04  0.25500000920E-02 0.  1.
</event>
<event>
 5   0  0.4182977E-05  0.2086068E+04  0.7818609E-02  0.8567405E-01
       -1   -1    0    0    0  501  0.00000000000E+00  0.00000000000E+00  0.49426977988E+03  0.49426977991E+03  0.50400001928E-02 0. -1.
        1   -1    0    0  501    0  0.00000000000E+00  0.00000000000E+00 -0.22010650052E+04  0.22010650052E+04  0.50400001928E-02 0.  1.
    10030    2    1    2    0    0  0.00000000000E+00  0.00000000000E+00 -0.17067952253E+04  0.26953347851E+04  0.20860679909E+04 0.  0.
        1    1    3    3  502    0  0.68781984633E+03 -0.67661587302E+03 -0.34141588411E+03  0.10234598119E+04  0.50400001928E-02 0. -1.
       -1    1    3    3    0  502 -0.68781984633E+03  0.67661587302E+03 -0.13653793412E+04  0.16718749732E+04  0.50400001928E-02 0.  1.
</event>
<event>
 5   0  0.9086985E-05  0.2090849E+04  0.7818609E-02  0.8565285E-01
       -2   -1    0    0    0  501  0.00000000000E+00  0.00000000000E+00  0.15014082513E+04  0.15014082513E+04  0.25500000920E-02 0.  1.
        2   -1    0    0  501    0  0.00000000000E+00  0.00000000000E+00 -0.72792459387E+03  0.72792459387E+03  0.25500000920E-02 0. -1.
    10030    2    1    2    0    0  0.00000000000E+00  0.00000000000E+00  0.77348365742E+03  0.22293328452E+04  0.20908486235E+04 0.  0.
        5    1    3    3  502    0 -0.38871973114E+02 -0.10107458183E+04  0.10510323385E+03  0.10169498116E+04  0.46999998093E+01 0. -1.
       -5    1    3    3    0  502  0.38871973114E+02  0.10107458183E+04  0.66838042356E+03  0.12123830336E+04  0.46999998093E+01 0.  1.
</event>
<event>
 5   0  0.4128678E-05  0.2101644E+04  0.7818609E-02  0.8560520E-01
        1   -1    0    0  501    0  0.00000000000E+00  0.00000000000E+00  0.72417513125E+03  0.72417513127E+03  0.50400001928E-02 0. -1.
       -1   -1    0    0    0  501  0.00000000000E+00  0.00000000000E+00 -0.15248064361E+04  0.15248064361E+04  0.50400001928E-02 0.  1.
    10030    2    1    2    0    0  0.00000000000E+00  0.00000000000E+00 -0.80063130484E+03  0.22489815674E+04  0.21016440241E+04 0.  0.
        5    1    3    3  502    0 -0.84573167195E+03  0.34268926766E+03 -0.95790838797E+03  0.13229922769E+04  0.46999998093E+01 0.  1.
       -5    1    3    3    0  502  0.84573167195E+03 -0.34268926766E+03  0.15727708313E+03  0.92598929043E+03  0.46999998093E+01 0. -1.
</event>
<event>
 5   0  0.4174093E-05  0.2080998E+04  0.7818609E-02  0.8569661E-01
        1   -1    0    0  501    0  0.00000000000E+00  0.00000000000E+00  0.10908532265E+04  0.10908532265E+04  0.50400001928E-02 0. -1.
       -1   -1    0    0    0  501  0.00000000000E+00  0.00000000000E+00 -0.99246887180E+03  0.99246887181E+03  0.50400001928E-02 0.  1.
    10030    2    1    2    0    0  0.00000000000E+00  0.00000000000E+00  0.98384354679E+02  0.20833220983E+04  0.20809977136E+04 0.  0.
        3    1    3    3  502    0  0.73347829102E+03  0.34141790515E+02 -0.68884343498E+03  0.10068075056E+04  0.10100000352E+00 0.  1.
       -3    1    3    3    0  502 -0.73347829102E+03 -0.34141790515E+02  0.78722778965E+03  0.10765145927E+04  0.10100000352E+00 0. -1.
</event>
<event>
 5   0  0.8858590E-05  0.2093192E+04  0.7818609E-02  0.8564248E-01
       -2   -1    0    0    0  501  0.00000000000E+00  0.00000000000E+00  0.88367811841E+03  0.88367811841E+03  0.25500000920E-02 0. -1.
        2   -1    0    0  501    0  0.00000000000E+00  0.00000000000E+00 -0.12395494132E+04  0.12395494132E+04  0.25500000920E-02 0.  1.
    10030    2    1    2    0    0  0.00000000000E+00  0.00000000000E+00 -0.35587129484E+03  0.21232275317E+04  0.20931915280E+04 0.  0.
        1    1    3    3  502    0 -0.38763371296E+03 -0.45969302738E+02  0.80707522691E+03  0.89651742545E+03  0.50400001928E-02 0. -1.
       -1    1    3    3    0  502  0.38763371296E+03  0.45969302738E+02 -0.11629465217E+04  0.12267101062E+04  0.50400001928E-02 0.  1.
</event>
<event>
 5   0  0.4182977E-05  0.2082811E+04  0.7818609E-02  0.8568853E-01
        1   -1    0    0  501    0  0.00000000000E+00  0.00000000000E+00  0.88256930073E+03  0.88256930074E+03  0.50400001928E-02 0. -1.
       -1   -1    0    0    0  501  0.00000000000E+00  0.00000000000E+00 -0.12288278373E+04  0.12288278374E+04  0.50400001928E-02 0.  1.
    10030    2    1    2    0    0  0.00000000000E+00  0.00000000000E+00 -0.34625853662E+03  0.21113971381E+04  0.20828112974E+04 0.  0.
        1    1    3    3  502    0  0.70698653425E+03 -0.71358464438E+00 -0.94827755076E+03  0.11828189980E+04  0.50400001928E-02 0.  1.
       -1    1    3    3    0  502 -0.70698653425E+03  0.71358464438E+00  0.60201901413E+03  0.92857814007E+03  0.50400001928E-02 0. -1.
</event>
<event>
 5   0  0.8872777E-05  0.2079534E+04  0.7818609E-02  0.8570313E-01
        2   -1    0    0  501    0  0.00000000000E+00  0.00000000000E+00  0.22057402170E+04  0.22057402170E+04  0.25500000920E-02 0.  1.
       -2   -1    0    0    0  501  0.00000000000E+00  0.00000000000E+00 -0.49013734809E+03  0.49013734810E+03  0.25500000920E-02 0. -1.
    10030    2    1    2    0    0  0.00000000000E+00  0.00000000000E+00  0.17156028689E+04  0.26958775651E+04  0.20795342369E+04 0.  0.
        3    1    3    3  502    0 -0.37939480326E+03 -0.96796179139E+03  0.83834684092E+03  0.13355582661E+04  0.10100000352E+00 0. -1.
       -3    1    3    3    0  502  0.37939480326E+03  0.96796179139E+03  0.87725602801E+03  0.13603192990E+04  0.10100000352E+00 0.  1.
</event>
<event>
 5   0  0.4182977E-05  0.2071127E+04  0.7818609E-02  0.8574070E-01
        1   -1    0    0  501    0  0.00000000000E+00  0.00000000000E+00  0.94097971185E+03  0.94097971186E+03  0.50400001928E-02 0. -1.
       -1   -1    0    0    0  501  0.00000000000E+00  0.00000000000E+00 -0.11396544153E+04  0.11396544154E+04  0.50400001928E-02 0.  1.
    10030    2    1    2    0    0  0.00000000000E+00  0.00000000000E+00 -0.19867470350E+03  0.20806341272E+04  0.20711269236E+04 0.  0.
        1    1    3    3  502    0  0.53164739658E+03 -0.20238980148E+03  0.76995616268E+03  0.95731033553E+03  0.50400001928E-02 0. -1.
       -1    1    3    3    0  502 -0.53164739658E+03  0.20238980148E+03 -0.96863086618E+03  0.11233237917E+04  0.50400001928E-02 0.  1.
</event>
<event>
 5   0  0.4182977E-05  0.2042567E+04  0.7818609E-02  0.8586974E-01
        1   -1    0    0  501    0  0.00000000000E+00  0.00000000000E+00  0.24788629880E+04  0.24788629880E+04  0.50400001928E-02 0. -1.
       -1   -1    0    0    0  501  0.00000000000E+00  0.00000000000E+00 -0.42076561721E+03  0.42076561724E+03  0.50400001928E-02 0.  1.
    10030    2    1    2    0    0  0.00000000000E+00  0.00000000000E+00  0.20580973707E+04  0.28996286052E+04  0.20425673210E+04 0.  0.
        1    1    3    3  502    0  0.37179573084E+02  0.82918260560E+03  0.18737932447E+04  0.20493967986E+04  0.50400001928E-02 0. -1.
       -1    1    3    3    0  502 -0.37179573084E+02 -0.82918260560E+03  0.18430412604E+03  0.85023180662E+03  0.50400001928E-02 0.  1.
</event>
<event>
 5   0  0.8858590E-05  0.2098101E+04  0.7818609E-02  0.8562081E-01
       -2   -1    0    0    0  501  0.00000000000E+00  0.00000000000E+00  0.79229532074E+03  0.79229532075E+03  0.25500000920E-02 0.  1.
        2   -1    0    0  501    0  0.00000000000E+00  0.00000000000E+00 -0.13890104913E+04  0.13890104914E+04  0.25500000920E-02 0. -1.
    10030    2    1    2    0    0  0.00000000000E+00  0.00000000000E+00 -0.59671517060E+03  0.21813058121E+04  0.20981005817E+04 0.  0.
        1    1    3    3  502    0  0.43705557544E+02 -0.13007263925E+03  0.78292482811E+03  0.79485870048E+03  0.50400001928E-02 0.  1.
       -1    1    3    3    0  502 -0.43705557544E+02  0.13007263925E+03 -0.13796399987E+04  0.13864471116E+04  0.50400001928E-02 0. -1.
</event>
<event>
 5   0  0.4182977E-05  0.2102077E+04  0.7818609E-02  0.8560329E-01
       -1   -1    0    0    0  501  0.00000000000E+00  0.00000000000E+00  0.74692701714E+03  0.74692701716E+03  0.50400001928E-02 0. -1.
        1   -1    0    0  501    0  0.00000000000E+00  0.00000000000E+00 -0.14789689278E+04  0.14789689278E+04  0.50400001928E-02 0.  1.
    10030    2    1    2    0    0  0.00000000000E+00  0.00000000000E+00 -0.73204191062E+03  0.22258959449E+04  0.21020769250E+04 0.  0.
        1    1    3    3  502    0  0.54400695560E+03  0.58480100799E+03  0.35740916207E+03  0.87502976855E+03  0.50400001928E-02 0. -1.
       -1    1    3    3    0  502 -0.54400695560E+03 -0.58480100799E+03 -0.10894510727E+04  0.13508661764E+04  0.50400001928E-02 0.  1.
</event>
<event>
 5   0  0.4182977E-05  0.2093823E+04  0.7818609E-02  0.8563969E-01
        1   -1    0    0  501    0  0.00000000000E+00  0.00000000000E+00  0.13052276053E+04  0.13052276053E+04  0.50400001928E-02 0. -1.
       -1   -1    0    0    0  501  0.00000000000E+00  0.00000000000E+00 -0.83971883161E+03  0.83971883163E+03  0.50400001928E-02 0.  1.
    10030    2    1    2    0    0  0.00000000000E+00  0.00000000000E+00  0.46550877370E+03  0.21449464369E+04  0.20938234880E+04 0.  0.
        1    1    3    3  502    0 -0.54260418021E+03  0.67687658135E+03 -0.36759450989E+03  0.94218200285E+03  0.50400001928E-02 0.  1.
       -1    1    3    3    0  502  0.54260418021E+03 -0.67687658135E+03  0.83310328359E+03  0.12027644341E+04  0.50400001928E-02 0. -1.
</event>
<event>
 5   0  0.8872777E-05  0.2091960E+04  0.7818609E-02  0.8564793E-01
       -2   -1    0    0    0  501  0.00000000000E+00  0.00000000000E+00  0.77588374365E+03  0.77588374366E+03  0.25500000920E-02 0. -1.
        2   -1    0    0  501    0  0.00000000000E+00  0.00000000000E+00 -0.14101001937E+04  0.14101001937E+04  0.25500000920E-02 0.  1.
    10030    2    1    2    0    0  0.00000000000E+00  0.00000000000E+00 -0.63421645002E+03  0.21859839373E+04  0.20919596719E+04 0.  0.
        3    1    3    3  502    0  0.78635953617E+03  0.34977067853E+03  0.30406154927E+03  0.91277285435E+03  0.10100000352E+00 0.  1.
       -3    1    3    3    0  502 -0.78635953617E+03 -0.34977067853E+03 -0.93827799930E+03  0.12732110830E+04  0.10100000352E+00 0. -1.
</event>
<event>
 5   0  0.9086985E-05  0.2105024E+04  0.7818609E-02  0.8559033E-01
       -2   -1    0    0    0  501  0.00000000000E+00  0.00000000000E+00  0.43137165321E+03  0.43137165322E+03  0.25500000920E-02 0. -1.
        2   -1    0    0  501    0  0.00000000000E+00  0.00000000000E+00 -0.25680449712E+04  0.25680449712E+04  0.25500000920E-02 0.  1.
    10030    2    1    2    0    0  0.00000000000E+00  0.00000000000E+00 -0.21366733179E+04  0.29994166244E+04  0.21050242799E+04 0.  0.
        5    1    3    3  502    0  0.95306268490E+02 -0.77863360219E+03 -0.68471544200E+02  0.78744143505E+03  0.46999998093E+01 0. -1.
       -5    1    3    3    0  502 -0.95306268490E+02  0.77863360219E+03 -0.20682017737E+04  0.22119751893E+04  0.46999998093E+01 0.  1.
</event>
<event>
 5   0  0.9012466E-05  0.2116335E+04  0.7818609E-02  0.8554081E-01
        2   -1    0    0  501    0  0.00000000000E+00  0.00000000000E+00  0.14933950675E+04  0.14933950675E+04  0.25500000920E-02 0. -1.
       -2   -1    0    0    0  501  0.00000000000E+00  0.00000000000E+00 -0.74978075484E+03  0.74978075485E+03  0.25500000920E-02 0.  1.
    10030    2    1    2    0    0  0.00000000000E+00  0.00000000000E+00  0.74361431265E+03  0.22431758223E+04  0.21163353997E+04 0.  0.
        2    1    3    3  502    0  0.93746471133E+03 -0.75564451910E+02 -0.14219942457E+03  0.95119437958E+03  0.25500000920E-02 0. -1.
       -2    1    3    3    0  502 -0.93746471133E+03  0.75564451910E+02  0.88581373722E+03  0.12919814428E+04  0.25500000920E-02 0.  1.
</event>
<event>
 5   0  0.9012466E-05  0.2108393E+04  0.7818609E-02  0.8557555E-01
        2   -1    0    0  501    0  0.00000000000E+00  0.00000000000E+00  0.18559187905E+04  0.18559187905E+04  0.25500000920E-02 0. -1.
       -2   -1    0    0    0  501  0.00000000000E+00  0.00000000000E+00 -0.59880302493E+03  0.59880302493E+03  0.25500000920E-02 0.  1.
    10030    2    1    2    0    0  0.00000000000E+00  0.00000000000E+00  0.12571157656E+04  0.24547218155E+04  0.21083925496E+04 0.  0.
        2    1    3    3  502    0  0.79373353939E+03  0.61354762637E+03  0.25151633706E+03  0.10342698338E+04  0.25500000920E-02 0.  1.
       -2    1    3    3    0  502 -0.79373353939E+03 -0.61354762637E+03  0.10055994285E+04  0.14204519816E+04  0.25500000920E-02 0. -1.
</event>
<event>
 5   0  0.8872777E-05  0.2133955E+04  0.7818609E-02  0.8546432E-01
       -2   -1    0    0    0  501  0.00000000000E+00  0.00000000000E+00  0.79134372412E+03  0.79134372413E+03  0.25500000920E-02 0. -1.
        2   -1    0    0  501    0  0.00000000000E+00  0.00000000000E+00 -0.14386172007E+04  0.14386172007E+04  0.25500000920E-02 0.  1.
    10030    2    1    2    0    0  0.00000000000E+00  0.00000000000E+00 -0.64727347660E+03  0.22299609248E+04  0.21339547261E+04 0.  0.
        3    1    3    3  502    0 -0.96637969374E+03 -0.43946541891E+03 -0.21195907322E+03  0.10825646520E+04  0.10100000352E+00 0.  1.
       -3    1    3    3    0  502  0.96637969374E+03  0.43946541891E+03 -0.43531440338E+03  0.11473962728E+04  0.10100000352E+00 0. -1.
</event>
<event>
 5   0  0.4050368E-05  0.2100179E+04  0.7818609E-02  0.8561165E-01
       -1   -1    0    0    0  501  0.00000000000E+00  0.00000000000E+00  0.72138426563E+03  0.72138426565E+03  0.50400001928E-02 0.  1.
        1   -1    0    0  501    0  0.00000000000E+00  0.00000000000E+00 -0.15285718662E+04  0.15285718662E+04  0.50400001928E-02 0. -1.
    10030    2    1    2    0    0  0.00000000000E+00  0.00000000000E+00 -0.80718760056E+03  0.22499561318E+04  0.21001787478E+04 0.  0.
        2    1    3    3  502    0 -0.28601731777E+03  0.49798710738E+03 -0.13454331079E+04  0.14628695475E+04  0.25500000920E-02 0. -1.
       -2    1    3    3    0  502  0.28601731777E+03 -0.49798710738E+03  0.53824550730E+03  0.78708658438E+03  0.25500000920E-02 0.  1.
</event>
<event>
 5   0  0.8858590E-05  0.2094324E+04  0.7818609E-02  0.8563748E-01
       -2   -1    0    0    0  501  0.00000000000E+00  0.00000000000E+00  0.10210965386E+04  0.10210965386E+04  0.25500000920E-02 0.  1.
        2   -1    0    0  501    0  0.00000000000E+00  0.00000000000E+00 -0.10738931315E+04  0.10738931315E+04  0.25500000920E-02 0. -1.
    10030    2    1    2    0    0  0.00000000000E+00  0.00000000000E+00 -0.52796592918E+02  0.20949896701E+04  0.20943242914E+04 0.  0.
        1    1    3    3  502    0 -0.75569713794E+03 -0.29071668251E+03 -0.69065309498E+03  0.10642349606E+04  0.50400001928E-02 0.  1.
       -1    1    3    3    0  502  0.75569713794E+03  0.29071668251E+03  0.63785650206E+03  0.10307547094E+04  0.50400001928E-02 0. -1.
</event>
<event>
 5   0  0.4174093E-05  0.2117796E+04  0.7818609E-02  0.8553444E-01
       -1   -1    0    0    0  501  0.00000000000E+00  0.00000000000E+00  0.58748656170E+03  0.58748656172E+03  0.50400001928E-02 0.  1.
        1   -1    0    0  501    0  0.00000000000E+00  0.00000000000E+00 -0.19085803370E+04  0.19085803370E+04  0.50400001928E-02 0. -1.
    10030    2    1    2    0    0  0.00000000000E+00  0.00000000000E+00 -0.13210937753E+04  0.24960668987E+04  0.21177963074E+04 0.  0.
        3    1    3    3  502    0 -0.94077646095E+03 -0.38675301267E+03 -0.31365128836E+03  0.10644319533E+04  0.10100000352E+00 0.  1.
       -3    1    3    3    0  502  0.94077646095E+03  0.38675301267E+03 -0.10074424869E+04  0.14316349454E+04  0.10100000352E+00 0. -1.
</event>
<event>
 5   0  0.4174093E-05  0.1926161E+04  0.7818609E-02  0.8641943E-01
        1   -1    0    0  501    0  0.00000000000E+00  0.00000000000E+00  0.18831905555E+04  0.18831905555E+04  0.50400001928E-02 0.  1.
       -1   -1    0    0    0  501  0.00000000000E+00  0.00000000000E+00 -0.49252790965E+03  0.49252790968E+03  0.50400001928E-02 0. -1.
    10030    2    1    2    0    0  0.00000000000E+00  0.00000000000E+00  0.13906626458E+04  0.23757184652E+04  0.19261608529E+04 0.  0.
        3    1    3    3  502    0  0.40187128913E+03 -0.87522760205E+03  0.69544958347E+03  0.11879284582E+04  0.10100000352E+00 0.  1.
       -3    1    3    3    0  502 -0.40187128913E+03  0.87522760205E+03  0.69521306235E+03  0.11877900070E+04  0.10100000352E+00 0. -1.
</event>
<event>
 5   0  0.4200061E-05  0.2080531E+04  0.7818609E-02  0.8569868E-01
       -1   -1    0    0    0  501  0.00000000000E+00  0.00000000000E+00  0.12792121505E+04  0.12792121505E+04  0.50400001928E-02 0.  1.
        1   -1    0    0  501    0  0.00000000000E+00  0.00000000000E+00 -0.84595211205E+03  0.84595211206E+03  0.50400001928E-02 0. -1.
    10030    2    1    2    0    0  0.00000000000E+00  0.00000000000E+00  0.43326003846E+03  0.21251642626E+04  0.20805309135E+04 0.  0.
        4    1    3    3  502    0 -0.87119081158E+03  0.56629974148E+03  0.26751621566E+03  0.10729563672E+04  0.12699999809E+01 0.  1.
       -4    1    3    3    0  502  0.87119081158E+03 -0.56629974148E+03  0.16574382280E+03  0.10522078954E+04  0.12699999809E+01 0. -1.
</event>
<event>
 5   0  0.8547605E-05  0.2101564E+04  0.7818609E-02  0.8560555E-01
        2   -1    0    0  501    0  0.00000000000E+00  0.00000000000E+00  0.19480820511E+04  0.19480820511E+04  0.25500000920E-02 0. -1.
       -2   -1    0    0    0  501  0.00000000000E+00  0.00000000000E+00 -0.56678474369E+03  0.56678474369E+03  0.25500000920E-02 0.  1.
    10030    2    1    2    0    0  0.00000000000E+00  0.00000000000E+00  0.13812973075E+04  0.25148667948E+04  0.21015643564E+04 0.  0.
        4    1    3    3  502    0  0.79759225287E+03 -0.21618088092E+03  0.14673325678E+04  0.16840291127E+04  0.12699999809E+01 0. -1.
       -4    1    3    3    0  502 -0.79759225287E+03  0.21618088092E+03 -0.86035260318E+02  0.83083768212E+03  0.12699999809E+01 0.  1.
</event>
<event>
 5   0  0.4174093E-05  0.2095791E+04  0.7818609E-02  0.8563100E-01
        1   -1    0    0  501    0  0.00000000000E+00  0.00000000000E+00  0.20276842357E+04  0.20276842357E+04  0.50400001928E-02 0.  1.
       -1   -1    0    0    0  501  0.00000000000E+00  0.00000000000E+00 -0.54154617342E+03  0.54154617344E+03  0.50400001928E-02 0. -1.
    10030    2    1    2    0    0  0.00000000000E+00  0.00000000000E+00  0.14861380622E+04  0.25692304091E+04  0.20957906754E+04 0.  0.
        3    1    3    3  502    0 -0.91357721371E+03 -0.48454379106E+02  0.11664300475E+03  0.92226718093E+03  0.10100000352E+00 0. -1.
       -3    1    3    3    0  502  0.91357721371E+03  0.48454379106E+02  0.13694950575E+04  0.16469632282E+04  0.10100000352E+00 0.  1.
</event>
<event>
 5   0  0.9086985E-05  0.2197207E+04  0.7818609E-02  0.8519592E-01
        2   -1    0    0  501    0  0.00000000000E+00  0.00000000000E+00  0.12639072376E+04  0.12639072376E+04  0.25500000920E-02 0.  1.
       -2   -1    0    0    0  501  0.00000000000E+00  0.00000000000E+00 -0.95491908231E+03  0.95491908231E+03  0.25500000920E-02 0. -1.
    10030    2    1    2    0    0  0.00000000000E+00  0.00000000000E+00  0.30898815525E+03  0.22188263199E+04  0.21972065351E+04 0.  0.
        5    1    3    3  502    0  0.43270043441E+03 -0.69393009865E+03  0.89529142585E+03  0.12125747296E+04  0.46999998093E+01 0.  1.
       -5    1    3    3    0  502 -0.43270043441E+03  0.69393009865E+03 -0.58630327060E+03  0.10062515902E+04  0.46999998093E+01 0. -1.
</event>
<event>
 5   0  0.4174093E-05  0.2103341E+04  0.7818609E-02  0.8559773E-01
        1   -1    0    0  501    0  0.00000000000E+00  0.00000000000E+00  0.10442267743E+04  0.10442267743E+04  0.50400001928E-02 0.  1.
       -1   -1    0    0    0  501  0.00000000000E+00  0.00000000000E+00 -0.10591676934E+04  0.10591676934E+04  0.50400001928E-02 0. -1.
    10030    2    1    2    0    0  0.00000000000E+00  0.00000000000E+00 -0.14940919057E+02  0.21033944677E+04  0.21033414026E+04 0.  0.
        3    1    3    3  502    0  0.93616837732E+03  0.65815636933E+02  0.46716591887E+03  0.10483257770E+04  0.10100000352E+00 0.  1.
       -3    1    3    3    0  502 -0.93616837732E+03 -0.65815636933E+02 -0.48210683793E+03  0.10550686907E+04  0.10100000352E+00 0. -1.
</event>
<event>
 5   0  0.8858590E-05  0.1840520E+04  0.7818609E-02  0.8685044E-01
       -2   -1    0    0    0  501  0.00000000000E+00  0.00000000000E+00  0.84016297007E+03  0.84016297007E+03  0.25500000920E-02 0. -1.
        2   -1    0    0  501    0  0.00000000000E+00  0.00000000000E+00 -0.10079926464E+04  0.10079926464E+04  0.25500000920E-02 0.  1.
    10030    2    1    2    0    0  0.00000000000E+00  0.00000000000E+00 -0.16782967632E+03  0.18481556165E+04  0.18405195958E+04 0.  0.
        1    1    3    3  502    0  0.89182020339E+03 -0.12712838666E+03 -0.27277276889E+03  0.94122786048E+03  0.50400001928E-02 0.  1.
       -1    1    3    3    0  502 -0.89182020339E+03  0.12712838666E+03  0.10494309258E+03  0.90692775598E+03  0.50400001928E-02 0. -1.
</event>
<event>
 5   0  0.4174093E-05  0.2085073E+04  0.7818609E-02  0.8567847E-01
        1   -1    0    0  501    0  0.00000000000E+00  0.00000000000E+00  0.79539527902E+03  0.79539527904E+03  0.50400001928E-02 0.  1.
       -1   -1    0    0    0  501  0.00000000000E+00  0.00000000000E+00 -0.13664684286E+04  0.13664684286E+04  0.50400001928E-02 0. -1.
    10030    2    1    2    0    0  0.00000000000E+00  0.00000000000E+00 -0.57107314958E+03  0.21618637076E+04  0.20850731758E+04 0.  0.
        3    1    3    3  502    0 -0.83763636043E+03  0.27635547095E+03  0.29069724803E+03  0.92871519792E+03  0.10100000352E+00 0.  1.
       -3    1    3    3    0  502  0.83763636043E+03 -0.27635547095E+03 -0.86177039761E+03  0.12331485097E+04  0.10100000352E+00 0. -1.
</event>
<event>
 5   0  0.9086985E-05  0.2116649E+04  0.7818609E-02  0.8553945E-01
        2   -1    0    0  501    0  0.00000000000E+00  0.00000000000E+00  0.10979900476E+04  0.10979900476E+04  0.25500000920E-02 0.  1.
       -2   -1    0    0    0  501  0.00000000000E+00  0.00000000000E+00 -0.10200921494E+04  0.10200921494E+04  0.25500000920E-02 0. -1.
    10030    2    1    2    0    0  0.00000000000E+00  0.00000000000E+00  0.77897898169E+02  0.21180821971E+04  0.21166492650E+04 0.  0.
        5    1    3    3  502    0  0.32966111574E+03 -0.32317974290E+03 -0.91401257933E+03  0.10239934974E+04  0.46999998093E+01 0. -1.
       -5    1    3    3    0  502 -0.32966111574E+03  0.32317974290E+03  0.99191047750E+03  0.10940886997E+04  0.46999998093E+01 0.  1.
</event>
<event>
 5   0  0.8872777E-05  0.2109695E+04  0.7818609E-02  0.8556985E-01
        2   -1    0    0  501    0  0.00000000000E+00  0.00000000000E+00  0.13622663310E+04  0.13622663310E+04  0.25500000920E-02 0. -1.
       -2   -1    0    0    0  501  0.00000000000E+00  0.00000000000E+00 -0.81680274074E+03  0.81680274074E+03  0.25500000920E-02 0.  1.
    10030    2    1    2    0    0  0.00000000000E+00  0.00000000000E+00  0.54546359029E+03  0.21790690718E+04  0.21096946441E+04 0.  0.
        3    1    3    3  502    0 -0.31706748307E+03  0.15544059487E+03 -0.75394066281E+03  0.83253834782E+03  0.10100000352E+00 0.  1.
       -3    1    3    3    0  502  0.31706748307E+03 -0.15544059487E+03  0.12994042531E+04  0.13465307239E+04  0.10100000352E+00 0. -1.
</event>
<event>
 5   0  0.8872777E-05  0.2104250E+04  0.7818609E-02  0.8559373E-01
        2   -1    0    0  501    0  0.00000000000E+00  0.00000000000E+00  0.10953448083E+04  0.10953448083E+04  0.25500000920E-02 0. -1.
       -2   -1    0    0    0  501  0.00000000000E+00  0.00000000000E+00 -0.10106106146E+04  0.10106106146E+04  0.25500000920E-02 0.  1.
    10030    2    1    2    0    0  0.00000000000E+00  0.00000000000E+00  0.84734193707E+02  0.21059554230E+04  0.21042500707E+04 0.  0.
        3    1    3    3  502    0 -0.15997150459E+03 -0.56217466009E+03  0.91791084652E+03  0.10882056621E+04  0.10100000352E+00 0. -1.
       -3    1    3    3    0  502  0.15997150459E+03  0.56217466009E+03 -0.83317665282E+03  0.10177497609E+04  0.10100000352E+00 0.  1.
</event>
<event>
 5   0  0.4182977E-05  0.2097419E+04  0.7818609E-02  0.8562381E-01
       -1   -1    0    0    0  501  0.00000000000E+00  0.00000000000E+00  0.93590737857E+03  0.93590737858E+03  0.50400001928E-02 0.  1.
        1   -1    0    0  501    0  0.00000000000E+00  0.00000000000E+00 -0.11751069768E+04  0.11751069768E+04  0.50400001928E-02 0. -1.
    10030    2    1    2    0    0  0.00000000000E+00  0.00000000000E+00 -0.23919959827E+03  0.21110143554E+04  0.20974186900E+04 0.  0.
        1    1    3    3  502    0 -0.51394438747E+03  0.47511945547E+02 -0.10384220778E+04  0.11596191746E+04  0.50400001928E-02 0. -1.
       -1    1    3    3    0  502  0.51394438747E+03 -0.47511945547E+02  0.79922247951E+03  0.95139518086E+03  0.50400001928E-02 0.  1.
</event>
<event>
 5   0  0.4200061E-05  0.2163501E+04  0.7818609E-02  0.8533775E-01
       -1   -1    0    0    0  501  0.00000000000E+00  0.00000000000E+00  0.84370779729E+03  0.84370779731E+03  0.50400001928E-02 0.  1.
        1   -1    0    0  501    0  0.00000000000E+00  0.00000000000E+00 -0.13869549088E+04  0.13869549088E+04  0.50400001928E-02 0. -1.
    10030    2    1    2    0    0  0.00000000000E+00  0.00000000000E+00 -0.54324711152E+03  0.22306627061E+04  0.21635014870E+04 0.  0.
        4    1    3    3  502    0 -0.73106572334E+02  0.32320629050E+03  0.79008835700E+03  0.85676607186E+03  0.12699999809E+01 0.  1.
       -4    1    3    3    0  502  0.73106572334E+02 -0.32320629050E+03 -0.13333354685E+04  0.13738966343E+04  0.12699999809E+01 0. -1.
</event>
<event>
 5   0  0.4182977E-05  0.2048746E+04  0.7818609E-02  0.8584163E-01
       -1   -1    0    0    0  501  0.00000000000E+00  0.00000000000E+00  0.70639578100E+03  0.70639578102E+03  0.50400001928E-02 0. -1.
        1   -1    0    0  501    0  0.00000000000E+00  0.00000000000E+00 -0.14854846032E+04  0.14854846032E+04  0.50400001928E-02 0.  1.
    10030    2    1    2    0    0  0.00000000000E+00  0.00000000000E+00 -0.77908882220E+03  0.21918803842E+04  0.20487460130E+04 0.  0.
        1    1    3    3  502    0 -0.53995467767E+03  0.13359579634E+03 -0.13098399639E+04  0.14230529230E+04  0.50400001928E-02 0.  1.
       -1    1    3    3    0  502  0.53995467767E+03 -0.13359579634E+03  0.53075114165E+03  0.76882746122E+03  0.50400001928E-02 0. -1.
</event>
<event>
 5   0  0.4128678E-05  0.2089489E+04  0.7818609E-02  0.8565888E-01
       -1   -1    0    0    0  501  0.00000000000E+00  0.00000000000E+00  0.61785929921E+03  0.61785929923E+03  0.50400001928E-02 0. -1.
        1   -1    0    0  501    0  0.00000000000E+00  0.00000000000E+00 -0.17665683079E+04  0.17665683079E+04  0.50400001928E-02 0.  1.
    10030    2    1    2    0    0  0.00000000000E+00  0.00000000000E+00 -0.11487090087E+04  0.23844276071E+04  0.20894886042E+04 0.  0.
        5    1    3    3  502    0  0.20651699233E+03  0.56021985554E+03  0.40396301488E+03  0.72090482177E+03  0.46999998093E+01 0. -1.
       -5    1    3    3    0  502 -0.20651699233E+03 -0.56021985554E+03 -0.15526720235E+04  0.16635227853E+04  0.46999998093E+01 0.  1.
</event>
<event>
 5   0  0.4174093E-05  0.2102404E+04  0.7818609E-02  0.8560185E-01
        1   -1    0    0  501    0  0.00000000000E+00  0.00000000000E+00  0.14992983529E+04  0.14992983529E+04  0.50400001928E-02 0. -1.
       -1   -1    0    0    0  501  0.00000000000E+00  0.00000000000E+00 -0.73702820885E+03  0.73702820887E+03  0.50400001928E-02 0.  1.
    10030    2    1    2    0    0  0.00000000000E+00  0.00000000000E+00  0.76227014403E+03  0.22363265618E+04  0.21024035574E+04 0.  0.
        3    1    3    3  502    0 -0.91064038112E+03  0.51640087363E+03  0.27972366037E+03  0.10835963743E+04  0.10100000352E+00 0.  1.
       -3    1    3    3    0  502  0.91064038112E+03 -0.51640087363E+03  0.48254648366E+03  0.11527301875E+04  0.10100000352E+00 0. -1.
</event>
<event>
 5   0  0.4200061E-05  0.2097822E+04  0.7818609E-02  0.8562204E-01
       -1   -1    0    0    0  501  0.00000000000E+00  0.00000000000E+00  0.48655078939E+03  0.48655078942E+03  0.50400001928E-02 0.  1.
        1   -1    0    0  501    0  0.00000000000E+00  0.00000000000E+00 -0.22612519357E+04  0.22612519357E+04  0.50400001928E-02 0. -1.
    10030    2    1    2    0    0  0.00000000000E+00  0.00000000000E+00 -0.17747011463E+04  0.27478027251E+04  0.20978216458E+04 0.  0.
        4    1    3    3  502    0  0.82418552092E+03  0.29172006872E+03 -0.16464115888E+04  0.18641499682E+04  0.12699999809E+01 0. -1.
       -4    1    3    3    0  502 -0.82418552092E+03 -0.29172006872E+03 -0.12828955755E+03  0.88365275695E+03  0.12699999809E+01 0.  1.
</event>
<event>
 5   0  0.4050368E-05  0.2128685E+04  0.7818609E-02  0.8548712E-01
        1   -1    0    0  501    0  0.00000000000E+00  0.00000000000E+00  0.12388087647E+04  0.12388087647E+04  0.50400001928E-02 0.  1.
       -1   -1    0    0    0  501  0.00000000000E+00  0.00000000000E+00 -0.91444671282E+03  0.91444671284E+03  0.50400001928E-02 0. -1.
    10030    2    1    2    0    0  0.00000000000E+00  0.00000000000E+00  0.32436205185E+03  0.21532554775E+04  0.21286846668E+04 0.  0.
        2    1    3    3  502    0  0.62723907584E+03  0.36801070879E+03 -0.62394053127E+03  0.95820797670E+03  0.25500000920E-02 0. -1.
       -2    1    3    3    0  502 -0.62723907584E+03 -0.36801070879E+03  0.94830258312E+03  0.11950475008E+04  0.25500000920E-02 0.  1.
</event>
<event>
 5   0  0.9012466E-05  0.2030463E+04  0.7818609E-02  0.8592509E-01
        2   -1    0    0  501    0  0.00000000000E+00  0.00000000000E+00  0.77333194564E+03  0.77333194564E+03  0.25500000920E-02 0. -1.
       -2   -1    0    0    0  501  0.00000000000E+00  0.00000000000E+00 -0.13327981568E+04  0.13327981568E+04  0.25500000920E-02 0.  1.
    10030    2    1    2    0    0  0.00000000000E+00  0.00000000000E+00 -0.55946621113E+03  0.21061301024E+04  0.20304633872E+04 0.  0.
        2    1    3    3  502    0 -0.62730596224E+03  0.36176203689E+03 -0.10178049693E+04  0.12491242921E+04  0.25500000920E-02 0.  1.
       -2    1    3    3    0  502  0.62730596224E+03 -0.36176203689E+03  0.45833875819E+03  0.85700581029E+03  0.25500000920E-02 0. -1.
</event>
<event>
 5   0  0.4128678E-05  0.2075071E+04  0.7818609E-02  0.8572305E-01
       -1   -1    0    0    0  501  0.00000000000E+00  0.00000000000E+00  0.68783160064E+03  0.68783160066E+03  0.50400001928E-02 0. -1.
        1   -1    0    0  501    0  0.00000000000E+00  0.00000000000E+00 -0.15650334279E+04  0.15650334279E+04  0.50400001928E-02 0.  1.
    10030    2    1    2    0    0  0.00000000000E+00  0.00000000000E+00 -0.87720182728E+03  0.22528650286E+04  0.20750705509E+04 0.  0.
        5    1    3    3  502    0 -0.87461938669E+02  0.76044470522E+03 -0.11989898847E+04  0.14225064408E+04  0.46999998093E+01 0.  1.
       -5    1    3    3    0  502  0.87461938669E+02 -0.76044470522E+03  0.32178805745E+03  0.83035858780E+03  0.46999998093E+01 0. -1.
</event>
<event>
 5   0  0.4174093E-05  0.2022019E+04  0.7818609E-02  0.8596395E-01
       -1   -1    0    0    0  501  0.00000000000E+00  0.00000000000E+00  0.10457527575E+04  0.10457527576E+04  0.50400001928E-02 0.  1.
        1   -1    0    0  501    0  0.00000000000E+00  0.00000000000E+00 -0.97742015477E+03  0.97742015478E+03  0.50400001928E-02 0. -1.
    10030    2    1    2    0    0  0.00000000000E+00  0.00000000000E+00  0.68332602773E+02  0.20231729123E+04  0.20220186173E+04 0.  0.
        3    1    3    3  502    0 -0.14932734904E+03  0.80315269367E+03 -0.56181363979E+03  0.99145725202E+03  0.10100000352E+00 0. -1.
       -3    1    3    3    0  502  0.14932734904E+03 -0.80315269367E+03  0.63014624256E+03  0.10317156603E+04  0.10100000352E+00 0.  1.
</event>
<event>
 5   0  0.9012466E-05  0.2110552E+04  0.7818609E-02  0.8556609E-01
       -2   -1    0    0    0  501  0.00000000000E+00  0.00000000000E+00  0.10767369829E+04  0.10767369829E+04  0.25500000920E-02 0. -1.
        2   -1    0    0  501    0  0.00000000000E+00  0.00000000000E+00 -0.10342426638E+04  0.10342426638E+04  0.25500000920E-02 0.  1.
    10030    2    1    2    0    0  0.00000000000E+00  0.00000000000E+00  0.42494319130E+02  0.21109796468E+04  0.21105518951E+04 0.  0.
        2    1    3    3  502    0 -0.76642575082E+03  0.28042810234E+03 -0.64788691363E+03  0.10420200598E+04  0.25500000920E-02 0.  1.
       -2    1    3    3    0  502  0.76642575082E+03 -0.28042810234E+03  0.69038123276E+03  0.10689595870E+04  0.25500000920E-02 0. -1.
</event>
<event>
 5   0  0.4050368E-05  0.2107950E+04  0.7818609E-02  0.8557749E-01
        1   -1    0    0  501    0  0.00000000000E+00  0.00000000000E+00  0.18219681666E+04  0.18219681666E+04  0.50400001928E-02 0. -1.
       -1   -1    0    0    0  501  0.00000000000E+00  0.00000000000E+00 -0.60970516176E+03  0.60970516178E+03  0.50400001928E-02 0.  1.
    10030    2    1    2    0    0  0.00000000000E+00  0.00000000000E+00  0.12122630049E+04  0.24316733284E+04  0.21079500903E+04 0.  0.
        2    1    3    3  502    0 -0.25732929451E+03  0.50738583425E+03  0.16296335868E+04  0.17260835373E+04  0.25500000920E-02 0. -1.
       -2    1    3    3    0  502  0.25732929451E+03 -0.50738583425E+03 -0.41737058193E+03  0.70558979109E+03  0.25500000920E-02 0.  1.
</event>
<event>
 5   0  0.4128678E-05  0.2092346E+04  0.7818609E-02  0.8564623E-01
       -1   -1    0    0    0  501  0.00000000000E+00  0.00000000000E+00  0.88950418092E+03  0.88950418093E+03  0.50400001928E-02 0. -1.
        1   -1    0    0  501    0  0.00000000000E+00  0.00000000000E+00 -0.12304356753E+04  0.12304356753E+04  0.50400001928E-02 0.  1.
    10030    2    1    2    0    0  0.00000000000E+00  0.00000000000E+00 -0.34093149436E+03  0.21199398562E+04  0.20923457435E+04 0.  0.
        5    1    3    3  502    0  0.89930972969E+03 -0.34616041908E+03 -0.58310899974E+03  0.11263317545E+04  0.46999998093E+01 0.  1.
       -5    1    3    3    0  502 -0.89930972969E+03  0.34616041908E+03  0.24217750538E+03  0.99360810170E+03  0.46999998093E+01 0. -1.
</event>
<event>
 5   0  0.8858590E-05  0.2092088E+04  0.7818609E-02  0.8564737E-01
        2   -1    0    0  501    0  0.00000000000E+00  0.00000000000E+00  0.14452694856E+04  0.14452694856E+04  0.25500000920E-02 0. -1.
       -2   -1    0    0    0  501  0.00000000000E+00  0.00000000000E+00 -0.75709648081E+03  0.75709648081E+03  0.25500000920E-02 0.  1.
    10030    2    1    2    0    0  0.00000000000E+00  0.00000000000E+00  0.68817300484E+03  0.22023659665E+04  0.20920883742E+04 0.  0.
        1    1    3    3  502    0  0.40189009750E+03  0.94909482980E+03  0.53214158583E+03  0.11599445305E+04  0.50400001928E-02 0.  1.
       -1    1    3    3    0  502 -0.40189009750E+03 -0.94909482980E+03  0.15603141901E+03  0.10424214360E+04  0.50400001928E-02 0. -1.
</event>
<event>
 5   0  0.9012466E-05  0.2085660E+04  0.7818609E-02  0.8567586E-01
        2   -1    0    0  501    0  0.00000000000E+00  0.00000000000E+00  0.15420365308E+04  0.15420365308E+04  0.25500000920E-02 0. -1.
       -2   -1    0    0    0  501  0.00000000000E+00  0.00000000000E+00 -0.70523288657E+03  0.70523288657E+03  0.25500000920E-02 0.  1.
    10030    2    1    2    0    0  0.00000000000E+00  0.00000000000E+00  0.83680364424E+03  0.22472694174E+04  0.20856604458E+04 0.  0.
        2    1    3    3  502    0 -0.28389585873E+03  0.99131211178E+03  0.25079022090E+03  0.10612220769E+04  0.25500000920E-02 0.  1.
       -2    1    3    3    0  502  0.28389585873E+03 -0.99131211178E+03  0.58601342334E+03  0.11860473405E+04  0.25500000920E-02 0. -1.
</event>
<event>
 5   0  0.8547605E-05  0.2095667E+04  0.7818609E-02  0.8563154E-01
        2   -1    0    0  501    0  0.00000000000E+00  0.00000000000E+00  0.21696765477E+04  0.21696765477E+04  0.25500000920E-02 0. -1.
       -2   -1    0    0    0  501  0.00000000000E+00  0.00000000000E+00 -0.50604553663E+03  0.50604553664E+03  0.25500000920E-02 0.  1.
    10030    2    1    2    0    0  0.00000000000E+00  0.00000000000E+00  0.16636310111E+04  0.26757220844E+04  0.20956670851E+04 0.  0.
        4    1    3    3  502    0 -0.40605119185E+03  0.86350424237E+03  0.13845870098E+04  0.16815468913E+04  0.12699999809E+01 0. -1.
       -4    1    3    3    0  502  0.40605119185E+03 -0.86350424237E+03  0.27904400129E+03  0.99417519308E+03  0.12699999809E+01 0.  1.
</event>
<event>
 5   0  0.9086985E-05  0.2092744E+04  0.7818609E-02  0.8564447E-01
        2   -1    0    0  501    0  0.00000000000E+00  0.00000000000E+00  0.25063792322E+04  0.25063792322E+04  0.25500000920E-02 0.  1.
       -2   -1    0    0    0  501  0.00000000000E+00  0.00000000000E+00 -0.43684288414E+03  0.43684288415E+03  0.25500000920E-02 0. -1.
    10030    2    1    2    0    0  0.00000000000E+00  0.00000000000E+00  0.20695363481E+04  0.29432221164E+04  0.20927435892E+04 0.  0.
        5    1    3    3  502    0  0.16021867744E+03  0.44705538474E+03 -0.27653367616E+03  0.54956483300E+03  0.46999998093E+01 0. -1.
       -5    1    3    3    0  502 -0.16021867744E+03 -0.44705538474E+03  0.23460700242E+04  0.23936572834E+04  0.46999998093E+01 0.  1.
</event>
<event>
 5   0  0.8547605E-05  0.2048101E+04  0.7818609E-02  0.8584456E-01
        2   -1    0    0  501    0  0.00000000000E+00  0.00000000000E+00  0.18109044648E+04  0.18109044648E+04  0.25500000920E-02 0.  1.
       -2   -1    0    0    0  501  0.00000000000E+00  0.00000000000E+00 -0.57909144360E+03  0.57909144360E+03  0.25500000920E-02 0. -1.
    10030    2    1    2    0    0  0.00000000000E+00  0.00000000000E+00  0.12318130212E+04  0.23899959084E+04  0.20481008576E+04 0.  0.
        4    1    3    3  502    0 -0.30426374886E+03 -0.85715168330E+03  0.11649756139E+04  0.14779902675E+04  0.12699999809E+01 0.  1.
       -4    1    3    3    0  502  0.30426374886E+03  0.85715168330E+03  0.66837407298E+02  0.91200564087E+03  0.12699999809E+01 0. -1.
</event>
<event>
 5   0  0.8858590E-05  0.2109100E+04  0.7818609E-02  0.8557245E-01
       -2   -1    0    0    0  501  0.00000000000E+00  0.00000000000E+00  0.46232172882E+03  0.46232172883E+03  0.25500000920E-02 0.  1.
        2   -1    0    0  501    0  0.00000000000E+00  0.00000000000E+00 -0.24054154792E+04  0.24054154792E+04  0.25500000920E-02 0. -1.
    10030    2    1    2    0    0  0.00000000000E+00  0.00000000000E+00 -0.19430937504E+04  0.28677372080E+04  0.21091001331E+04 0.  0.
        1    1    3    3  502    0 -0.57661743601E+03 -0.16920441239E+03 -0.21498308969E+04  0.22322389401E+04  0.50400001928E-02 0. -1.
       -1    1    3    3    0  502  0.57661743601E+03  0.16920441239E+03  0.20673714653E+03  0.63549826787E+03  0.50400001928E-02 0.  1.
</event>
<event>
 5   0  0.4050368E-05  0.2100036E+04  0.7818609E-02  0.8561228E-01
        1   -1    0    0  501    0  0.00000000000E+00  0.00000000000E+00  0.85899807982E+03  0.85899807983E+03  0.50400001928E-02 0. -1.
       -1   -1    0    0    0  501  0.00000000000E+00  0.00000000000E+00 -0.12835157522E+04  0.12835157522E+04  0.50400001928E-02 0.  1.
    10030    2    1    2    0    0  0.00000000000E+00  0.00000000000E+00 -0.42451767236E+03  0.21425138320E+04  0.21000357774E+04 0.  0.
        2    1    3    3  502    0  0.75401268596E+03 -0.22612591245E+03 -0.92120267311E+03  0.12117270418E+04  0.25500000920E-02 0.  1.
       -2    1    3    3    0  502 -0.75401268596E+03  0.22612591245E+03  0.49668500075E+03  0.93078679022E+03  0.25500000920E-02 0. -1.
</event>
<event>
 5   0  0.9012466E-05  0.2050813E+04  0.7818609E-02  0.8583225E-01
        2   -1    0    0  501    0  0.00000000000E+00  0.00000000000E+00  0.12139383567E+04  0.12139383567E+04  0.25500000920E-02 0. -1.
       -2   -1    0    0    0  501  0.00000000000E+00  0.00000000000E+00 -0.86615509514E+03  0.86615509514E+03  0.25500000920E-02 0.  1.
    10030    2    1    2    0    0  0.00000000000E+00  0.00000000000E+00  0.34778326152E+03  0.20800934518E+04  0.20508133926E+04 0.  0.
        2    1    3    3  502    0  0.23157249514E+03 -0.79517808097E+03  0.78711003491E+03  0.11425743775E+04  0.25500000920E-02 0. -1.
       -2    1    3    3    0  502 -0.23157249514E+03  0.79517808097E+03 -0.43932677339E+03  0.93751907435E+03  0.25500000920E-02 0.  1.
</event>
<event>
 5   0  0.8872777E-05  0.2104344E+04  0.7818609E-02  0.8559332E-01
       -2   -1    0    0    0  501  0.00000000000E+00  0.00000000000E+00  0.86098281186E+03  0.86098281186E+03  0.25500000920E-02 0.  1.
        2   -1    0    0  501    0  0.00000000000E+00  0.00000000000E+00 -0.12858169531E+04  0.12858169531E+04  0.25500000920E-02 0. -1.
    10030    2    1    2    0    0  0.00000000000E+00  0.00000000000E+00 -0.42483414120E+03  0.21467997649E+04  0.21043443594E+04 0.  0.
        3    1    3    3  502    0 -0.35920791239E+03 -0.87047401218E+03  0.26642552447E+03  0.97864084346E+03  0.10100000352E+00 0.  1.
       -3    1    3    3    0  502  0.35920791239E+03  0.87047401218E+03 -0.69125966566E+03  0.11681589215E+04  0.10100000352E+00 0. -1.
</event>
<event>
 5   0  0.9086985E-05  0.2107657E+04  0.7818609E-02  0.8557878E-01
       -2   -1    0    0    0  501  0.00000000000E+00  0.00000000000E+00  0.78173898682E+03  0.78173898683E+03  0.25500000920E-02 0.  1.
        2   -1    0    0  501    0  0.00000000000E+00  0.00000000000E+00 -0.14206206839E+04  0.14206206839E+04  0.25500000920E-02 0. -1.
    10030    2    1    2    0    0  0.00000000000E+00  0.00000000000E+00 -0.63888169710E+03  0.22023596708E+04  0.21076570633E+04 0.  0.
        5    1    3    3  502    0 -0.22200315418E+03  0.40299049782E+03  0.67123341392E+03  0.81379550733E+03  0.46999998093E+01 0.  1.
       -5    1    3    3    0  502  0.22200315418E+03 -0.40299049782E+03 -0.13101151110E+04  0.13885641634E+04  0.46999998093E+01 0. -1.
</event>
<event>
 5   0  0.8858590E-05  0.2080956E+04  0.7818609E-02  0.8569679E-01
        2   -1    0    0  501    0  0.00000000000E+00  0.00000000000E+00  0.12993889433E+04  0.12993889433E+04  0.25500000920E-02 0.  1.
       -2   -1    0    0    0  501  0.00000000000E+00  0.00000000000E+00 -0.83315687114E+03  0.83315687115E+03  0.25500000920E-02 0. -1.
    10030    2    1    2    0    0  0.00000000000E+00  0.00000000000E+00  0.46623207212E+03  0.21325458144E+04  0.20809563440E+04 0.  0.
        1    1    3    3  502    0  0.70231795938E+03 -0.10503796552E+03  0.10124368106E+04  0.12366534623E+04  0.50400001928E-02 0.  1.
       -1    1    3    3    0  502 -0.70231795938E+03  0.10503796552E+03 -0.54620473848E+03  0.89589235214E+03  0.50400001928E-02 0. -1.
</event>
<event>
 5   0  0.4182977E-05  0.2173083E+04  0.7818609E-02  0.8529716E-01
        1   -1    0    0  501    0  0.00000000000E+00  0.00000000000E+00  0.13642242571E+04  0.13642242571E+04  0.50400001928E-02 0. -1.
       -1   -1    0    0    0  501  0.00000000000E+00  0.00000000000E+00 -0.86537978404E+03  0.86537978405E+03  0.50400001928E-02 0.  1.
    10030    2    1    2    0    0  0.00000000000E+00  0.00000000000E+00  0.49884447302E+03  0.22296040411E+04  0.21730826887E+04 0.  0.
        1    1    3    3  502    0  0.79128824069E+03  0.31490751407E+02  0.10127096057E+04  0.12855774939E+04  0.50400001928E-02 0. -1.
       -1    1    3    3    0  502 -0.79128824069E+03 -0.31490751407E+02 -0.51386513268E+03  0.94402654723E+03  0.50400001928E-02 0.  1.
</event>
<event>
 5   0  0.9012466E-05  0.2105997E+04  0.7818609E-02  0.8558606E-01
       -2   -1    0    0    0  501  0.00000000000E+00  0.00000000000E+00  0.74178228007E+03  0.74178228007E+03  0.25500000920E-02 0.  1.
        2   -1    0    0  501    0  0.00000000000E+00  0.00000000000E+00 -0.14947863248E+04  0.14947863248E+04  0.25500000920E-02 0. -1.
    10030    2    1    2    0    0  0.00000000000E+00  0.00000000000E+00 -0.75300404470E+03  0.22365686048E+04  0.21059971588E+04 0.  0.
        2    1    3    3  502    0  0.14981773267E+03  0.64728106578E+03 -0.12440901496E+04  0.14103823707E+04  0.25500000920E-02 0. -1.
       -2    1    3    3    0  502 -0.14981773267E+03 -0.64728106578E+03  0.49108610489E+03  0.82618623419E+03  0.25500000920E-02 0.  1.
</event>
<event>
 5   0  0.4174093E-05  0.2081084E+04  0.7818609E-02  0.8569622E-01
       -1   -1    0    0    0  501  0.00000000000E+00  0.00000000000E+00  0.13566854240E+04  0.13566854240E+04  0.50400001928E-02 0.  1.
        1   -1    0    0  501    0  0.00000000000E+00  0.00000000000E+00 -0.79806860686E+03  0.79806860688E+03  0.50400001928E-02 0. -1.
    10030    2    1    2    0    0  0.00000000000E+00  0.00000000000E+00  0.55861681717E+03  0.21547540309E+04  0.20810843773E+04 0.  0.
        3    1    3    3  502    0  0.56420785295E+03  0.85690212584E+03  0.45899211073E+03  0.11239597513E+04  0.10100000352E+00 0.  1.
       -3    1    3    3    0  502 -0.56420785295E+03 -0.85690212584E+03  0.99624706443E+02  0.10307942796E+04  0.10100000352E+00 0. -1.
</event>
<event>
 5   0  0.9086985E-05  0.2109164E+04  0.7818609E-02  0.8557217E-01
        2   -1    0    0  501    0  0.00000000000E+00  0.00000000000E+00  0.78087534452E+03  0.78087534452E+03  0.25500000920E-02 0. -1.
       -2   -1    0    0    0  501  0.00000000000E+00  0.00000000000E+00 -0.14242258830E+04  0.14242258830E+04  0.25500000920E-02 0.  1.
    10030    2    1    2    0    0  0.00000000000E+00  0.00000000000E+00 -0.64335053844E+03  0.22051012275E+04  0.21091636987E+04 0.  0.
        5    1    3    3  502    0  0.68583298359E+03 -0.14913722485E+03  0.50121722757E+03  0.86246715440E+03  0.46999998093E+01 0. -1.
       -5    1    3    3    0  502 -0.68583298359E+03  0.14913722485E+03 -0.11445677660E+04  0.13426340731E+04  0.46999998093E+01 0.  1.
</event>
<event>
 5   0  0.4050368E-05  0.1996248E+04  0.7818609E-02  0.8608377E-01
       -1   -1    0    0    0  501  0.00000000000E+00  0.00000000000E+00  0.95434291048E+03  0.95434291049E+03  0.50400001928E-02 0. -1.
        1   -1    0    0  501    0  0.00000000000E+00  0.00000000000E+00 -0.10439132500E+04  0.10439132500E+04  0.50400001928E-02 0.  1.
    10030    2    1    2    0    0  0.00000000000E+00  0.00000000000E+00 -0.89570339561E+02  0.19982561605E+04  0.19962476894E+04 0.  0.
        2    1    3    3  502    0 -0.14846581772E+03  0.42086353453E+03 -0.93847847842E+03  0.10391872152E+04  0.25500000920E-02 0.  1.
       -2    1    3    3    0  502  0.14846581772E+03 -0.42086353453E+03  0.84890813886E+03  0.95906894536E+03  0.25500000920E-02 0. -1.
</event>
<event>
 5   0  0.8547605E-05  0.2101726E+04  0.7818609E-02  0.8560484E-01
       -2   -1    0    0    0  501  0.00000000000E+00  0.00000000000E+00  0.60688008836E+03  0.60688008836E+03  0.25500000920E-02 0.  1.
        2   -1    0    0  501    0  0.00000000000E+00  0.00000000000E+00 -0.18196558419E+04  0.18196558419E+04  0.25500000920E-02 0. -1.
    10030    2    1    2    0    0  0.00000000000E+00  0.00000000000E+00 -0.12127757536E+04  0.24265359303E+04  0.21017258605E+04 0.  0.
        4    1    3    3  502    0  0.60049827095E+03  0.84889430452E+03 -0.43094432773E+03  0.11255817785E+04  0.12699999809E+01 0. -1.
       -4    1    3    3    0  502 -0.60049827095E+03 -0.84889430452E+03 -0.78183142583E+03  0.13009541518E+04  0.12699999809E+01 0.  1.
</event>
<event>
 5   0  0.4182977E-05  0.2154641E+04  0.7818609E-02  0.8537548E-01
       -1   -1    0    0    0  501  0.00000000000E+00  0.00000000000E+00  0.73330160725E+03  0.73330160726E+03  0.50400001928E-02 0. -1.
        1   -1    0    0  501    0  0.00000000000E+00  0.00000000000E+00 -0.15827312866E+04  0.15827312866E+04  0.50400001928E-02 0.  1.
    10030    2    1    2    0    0  0.00000000000E+00  0.00000000000E+00 -0.84942967931E+03  0.23160328938E+04  0.21546409411E+04 0.  0.
        1    1    3    3  502    0  0.16555914099E+03  0.93245836127E+03 -0.97672920894E+03  0.13604735838E+04  0.50400001928E-02 0.  1.
       -1    1    3    3    0  502 -0.16555914099E+03 -0.93245836127E+03  0.12729952963E+03  0.95555931001E+03  0.50400001928E-02 0. -1.
</event>
<event>
 5   0  0.8858590E-05  0.2090062E+04  0.7818609E-02  0.8565634E-01
        2   -1    0    0  501    0  0.00000000000E+00  0.00000000000E+00  0.20507072591E+04  0.20507072591E+04  0.25500000920E-02 0.  1.
       -2   -1    0    0    0  501  0.00000000000E+00  0.00000000000E+00 -0.53254304281E+03  0.53254304281E+03  0.25500000920E-02 0. -1.
    10030    2    1    2    0    0  0.00000000000E+00  0.00000000000E+00  0.15181642163E+04  0.25832503019E+04  0.20900620887E+04 0.  0.
        1    1    3    3  502    0 -0.37956547654E+03 -0.54126529802E+03 -0.24125211387E+03  0.70373337017E+03  0.50400001928E-02 0. -1.
       -1    1    3    3    0  502  0.37956547654E+03  0.54126529802E+03  0.17594163302E+04  0.18795169317E+04  0.50400001928E-02 0.  1.
</event>
<event>
 5   0  0.4200061E-05  0.2101306E+04  0.7818609E-02  0.8560668E-01
        1   -1    0    0  501    0  0.00000000000E+00  0.00000000000E+00  0.87868967339E+03  0.87868967341E+03  0.50400001928E-02 0.  1.
       -1   -1    0    0    0  501  0.00000000000E+00  0.00000000000E+00 -0.12562705387E+04  0.12562705387E+04  0.50400001928E-02 0. -1.
    10030    2    1    2    0    0  0.00000000000E+00  0.00000000000E+00 -0.37758086529E+03  0.21349602121E+04  0.21013062122E+04 0.  0.
        4    1    3    3  502    0 -0.92326642085E+03  0.31144764282E+03 -0.58808568118E+03  0.11380979305E+04  0.12699999809E+01 0. -1.
       -4    1    3    3    0  502  0.92326642085E+03 -0.31144764282E+03  0.21050481589E+03  0.99686228161E+03  0.12699999809E+01 0.  1.
</event>
<event>
 5   0  0.8872777E-05  0.2135178E+04  0.7818609E-02  0.8545904E-01
        2   -1    0    0  501    0  0.00000000000E+00  0.00000000000E+00  0.16021780562E+04  0.16021780562E+04  0.25500000920E-02 0.  1.
       -2   -1    0    0    0  501  0.00000000000E+00  0.00000000000E+00 -0.71137312585E+03  0.71137312586E+03  0.25500000920E-02 0. -1.
    10030    2    1    2    0    0  0.00000000000E+00  0.00000000000E+00  0.89080493034E+03  0.23135511820E+04  0.21351781303E+04 0.  0.
        3    1    3    3  502    0  0.49616416052E+03 -0.66479454736E+03 -0.28276208648E+03  0.87640462809E+03  0.10100000352E+00 0.  1.
       -3    1    3    3    0  502 -0.49616416052E+03  0.66479454736E+03  0.11735670168E+04  0.14371465540E+04  0.10100000352E+00 0. -1.
</event>
<event>
 5   0  0.4174093E-05  0.2099817E+04  0.7818609E-02  0.8561324E-01
        1   -1    0    0  501    0  0.00000000000E+00  0.00000000000E+00  0.10647936165E+04  0.10647936165E+04  0.50400001928E-02 0.  1.
       -1   -1    0    0    0  501  0.00000000000E+00  0.00000000000E+00 -0.10352317593E+04  0.10352317593E+04  0.50400001928E-02 0. -1.
    10030    2    1    2    0    0  0.00000000000E+00  0.00000000000E+00  0.29561857200E+02  0.21000253758E+04  0.20998172958E+04 0.  0.
        3    1    3    3  502    0 -0.87455479986E+02 -0.92151099328E+03  0.51028656955E+03  0.10569878736E+04  0.10100000352E+00 0.  1.
       -3    1    3    3    0  502  0.87455479986E+02  0.92151099328E+03 -0.48072471235E+03  0.10430375022E+04  0.10100000352E+00 0. -1.
</event>
<event>
 5   0  0.8858590E-05  0.2111562E+04  0.7818609E-02  0.8556167E-01
        2   -1    0    0  501    0  0.00000000000E+00  0.00000000000E+00  0.69774742292E+03  0.69774742292E+03  0.25500000920E-02 0.  1.
       -2   -1    0    0    0  501  0.00000000000E+00  0.00000000000E+00 -0.15975316229E+04  0.15975316229E+04  0.25500000920E-02 0. -1.
    10030    2    1    2    0    0  0.00000000000E+00  0.00000000000E+00 -0.89978419999E+03  0.22952790458E+04  0.21115620502E+04 0.  0.
        1    1    3    3  502    0  0.85727386062E+03 -0.25709380386E+03  0.15888701228E+03  0.90898887715E+03  0.50400001928E-02 0.  1.
       -1    1    3    3    0  502 -0.85727386062E+03  0.25709380386E+03 -0.10586712123E+04  0.13862901687E+04  0.50400001928E-02 0. -1.
</event>
<event>
 5   0  0.4200061E-05  0.2121585E+04  0.7818609E-02  0.8551794E-01
        1   -1    0    0  501    0  0.00000000000E+00  0.00000000000E+00  0.13553159402E+04  0.13553159402E+04  0.50400001928E-02 0.  1.
       -1   -1    0    0    0  501  0.00000000000E+00  0.00000000000E+00 -0.83027152538E+03  0.83027152539E+03  0.50400001928E-02 0. -1.
    10030    2    1    2    0    0  0.00000000000E+00  0.00000000000E+00  0.52504441481E+03  0.21855874656E+04  0.21215845334E+04 0.  0.
        4    1    3    3  502    0  0.46040978677E+03 -0.18260092828E+03  0.12288821266E+04  0.13249427025E+04  0.12699999809E+01 0.  1.
       -4    1    3    3    0  502 -0.46040978677E+03  0.18260092828E+03 -0.70383771184E+03  0.86064476311E+03  0.12699999809E+01 0. -1.
</event>
<event>
 5   0  0.8872777E-05  0.2369387E+04  0.7818609E-02  0.8451054E-01
        2   -1    0    0  501    0  0.00000000000E+00  0.00000000000E+00  0.16251527044E+04  0.16251527044E+04  0.25500000920E-02 0.  1.
       -2   -1    0    0    0  501  0.00000000000E+00  0.00000000000E+00 -0.86361007869E+03  0.86361007869E+03  0.25500000920E-02 0. -1.
    10030    2    1    2    0    0  0.00000000000E+00  0.00000000000E+00  0.76154262568E+03  0.24887627831E+04  0.23693866336E+04 0.  0.
        3    1    3    3  502    0  0.95617895962E+03  0.22820012053E+03 -0.31370942002E+03  0.10318755294E+04  0.10100000352E+00 0. -1.
       -3    1    3    3    0  502 -0.95617895962E+03 -0.22820012053E+03  0.10752520457E+04  0.14568872536E+04  0.10100000352E+00 0.  1.
</event>
<event>
 5   0  0.4200061E-05  0.2060180E+04  0.7818609E-02  0.8578990E-01
        1   -1    0    0  501    0  0.00000000000E+00  0.00000000000E+00  0.22178681899E+04  0.22178681899E+04  0.50400001928E-02 0.  1.
       -1   -1    0    0    0  501  0.00000000000E+00  0.00000000000E+00 -0.47842578704E+03  0.47842578707E+03  0.50400001928E-02 0. -1.
    10030    2    1    2    0    0  0.00000000000E+00  0.00000000000E+00  0.17394424028E+04  0.26962939770E+04  0.20601799284E+04 0.  0.
        4    1    3    3  502    0 -0.81259597134E+03  0.56100516686E+03  0.48581583634E+03  0.11004806448E+04  0.12699999809E+01 0.  1.
       -4    1    3    3    0  502  0.81259597134E+03 -0.56100516686E+03  0.12536265665E+04  0.15958133321E+04  0.12699999809E+01 0. -1.
</event>
<event>
 5   0  0.4128678E-05  0.2061089E+04  0.7818609E-02  0.8578580E-01
        1   -1    0    0  501    0  0.00000000000E+00  0.00000000000E+00  0.10872258351E+04  0.10872258351E+04  0.50400001928E-02 0. -1.
       -1   -1    0    0    0  501  0.00000000000E+00  0.00000000000E+00 -0.97681817890E+03  0.97681817892E+03  0.50400001928E-02 0.  1.
    10030    2    1    2    0    0  0.00000000000E+00  0.00000000000E+00  0.11040765620E+03  0.20640440140E+04  0.20610889940E+04 0.  0.
        5    1    3    3  502    0  0.58305822479E+02 -0.35704803023E+03 -0.91112367204E+03  0.98033223990E+03  0.46999998093E+01 0.  1.
       -5    1    3    3    0  502 -0.58305822479E+02  0.35704803023E+03  0.10215313282E+04  0.10837117741E+04  0.46999998093E+01 0. -1.
</event>
<event>
 5   0  0.4200061E-05  0.2083577E+04  0.7818609E-02  0.8568513E-01
       -1   -1    0    0    0  501  0.00000000000E+00  0.00000000000E+00  0.11505734502E+04  0.11505734502E+04  0.50400001928E-02 0. -1.
        1   -1    0    0  501    0  0.00000000000E+00  0.00000000000E+00 -0.94328891969E+03  0.94328891970E+03  0.50400001928E-02 0.  1.
    10030    2    1    2    0    0  0.00000000000E+00  0.00000000000E+00  0.20728453047E+03  0.20938623699E+04  0.20835769118E+04 0.  0.
        4    1    3    3  502    0  0.44119056839E+03  0.73306426805E+03 -0.49367325314E+03  0.98779918632E+03  0.12699999809E+01 0.  1.
       -4    1    3    3    0  502 -0.44119056839E+03 -0.73306426805E+03  0.70095778360E+03  0.11060631836E+04  0.12699999809E+01 0. -1.
</event>
<event>
 5   0  0.4128678E-05  0.2054891E+04  0.7818609E-02  0.8581379E-01
       -1   -1    0    0    0  501  0.00000000000E+00  0.00000000000E+00  0.54287496445E+03  0.54287496447E+03  0.50400001928E-02 0.  1.
        1   -1    0    0  501    0  0.00000000000E+00  0.00000000000E+00 -0.19445442787E+04  0.19445442787E+04  0.50400001928E-02 0. -1.
    10030    2    1    2    0    0  0.00000000000E+00  0.00000000000E+00 -0.14016693143E+04  0.24874192432E+04  0.20548911467E+04 0.  0.
        5    1    3    3  502    0 -0.24500326726E+03 -0.78990958592E+03 -0.14387738109E+04  0.16595408774E+04  0.46999998093E+01 0. -1.
       -5    1    3    3    0  502  0.24500326726E+03  0.78990958592E+03  0.37104496614E+02  0.82787836580E+03  0.46999998093E+01 0.  1.
</event>
<event>
 5   0  0.9012466E-05  0.1960269E+04  0.7818609E-02  0.8625425E-01
       -2   -1    0    0    0  501  0.00000000000E+00  0.00000000000E+00  0.99256105703E+03  0.99256105704E+03  0.25500000920E-02 0.  1.
        2   -1    0    0  501    0  0.00000000000E+00  0.00000000000E+00 -0.96786338512E+03  0.96786338512E+03  0.25500000920E-02 0. -1.
    10030    2    1    2    0    0  0.00000000000E+00  0.00000000000E+00  0.24697671916E+02  0.19604244422E+04  0.19602688638E+04 0.  0.
        2    1    3    3  502    0 -0.55025537858E+02  0.26530339234E+03 -0.92966530672E+03  0.96834460928E+03  0.25500000920E-02 0. -1.
       -2    1    3    3    0  502  0.55025537858E+02 -0.26530339234E+03  0.95436297863E+03  0.99207983288E+03  0.25500000920E-02 0.  1.
</event>
<event>
 5   0  0.8547605E-05  0.2247728E+04  0.7818609E-02  0.8498821E-01
        2   -1    0    0  501    0  0.00000000000E+00  0.00000000000E+00  0.22872709646E+04  0.22872709646E+04  0.25500000920E-02 0. -1.
       -2   -1    0    0    0  501  0.00000000000E+00  0.00000000000E+00 -0.55221728426E+03  0.55221728426E+03  0.25500000920E-02 0.  1.
    10030    2    1    2    0    0  0.00000000000E+00  0.00000000000E+00  0.17350536803E+04  0.28394882488E+04  0.22477282402E+04 0.  0.
        4    1    3    3  502    0  0.71086933230E+03  0.15980046228E+03  0.19484887976E+04  0.20802599844E+04  0.12699999809E+01 0. -1.
       -4    1    3    3    0  502 -0.71086933230E+03 -0.15980046228E+03 -0.21343511729E+03  0.75922826445E+03  0.12699999809E+01 0.  1.
</event>
<event>
 5   0  0.8872777E-05  0.1993115E+04  0.7818609E-02  0.8609846E-01
       -2   -1    0    0    0  501  0.00000000000E+00  0.00000000000E+00  0.11263061498E+04  0.11263061498E+04  0.25500000920E-02 0.  1.
        2   -1    0    0  501    0  0.00000000000E+00  0.00000000000E+00 -0.88175592477E+03  0.88175592477E+03  0.25500000920E-02 0. -1.
    10030    2    1    2    0    0  0.00000000000E+00  0.00000000000E+00  0.24455022502E+03  0.20080620746E+04  0.19931152708E+04 0.  0.
        3    1    3    3  502    0 -0.76499838094E+02 -0.51191968861E+03 -0.73570563515E+03  0.89954254185E+03  0.10100000352E+00 0. -1.
       -3    1    3    3    0  502  0.76499838094E+02  0.51191968861E+03  0.98025586016E+03  0.11085195327E+04  0.10100000352E+00 0.  1.
</event>
<event>
 5   0  0.9086985E-05  0.2093161E+04  0.7818609E-02  0.8564262E-01
        2   -1    0    0  501    0  0.00000000000E+00  0.00000000000E+00  0.13849687795E+04  0.13849687795E+04  0.25500000920E-02 0. -1.
       -2   -1    0    0    0  501  0.00000000000E+00  0.00000000000E+00 -0.79087008913E+03  0.79087008914E+03  0.25500000920E-02 0.  1.
    10030    2    1    2    0    0  0.00000000000E+00  0.00000000000E+00  0.59409869040E+03  0.21758388687E+04  0.20931606552E+04 0.  0.
        5    1    3    3  502    0 -0.24160043565E+03 -0.10182469506E+04  0.28611387526E+03  0.10849335752E+04  0.46999998093E+01 0.  1.
       -5    1    3    3    0  502  0.24160043565E+03  0.10182469506E+04  0.30798481514E+03  0.10909052935E+04  0.46999998093E+01 0. -1.
</event>
<event>
 5   0  0.4200061E-05  0.2109208E+04  0.7818609E-02  0.8557198E-01
       -1   -1    0    0    0  501  0.00000000000E+00  0.00000000000E+00  0.14040280072E+04  0.14040280072E+04  0.50400001928E-02 0.  1.
        1   -1    0    0  501    0  0.00000000000E+00  0.00000000000E+00 -0.79214193988E+03  0.79214193989E+03  0.50400001928E-02 0. -1.
    10030    2    1    2    0    0  0.00000000000E+00  0.00000000000E+00  0.61188606732E+03  0.21961699471E+04  0.21092078791E+04 0.  0.
        4    1    3    3  502    0 -0.29453608395E+03 -0.87373525368E+03 -0.22704359627E+03  0.94958686057E+03  0.12699999809E+01 0. -1.
       -4    1    3    3    0  502  0.29453608395E+03  0.87373525368E+03  0.83892966358E+03  0.12465830865E+04  0.12699999809E+01 0.  1.
</event>
<event>
 5   0  0.4182977E-05  0.2097041E+04  0.7818609E-02  0.8562548E-01
       -1   -1    0    0    0  501  0.00000000000E+00  0.00000000000E+00  0.93144244364E+03  0.93144244366E+03  0.50400001928E-02 0. -1.
        1   -1    0    0  501    0  0.00000000000E+00  0.00000000000E+00 -0.11803148319E+04  0.11803148320E+04  0.50400001928E-02 0.  1.
    10030    2    1    2    0    0  0.00000000000E+00  0.00000000000E+00 -0.24887238830E+03  0.21117572756E+04  0.20970410882E+04 0.  0.
        1    1    3    3  502    0  0.30788293900E+03 -0.78095498825E+03  0.50823436857E+03  0.98131787471E+03  0.50400001928E-02 0. -1.
       -1    1    3    3    0  502 -0.30788293900E+03  0.78095498825E+03 -0.75710675686E+03  0.11304394009E+04  0.50400001928E-02 0.  1.
</event>
<event>
 5   0  0.8872777E-05  0.2059046E+04  0.7818609E-02  0.8579502E-01
        2   -1    0    0  501    0  0.00000000000E+00  0.00000000000E+00  0.12198181702E+04  0.12198181702E+04  0.25500000920E-02 0.  1.
       -2   -1    0    0    0  501  0.00000000000E+00  0.00000000000E+00 -0.86891428741E+03  0.86891428742E+03  0.25500000920E-02 0. -1.
    10030    2    1    2    0    0  0.00000000000E+00  0.00000000000E+00  0.35090388275E+03  0.20887324576E+04  0.20590458335E+04 0.  0.
        3    1    3    3  502    0  0.81209332453E+03 -0.59001119626E+03 -0.56556369738E+02  0.10053891847E+04  0.10100000352E+00 0. -1.
       -3    1    3    3    0  502 -0.81209332453E+03  0.59001119626E+03  0.40746025249E+03  0.10833432729E+04  0.10100000352E+00 0.  1.
</event>
<event>
 5   0  0.8858590E-05  0.2099319E+04  0.7818609E-02  0.8561544E-01
       -2   -1    0    0    0  501  0.00000000000E+00  0.00000000000E+00  0.92272283920E+03  0.92272283920E+03  0.25500000920E-02 0.  1.
        2   -1    0    0  501    0  0.00000000000E+00  0.00000000000E+00 -0.11940580584E+04  0.11940580584E+04  0.25500000920E-02 0. -1.
    10030    2    1    2    0    0  0.00000000000E+00  0.00000000000E+00 -0.27133521920E+03  0.21167808976E+04  0.20993185959E+04 0.  0.
        1    1    3    3  502    0  0.81234509156E+03  0.40415778851E+03 -0.66782325182E+03  0.11266037287E+04  0.50400001928E-02 0. -1.
       -1    1    3    3    0  502 -0.81234509156E+03 -0.40415778851E+03  0.39648803263E+03  0.99017716891E+03  0.50400001928E-02 0.  1.
</event>
<event>
 5   0  0.3176125E-05  0.2111842E+04  0.7818609E-02  0.8556045E-01
        3   -1    0    0  501    0  0.00000000000E+00  0.00000000000E+00  0.10448567754E+04  0.10448567803E+04  0.10100000352E+00 0.  1.
       -3   -1    0    0    0  501  0.00000000000E+00  0.00000000000E+00 -0.10671028390E+04  0.10671028438E+04  0.10100000352E+00 0. -1.
    10030    2    1    2    0    0  0.00000000000E+00  0.00000000000E+00 -0.22246063646E+02  0.21119596241E+04  0.21118424578E+04 0.  0.
        5    1    3    3  502    0 -0.44911895365E+03 -0.91384025858E+03 -0.29066617547E+03  0.10589243449E+04  0.46999998093E+01 0. -1.
       -5    1    3    3    0  502  0.44911895365E+03  0.91384025858E+03  0.26842011182E+03  0.10530352792E+04  0.46999998093E+01 0.  1.
</event>
<event>
 5   0  0.8872777E-05  0.2112087E+04  0.7818609E-02  0.8555938E-01
        2   -1    0    0  501    0  0.00000000000E+00  0.00000000000E+00  0.13056226279E+04  0.13056226279E+04  0.25500000920E-02 0. -1.
       -2   -1    0    0    0  501  0.00000000000E+00  0.00000000000E+00 -0.85417293419E+03  0.85417293419E+03  0.25500000920E-02 0.  1.
    10030    2    1    2    0    0  0.00000000000E+00  0.00000000000E+00  0.45144969375E+03  0.21597955621E+04  0.21120866564E+04 0.  0.
        3    1    3    3  502    0 -0.32574611118E+03 -0.59663142972E+03 -0.60070631022E+03  0.90715361059E+03  0.10100000352E+00 0.  1.
       -3    1    3    3    0  502  0.32574611118E+03  0.59663142972E+03  0.10521560040E+04  0.12526419515E+04  0.10100000352E+00 0. -1.
</event>
<event>
 5   0  0.4174093E-05  0.2098661E+04  0.7818609E-02  0.8561834E-01
       -1   -1    0    0    0  501  0.00000000000E+00  0.00000000000E+00  0.10920811999E+04  0.10920811999E+04  0.50400001928E-02 0.  1.
        1   -1    0    0  501    0  0.00000000000E+00  0.00000000000E+00 -0.10082529205E+04  0.10082529205E+04  0.50400001928E-02 0. -1.
    10030    2    1    2    0    0  0.00000000000E+00  0.00000000000E+00  0.83828279392E+02  0.21003341204E+04  0.20986605816E+04 0.  0.
        3    1    3    3  502    0  0.96037073826E+03 -0.33968710752E+03  0.29389808642E+03  0.10602242128E+04  0.10100000352E+00 0.  1.
       -3    1    3    3    0  502 -0.96037073826E+03  0.33968710752E+03 -0.21006980703E+03  0.10401099076E+04  0.10100000352E+00 0. -1.
</event>
<event>
 5   0  0.9012466E-05  0.2155458E+04  0.7818609E-02  0.8537200E-01
       -2   -1    0    0    0  501  0.00000000000E+00  0.00000000000E+00  0.14258780502E+04  0.14258780502E+04  0.25500000920E-02 0. -1.
        2   -1    0    0  501    0  0.00000000000E+00  0.00000000000E+00 -0.81458535659E+03  0.81458535659E+03  0.25500000920E-02 0.  1.
    10030    2    1    2    0    0  0.00000000000E+00  0.00000000000E+00  0.61129269364E+03  0.22404634068E+04  0.21554576127E+04 0.  0.
        2    1    3    3  502    0 -0.58353263727E+03 -0.55084186402E+03  0.10534363892E+04  0.13242602932E+04  0.25500000920E-02 0. -1.
       -2    1    3    3    0  502  0.58353263727E+03  0.55084186402E+03 -0.44214369559E+03  0.91620311365E+03  0.25500000920E-02 0.  1.
</event>
<event>
 5   0  0.4182977E-05  0.2078667E+04  0.7818609E-02  0.8570699E-01
        1   -1    0    0  501    0  0.00000000000E+00  0.00000000000E+00  0.88338806006E+03  0.88338806008E+03  0.50400001928E-02 0.  1.
       -1   -1    0    0    0  501  0.00000000000E+00  0.00000000000E+00 -0.12228084091E+04  0.12228084091E+04  0.50400001928E-02 0. -1.
    10030    2    1    2    0    0  0.00000000000E+00  0.00000000000E+00 -0.33942034906E+03  0.21061964692E+04  0.20786672157E+04 0.  0.
        1    1    3    3  502    0 -0.13647865113E+03 -0.69712322203E+03 -0.93844578560E+03  0.11769824559E+04  0.50400001928E-02 0. -1.
       -1    1    3    3    0  502  0.13647865113E+03  0.69712322203E+03  0.59902543654E+03  0.92921401333E+03  0.50400001928E-02 0.  1.
</event>
<event>
 5   0  0.8872777E-05  0.2106304E+04  0.7818609E-02  0.8558471E-01
        2   -1    0    0  501    0  0.00000000000E+00  0.00000000000E+00  0.20046597410E+04  0.20046597410E+04  0.25500000920E-02 0.  1.
       -2   -1    0    0    0  501  0.00000000000E+00  0.00000000000E+00 -0.55327574973E+03  0.55327574974E+03  0.25500000920E-02 0. -1.
    10030    2    1    2    0    0  0.00000000000E+00  0.00000000000E+00  0.14513839913E+04  0.25579354908E+04  0.21063044616E+04 0.  0.
        3    1    3    3  502    0 -0.60559853503E+03 -0.63524693683E+03  0.18777894764E+02  0.87786153573E+03  0.10100000352E+00 0. -1.
       -3    1    3    3    0  502  0.60559853503E+03  0.63524693683E+03  0.14326060965E+04  0.16800739551E+04  0.10100000352E+00 0.  1.
</event>
<event>
 5   0  0.9012466E-05  0.1970307E+04  0.7818609E-02  0.8620630E-01
        2   -1    0    0  501    0  0.00000000000E+00  0.00000000000E+00  0.10745863693E+04  0.10745863693E+04  0.25500000920E-02 0.  1.
       -2   -1    0    0    0  501  0.00000000000E+00  0.00000000000E+00 -0.90316390898E+03  0.90316390899E+03  0.25500000920E-02 0. -1.
    10030    2    1    2    0    0  0.00000000000E+00  0.00000000000E+00  0.17142246032E+03  0.19777502783E+04  0.19703072104E+04 0.  0.
        2    1    3    3  502    0 -0.51096403746E+03 -0.37308918539E+03  0.84371144956E+03  0.10545751742E+04  0.25500000920E-02 0.  1.
       -2    1    3    3    0  502  0.51096403746E+03  0.37308918539E+03 -0.67228898924E+03  0.92317510413E+03  0.25500000920E-02 0. -1.
</event>
<event>
 5   0  0.4182977E-05  0.2113757E+04  0.7818609E-02  0.8555207E-01
       -1   -1    0    0    0  501  0.00000000000E+00  0.00000000000E+00  0.10985550275E+04  0.10985550275E+04  0.50400001928E-02 0.  1.
        1   -1    0    0  501    0  0.00000000000E+00  0.00000000000E+00 -0.10167834963E+04  0.10167834963E+04  0.50400001928E-02 0. -1.
    10030    2    1    2    0    0  0.00000000000E+00  0.00000000000E+00  0.81771531231E+02  0.21153385238E+04  0.21137574333E+04 0.  0.
        1    1    3    3  502    0 -0.42963930781E+03  0.82893620390E+03 -0.45472952275E+03  0.10385105218E+04  0.50400001928E-02 0. -1.
       -1    1    3    3    0  502  0.42963930781E+03 -0.82893620390E+03  0.53650105399E+03  0.10768280020E+04  0.50400001928E-02 0.  1.
</event>
<event>
 5   0  0.9086985E-05  0.2072871E+04  0.7818609E-02  0.8573289E-01
       -2   -1    0    0    0  501  0.00000000000E+00  0.00000000000E+00  0.49959734825E+03  0.49959734826E+03  0.25500000920E-02 0.  1.
        2   -1    0    0  501    0  0.00000000000E+00  0.00000000000E+00 -0.21501279215E+04  0.21501279215E+04  0.25500000920E-02 0. -1.
    10030    2    1    2    0    0  0.00000000000E+00  0.00000000000E+00 -0.16505305733E+04  0.26497252698E+04  0.20728706742E+04 0.  0.
        5    1    3    3  502    0  0.53364362880E+03  0.80727585483E+03 -0.12996225212E+04  0.16203427464E+04  0.46999998093E+01 0. -1.
       -5    1    3    3    0  502 -0.53364362880E+03 -0.80727585483E+03 -0.35090805208E+03  0.10293825233E+04  0.46999998093E+01 0.  1.
</event>
<event>
 5   0  0.9012466E-05  0.2085149E+04  0.7818609E-02  0.8567814E-01
       -2   -1    0    0    0  501  0.00000000000E+00  0.00000000000E+00  0.99128427093E+03  0.99128427094E+03  0.25500000920E-02 0.  1.
        2   -1    0    0  501    0  0.00000000000E+00  0.00000000000E+00 -0.10965185621E+04  0.10965185621E+04  0.25500000920E-02 0. -1.
    10030    2    1    2    0    0  0.00000000000E+00  0.00000000000E+00 -0.10523429112E+03  0.20878028330E+04  0.20851490147E+04 0.  0.
        2    1    3    3  502    0  0.49869585904E+03  0.87371856494E+03 -0.32660735880E+03  0.10577117081E+04  0.25500000920E-02 0. -1.
       -2    1    3    3    0  502 -0.49869585904E+03 -0.87371856494E+03  0.22137306768E+03  0.10300911249E+04  0.25500000920E-02 0.  1.
</event>
<event>
 5   0  0.9086985E-05  0.2122471E+04  0.7818609E-02  0.8551409E-01
       -2   -1    0    0    0  501  0.00000000000E+00  0.00000000000E+00  0.76664958321E+03  0.76664958321E+03  0.25500000920E-02 0.  1.
        2   -1    0    0  501    0  0.00000000000E+00  0.00000000000E+00 -0.14690160210E+04  0.14690160210E+04  0.25500000920E-02 0. -1.
    10030    2    1    2    0    0  0.00000000000E+00  0.00000000000E+00 -0.70236643776E+03  0.22356656042E+04  0.21224707491E+04 0.  0.
        5    1    3    3  502    0  0.29797061337E+03  0.83400037732E+03  0.26468288129E+03  0.92434962728E+03  0.46999998093E+01 0.  1.
       -5    1    3    3    0  502 -0.29797061337E+03 -0.83400037732E+03 -0.96704931905E+03  0.13113159769E+04  0.46999998093E+01 0. -1.
</event>
<event>
 5   0  0.4182977E-05  0.2093030E+04  0.7818609E-02  0.8564320E-01
       -1   -1    0    0    0  501  0.00000000000E+00  0.00000000000E+00  0.67737597181E+03  0.67737597183E+03  0.50400001928E-02 0. -1.
        1   -1    0    0  501    0  0.00000000000E+00  0.00000000000E+00 -0.16168174632E+04  0.16168174632E+04  0.50400001928E-02 0.  1.
    10030    2    1    2    0    0  0.00000000000E+00  0.00000000000E+00 -0.93944149137E+03  0.22941934350E+04  0.20930296705E+04 0.  0.
        1    1    3    3  502    0  0.88829302992E+03 -0.94038859792E+01  0.13665804151E+03  0.89879272383E+03  0.50400001928E-02 0. -1.
       -1    1    3    3    0  502 -0.88829302992E+03  0.94038859792E+01 -0.10760995329E+04  0.13954007112E+04  0.50400001928E-02 0.  1.
</event>
<event>
 5   0  0.8547605E-05  0.2098122E+04  0.7818609E-02  0.8562071E-01
        2   -1    0    0  501    0  0.00000000000E+00  0.00000000000E+00  0.12260320495E+04  0.12260320495E+04  0.25500000920E-02 0. -1.
       -2   -1    0    0    0  501  0.00000000000E+00  0.00000000000E+00 -0.89763456546E+03  0.89763456546E+03  0.25500000920E-02 0.  1.
    10030    2    1    2    0    0  0.00000000000E+00  0.00000000000E+00  0.32839748408E+03  0.21236666150E+04  0.20981217753E+04 0.  0.
        4    1    3    3  502    0 -0.44483734848E+03 -0.77415021058E+03  0.72166589861E+03  0.11480383692E+04  0.12699999809E+01 0. -1.
       -4    1    3    3    0  502  0.44483734848E+03  0.77415021058E+03 -0.39326841453E+03  0.97562824575E+03  0.12699999809E+01 0.  1.
</event>
<event>
 5   0  0.8872777E-05  0.2077236E+04  0.7818609E-02  0.8571338E-01
        2   -1    0    0  501    0  0.00000000000E+00  0.00000000000E+00  0.12889383782E+04  0.12889383782E+04  0.25500000920E-02 0. -1.
       -2   -1    0    0    0  501  0.00000000000E+00  0.00000000000E+00 -0.83691172950E+03  0.83691172950E+03  0.25500000920E-02 0.  1.
    10030    2    1    2    0    0  0.00000000000E+00  0.00000000000E+00  0.45202664875E+03  0.21258501078E+04  0.20772362864E+04 0.  0.
        3    1    3    3  502    0  0.52111764677E+03 -0.89550684598E+03  0.15199131712E+03  0.10471855058E+04  0.10100000352E+00 0. -1.
       -3    1    3    3    0  502 -0.52111764677E+03  0.89550684598E+03  0.30003533163E+03  0.10786646019E+04  0.10100000352E+00 0.  1.
</event>
<event>
 5   0  0.9086985E-05  0.2099064E+04  0.7818609E-02  0.8561656E-01
        2   -1    0    0  501    0  0.00000000000E+00  0.00000000000E+00  0.14391779674E+04  0.14391779674E+04  0.25500000920E-02 0. -1.
       -2   -1    0    0    0  501  0.00000000000E+00  0.00000000000E+00 -0.76537966019E+03  0.76537966019E+03  0.25500000920E-02 0.  1.
    10030    2    1    2    0    0  0.00000000000E+00  0.00000000000E+00  0.67379830724E+03  0.22045576276E+04  0.20990641188E+04 0.  0.
        5    1    3    3  502    0 -0.92925918587E+03 -0.14157097547E+03  0.82719107428E+03  0.12521310391E+04  0.46999998093E+01 0. -1.
       -5    1    3    3    0  502  0.92925918587E+03  0.14157097547E+03 -0.15339276704E+03  0.95242658856E+03  0.46999998093E+01 0.  1.
</event>
<event>
 5   0  0.8872777E-05  0.2114946E+04  0.7818609E-02  0.8554688E-01
        2   -1    0    0  501    0  0.00000000000E+00  0.00000000000E+00  0.12018922786E+04  0.12018922786E+04  0.25500000920E-02 0.  1.
       -2   -1    0    0    0  501  0.00000000000E+00  0.00000000000E+00 -0.93040701016E+03  0.93040701016E+03  0.25500000920E-02 0. -1.
    10030    2    1    2    0    0  0.00000000000E+00  0.00000000000E+00  0.27148526842E+03  0.21322992887E+04  0.21149458636E+04 0.  0.
        3    1    3    3  502    0 -0.24476441796E+03  0.38991604635E+03 -0.82406910719E+03  0.94394599799E+03  0.10100000352E+00 0. -1.
       -3    1    3    3    0  502  0.24476441796E+03 -0.38991604635E+03  0.10955543756E+04  0.11883532907E+04  0.10100000352E+00 0.  1.
</event>
<event>
 5   0  0.4174093E-05  0.2121636E+04  0.7818609E-02  0.8551772E-01
        1   -1    0    0  501    0  0.00000000000E+00  0.00000000000E+00  0.12796222397E+04  0.12796222397E+04  0.50400001928E-02 0.  1.
       -1   -1    0    0    0  501  0.00000000000E+00  0.00000000000E+00 -0.87942706496E+03  0.87942706498E+03  0.50400001928E-02 0. -1.
    10030    2    1    2    0    0  0.00000000000E+00  0.00000000000E+00  0.40019517470E+03  0.21590493046E+04  0.21216356242E+04 0.  0.
        3    1    3    3  502    0  0.13692360127E+03 -0.76859480677E+03  0.93098888791E+03  0.12150005635E+04  0.10100000352E+00 0.  1.
       -3    1    3    3    0  502 -0.13692360127E+03  0.76859480677E+03 -0.53079371321E+03  0.94404874120E+03  0.10100000352E+00 0. -1.
</event>
<event>
 5   0  0.4174093E-05  0.2096187E+04  0.7818609E-02  0.8562925E-01
       -1   -1    0    0    0  501  0.00000000000E+00  0.00000000000E+00  0.83198572444E+03  0.83198572445E+03  0.50400001928E-02 0. -1.
        1   -1    0    0  501    0  0.00000000000E+00  0.00000000000E+00 -0.13203354664E+04  0.13203354664E+04  0.50400001928E-02 0.  1.
    10030    2    1    2    0    0  0.00000000000E+00  0.00000000000E+00 -0.48834974197E+03  0.21523211909E+04  0.20961872622E+04 0.  0.
        3    1    3    3  502    0 -0.80037134068E+03  0.45113440304E+03  0.27369620813E+03  0.95865851957E+03  0.10100000352E+00 0. -1.
       -3    1    3    3    0  502  0.80037134068E+03 -0.45113440304E+03 -0.76204595010E+03  0.11936626713E+04  0.10100000352E+00 0.  1.
</event>
<event>
 5   0  0.8547605E-05  0.1923592E+04  0.7818609E-02  0.8643201E-01
        2   -1    0    0  501    0  0.00000000000E+00  0.00000000000E+00  0.55487999818E+03  0.55487999819E+03  0.25500000920E-02 0. -1.
       -2   -1    0    0    0  501  0.00000000000E+00  0.00000000000E+00 -0.16671206112E+04  0.16671206112E+04  0.25500000920E-02 0.  1.
    10030    2    1    2    0    0  0.00000000000E+00  0.00000000000E+00 -0.11122406130E+04  0.22220006094E+04  0.19235923495E+04 0.  0.
        4    1    3    3  502    0  0.21848072286E+03 -0.42583825082E+03 -0.15197916822E+04  0.15933739085E+04  0.12699999809E+01 0.  1.
       -4    1    3    3    0  502 -0.21848072286E+03  0.42583825082E+03  0.40755106921E+03  0.62862670086E+03  0.12699999809E+01 0. -1.
</event>
<event>
 5   0  0.4128678E-05  0.2053907E+04  0.7818609E-02  0.8581824E-01
       -1   -1    0    0    0  501  0.00000000000E+00  0.00000000000E+00  0.67067248352E+03  0.67067248353E+03  0.50400001928E-02 0. -1.
        1   -1    0    0  501    0  0.00000000000E+00  0.00000000000E+00 -0.15725010753E+04  0.15725010753E+04  0.50400001928E-02 0.  1.
    10030    2    1    2    0    0  0.00000000000E+00  0.00000000000E+00 -0.90182859175E+03  0.22431735588E+04  0.20539067179E+04 0.  0.
        5    1    3    3  502    0  0.60153568254E+03 -0.54889748409E+03 -0.11342522721E+04  0.13963108293E+04  0.46999998093E+01 0. -1.
       -5    1    3    3    0  502 -0.60153568254E+03  0.54889748409E+03  0.23242368031E+03  0.84686272948E+03  0.46999998093E+01 0.  1.
</event>
<event>
 5   0  0.3176125E-05  0.2111483E+04  0.7818609E-02  0.8556202E-01
        3   -1    0    0  501    0  0.00000000000E+00  0.00000000000E+00  0.64733679426E+03  0.64733680214E+03  0.10100000352E+00 0. -1.
       -3   -1    0    0    0  501  0.00000000000E+00  0.00000000000E+00 -0.17218094754E+04  0.17218094783E+04  0.10100000352E+00 0.  1.
    10030    2    1    2    0    0  0.00000000000E+00  0.00000000000E+00 -0.10744726811E+04  0.23691462805E+04  0.21114834964E+04 0.  0.
        3    1    3    3  502    0 -0.56339997220E+03  0.27119215499E+03 -0.14917040518E+04  0.16174503708E+04  0.10100000352E+00 0.  1.
       -3    1    3    3    0  502  0.56339997220E+03 -0.27119215499E+03  0.41723137075E+03  0.75169590962E+03  0.10100000352E+00 0. -1.
</event>
<event>
 5   0  0.4174093E-05  0.2071707E+04  0.7818609E-02  0.8573810E-01
       -1   -1    0    0    0  501  0.00000000000E+00  0.00000000000E+00  0.74852959976E+03  0.74852959978E+03  0.50400001928E-02 0.  1.
        1   -1    0    0  501    0  0.00000000000E+00  0.00000000000E+00 -0.14334667302E+04  0.14334667302E+04  0.50400001928E-02 0. -1.
    10030    2    1    2    0    0  0.00000000000E+00  0.00000000000E+00 -0.68493713044E+03  0.21819963300E+04  0.20717068112E+04 0.  0.
        3    1    3    3  502    0  0.13014749265E+03 -0.18016017716E+03 -0.14080583688E+04  0.14254909468E+04  0.10100000352E+00 0. -1.
       -3    1    3    3    0  502 -0.13014749265E+03  0.18016017716E+03  0.72312123834E+03  0.75650538320E+03  0.10100000352E+00 0.  1.
</event>
<event>
 5   0  0.3176125E-05  0.2095462E+04  0.7818609E-02  0.8563245E-01
       -3   -1    0    0    0  501  0.00000000000E+00  0.00000000000E+00  0.88949229026E+03  0.88949229599E+03  0.10100000352E+00 0. -1.
        3   -1    0    0  501    0  0.00000000000E+00  0.00000000000E+00 -0.12341195527E+04  0.12341195569E+04  0.10100000352E+00 0.  1.
    10030    2    1    2    0    0  0.00000000000E+00  0.00000000000E+00 -0.34462726247E+03  0.21236118529E+04  0.20954616082E+04 0.  0.
        2    1    3    3  502    0 -0.99890509845E+03 -0.23567749169E+03 -0.38582027908E+03  0.10964545424E+04  0.25500000920E-02 0. -1.
       -2    1    3    3    0  502  0.99890509845E+03  0.23567749169E+03  0.41193016616E+02  0.10271573105E+04  0.25500000920E-02 0.  1.
</event>
<event>
 5   0  0.4174093E-05  0.2006194E+04  0.7818609E-02  0.8603730E-01
        1   -1    0    0  501    0  0.00000000000E+00  0.00000000000E+00  0.11117777169E+04  0.11117777169E+04  0.50400001928E-02 0.  1.
       -1   -1    0    0    0  501  0.00000000000E+00  0.00000000000E+00 -0.90504012082E+03  0.90504012084E+03  0.50400001928E-02 0. -1.
    10030    2    1    2    0    0  0.00000000000E+00  0.00000000000E+00  0.20673759612E+03  0.20168178378E+04  0.20061938484E+04 0.  0.
        3    1    3    3  502    0  0.99357337884E+03  0.13185039385E+03  0.14396635829E+03  0.10125704460E+04  0.10100000352E+00 0. -1.
       -3    1    3    3    0  502 -0.99357337884E+03 -0.13185039385E+03  0.62771237822E+02  0.10042473918E+04  0.10100000352E+00 0.  1.
</event>
<event>
 5   0  0.8858590E-05  0.2104506E+04  0.7818609E-02  0.8559261E-01
        2   -1    0    0  501    0  0.00000000000E+00  0.00000000000E+00  0.12404309408E+04  0.12404309408E+04  0.25500000920E-02 0. -1.
       -2   -1    0    0    0  501  0.00000000000E+00  0.00000000000E+00 -0.89262236194E+03  0.89262236194E+03  0.25500000920E-02 0.  1.
    10030    2    1    2    0    0  0.00000000000E+00  0.00000000000E+00  0.34780857890E+03  0.21330533028E+04  0.21045060192E+04 0.  0.
        1    1    3    3  502    0 -0.53689690082E+03  0.22788838260E+03 -0.71378699794E+03  0.92178266175E+03  0.50400001928E-02 0.  1.
       -1    1    3    3    0  502  0.53689690082E+03 -0.22788838260E+03  0.10615955768E+04  0.12112706410E+04  0.50400001928E-02 0. -1.
</event>
<event>
 5   0  0.4050368E-05  0.2101082E+04  0.7818609E-02  0.8560767E-01
       -1   -1    0    0    0  501  0.00000000000E+00  0.00000000000E+00  0.90355550041E+03  0.90355550042E+03  0.50400001928E-02 0.  1.
        1   -1    0    0  501    0  0.00000000000E+00  0.00000000000E+00 -0.12214378563E+04  0.12214378563E+04  0.50400001928E-02 0. -1.
    10030    2    1    2    0    0  0.00000000000E+00  0.00000000000E+00 -0.31788235587E+03  0.21249933567E+04  0.21010824767E+04 0.  0.
        2    1    3    3  502    0  0.15311079895E+03  0.41686728024E+03  0.80395214027E+03  0.91845538266E+03  0.25500000920E-02 0.  1.
       -2    1    3    3    0  502 -0.15311079895E+03 -0.41686728024E+03 -0.11218344961E+04  0.12065379740E+04  0.25500000920E-02 0. -1.
</event>
<event>
 5   0  0.4174093E-05  0.1826326E+04  0.7818609E-02  0.8692424E-01
       -1   -1    0    0    0  501  0.00000000000E+00  0.00000000000E+00  0.54582309541E+03  0.54582309544E+03  0.50400001928E-02 0.  1.
        1   -1    0    0  501    0  0.00000000000E+00  0.00000000000E+00 -0.15277229982E+04  0.15277229982E+04  0.50400001928E-02 0. -1.
    10030    2    1    2    0    0  0.00000000000E+00  0.00000000000E+00 -0.98189990276E+03  0.20735460936E+04  0.18263258152E+04 0.  0.
        3    1    3    3  502    0 -0.19934281530E+03  0.64485165411E+03  0.20736427949E+03  0.70609572186E+03  0.10100000352E+00 0.  1.
       -3    1    3    3    0  502  0.19934281530E+03 -0.64485165411E+03 -0.11892641823E+04  0.13674503718E+04  0.10100000352E+00 0. -1.
</event>
<event>
 5   0  0.4050368E-05  0.2080163E+04  0.7818609E-02  0.8570033E-01
        1   -1    0    0  501    0  0.00000000000E+00  0.00000000000E+00  0.24574409975E+04  0.24574409975E+04  0.50400001928E-02 0.  1.
       -1   -1    0    0    0  501  0.00000000000E+00  0.00000000000E+00 -0.44020146303E+03  0.44020146306E+03  0.50400001928E-02 0. -1.
    10030    2    1    2    0    0  0.00000000000E+00  0.00000000000E+00  0.20172395344E+04  0.28976424605E+04  0.20801626114E+04 0.  0.
        2    1    3    3  502    0  0.46811540216E+03  0.57131184613E+03 -0.11443385909E+02  0.73868816584E+03  0.25500000920E-02 0. -1.
       -2    1    3    3    0  502 -0.46811540216E+03 -0.57131184613E+03  0.20286829204E+04  0.21589542947E+04  0.25500000920E-02 0.  1.
</event>
<event>
 5   0  0.4174093E-05  0.2102406E+04  0.7818609E-02  0.8560184E-01
       -1   -1    0    0    0  501  0.00000000000E+00  0.00000000000E+00  0.10707342104E+04  0.10707342104E+04  0.50400001928E-02 0. -1.
        1   -1    0    0  501    0  0.00000000000E+00  0.00000000000E+00 -0.10320277686E+04  0.10320277686E+04  0.50400001928E-02 0.  1.
    10030    2    1    2    0    0  0.00000000000E+00  0.00000000000E+00  0.38706441813E+02  0.21027619791E+04  0.21024057059E+04 0.  0.
        3    1    3    3  502    0 -0.97490418240E+03  0.36720456145E+03 -0.12120554707E+03  0.10487936640E+04  0.10100000352E+00 0.  1.
       -3    1    3    3    0  502  0.97490418240E+03 -0.36720456145E+03  0.15991198889E+03  0.10539683151E+04  0.10100000352E+00 0. -1.
</event>
<event>
 5   0  0.9086985E-05  0.2106122E+04  0.7818609E-02  0.8558552E-01
        2   -1    0    0  501    0  0.00000000000E+00  0.00000000000E+00  0.89996911992E+03  0.89996911992E+03  0.25500000920E-02 0.  1.
       -2   -1    0    0    0  501  0.00000000000E+00  0.00000000000E+00 -0.12321946607E+04  0.12321946607E+04  0.25500000920E-02 0. -1.
    10030    2    1    2    0    0  0.00000000000E+00  0.00000000000E+00 -0.33222554076E+03  0.21321637806E+04  0.21061216910E+04 0.  0.
        5    1    3    3  502    0  0.44152487591E+03 -0.94883854777E+03 -0.28450428960E+03  0.10845292004E+04  0.46999998093E+01 0. -1.
       -5    1    3    3    0  502 -0.44152487591E+03  0.94883854777E+03 -0.47721251165E+02  0.10476345802E+04  0.46999998093E+01 0.  1.
</event>
<event>
 5   0  0.8858590E-05  0.2097768E+04  0.7818609E-02  0.8562227E-01
        2   -1    0    0  501    0  0.00000000000E+00  0.00000000000E+00  0.54659795668E+03  0.54659795669E+03  0.25500000920E-02 0. -1.
       -2   -1    0    0    0  501  0.00000000000E+00  0.00000000000E+00 -0.20127360406E+04  0.20127360406E+04  0.25500000920E-02 0.  1.
    10030    2    1    2    0    0  0.00000000000E+00  0.00000000000E+00 -0.14661380839E+04  0.25593339973E+04  0.20977677728E+04 0.  0.
        1    1    3    3  502    0  0.91744337653E+03  0.50620594878E+03 -0.67570705500E+03  0.12468066554E+04  0.50400001928E-02 0. -1.
       -1    1    3    3    0  502 -0.91744337653E+03 -0.50620594878E+03 -0.79043102893E+03  0.13125273419E+04  0.50400001928E-02 0.  1.
</event>
<event>
 5   0  0.4182977E-05  0.2078039E+04  0.7818609E-02  0.8570979E-01
        1   -1    0    0  501    0  0.00000000000E+00  0.00000000000E+00  0.17953947688E+04  0.17953947688E+04  0.50400001928E-02 0.  1.
       -1   -1    0    0    0  501  0.00000000000E+00  0.00000000000E+00 -0.60129491060E+03  0.60129491062E+03  0.50400001928E-02 0. -1.
    10030    2    1    2    0    0  0.00000000000E+00  0.00000000000E+00  0.11940998582E+04  0.23966896795E+04  0.20780392076E+04 0.  0.
        1    1    3    3  502    0  0.62876330746E+03 -0.40863829552E+03 -0.23242116908E+03  0.78507843764E+03  0.50400001928E-02 0. -1.
       -1    1    3    3    0  502 -0.62876330746E+03  0.40863829552E+03  0.14265210273E+04  0.16116112418E+04  0.50400001928E-02 0.  1.
</event>
<event>
 5   0  0.9012466E-05  0.2137006E+04  0.7818609E-02  0.8545115E-01
       -2   -1    0    0    0  501  0.00000000000E+00  0.00000000000E+00  0.71541977984E+03  0.71541977984E+03  0.25500000920E-02 0. -1.
        2   -1    0    0  501    0  0.00000000000E+00  0.00000000000E+00 -0.15958444323E+04  0.15958444323E+04  0.25500000920E-02 0.  1.
    10030    2    1    2    0    0  0.00000000000E+00  0.00000000000E+00 -0.88042465249E+03  0.23112642122E+04  0.21370060107E+04 0.  0.
        2    1    3    3  502    0 -0.90732213922E+03  0.45617583361E+03 -0.79952045677E+03  0.12925025401E+04  0.25500000920E-02 0.  1.
       -2    1    3    3    0  502  0.90732213922E+03 -0.45617583361E+03 -0.80904195713E+02  0.10187616720E+04  0.25500000920E-02 0. -1.
</event>
<event>
 5   0  0.9086985E-05  0.2109769E+04  0.7818609E-02  0.8556952E-01
        2   -1    0    0  501    0  0.00000000000E+00  0.00000000000E+00  0.71268833804E+03  0.71268833804E+03  0.25500000920E-02 0. -1.
       -2   -1    0    0    0  501  0.00000000000E+00  0.00000000000E+00 -0.15613853861E+04  0.15613853861E+04  0.25500000920E-02 0.  1.
    10030    2    1    2    0    0  0.00000000000E+00  0.00000000000E+00 -0.84869704807E+03  0.22740737242E+04  0.21097688555E+04 0.  0.
        5    1    3    3  502    0 -0.90179637590E+03 -0.28865733575E+03 -0.92553207606E+03  0.13240813702E+04  0.46999998093E+01 0.  1.
       -5    1    3    3    0  502  0.90179637590E+03  0.28865733575E+03  0.76835027987E+02  0.94999235397E+03  0.46999998093E+01 0. -1.
</event>
<event>
 5   0  0.4050368E-05  0.2101109E+04  0.7818609E-02  0.8560755E-01
        1   -1    0    0  501    0  0.00000000000E+00  0.00000000000E+00  0.95323929089E+03  0.95323929091E+03  0.50400001928E-02 0.  1.
       -1   -1    0    0    0  501  0.00000000000E+00  0.00000000000E+00 -0.11578044220E+04  0.11578044221E+04  0.50400001928E-02 0. -1.
    10030    2    1    2    0    0  0.00000000000E+00  0.00000000000E+00 -0.20456513115E+03  0.21110437130E+04  0.21011089132E+04 0.  0.
        2    1    3    3  502    0  0.43179024556E+03 -0.65663009616E+03 -0.80275822953E+03  0.11233996059E+04  0.25500000920E-02 0. -1.
       -2    1    3    3    0  502 -0.43179024556E+03  0.65663009616E+03  0.59819309838E+03  0.98764410711E+03  0.25500000920E-02 0.  1.
</event>
<event>
 5   0  0.9012466E-05  0.2111029E+04  0.7818609E-02  0.8556401E-01
        2   -1    0    0  501    0  0.00000000000E+00  0.00000000000E+00  0.17822042752E+04  0.17822042752E+04  0.25500000920E-02 0. -1.
       -2   -1    0    0    0  501  0.00000000000E+00  0.00000000000E+00 -0.62513077832E+03  0.62513077833E+03  0.25500000920E-02 0.  1.
    10030    2    1    2    0    0  0.00000000000E+00  0.00000000000E+00  0.11570734968E+04  0.24073350535E+04  0.21110288920E+04 0.  0.
        2    1    3    3  502    0  0.29132355338E+03  0.64757399274E+03 -0.31203282692E+03  0.77561973538E+03  0.25500000920E-02 0.  1.
       -2    1    3    3    0  502 -0.29132355338E+03 -0.64757399274E+03  0.14691063238E+04  0.16317153181E+04  0.25500000920E-02 0. -1.
</event>
<event>
 5   0  0.8872777E-05  0.2106452E+04  0.7818609E-02  0.8558406E-01
       -2   -1    0    0    0  501  0.00000000000E+00  0.00000000000E+00  0.48828130141E+03  0.48828130142E+03  0.25500000920E-02 0. -1.
        2   -1    0    0  501    0  0.00000000000E+00  0.00000000000E+00 -0.22718163246E+04  0.22718163246E+04  0.25500000920E-02 0.  1.
    10030    2    1    2    0    0  0.00000000000E+00  0.00000000000E+00 -0.17835350232E+04  0.27600976260E+04  0.21064524030E+04 0.  0.
        3    1    3    3  502    0  0.75072929516E+03  0.40393758781E+03 -0.81361010605E+02  0.85637589510E+03  0.10100000352E+00 0. -1.
       -3    1    3    3    0  502 -0.75072929516E+03 -0.40393758781E+03 -0.17021740126E+04  0.19037217309E+04  0.10100000352E+00 0.  1.
</event>
<event>
 5   0  0.4128678E-05  0.2094280E+04  0.7818609E-02  0.8563767E-01
       -1   -1    0    0    0  501  0.00000000000E+00  0.00000000000E+00  0.75941921140E+03  0.75941921142E+03  0.50400001928E-02 0. -1.
        1   -1    0    0  501    0  0.00000000000E+00  0.00000000000E+00 -0.14438691468E+04  0.14438691468E+04  0.50400001928E-02 0.  1.
    10030    2    1    2    0    0  0.00000000000E+00  0.00000000000E+00 -0.68444993538E+03  0.22032883582E+04  0.20942797987E+04 0.  0.
        5    1    3    3  502    0 -0.96251600644E+03  0.34302818057E+03 -0.58299171901E+03  0.11764381963E+04  0.46999998093E+01 0.  1.
       -5    1    3    3    0  502  0.96251600644E+03 -0.34302818057E+03 -0.10145821637E+03  0.10268501619E+04  0.46999998093E+01 0. -1.
</event>
<event>
 5   0  0.4128678E-05  0.1936785E+04  0.7818609E-02  0.8636759E-01
       -1   -1    0    0    0  501  0.00000000000E+00  0.00000000000E+00  0.50831182790E+03  0.50831182792E+03  0.50400001928E-02 0. -1.
        1   -1    0    0  501    0  0.00000000000E+00  0.00000000000E+00 -0.18449000108E+04  0.18449000108E+04  0.50400001928E-02 0.  1.
    10030    2    1    2    0    0  0.00000000000E+00  0.00000000000E+00 -0.13365881829E+04  0.23532118387E+04  0.19367854779E+04 0.  0.
        5    1    3    3  502    0 -0.15939683700E+03 -0.26525988127E+03 -0.17831880234E+04  0.18098485498E+04  0.46999998093E+01 0.  1.
       -5    1    3    3    0  502  0.15939683700E+03  0.26525988127E+03  0.44659984051E+03  0.54336328896E+03  0.46999998093E+01 0. -1.
</event>
<event>
 5   0  0.8858590E-05  0.2108944E+04  0.7818609E-02  0.8557314E-01
       -2   -1    0    0    0  501  0.00000000000E+00  0.00000000000E+00  0.48574575713E+03  0.48574575714E+03  0.25500000920E-02 0.  1.
        2   -1    0    0  501    0  0.00000000000E+00  0.00000000000E+00 -0.22890814758E+04  0.22890814758E+04  0.25500000920E-02 0. -1.
    10030    2    1    2    0    0  0.00000000000E+00  0.00000000000E+00 -0.18033357186E+04  0.27748272329E+04  0.21089443943E+04 0.  0.
        1    1    3    3  502    0  0.35704559951E+03 -0.83042487107E+03 -0.18724939705E+03  0.92311936571E+03  0.50400001928E-02 0.  1.
       -1    1    3    3    0  502 -0.35704559951E+03  0.83042487107E+03 -0.16160863216E+04  0.18517078672E+04  0.50400001928E-02 0. -1.
</event>
<event>
 5   0  0.4200061E-05  0.2102146E+04  0.7818609E-02  0.8560299E-01
        1   -1    0    0  501    0  0.00000000000E+00  0.00000000000E+00  0.16300983148E+04  0.16300983148E+04  0.50400001928E-02 0.  1.
       -1   -1    0    0    0  501  0.00000000000E+00  0.00000000000E+00 -0.67772247985E+03  0.67772247987E+03  0.50400001928E-02 0. -1.
    10030    2    1    2    0    0  0.00000000000E+00  0.00000000000E+00  0.95237583493E+03  0.23078207947E+04  0.21021458297E+04 0.  0.
        4    1    3    3  502    0 -0.49847906430E+02  0.65033020575E+03 -0.42867407334E+03  0.78049808734E+03  0.12699999809E+01 0. -1.
       -4    1    3    3    0  502  0.49847906430E+02 -0.65033020575E+03  0.13810499083E+04  0.15273227073E+04  0.12699999809E+01 0.  1.
</event>
<event>
 5   0  0.4050368E-05  0.2093083E+04  0.7818609E-02  0.8564297E-01
       -1   -1    0    0    0  501  0.00000000000E+00  0.00000000000E+00  0.59326156118E+03  0.59326156120E+03  0.50400001928E-02 0. -1.
        1   -1    0    0  501    0  0.00000000000E+00  0.00000000000E+00 -0.18461483902E+04  0.18461483902E+04  0.50400001928E-02 0.  1.
    10030    2    1    2    0    0  0.00000000000E+00  0.00000000000E+00 -0.12528868290E+04  0.24394099514E+04  0.20930827754E+04 0.  0.
        2    1    3    3  502    0 -0.75255652513E+03 -0.45532593346E+03 -0.12873603051E+04  0.15591534832E+04  0.25500000920E-02 0.  1.
       -2    1    3    3    0  502  0.75255652513E+03  0.45532593346E+03  0.34473476050E+02  0.88025646817E+03  0.25500000920E-02 0. -1.
</event>
<event>
 5   0  0.8547605E-05  0.2034808E+04  0.7818609E-02  0.8590518E-01
        2   -1    0    0  501    0  0.00000000000E+00  0.00000000000E+00  0.67683912788E+03  0.67683912789E+03  0.25500000920E-02 0.  1.
       -2   -1    0    0    0  501  0.00000000000E+00  0.00000000000E+00 -0.15293307476E+04  0.15293307476E+04  0.25500000920E-02 0. -1.
    10030    2    1    2    0    0  0.00000000000E+00  0.00000000000E+00 -0.85249161972E+03  0.22061698755E+04  0.20348079904E+04 0.  0.
        4    1    3    3  502    0  0.28061048000E+03 -0.79383596040E+02 -0.14830444342E+04  0.15114451375E+04  0.12699999809E+01 0. -1.
       -4    1    3    3    0  502 -0.28061048000E+03  0.79383596040E+02  0.63055281452E+03  0.69472473801E+03  0.12699999809E+01 0.  1.
</event>
<event>
 5   0  0.9012466E-05  0.2066074E+04  0.7818609E-02  0.8576337E-01
        2   -1    0    0  501    0  0.00000000000E+00  0.00000000000E+00  0.14799059831E+04  0.14799059831E+04  0.25500000920E-02 0.  1.
       -2   -1    0    0    0  501  0.00000000000E+00  0.00000000000E+00 -0.72110343667E+03  0.72110343668E+03  0.25500000920E-02 0. -1.
    10030    2    1    2    0    0  0.00000000000E+00  0.00000000000E+00  0.75880254643E+03  0.22010094198E+04  0.20660738519E+04 0.  0.
        2    1    3    3  502    0 -0.38326668230E+03  0.50747740352E+02  0.13999309138E+04  0.14523344127E+04  0.25500000920E-02 0.  1.
       -2    1    3    3    0  502  0.38326668230E+03 -0.50747740352E+02 -0.64112836732E+03  0.74867500713E+03  0.25500000920E-02 0. -1.
</event>
<event>
 5   0  0.8872777E-05  0.2108876E+04  0.7818609E-02  0.8557344E-01
        2   -1    0    0  501    0  0.00000000000E+00  0.00000000000E+00  0.14646956798E+04  0.14646956798E+04  0.25500000920E-02 0.  1.
       -2   -1    0    0    0  501  0.00000000000E+00  0.00000000000E+00 -0.75909238275E+03  0.75909238276E+03  0.25500000920E-02 0. -1.
    10030    2    1    2    0    0  0.00000000000E+00  0.00000000000E+00  0.70560329708E+03  0.22237880626E+04  0.21088758461E+04 0.  0.
        3    1    3    3  502    0 -0.35587186173E+03  0.93317597475E+03  0.70942682647E+03  0.12250504537E+04  0.10100000352E+00 0.  1.
       -3    1    3    3    0  502  0.35587186173E+03 -0.93317597475E+03 -0.38235293867E+01  0.99873760888E+03  0.10100000352E+00 0. -1.
</event>
<event>
 5   0  0.3176125E-05  0.2113952E+04  0.7818609E-02  0.8555122E-01
        4   -1    0    0  501    0  0.00000000000E+00  0.00000000000E+00  0.14614517824E+04  0.14614523342E+04  0.12699999809E+01 0.  1.
       -4   -1    0    0    0  501  0.00000000000E+00  0.00000000000E+00 -0.76444306280E+03  0.76444411775E+03  0.12699999809E+01 0. -1.
    10030    2    1    2    0    0  0.00000000000E+00  0.00000000000E+00  0.69700871962E+03  0.22258964520E+04  0.21139521896E+04 0.  0.
        1    1    3    3  502    0  0.18053692673E+03  0.27295808390E+03 -0.70975402214E+03  0.78156923522E+03  0.50400001928E-02 0. -1.
       -1    1    3    3    0  502 -0.18053692673E+03 -0.27295808390E+03  0.14067627418E+04  0.14443272168E+04  0.50400001928E-02 0.  1.
</event>
<event>
 5   0  0.8547605E-05  0.2305634E+04  0.7818609E-02  0.8475703E-01
        2   -1    0    0  501    0  0.00000000000E+00  0.00000000000E+00  0.14971745004E+04  0.14971745004E+04  0.25500000920E-02 0. -1.
       -2   -1    0    0    0  501  0.00000000000E+00  0.00000000000E+00 -0.88766343373E+03  0.88766343373E+03  0.25500000920E-02 0.  1.
    10030    2    1    2    0    0  0.00000000000E+00  0.00000000000E+00  0.60951106664E+03  0.23848379341E+04  0.23056340194E+04 0.  0.
        4    1    3    3  502    0  0.51435694110E+03 -0.48805376792E+03 -0.63543939145E+03  0.95212623971E+03  0.12699999809E+01 0.  1.
       -4    1    3    3    0  502 -0.51435694110E+03  0.48805376792E+03  0.12449504581E+04  0.14327116944E+04  0.12699999809E+01 0. -1.
</event>
<event>
 5   0  0.8872777E-05  0.2097493E+04  0.7818609E-02  0.8562348E-01
       -2   -1    0    0    0  501  0.00000000000E+00  0.00000000000E+00  0.78018938780E+03  0.78018938781E+03  0.25500000920E-02 0.  1.
        2   -1    0    0  501    0  0.00000000000E+00  0.00000000000E+00 -0.14097466512E+04  0.14097466512E+04  0.25500000920E-02 0. -1.
    10030    2    1    2    0    0  0.00000000000E+00  0.00000000000E+00 -0.62955726340E+03  0.21899360390E+04  0.20974931483E+04 0.  0.
        3    1    3    3  502    0 -0.77353550541E+03  0.40642204323E+03  0.29072370201E+03  0.92089974290E+03  0.10100000352E+00 0.  1.
       -3    1    3    3    0  502  0.77353550541E+03 -0.40642204323E+03 -0.92028096541E+03  0.12690362961E+04  0.10100000352E+00 0. -1.
</event>
<event>
 5   0  0.4174093E-05  0.2105755E+04  0.7818609E-02  0.8558713E-01
       -1   -1    0    0    0  501  0.00000000000E+00  0.00000000000E+00  0.29179303713E+04  0.29179303713E+04  0.50400001928E-02 0.  1.
        1   -1    0    0  501    0  0.00000000000E+00  0.00000000000E+00 -0.37991001327E+03  0.37991001330E+03  0.50400001928E-02 0. -1.
    10030    2    1    2    0    0  0.00000000000E+00  0.00000000000E+00  0.25380203580E+04  0.32978403846E+04  0.21057549393E+04 0.  0.
        3    1    3    3  502    0  0.55309748930E+03 -0.31751706754E+02 -0.13318247763E+03  0.56979170413E+03  0.10100000352E+00 0. -1.
       -3    1    3    3    0  502 -0.55309748930E+03  0.31751706754E+02  0.26712028356E+04  0.27280486804E+04  0.10100000352E+00 0.  1.
</event>
<event>
 5   0  0.8858590E-05  0.2042839E+04  0.7818609E-02  0.8586850E-01
       -2   -1    0    0    0  501  0.00000000000E+00  0.00000000000E+00  0.68578095593E+03  0.68578095593E+03  0.25500000920E-02 0. -1.
        2   -1    0    0  501    0  0.00000000000E+00  0.00000000000E+00 -0.15213275257E+04  0.15213275257E+04  0.25500000920E-02 0.  1.
    10030    2    1    2    0    0  0.00000000000E+00  0.00000000000E+00 -0.83554656978E+03  0.22071084816E+04  0.20428386572E+04 0.  0.
        1    1    3    3  502    0  0.64642296342E+03 -0.74859933072E+03 -0.69329720491E+03  0.12078595200E+04  0.50400001928E-02 0. -1.
       -1    1    3    3    0  502 -0.64642296342E+03  0.74859933072E+03 -0.14224936486E+03  0.99924896168E+03  0.50400001928E-02 0.  1.
</event>
<event>
 5   0  0.4050368E-05  0.1937744E+04  0.7818609E-02  0.8636294E-01
       -1   -1    0    0    0  501  0.00000000000E+00  0.00000000000E+00  0.86820994738E+03  0.86820994739E+03  0.50400001928E-02 0.  1.
        1   -1    0    0  501    0  0.00000000000E+00  0.00000000000E+00 -0.10812046115E+04  0.10812046115E+04  0.50400001928E-02 0. -1.
    10030    2    1    2    0    0  0.00000000000E+00  0.00000000000E+00 -0.21299466409E+03  0.19494145589E+04  0.19377436351E+04 0.  0.
        2    1    3    3  502    0  0.29785640429E+03  0.30715316134E+03  0.76802024867E+03  0.87915675761E+03  0.25500000920E-02 0.  1.
       -2    1    3    3    0  502 -0.29785640429E+03 -0.30715316134E+03 -0.98101491275E+03  0.10702578013E+04  0.25500000920E-02 0. -1.
</event>
<event>
 5   0  0.4182977E-05  0.2094667E+04  0.7818609E-02  0.8563596E-01
        1   -1    0    0  501    0  0.00000000000E+00  0.00000000000E+00  0.96307068356E+03  0.96307068357E+03  0.50400001928E-02 0. -1.
       -1   -1    0    0    0  501  0.00000000000E+00  0.00000000000E+00 -0.11389684199E+04  0.11389684200E+04  0.50400001928E-02 0.  1.
    10030    2    1    2    0    0  0.00000000000E+00  0.00000000000E+00 -0.17589773639E+03  0.21020391035E+04  0.20946666511E+04 0.  0.
        1    1    3    3  502    0 -0.38700242937E+03  0.78542693181E+02  0.88549996470E+03  0.96956176827E+03  0.50400001928E-02 0. -1.
       -1    1    3    3    0  502  0.38700242937E+03 -0.78542693181E+02 -0.10613977011E+04  0.11324773353E+04  0.50400001928E-02 0.  1.
</event>
<event>
 5   0  0.8547605E-05  0.2107125E+04  0.7818609E-02  0.8558111E-01
        2   -1    0    0  501    0  0.00000000000E+00  0.00000000000E+00  0.94210352771E+03  0.94210352772E+03  0.25500000920E-02 0.  1.
       -2   -1    0    0    0  501  0.00000000000E+00  0.00000000000E+00 -0.11782085890E+04  0.11782085890E+04  0.25500000920E-02 0. -1.
    10030    2    1    2    0    0  0.00000000000E+00  0.00000000000E+00 -0.23610506131E+03  0.21203121167E+04  0.21071254999E+04 0.  0.
        4    1    3    3  502    0 -0.92143446569E+02 -0.51130805643E+03  0.80423476970E+03  0.95745575407E+03  0.12699999809E+01 0.  1.
       -4    1    3    3    0  502  0.92143446569E+02  0.51130805643E+03 -0.10403398310E+04  0.11628563627E+04  0.12699999809E+01 0. -1.
</event>
<event>
 5   0  0.8547605E-05  0.2070355E+04  0.7818609E-02  0.8574416E-01
        2   -1    0    0  501    0  0.00000000000E+00  0.00000000000E+00  0.97426829539E+03  0.97426829540E+03  0.25500000920E-02 0. -1.
       -2   -1    0    0    0  501  0.00000000000E+00  0.00000000000E+00 -0.10998944056E+04  0.10998944056E+04  0.25500000920E-02 0.  1.
    10030    2    1    2    0    0  0.00000000000E+00  0.00000000000E+00 -0.12562611019E+03  0.20741627010E+04  0.20703547982E+04 0.  0.
        4    1    3    3  502    0 -0.75907433251E+03 -0.59588794055E+03 -0.43808758948E+03  0.10598106571E+04  0.12699999809E+01 0.  1.
       -4    1    3    3    0  502  0.75907433251E+03  0.59588794055E+03  0.31246147930E+03  0.10143520439E+04  0.12699999809E+01 0. -1.
</event>
<event>
 5   0  0.8547605E-05  0.2105899E+04  0.7818609E-02  0.8558649E-01
       -2   -1    0    0    0  501  0.00000000000E+00  0.00000000000E+00  0.89054715505E+03  0.89054715505E+03  0.25500000920E-02 0. -1.
        2   -1    0    0  501    0  0.00000000000E+00  0.00000000000E+00 -0.12449684760E+04  0.12449684760E+04  0.25500000920E-02 0.  1.
    10030    2    1    2    0    0  0.00000000000E+00  0.00000000000E+00 -0.35442132092E+03  0.21355156310E+04  0.21058994605E+04 0.  0.
        4    1    3    3  502    0  0.86126192535E+03 -0.41729138020E+03  0.26805132573E+03  0.99385981214E+03  0.12699999809E+01 0. -1.
       -4    1    3    3    0  502 -0.86126192535E+03  0.41729138020E+03 -0.62247264666E+03  0.11416558189E+04  0.12699999809E+01 0.  1.
</event>
<event>
 5   0  0.3176125E-05  0.2078559E+04  0.7818609E-02  0.8570748E-01
        3   -1    0    0  501    0  0.00000000000E+00  0.00000000000E+00  0.12352183469E+04  0.12352183511E+04  0.10100000352E+00 0. -1.
       -3   -1    0    0    0  501  0.00000000000E+00  0.00000000000E+00 -0.87442184865E+03  0.87442185448E+03  0.10100000352E+00 0.  1.
    10030    2    1    2    0    0  0.00000000000E+00  0.00000000000E+00  0.36079649827E+03  0.21096402055E+04  0.20785590402E+04 0.  0.
        5    1    3    3  502    0  0.43376554653E+03  0.94378467257E+03  0.21552462589E+03  0.10608275128E+04  0.46999998093E+01 0. -1.
       -5    1    3    3    0  502 -0.43376554653E+03 -0.94378467257E+03  0.14527187239E+03  0.10488126927E+04  0.46999998093E+01 0.  1.
</event>
<event>
 5   0  0.4182977E-05  0.2346408E+04  0.7818609E-02  0.8459845E-01
        1   -1    0    0  501    0  0.00000000000E+00  0.00000000000E+00  0.25095962070E+04  0.25095962070E+04  0.50400001928E-02 0. -1.
       -1   -1    0    0    0  501  0.00000000000E+00  0.00000000000E+00 -0.54845790694E+03  0.54845790696E+03  0.50400001928E-02 0.  1.
    10030    2    1    2    0    0  0.00000000000E+00  0.00000000000E+00  0.19611383001E+04  0.30580541140E+04  0.23464082194E+04 0.  0.
        1    1    3    3  502    0 -0.11272567795E+04 -0.11107731033E+03  0.13787921679E+04  0.17844085457E+04  0.50400001928E-02 0.  1.
       -1    1    3    3    0  502  0.11272567795E+04  0.11107731033E+03  0.58234613223E+03  0.12736455683E+04  0.50400001928E-02 0. -1.
</event>
<event>
 5   0  0.3176125E-05  0.2010145E+04  0.7818609E-02  0.8601892E-01
        3   -1    0    0  501    0  0.00000000000E+00  0.00000000000E+00  0.85877030340E+03  0.85877030934E+03  0.10100000352E+00 0.  1.
       -3   -1    0    0    0  501  0.00000000000E+00  0.00000000000E+00 -0.11762990473E+04  0.11762990516E+04  0.10100000352E+00 0. -1.
    10030    2    1    2    0    0  0.00000000000E+00  0.00000000000E+00 -0.31752874387E+03  0.20350693609E+04  0.20101449701E+04 0.  0.
        5    1    3    3  502    0  0.38032441414E+03 -0.21440443320E+03  0.75774091990E+03  0.87453376873E+03  0.46999998093E+01 0.  1.
       -5    1    3    3    0  502 -0.38032441414E+03  0.21440443320E+03 -0.10752696638E+04  0.11605355922E+04  0.46999998093E+01 0. -1.
</event>
<event>
 5   0  0.8872777E-05  0.2109780E+04  0.7818609E-02  0.8556947E-01
        2   -1    0    0  501    0  0.00000000000E+00  0.00000000000E+00  0.72762599793E+03  0.72762599793E+03  0.25500000920E-02 0. -1.
       -2   -1    0    0    0  501  0.00000000000E+00  0.00000000000E+00 -0.15293471141E+04  0.15293471141E+04  0.25500000920E-02 0.  1.
    10030    2    1    2    0    0  0.00000000000E+00  0.00000000000E+00 -0.80172111613E+03  0.22569731120E+04  0.21097798179E+04 0.  0.
        3    1    3    3  502    0 -0.69816390561E+03  0.51889038893E+03  0.23752483760E+03  0.90171954259E+03  0.10100000352E+00 0. -1.
       -3    1    3    3    0  502  0.69816390561E+03 -0.51889038893E+03 -0.10392459537E+04  0.13552535694E+04  0.10100000352E+00 0.  1.
</event>
<event>
 5   0  0.8858590E-05  0.2100562E+04  0.7818609E-02  0.8560996E-01
        2   -1    0    0  501    0  0.00000000000E+00  0.00000000000E+00  0.15095448810E+04  0.15095448810E+04  0.25500000920E-02 0.  1.
       -2   -1    0    0    0  501  0.00000000000E+00  0.00000000000E+00 -0.73074347390E+03  0.73074347391E+03  0.25500000920E-02 0. -1.
    10030    2    1    2    0    0  0.00000000000E+00  0.00000000000E+00  0.77880140712E+03  0.22402883549E+04  0.21005618966E+04 0.  0.
        1    1    3    3  502    0 -0.23540365757E+03 -0.32759167172E+03 -0.64482482671E+03  0.76061175545E+03  0.50400001928E-02 0. -1.
       -1    1    3    3    0  502  0.23540365757E+03  0.32759167172E+03  0.14236262338E+04  0.14796765995E+04  0.50400001928E-02 0.  1.
</event>
<event>
 5   0  0.3176125E-05  0.2181934E+04  0.7818609E-02  0.8525986E-01
       -4   -1    0    0    0  501  0.00000000000E+00  0.00000000000E+00  0.12425653348E+04  0.12425659838E+04  0.12699999809E+01 0. -1.
        4   -1    0    0  501    0  0.00000000000E+00  0.00000000000E+00 -0.95786274656E+03  0.95786358848E+03  0.12699999809E+01 0.  1.
    10030    2    1    2    0    0  0.00000000000E+00  0.00000000000E+00  0.28470258820E+03  0.22004295723E+04  0.21819337155E+04 0.  0.
        5    1    3    3  502    0 -0.35659106646E+03  0.91513242321E+03 -0.33660836957E+03  0.10382445883E+04  0.46999998093E+01 0.  1.
       -5    1    3    3    0  502  0.35659106646E+03 -0.91513242321E+03  0.62131095777E+03  0.11621849840E+04  0.46999998093E+01 0. -1.
</event>
<event>
 5   0  0.4182977E-05  0.2086660E+04  0.7818609E-02  0.8567143E-01
        1   -1    0    0  501    0  0.00000000000E+00  0.00000000000E+00  0.88137158194E+03  0.88137158195E+03  0.50400001928E-02 0.  1.
       -1   -1    0    0    0  501  0.00000000000E+00  0.00000000000E+00 -0.12350493107E+04  0.12350493107E+04  0.50400001928E-02 0. -1.
    10030    2    1    2    0    0  0.00000000000E+00  0.00000000000E+00 -0.35367772879E+03  0.21164208927E+04  0.20866598810E+04 0.  0.
        1    1    3    3  502    0 -0.38494035769E+03  0.10337871679E+03 -0.11547852489E+04  0.12216362835E+04  0.50400001928E-02 0. -1.
       -1    1    3    3    0  502  0.38494035769E+03 -0.10337871679E+03  0.80110752010E+03  0.89478460919E+03  0.50400001928E-02 0.  1.
</event>
<event>
 5   0  0.4050368E-05  0.2067976E+04  0.7818609E-02  0.8575483E-01
        1   -1    0    0  501    0  0.00000000000E+00  0.00000000000E+00  0.73268200134E+03  0.73268200135E+03  0.50400001928E-02 0. -1.
       -1   -1    0    0    0  501  0.00000000000E+00  0.00000000000E+00 -0.14592028226E+04  0.14592028226E+04  0.50400001928E-02 0.  1.
    10030    2    1    2    0    0  0.00000000000E+00  0.00000000000E+00 -0.72652082130E+03  0.21918848240E+04  0.20679764452E+04 0.  0.
        2    1    3    3  502    0 -0.92437839307E+03  0.37828429596E+03 -0.79730501344E+02  0.10019637593E+04  0.25500000920E-02 0. -1.
       -2    1    3    3    0  502  0.92437839307E+03 -0.37828429596E+03 -0.64679031996E+03  0.11899210647E+04  0.25500000920E-02 0.  1.
</event>
<event>
 5   0  0.8872777E-05  0.2081940E+04  0.7818609E-02  0.8569241E-01
        2   -1    0    0  501    0  0.00000000000E+00  0.00000000000E+00  0.66780261065E+03  0.66780261065E+03  0.25500000920E-02 0.  1.
       -2   -1    0    0    0  501  0.00000000000E+00  0.00000000000E+00 -0.16226633404E+04  0.16226633404E+04  0.25500000920E-02 0. -1.
    10030    2    1    2    0    0  0.00000000000E+00  0.00000000000E+00 -0.95486072977E+03  0.22904659511E+04  0.20819402633E+04 0.  0.
        3    1    3    3  502    0  0.56620852719E+03  0.34738507295E+03  0.40431167607E+03  0.77764800956E+03  0.10100000352E+00 0.  1.
       -3    1    3    3    0  502 -0.56620852719E+03 -0.34738507295E+03 -0.13591724058E+04  0.15128179415E+04  0.10100000352E+00 0. -1.
</event>
<event>
 5   0  0.4050368E-05  0.2111120E+04  0.7818609E-02  0.8556361E-01
       -1   -1    0    0    0  501  0.00000000000E+00  0.00000000000E+00  0.11376630669E+04  0.11376630669E+04  0.50400001928E-02 0. -1.
        1   -1    0    0  501    0  0.00000000000E+00  0.00000000000E+00 -0.97938213893E+03  0.97938213894E+03  0.50400001928E-02 0.  1.
    10030    2    1    2    0    0  0.00000000000E+00  0.00000000000E+00  0.15828092798E+03  0.21170452059E+04  0.21111199756E+04 0.  0.
        2    1    3    3  502    0  0.27414025105E+03 -0.56390856703E+03  0.93067695120E+03  0.11221877458E+04  0.25500000920E-02 0. -1.
       -2    1    3    3    0  502 -0.27414025105E+03  0.56390856703E+03 -0.77239602323E+03  0.99485746010E+03  0.25500000920E-02 0.  1.
</event>
<event>
 5   0  0.8547605E-05  0.2052084E+04  0.7818609E-02  0.8582649E-01
        2   -1    0    0  501    0  0.00000000000E+00  0.00000000000E+00  0.19353167170E+04  0.19353167170E+04  0.25500000920E-02 0.  1.
       -2   -1    0    0    0  501  0.00000000000E+00  0.00000000000E+00 -0.54397419211E+03  0.54397419211E+03  0.25500000920E-02 0. -1.
    10030    2    1    2    0    0  0.00000000000E+00  0.00000000000E+00  0.13913425249E+04  0.24792909092E+04  0.20520841578E+04 0.  0.
        4    1    3    3  502    0 -0.76557306307E+03 -0.46016000209E+03  0.13056672003E+04  0.15819664324E+04  0.12699999809E+01 0. -1.
       -4    1    3    3    0  502  0.76557306307E+03  0.46016000209E+03  0.85675324621E+02  0.89732447674E+03  0.12699999809E+01 0.  1.
</event>
<event>
 5   0  0.4174093E-05  0.2112736E+04  0.7818609E-02  0.8555654E-01
       -1   -1    0    0    0  501  0.00000000000E+00  0.00000000000E+00  0.14929939444E+04  0.14929939444E+04  0.50400001928E-02 0.  1.
        1   -1    0    0  501    0  0.00000000000E+00  0.00000000000E+00 -0.74743299681E+03  0.74743299683E+03  0.50400001928E-02 0. -1.
    10030    2    1    2    0    0  0.00000000000E+00  0.00000000000E+00  0.74556094754E+03  0.22404269412E+04  0.21127356087E+04 0.  0.
        3    1    3    3  502    0  0.72694042762E+03 -0.41205269185E+03 -0.31256428742E+03  0.89214698909E+03  0.10100000352E+00 0. -1.
       -3    1    3    3    0  502 -0.72694042762E+03  0.41205269185E+03  0.10581252350E+04  0.13482799521E+04  0.10100000352E+00 0.  1.
</event>
<event>
 5   0  0.4182977E-05  0.2112820E+04  0.7818609E-02  0.8555617E-01
        1   -1    0    0  501    0  0.00000000000E+00  0.00000000000E+00  0.77058785951E+03  0.77058785952E+03  0.50400001928E-02 0. -1.
       -1   -1    0    0    0  501  0.00000000000E+00  0.00000000000E+00 -0.14482480472E+04  0.14482480472E+04  0.50400001928E-02 0.  1.
    10030    2    1    2    0    0  0.00000000000E+00  0.00000000000E+00 -0.67766018770E+03  0.22188359067E+04  0.21128202600E+04 0.  0.
        1    1    3    3  502    0  0.87629658056E+03 -0.12082459338E+03 -0.94530915989E+03  0.12946442319E+04  0.50400001928E-02 0.  1.
       -1    1    3    3    0  502 -0.87629658056E+03  0.12082459338E+03  0.26764897219E+03  0.92419167482E+03  0.50400001928E-02 0. -1.
</event>
<event>
 5   0  0.8547605E-05  0.2078859E+04  0.7818609E-02  0.8570614E-01
        2   -1    0    0  501    0  0.00000000000E+00  0.00000000000E+00  0.71677429130E+03  0.71677429130E+03  0.25500000920E-02 0. -1.
       -2   -1    0    0    0  501  0.00000000000E+00  0.00000000000E+00 -0.15073279229E+04  0.15073279229E+04  0.25500000920E-02 0.  1.
    10030    2    1    2    0    0  0.00000000000E+00  0.00000000000E+00 -0.79055363155E+03  0.22241022142E+04  0.20788592099E+04 0.  0.
        4    1    3    3  502    0 -0.75072066943E+03  0.41968827009E+03  0.22919230214E+03  0.89008454195E+03  0.12699999809E+01 0. -1.
       -4    1    3    3    0  502  0.75072066943E+03 -0.41968827009E+03 -0.10197459337E+04  0.13340176722E+04  0.12699999809E+01 0.  1.
</event>
<event>
 5   0  0.9086985E-05  0.2101601E+04  0.7818609E-02  0.8560538E-01
       -2   -1    0    0    0  501  0.00000000000E+00  0.00000000000E+00  0.78209423231E+03  0.78209423231E+03  0.25500000920E-02 0.  1.
        2   -1    0    0  501    0  0.00000000000E+00  0.00000000000E+00 -0.14118268880E+04  0.14118268880E+04  0.25500000920E-02 0. -1.
    10030    2    1    2    0    0  0.00000000000E+00  0.00000000000E+00 -0.62973265568E+03  0.21939211203E+04  0.21016009765E+04 0.  0.
        5    1    3    3  502    0  0.64011106161E+03  0.50440589005E+03  0.37759127560E+03  0.89820083195E+03  0.46999998093E+01 0. -1.
       -5    1    3    3    0  502 -0.64011106161E+03 -0.50440589005E+03 -0.10073239313E+04  0.12957202883E+04  0.46999998093E+01 0.  1.
</event>
<event>
 5   0  0.4050368E-05  0.2072378E+04  0.7818609E-02  0.8573510E-01
        1   -1    0    0  501    0  0.00000000000E+00  0.00000000000E+00  0.47353096209E+03  0.47353096212E+03  0.50400001928E-02 0.  1.
       -1   -1    0    0    0  501  0.00000000000E+00  0.00000000000E+00 -0.22674075572E+04  0.22674075572E+04  0.50400001928E-02 0. -1.
    10030    2    1    2    0    0  0.00000000000E+00  0.00000000000E+00 -0.17938765951E+04  0.27409385194E+04  0.20723780370E+04 0.  0.
        2    1    3    3  502    0 -0.53859306159E+03 -0.65613096609E+03 -0.16828568542E+04  0.18848335529E+04  0.25500000920E-02 0. -1.
       -2    1    3    3    0  502  0.53859306159E+03  0.65613096609E+03 -0.11101974099E+03  0.85610496643E+03  0.25500000920E-02 0.  1.
</event>
<event>
 5   0  0.4050368E-05  0.2093746E+04  0.7818609E-02  0.8564003E-01
        1   -1    0    0  501    0  0.00000000000E+00  0.00000000000E+00  0.15075818525E+04  0.15075818526E+04  0.50400001928E-02 0. -1.
       -1   -1    0    0    0  501  0.00000000000E+00  0.00000000000E+00 -0.72695437171E+03  0.72695437172E+03  0.50400001928E-02 0.  1.
    10030    2    1    2    0    0  0.00000000000E+00  0.00000000000E+00  0.78062748084E+03  0.22345362243E+04  0.20937461340E+04 0.  0.
        2    1    3    3  502    0 -0.29740978422E+03  0.32690335344E+03  0.14031408950E+04  0.14710957662E+04  0.25500000920E-02 0. -1.
       -2    1    3    3    0  502  0.29740978422E+03 -0.32690335344E+03 -0.62251341412E+03  0.76344045807E+03  0.25500000920E-02 0.  1.
</event>
<event>
 5   0  0.4182977E-05  0.2124787E+04  0.7818609E-02  0.8550402E-01
       -1   -1    0    0    0  501  0.00000000000E+00  0.00000000000E+00  0.68185079620E+03  0.68185079622E+03  0.50400001928E-02 0.  1.
        1   -1    0    0  501    0  0.00000000000E+00  0.00000000000E+00 -0.16553187298E+04  0.16553187298E+04  0.50400001928E-02 0. -1.
    10030    2    1    2    0    0  0.00000000000E+00  0.00000000000E+00 -0.97346793356E+03  0.23371695260E+04  0.21247874189E+04 0.  0.
        1    1    3    3  502    0 -0.65191145871E+03 -0.82379542953E+03 -0.31263185967E+03  0.10960684921E+04  0.50400001928E-02 0.  1.
       -1    1    3    3    0  502  0.65191145871E+03  0.82379542953E+03 -0.66083607389E+03  0.12411010339E+04  0.50400001928E-02 0. -1.
</event>
<event>
 5   0  0.4128678E-05  0.2100743E+04  0.7818609E-02  0.8560916E-01
        1   -1    0    0  501    0  0.00000000000E+00  0.00000000000E+00  0.88859555530E+03  0.88859555531E+03  0.50400001928E-02 0.  1.
       -1   -1    0    0    0  501  0.00000000000E+00  0.00000000000E+00 -0.12415998713E+04  0.12415998713E+04  0.50400001928E-02 0. -1.
    10030    2    1    2    0    0  0.00000000000E+00  0.00000000000E+00 -0.35300431597E+03  0.21301954266E+04  0.21007428468E+04 0.  0.
        5    1    3    3  502    0 -0.68673398085E+03  0.52785816329E+03 -0.77898731927E+03  0.11649382535E+04  0.46999998093E+01 0. -1.
       -5    1    3    3    0  502  0.68673398085E+03 -0.52785816329E+03  0.42598300330E+03  0.96525717304E+03  0.46999998093E+01 0.  1.
</event>
<event>
 5   0  0.4174093E-05  0.2109537E+04  0.7818609E-02  0.8557054E-01
       -1   -1    0    0    0  501  0.00000000000E+00  0.00000000000E+00  0.75354610842E+03  0.75354610844E+03  0.50400001928E-02 0.  1.
        1   -1    0    0  501    0  0.00000000000E+00  0.00000000000E+00 -0.14764009067E+04  0.14764009067E+04  0.50400001928E-02 0. -1.
    10030    2    1    2    0    0  0.00000000000E+00  0.00000000000E+00 -0.72285479825E+03  0.22299470151E+04  0.21095365915E+04 0.  0.
        3    1    3    3  502    0 -0.48926606601E+03  0.43148050535E+03 -0.12375791844E+04  0.13989849740E+04  0.10100000352E+00 0. -1.
       -3    1    3    3    0  502  0.48926606601E+03 -0.43148050535E+03  0.51472438611E+03  0.83096204107E+03  0.10100000352E+00 0.  1.
</event>
<event>
 5   0  0.8858590E-05  0.2084627E+04  0.7818609E-02  0.8568046E-01
       -2   -1    0    0    0  501  0.00000000000E+00  0.00000000000E+00  0.88323266752E+03  0.88323266752E+03  0.25500000920E-02 0.  1.
        2   -1    0    0  501    0  0.00000000000E+00  0.00000000000E+00 -0.12300463843E+04  0.12300463843E+04  0.25500000920E-02 0. -1.
    10030    2    1    2    0    0  0.00000000000E+00  0.00000000000E+00 -0.34681371677E+03  0.21132790518E+04  0.20846267284E+04 0.  0.
        1    1    3    3  502    0 -0.25036277191E+02  0.63386893218E+03  0.66500373926E+03  0.91904657750E+03  0.50400001928E-02 0.  1.
       -1    1    3    3    0  502  0.25036277191E+02 -0.63386893218E+03 -0.10118174560E+04  0.11942324743E+04  0.50400001928E-02 0. -1.
</event>
<event>
 5   0  0.4128678E-05  0.2119506E+04  0.7818609E-02  0.8552699E-01
        1   -1    0    0  501    0  0.00000000000E+00  0.00000000000E+00  0.12300628148E+04  0.12300628148E+04  0.50400001928E-02 0. -1.
       -1   -1    0    0    0  501  0.00000000000E+00  0.00000000000E+00 -0.91302401014E+03  0.91302401015E+03  0.50400001928E-02 0.  1.
    10030    2    1    2    0    0  0.00000000000E+00  0.00000000000E+00  0.31703880465E+03  0.21430868250E+04  0.21195064368E+04 0.  0.
        5    1    3    3  502    0  0.54466104977E+01  0.46089315285E+03 -0.80635209355E+03  0.92880458261E+03  0.46999998093E+01 0.  1.
       -5    1    3    3    0  502 -0.54466104977E+01 -0.46089315285E+03  0.11233908982E+04  0.12142822423E+04  0.46999998093E+01 0. -1.
</event>
<event>
 5   0  0.4182977E-05  0.2102591E+04  0.7818609E-02  0.8560103E-01
       -1   -1    0    0    0  501  0.00000000000E+00  0.00000000000E+00  0.80777567302E+03  0.80777567303E+03  0.50400001928E-02 0. -1.
        1   -1    0    0  501    0  0.00000000000E+00  0.00000000000E+00 -0.13682286989E+04  0.13682286989E+04  0.50400001928E-02 0.  1.
    10030    2    1    2    0    0  0.00000000000E+00  0.00000000000E+00 -0.56045302592E+03  0.21760043720E+04  0.21025906479E+04 0.  0.
        1    1    3    3  502    0  0.27661650479E+03 -0.46395494481E+03  0.65317978670E+03  0.84759348471E+03  0.50400001928E-02 0. -1.
       -1    1    3    3    0  502 -0.27661650479E+03  0.46395494481E+03 -0.12136328126E+04  0.13284108873E+04  0.50400001928E-02 0.  1.
</event>
<event>
 5   0  0.4182977E-05  0.2080937E+04  0.7818609E-02  0.8569688E-01
       -1   -1    0    0    0  501  0.00000000000E+00  0.00000000000E+00  0.10312774023E+04  0.10312774023E+04  0.50400001928E-02 0. -1.
        1   -1    0    0  501    0  0.00000000000E+00  0.00000000000E+00 -0.10497412019E+04  0.10497412019E+04  0.50400001928E-02 0.  1.
    10030    2    1    2    0    0  0.00000000000E+00  0.00000000000E+00 -0.18463799617E+02  0.20810186042E+04  0.20809366927E+04 0.  0.
        1    1    3    3  502    0 -0.53335534854E+03 -0.38544092249E+03  0.79674135270E+03  0.10333583191E+04  0.50400001928E-02 0. -1.
       -1    1    3    3    0  502  0.53335534854E+03  0.38544092249E+03 -0.81520515232E+03  0.10476602851E+04  0.50400001928E-02 0.  1.
</event>
<event>
 5   0  0.4050368E-05  0.2115998E+04  0.7818609E-02  0.8554229E-01
        1   -1    0    0  501    0  0.00000000000E+00  0.00000000000E+00  0.14201449172E+04  0.14201449172E+04  0.50400001928E-02 0.  1.
       -1   -1    0    0    0  501  0.00000000000E+00  0.00000000000E+00 -0.78820255229E+03  0.78820255230E+03  0.50400001928E-02 0. -1.
    10030    2    1    2    0    0  0.00000000000E+00  0.00000000000E+00  0.63194236487E+03  0.22083474695E+04  0.21159979663E+04 0.  0.
        2    1    3    3  502    0 -0.42330606689E+03 -0.29996890200E+03 -0.64632949511E+03  0.82880105254E+03  0.25500000920E-02 0. -1.
       -2    1    3    3    0  502  0.42330606689E+03  0.29996890200E+03  0.12782718600E+04  0.13795464169E+04  0.25500000920E-02 0.  1.
</event>
<event>
 5   0  0.4174093E-05  0.2098777E+04  0.7818609E-02  0.8561782E-01
        1   -1    0    0  501    0  0.00000000000E+00  0.00000000000E+00  0.16611261575E+04  0.16611261575E+04  0.50400001928E-02 0.  1.
       -1   -1    0    0    0  501  0.00000000000E+00  0.00000000000E+00 -0.66293359610E+03  0.66293359612E+03  0.50400001928E-02 0. -1.
    10030    2    1    2    0    0  0.00000000000E+00  0.00000000000E+00  0.99819256143E+03  0.23240597537E+04  0.20987771080E+04 0.  0.
        3    1    3    3  502    0 -0.85650799564E+03 -0.54949295011E+03  0.78286038918E+03  0.12839076478E+04  0.10100000352E+00 0.  1.
       -3    1    3    3    0  502  0.85650799564E+03  0.54949295011E+03  0.21533217225E+03  0.10401521059E+04  0.10100000352E+00 0. -1.
</event>
<event>
 5   0  0.8858590E-05  0.2083066E+04  0.7818609E-02  0.8568740E-01
       -2   -1    0    0    0  501  0.00000000000E+00  0.00000000000E+00  0.14876149353E+04  0.14876149353E+04  0.25500000920E-02 0.  1.
        2   -1    0    0  501    0  0.00000000000E+00  0.00000000000E+00 -0.72921485374E+03  0.72921485374E+03  0.25500000920E-02 0. -1.
    10030    2    1    2    0    0  0.00000000000E+00  0.00000000000E+00  0.75840008160E+03  0.22168297891E+04  0.20830659207E+04 0.  0.
        1    1    3    3  502    0 -0.33864343001E+03  0.98477282231E+03  0.39864995402E+03  0.11150689082E+04  0.50400001928E-02 0. -1.
       -1    1    3    3    0  502  0.33864343001E+03 -0.98477282231E+03  0.35975012759E+03  0.11017608809E+04  0.50400001928E-02 0.  1.
</event>
<event>
 5   0  0.8872777E-05  0.2107109E+04  0.7818609E-02  0.8558118E-01
        2   -1    0    0  501    0  0.00000000000E+00  0.00000000000E+00  0.12620495878E+04  0.12620495878E+04  0.25500000920E-02 0. -1.
       -2   -1    0    0    0  501  0.00000000000E+00  0.00000000000E+00 -0.87950360522E+03  0.87950360522E+03  0.25500000920E-02 0.  1.
    10030    2    1    2    0    0  0.00000000000E+00  0.00000000000E+00  0.38254598262E+03  0.21415531931E+04  0.21071090740E+04 0.  0.
        3    1    3    3  502    0 -0.19995749845E+03  0.64824263241E+03 -0.62799042435E+03  0.92443144415E+03  0.10100000352E+00 0.  1.
       -3    1    3    3    0  502  0.19995749845E+03 -0.64824263241E+03  0.10105364070E+04  0.12171217489E+04  0.10100000352E+00 0. -1.
</event>
<event>
 5   0  0.4174093E-05  0.2192058E+04  0.7818609E-02  0.8521741E-01
       -1   -1    0    0    0  501  0.00000000000E+00  0.00000000000E+00  0.63922746281E+03  0.63922746283E+03  0.50400001928E-02 0.  1.
        1   -1    0    0  501    0  0.00000000000E+00  0.00000000000E+00 -0.18792674968E+04  0.18792674968E+04  0.50400001928E-02 0. -1.
    10030    2    1    2    0    0  0.00000000000E+00  0.00000000000E+00 -0.12400400340E+04  0.25184949596E+04  0.21920578404E+04 0.  0.
        3    1    3    3  502    0 -0.76431082809E+03 -0.41127624034E+03  0.14894890767E+03  0.88062760296E+03  0.10100000352E+00 0.  1.
       -3    1    3    3    0  502  0.76431082809E+03  0.41127624034E+03 -0.13889889416E+04  0.16378673566E+04  0.10100000352E+00 0. -1.
</event>
<event>
 5   0  0.9086985E-05  0.2105739E+04  0.7818609E-02  0.8558719E-01
       -2   -1    0    0    0  501  0.00000000000E+00  0.00000000000E+00  0.84401972741E+03  0.84401972742E+03  0.25500000920E-02 0. -1.
        2   -1    0    0  501    0  0.00000000000E+00  0.00000000000E+00 -0.13133987348E+04  0.13133987348E+04  0.25500000920E-02 0.  1.
    10030    2    1    2    0    0  0.00000000000E+00  0.00000000000E+00 -0.46937900737E+03  0.21574184622E+04  0.21057392451E+04 0.  0.
        5    1    3    3  502    0  0.65773652519E+03  0.47908483662E+03  0.44981865574E+03  0.92978413102E+03  0.46999998093E+01 0. -1.
       -5    1    3    3    0  502 -0.65773652519E+03 -0.47908483662E+03 -0.91919766311E+03  0.12276343312E+04  0.46999998093E+01 0.  1.
</event>
<event>
 5   0  0.4200061E-05  0.2062531E+04  0.7818609E-02  0.8577931E-01
        1   -1    0    0  501    0  0.00000000000E+00  0.00000000000E+00  0.14732109641E+04  0.14732109641E+04  0.50400001928E-02 0. -1.
       -1   -1    0    0    0  501  0.00000000000E+00  0.00000000000E+00 -0.72189859575E+03  0.72189859577E+03  0.50400001928E-02 0.  1.
    10030    2    1    2    0    0  0.00000000000E+00  0.00000000000E+00  0.75131236834E+03  0.21951095599E+04  0.20625313828E+04 0.  0.
        4    1    3    3  502    0  0.57021300334E+03 -0.59856165074E+03  0.10317983387E+04  0.13221302294E+04  0.12699999809E+01 0. -1.
       -4    1    3    3    0  502 -0.57021300334E+03  0.59856165074E+03 -0.28048597036E+03  0.87297933045E+03  0.12699999809E+01 0.  1.
</event>
<event>
 5   0  0.4050368E-05  0.2017304E+04  0.7818609E-02  0.8598573E-01
       -1   -1    0    0    0  501  0.00000000000E+00  0.00000000000E+00  0.72195538188E+03  0.72195538190E+03  0.50400001928E-02 0. -1.
        1   -1    0    0  501    0  0.00000000000E+00  0.00000000000E+00 -0.14091985480E+04  0.14091985480E+04  0.50400001928E-02 0.  1.
    10030    2    1    2    0    0  0.00000000000E+00  0.00000000000E+00 -0.68724316611E+03  0.21311539299E+04  0.20173036221E+04 0.  0.
        2    1    3    3  502    0  0.29781259637E+03  0.57729749859E+03  0.47155739975E+03  0.80270238924E+03  0.25500000920E-02 0. -1.
       -2    1    3    3    0  502 -0.29781259637E+03 -0.57729749859E+03 -0.11588005659E+04  0.13284515407E+04  0.25500000920E-02 0.  1.
</event>
<event>
 5   0  0.4182977E-05  0.2115584E+04  0.7818609E-02  0.8554409E-01
        1   -1    0    0  501    0  0.00000000000E+00  0.00000000000E+00  0.15044473184E+04  0.15044473184E+04  0.50400001928E-02 0. -1.
       -1   -1    0    0    0  501  0.00000000000E+00  0.00000000000E+00 -0.74374414037E+03  0.74374414039E+03  0.50400001928E-02 0.  1.
    10030    2    1    2    0    0  0.00000000000E+00  0.00000000000E+00  0.76070317802E+03  0.22481914588E+04  0.21155839644E+04 0.  0.
        1    1    3    3  502    0 -0.17978202388E+03 -0.75388728561E+03 -0.38467284490E+03  0.86524032103E+03  0.50400001928E-02 0.  1.
       -1    1    3    3    0  502  0.17978202388E+03  0.75388728561E+03  0.11453760229E+04  0.13829511377E+04  0.50400001928E-02 0. -1.
</event>
<event>
 5   0  0.4128678E-05  0.1960803E+04  0.7818609E-02  0.8625169E-01
        1   -1    0    0  501    0  0.00000000000E+00  0.00000000000E+00  0.86058264320E+03  0.86058264321E+03  0.50400001928E-02 0.  1.
       -1   -1    0    0    0  501  0.00000000000E+00  0.00000000000E+00 -0.11169027457E+04  0.11169027457E+04  0.50400001928E-02 0. -1.
    10030    2    1    2    0    0  0.00000000000E+00  0.00000000000E+00 -0.25632010249E+03  0.19774853889E+04  0.19608030162E+04 0.  0.
        5    1    3    3  502    0  0.26402955604E+03  0.67913071324E+03 -0.78966353066E+03  0.10744862557E+04  0.46999998093E+01 0. -1.
       -5    1    3    3    0  502 -0.26402955604E+03 -0.67913071324E+03  0.53334342817E+03  0.90299913317E+03  0.46999998093E+01 0.  1.
</event>
<event>
 5   0  0.9086985E-05  0.2113280E+04  0.7818609E-02  0.8555416E-01
       -2   -1    0    0    0  501  0.00000000000E+00  0.00000000000E+00  0.95409404431E+03  0.95409404431E+03  0.25500000920E-02 0.  1.
        2   -1    0    0  501    0  0.00000000000E+00  0.00000000000E+00 -0.11702078366E+04  0.11702078366E+04  0.25500000920E-02 0. -1.
    10030    2    1    2    0    0  0.00000000000E+00  0.00000000000E+00 -0.21611379225E+03  0.21243018809E+04  0.21132802251E+04 0.  0.
        5    1    3    3  502    0 -0.97872059822E+03  0.30836348627E+03  0.14521787436E+03  0.10363842772E+04  0.46999998093E+01 0.  1.
       -5    1    3    3    0  502  0.97872059822E+03 -0.30836348627E+03 -0.36133166661E+03  0.10879176037E+04  0.46999998093E+01 0. -1.
</event>
<event>
 5   0  0.8547605E-05  0.2114717E+04  0.7818609E-02  0.8554788E-01
       -2   -1    0    0    0  501  0.00000000000E+00  0.00000000000E+00  0.48622793627E+03  0.48622793628E+03  0.25500000920E-02 0.  1.
        2   -1    0    0  501    0  0.00000000000E+00  0.00000000000E+00 -0.22993480535E+04  0.22993480535E+04  0.25500000920E-02 0. -1.
    10030    2    1    2    0    0  0.00000000000E+00  0.00000000000E+00 -0.18131201173E+04  0.27855759898E+04  0.21147172472E+04 0.  0.
        4    1    3    3  502    0 -0.10255146549E+04 -0.25704669873E+03 -0.88563580874E+03  0.13791684855E+04  0.12699999809E+01 0. -1.
       -4    1    3    3    0  502  0.10255146549E+04  0.25704669873E+03 -0.92748430853E+03  0.14064075043E+04  0.12699999809E+01 0.  1.
</event>
<event>
 5   0  0.4128678E-05  0.2097725E+04  0.7818609E-02  0.8562246E-01
       -1   -1    0    0    0  501  0.00000000000E+00  0.00000000000E+00  0.51539960258E+03  0.51539960260E+03  0.50400001928E-02 0.  1.
        1   -1    0    0  501    0  0.00000000000E+00  0.00000000000E+00 -0.21344855459E+04  0.21344855459E+04  0.50400001928E-02 0. -1.
    10030    2    1    2    0    0  0.00000000000E+00  0.00000000000E+00 -0.16190859433E+04  0.26498851485E+04  0.20977254368E+04 0.  0.
        5    1    3    3  502    0  0.31200462083E+02  0.10307085010E+04 -0.10517300520E+04  0.14729194394E+04  0.46999998093E+01 0. -1.
       -5    1    3    3    0  502 -0.31200462083E+02 -0.10307085010E+04 -0.56735589132E+03  0.11769657090E+04  0.46999998093E+01 0.  1.
</event>
<event>
 5   0  0.3176125E-05  0.2103687E+04  0.7818609E-02  0.8559621E-01
        3   -1    0    0  501    0  0.00000000000E+00  0.00000000000E+00  0.18035398327E+04  0.18035398356E+04  0.10100000352E+00 0.  1.
       -3   -1    0    0    0  501  0.00000000000E+00  0.00000000000E+00 -0.61344643139E+03  0.61344643971E+03  0.10100000352E+00 0. -1.
    10030    2    1    2    0    0  0.00000000000E+00  0.00000000000E+00  0.11900934013E+04  0.24169862753E+04  0.21036873225E+04 0.  0.
        2    1    3    3  502    0 -0.52108752749E+03  0.61225326186E+03  0.13742784379E+04  0.15921769666E+04  0.25500000920E-02 0. -1.
       -2    1    3    3    0  502  0.52108752749E+03 -0.61225326186E+03 -0.18418503659E+03  0.82480930868E+03  0.25500000920E-02 0.  1.
</event>
<event>
 5   0  0.8858590E-05  0.2114495E+04  0.7818609E-02  0.8554885E-01
       -2   -1    0    0    0  501  0.00000000000E+00  0.00000000000E+00  0.56328934353E+03  0.56328934354E+03  0.25500000920E-02 0. -1.
        2   -1    0    0  501    0  0.00000000000E+00  0.00000000000E+00 -0.19843659428E+04  0.19843659428E+04  0.25500000920E-02 0.  1.
    10030    2    1    2    0    0  0.00000000000E+00  0.00000000000E+00 -0.14210765993E+04  0.25476552864E+04  0.21144949177E+04 0.  0.
        1    1    3    3  502    0 -0.82444054792E+03  0.61250937285E+03 -0.40835735385E+03  0.11052717663E+04  0.50400001928E-02 0. -1.
       -1    1    3    3    0  502  0.82444054792E+03 -0.61250937285E+03 -0.10127192454E+04  0.14423835201E+04  0.50400001928E-02 0.  1.
</event>
<event>
 5   0  0.8547605E-05  0.2080712E+04  0.7818609E-02  0.8569788E-01
        2   -1    0    0  501    0  0.00000000000E+00  0.00000000000E+00  0.13231565926E+04  0.13231565926E+04  0.25500000920E-02 0.  1.
       -2   -1    0    0    0  501  0.00000000000E+00  0.00000000000E+00 -0.81799887664E+03  0.81799887664E+03  0.25500000920E-02 0. -1.
    10030    2    1    2    0    0  0.00000000000E+00  0.00000000000E+00  0.50515771593E+03  0.21411554692E+04  0.20807119996E+04 0.  0.
        4    1    3    3  502    0 -0.23122782793E+03 -0.10017518845E+04  0.41647204997E+03  0.11092446655E+04  0.12699999809E+01 0.  1.
       -4    1    3    3    0  502  0.23122782793E+03  0.10017518845E+04  0.88685665960E+02  0.10319108037E+04  0.12699999809E+01 0. -1.
</event>
<event>
 5   0  0.8547605E-05  0.2137307E+04  0.7818609E-02  0.8544985E-01
       -2   -1    0    0    0  501  0.00000000000E+00  0.00000000000E+00  0.14072930156E+04  0.14072930156E+04  0.25500000920E-02 0.  1.
        2   -1    0    0  501    0  0.00000000000E+00  0.00000000000E+00 -0.81150150580E+03  0.81150150581E+03  0.25500000920E-02 0. -1.
    10030    2    1    2    0    0  0.00000000000E+00  0.00000000000E+00  0.59579150976E+03  0.22187945214E+04  0.21373070919E+04 0.  0.
        4    1    3    3  502    0  0.86540751317E+03 -0.56977351241E+03  0.26297713138E+02  0.10364676560E+04  0.12699999809E+01 0.  1.
       -4    1    3    3    0  502 -0.86540751317E+03  0.56977351241E+03  0.56949379662E+03  0.11823268654E+04  0.12699999809E+01 0. -1.
</event>
<event>
 5   0  0.4200061E-05  0.2135898E+04  0.7818609E-02  0.8545593E-01
       -1   -1    0    0    0  501  0.00000000000E+00  0.00000000000E+00  0.98574421921E+03  0.98574421922E+03  0.50400001928E-02 0. -1.
        1   -1    0    0  501    0  0.00000000000E+00  0.00000000000E+00 -0.11570091826E+04  0.11570091826E+04  0.50400001928E-02 0.  1.
    10030    2    1    2    0    0  0.00000000000E+00  0.00000000000E+00 -0.17126496339E+03  0.21427534018E+04  0.21358980438E+04 0.  0.
        4    1    3    3  502    0 -0.47720774836E+03  0.95148130800E+03  0.10716788438E+01  0.10644466525E+04  0.12699999809E+01 0. -1.
       -4    1    3    3    0  502  0.47720774836E+03 -0.95148130800E+03 -0.17233664224E+03  0.10783067494E+04  0.12699999809E+01 0.  1.
</event>
<event>
 5   0  0.4174093E-05  0.2106146E+04  0.7818609E-02  0.8558541E-01
        1   -1    0    0  501    0  0.00000000000E+00  0.00000000000E+00  0.85622954676E+03  0.85622954677E+03  0.50400001928E-02 0.  1.
       -1   -1    0    0    0  501  0.00000000000E+00  0.00000000000E+00 -0.12951700796E+04  0.12951700796E+04  0.50400001928E-02 0. -1.
    10030    2    1    2    0    0  0.00000000000E+00  0.00000000000E+00 -0.43894053284E+03  0.21513996264E+04  0.21061461395E+04 0.  0.
        3    1    3    3  502    0  0.50888727304E+03 -0.81612643363E+03  0.21862030896E+03  0.98631813429E+03  0.10100000352E+00 0.  1.
       -3    1    3    3    0  502 -0.50888727304E+03  0.81612643363E+03 -0.65756084180E+03  0.11650814921E+04  0.10100000352E+00 0. -1.
</event>
<event>
 5   0  0.4174093E-05  0.2104184E+04  0.7818609E-02  0.8559403E-01
        1   -1    0    0  501    0  0.00000000000E+00  0.00000000000E+00  0.17144544970E+04  0.17144544970E+04  0.50400001928E-02 0. -1.
       -1   -1    0    0    0  501  0.00000000000E+00  0.00000000000E+00 -0.64562648825E+03  0.64562648827E+03  0.50400001928E-02 0.  1.
    10030    2    1    2    0    0  0.00000000000E+00  0.00000000000E+00  0.10688280087E+04  0.23600809852E+04  0.21041836765E+04 0.  0.
        3    1    3    3  502    0  0.58252942613E+03  0.84789427681E+03  0.78175965310E+03  0.12920578170E+04  0.10100000352E+00 0.  1.
       -3    1    3    3    0  502 -0.58252942613E+03 -0.84789427681E+03  0.28706835561E+03  0.10680231683E+04  0.10100000352E+00 0. -1.
</event>
<event>
 5   0  0.8547605E-05  0.2083629E+04  0.7818609E-02  0.8568489E-01
       -2   -1    0    0    0  501  0.00000000000E+00  0.00000000000E+00  0.85749243779E+03  0.85749243780E+03  0.25500000920E-02 0.  1.
        2   -1    0    0  501    0  0.00000000000E+00  0.00000000000E+00 -0.12657576584E+04  0.12657576584E+04  0.25500000920E-02 0. -1.
    10030    2    1    2    0    0  0.00000000000E+00  0.00000000000E+00 -0.40826522057E+03  0.21232500962E+04  0.20836291610E+04 0.  0.
        4    1    3    3  502    0  0.34947214271E+03  0.55327555423E+03 -0.10301835547E+04  0.12204607272E+04  0.12699999809E+01 0. -1.
       -4    1    3    3    0  502 -0.34947214271E+03 -0.55327555423E+03  0.62191833413E+03  0.90278936894E+03  0.12699999809E+01 0.  1.
</event>
<event>
 5   0  0.4200061E-05  0.2117037E+04  0.7818609E-02  0.8553776E-01
        1   -1    0    0  501    0  0.00000000000E+00  0.00000000000E+00  0.14069725085E+04  0.14069725085E+04  0.50400001928E-02 0. -1.
       -1   -1    0    0    0  501  0.00000000000E+00  0.00000000000E+00 -0.79636314991E+03  0.79636314993E+03  0.50400001928E-02 0.  1.
    10030    2    1    2    0    0  0.00000000000E+00  0.00000000000E+00  0.61060935862E+03  0.22033356585E+04  0.21170366636E+04 0.  0.
        4    1    3    3  502    0 -0.68291872551E+03  0.74392259087E+03  0.63550852370E+03  0.11931770629E+04  0.12699999809E+01 0.  1.
       -4    1    3    3    0  502  0.68291872551E+03 -0.74392259087E+03 -0.24899165088E+02  0.10101585956E+04  0.12699999809E+01 0. -1.
</event>
<event>
 5   0  0.8858590E-05  0.2120878E+04  0.7818609E-02  0.8552102E-01
        2   -1    0    0  501    0  0.00000000000E+00  0.00000000000E+00  0.15443064862E+04  0.15443064862E+04  0.25500000920E-02 0.  1.
       -2   -1    0    0    0  501  0.00000000000E+00  0.00000000000E+00 -0.72817842543E+03  0.72817842544E+03  0.25500000920E-02 0. -1.
    10030    2    1    2    0    0  0.00000000000E+00  0.00000000000E+00  0.81612806077E+03  0.22724849116E+04  0.21208778046E+04 0.  0.
        1    1    3    3  502    0 -0.72377034285E+03 -0.25319932777E+02  0.12380631935E+04  0.14343239101E+04  0.50400001928E-02 0.  1.
       -1    1    3    3    0  502  0.72377034285E+03  0.25319932777E+02 -0.42193513270E+03  0.83816100149E+03  0.50400001928E-02 0. -1.
</event>
<event>
 5   0  0.4128678E-05  0.2100331E+04  0.7818609E-02  0.8561097E-01
        1   -1    0    0  501    0  0.00000000000E+00  0.00000000000E+00  0.12558541087E+04  0.12558541088E+04  0.50400001928E-02 0. -1.
       -1   -1    0    0    0  501  0.00000000000E+00  0.00000000000E+00 -0.87816577263E+03  0.87816577265E+03  0.50400001928E-02 0.  1.
    10030    2    1    2    0    0  0.00000000000E+00  0.00000000000E+00  0.37768833611E+03  0.21340198814E+04  0.21003314917E+04 0.  0.
        5    1    3    3  502    0  0.79487995007E+03 -0.59540149766E+03  0.53562328503E+03  0.11283844522E+04  0.46999998093E+01 0. -1.
       -5    1    3    3    0  502 -0.79487995007E+03  0.59540149766E+03 -0.15793494892E+03  0.10056354292E+04  0.46999998093E+01 0.  1.
</event>
<event>
 5   0  0.8872777E-05  0.2088236E+04  0.7818609E-02  0.8566443E-01
        2   -1    0    0  501    0  0.00000000000E+00  0.00000000000E+00  0.91823170164E+03  0.91823170165E+03  0.25500000920E-02 0.  1.
       -2   -1    0    0    0  501  0.00000000000E+00  0.00000000000E+00 -0.11872629032E+04  0.11872629032E+04  0.25500000920E-02 0. -1.
    10030    2    1    2    0    0  0.00000000000E+00  0.00000000000E+00 -0.26903120153E+03  0.21054946048E+04  0.20882360364E+04 0.  0.
        3    1    3    3  502    0 -0.44559543141E+03 -0.76778129550E+03 -0.68873019072E+03  0.11235625003E+04  0.10100000352E+00 0. -1.
       -3    1    3    3    0  502  0.44559543141E+03  0.76778129550E+03  0.41969898919E+03  0.98193210455E+03  0.10100000352E+00 0.  1.
</event>
<event>
 5   0  0.8858590E-05  0.1796529E+04  0.7818609E-02  0.8708147E-01
       -2   -1    0    0    0  501  0.00000000000E+00  0.00000000000E+00  0.78786563454E+03  0.78786563455E+03  0.25500000920E-02 0. -1.
        2   -1    0    0  501    0  0.00000000000E+00  0.00000000000E+00 -0.10241332270E+04  0.10241332270E+04  0.25500000920E-02 0.  1.
    10030    2    1    2    0    0  0.00000000000E+00  0.00000000000E+00 -0.23626759243E+03  0.18119988615E+04  0.17965292925E+04 0.  0.
        1    1    3    3  502    0 -0.23056103896E+03 -0.77641456484E+03 -0.50993905443E+03  0.95708714777E+03  0.50400001928E-02 0.  1.
       -1    1    3    3    0  502  0.23056103896E+03  0.77641456484E+03  0.27367146200E+03  0.85491171375E+03  0.50400001928E-02 0. -1.
</event>
<event>
 5   0  0.4128678E-05  0.2129269E+04  0.7818609E-02  0.8548459E-01
        1   -1    0    0  501    0  0.00000000000E+00  0.00000000000E+00  0.92541974721E+03  0.92541974723E+03  0.50400001928E-02 0.  1.
       -1   -1    0    0    0  501  0.00000000000E+00  0.00000000000E+00 -0.12247917257E+04  0.12247917257E+04  0.50400001928E-02 0. -1.
    10030    2    1    2    0    0  0.00000000000E+00  0.00000000000E+00 -0.29937197847E+03  0.21502114729E+04  0.21292688409E+04 0.  0.
        5    1    3    3  502    0 -0.68401978525E+03  0.15075635455E+03 -0.95932845084E+03  0.11878315165E+04  0.46999998093E+01 0. -1.
       -5    1    3    3    0  502  0.68401978525E+03 -0.15075635455E+03  0.65995647237E+03  0.96237995640E+03  0.46999998093E+01 0.  1.
</event>
<event>
 5   0  0.4050368E-05  0.2087385E+04  0.7818609E-02  0.8566821E-01
       -1   -1    0    0    0  501  0.00000000000E+00  0.00000000000E+00  0.57832034102E+03  0.57832034105E+03  0.50400001928E-02 0.  1.
        1   -1    0    0  501    0  0.00000000000E+00  0.00000000000E+00 -0.18835479792E+04  0.18835479792E+04  0.50400001928E-02 0. -1.
    10030    2    1    2    0    0  0.00000000000E+00  0.00000000000E+00 -0.13052276381E+04  0.24618683202E+04  0.20873850720E+04 0.  0.
        2    1    3    3  502    0  0.93788935343E+03  0.42556345996E+03 -0.45332118284E+03  0.11252736523E+04  0.25500000920E-02 0.  1.
       -2    1    3    3    0  502 -0.93788935343E+03 -0.42556345996E+03 -0.85190645529E+03  0.13365946679E+04  0.25500000920E-02 0. -1.
</event>
<event>
 5   0  0.9012466E-05  0.2100461E+04  0.7818609E-02  0.8561040E-01
        2   -1    0    0  501    0  0.00000000000E+00  0.00000000000E+00  0.11696282794E+04  0.11696282794E+04  0.25500000920E-02 0. -1.
       -2   -1    0    0    0  501  0.00000000000E+00  0.00000000000E+00 -0.94302085839E+03  0.94302085839E+03  0.25500000920E-02 0.  1.
    10030    2    1    2    0    0  0.00000000000E+00  0.00000000000E+00  0.22660742102E+03  0.21126491378E+04  0.21004607724E+04 0.  0.
        2    1    3    3  502    0  0.55880882323E+03  0.44776590630E+02  0.10065514406E+04  0.11521362969E+04  0.25500000920E-02 0. -1.
       -2    1    3    3    0  502 -0.55880882323E+03 -0.44776590630E+02 -0.77994401956E+03  0.96051284095E+03  0.25500000920E-02 0.  1.
</event>
<event>
 5   0  0.9012466E-05  0.2097186E+04  0.7818609E-02  0.8562484E-01
       -2   -1    0    0    0  501  0.00000000000E+00  0.00000000000E+00  0.67855778238E+03  0.67855778238E+03  0.25500000920E-02 0.  1.
        2   -1    0    0  501    0  0.00000000000E+00  0.00000000000E+00 -0.16204180060E+04  0.16204180060E+04  0.25500000920E-02 0. -1.
    10030    2    1    2    0    0  0.00000000000E+00  0.00000000000E+00 -0.94186022360E+03  0.22989757884E+04  0.20971859705E+04 0.  0.
        2    1    3    3  502    0  0.66309959275E+02  0.10404035586E+04 -0.34734056806E+03  0.10988548793E+04  0.25500000920E-02 0.  1.
       -2    1    3    3    0  502 -0.66309959275E+02 -0.10404035586E+04 -0.59451965554E+03  0.12001209091E+04  0.25500000920E-02 0. -1.
</event>
<event>
 5   0  0.4174093E-05  0.2057160E+04  0.7818609E-02  0.8580353E-01
       -1   -1    0    0    0  501  0.00000000000E+00  0.00000000000E+00  0.52394861779E+03  0.52394861781E+03  0.50400001928E-02 0. -1.
        1   -1    0    0  501    0  0.00000000000E+00  0.00000000000E+00 -0.20192375243E+04  0.20192375243E+04  0.50400001928E-02 0.  1.
    10030    2    1    2    0    0  0.00000000000E+00  0.00000000000E+00 -0.14952889065E+04  0.25431861421E+04  0.20571598964E+04 0.  0.
        3    1    3    3  502    0 -0.28100110985E+03  0.51047017219E+03  0.30021714408E+03  0.65549352722E+03  0.10100000352E+00 0. -1.
       -3    1    3    3    0  502  0.28100110985E+03 -0.51047017219E+03 -0.17955060505E+04  0.18876926149E+04  0.10100000352E+00 0.  1.
</event>
<event>
 5   0  0.4050368E-05  0.2082091E+04  0.7818609E-02  0.8569174E-01
        1   -1    0    0  501    0  0.00000000000E+00  0.00000000000E+00  0.25436071807E+04  0.25436071807E+04  0.50400001928E-02 0.  1.
       -1   -1    0    0    0  501  0.00000000000E+00  0.00000000000E+00 -0.42607835965E+03  0.42607835968E+03  0.50400001928E-02 0. -1.
    10030    2    1    2    0    0  0.00000000000E+00  0.00000000000E+00  0.21175288211E+04  0.29696855404E+04  0.20820912326E+04 0.  0.
        2    1    3    3  502    0 -0.71441719017E+03  0.34754613870E+03  0.99218105223E+02  0.80064003931E+03  0.25500000920E-02 0. -1.
       -2    1    3    3    0  502  0.71441719017E+03 -0.34754613870E+03  0.20183107158E+04  0.21690455011E+04  0.25500000920E-02 0.  1.
</event>
<event>
 5   0  0.8858590E-05  0.2102423E+04  0.7818609E-02  0.8560177E-01
        2   -1    0    0  501    0  0.00000000000E+00  0.00000000000E+00  0.23734646366E+04  0.23734646366E+04  0.25500000920E-02 0.  1.
       -2   -1    0    0    0  501  0.00000000000E+00  0.00000000000E+00 -0.46558323689E+03  0.46558323690E+03  0.25500000920E-02 0. -1.
    10030    2    1    2    0    0  0.00000000000E+00  0.00000000000E+00  0.19078813997E+04  0.28390478735E+04  0.21024227436E+04 0.  0.
        1    1    3    3  502    0 -0.10271697853E+03 -0.30009754681E+03  0.23073021820E+04  0.23290025063E+04  0.50400001928E-02 0.  1.
       -1    1    3    3    0  502  0.10271697853E+03  0.30009754681E+03 -0.39942078228E+03  0.51004536722E+03  0.50400001928E-02 0. -1.
</event>
<event>
 5   0  0.4200061E-05  0.1724250E+04  0.7818609E-02  0.8747653E-01
        1   -1    0    0  501    0  0.00000000000E+00  0.00000000000E+00  0.97837139927E+03  0.97837139928E+03  0.50400001928E-02 0.  1.
       -1   -1    0    0    0  501  0.00000000000E+00  0.00000000000E+00 -0.75969061052E+03  0.75969061053E+03  0.50400001928E-02 0. -1.
    10030    2    1    2    0    0  0.00000000000E+00  0.00000000000E+00  0.21868078875E+03  0.17380620098E+04  0.17242500580E+04 0.  0.
        4    1    3    3  502    0 -0.58080728993E+03 -0.10708632780E+03  0.74242659788E+03  0.94868511940E+03  0.12699999809E+01 0.  1.
       -4    1    3    3    0  502  0.58080728993E+03  0.10708632780E+03 -0.52374580913E+03  0.78937689041E+03  0.12699999809E+01 0. -1.
</event>
<event>
 5   0  0.8858590E-05  0.2047496E+04  0.7818609E-02  0.8584731E-01
       -2   -1    0    0    0  501  0.00000000000E+00  0.00000000000E+00  0.55857797561E+03  0.55857797562E+03  0.25500000920E-02 0.  1.
        2   -1    0    0  501    0  0.00000000000E+00  0.00000000000E+00 -0.18763010098E+04  0.18763010098E+04  0.25500000920E-02 0. -1.
    10030    2    1    2    0    0  0.00000000000E+00  0.00000000000E+00 -0.13177230342E+04  0.24348789854E+04  0.20474964417E+04 0.  0.
        1    1    3    3  502    0 -0.20629011569E+03 -0.94754870138E+03 -0.26867354051E+03  0.10062751238E+04  0.50400001928E-02 0.  1.
       -1    1    3    3    0  502  0.20629011569E+03  0.94754870138E+03 -0.10490494937E+04  0.14286038617E+04  0.50400001928E-02 0. -1.
</event>
<event>
 5   0  0.4182977E-05  0.2105862E+04  0.7818609E-02  0.8558665E-01
       -1   -1    0    0    0  501  0.00000000000E+00  0.00000000000E+00  0.75041934409E+03  0.75041934410E+03  0.50400001928E-02 0.  1.
        1   -1    0    0  501    0  0.00000000000E+00  0.00000000000E+00 -0.14773924040E+04  0.14773924041E+04  0.50400001928E-02 0. -1.
    10030    2    1    2    0    0  0.00000000000E+00  0.00000000000E+00 -0.72697305996E+03  0.22278117482E+04  0.21058621406E+04 0.  0.
        1    1    3    3  502    0  0.30635257222E+03  0.48381172513E+03  0.57127591306E+03  0.80887690827E+03  0.50400001928E-02 0.  1.
       -1    1    3    3    0  502 -0.30635257222E+03 -0.48381172513E+03 -0.12982489730E+04  0.14189348399E+04  0.50400001928E-02 0. -1.
</event>
<event>
 5   0  0.8547605E-05  0.1846024E+04  0.7818609E-02  0.8682200E-01
       -2   -1    0    0    0  501  0.00000000000E+00  0.00000000000E+00  0.93423429286E+03  0.93423429287E+03  0.25500000920E-02 0. -1.
        2   -1    0    0  501    0  0.00000000000E+00  0.00000000000E+00 -0.91192437292E+03  0.91192437292E+03  0.25500000920E-02 0.  1.
    10030    2    1    2    0    0  0.00000000000E+00  0.00000000000E+00  0.22309919947E+02  0.18461586658E+04  0.18460238587E+04 0.  0.
        4    1    3    3  502    0  0.72658155052E+03 -0.55246556122E+03  0.14831621647E+03  0.92473685925E+03  0.12699999809E+01 0.  1.
       -4    1    3    3    0  502 -0.72658155052E+03  0.55246556122E+03 -0.12600629652E+03  0.92142180654E+03  0.12699999809E+01 0. -1.
</event>
<event>
 5   0  0.3176125E-05  0.2113237E+04  0.7818609E-02  0.8555435E-01
        3   -1    0    0  501    0  0.00000000000E+00  0.00000000000E+00  0.14026221071E+04  0.14026221107E+04  0.10100000352E+00 0.  1.
       -3   -1    0    0    0  501  0.00000000000E+00  0.00000000000E+00 -0.79596786677E+03  0.79596787318E+03  0.10100000352E+00 0. -1.
    10030    2    1    2    0    0  0.00000000000E+00  0.00000000000E+00  0.60665424029E+03  0.21985899839E+04  0.21132365107E+04 0.  0.
        2    1    3    3  502    0 -0.85387187343E+02  0.98821476322E+03  0.68215300556E+03  0.12038239543E+04  0.25500000920E-02 0.  1.
       -2    1    3    3    0  502  0.85387187343E+02 -0.98821476322E+03 -0.75498765267E+02  0.99476602956E+03  0.25500000920E-02 0. -1.
</event>
<event>
 5   0  0.8872777E-05  0.2062348E+04  0.7818609E-02  0.8578013E-01
        2   -1    0    0  501    0  0.00000000000E+00  0.00000000000E+00  0.23289342170E+04  0.23289342170E+04  0.25500000920E-02 0.  1.
       -2   -1    0    0    0  501  0.00000000000E+00  0.00000000000E+00 -0.45656928662E+03  0.45656928662E+03  0.25500000920E-02 0. -1.
    10030    2    1    2    0    0  0.00000000000E+00  0.00000000000E+00  0.18723649304E+04  0.27855035036E+04  0.20623480153E+04 0.  0.
        3    1    3    3  502    0 -0.46246093064E+03 -0.36735597047E+03 -0.20549298016E+03  0.62533822569E+03  0.10100000352E+00 0. -1.
       -3    1    3    3    0  502  0.46246093064E+03  0.36735597047E+03  0.20778579105E+04  0.21601652779E+04  0.10100000352E+00 0.  1.
</event>
<event>
 5   0  0.9012466E-05  0.2102391E+04  0.7818609E-02  0.8560191E-01
       -2   -1    0    0    0  501  0.00000000000E+00  0.00000000000E+00  0.63634579189E+03  0.63634579189E+03  0.25500000920E-02 0. -1.
        2   -1    0    0  501    0  0.00000000000E+00  0.00000000000E+00 -0.17364957544E+04  0.17364957544E+04  0.25500000920E-02 0.  1.
    10030    2    1    2    0    0  0.00000000000E+00  0.00000000000E+00 -0.11001499625E+04  0.23728415463E+04  0.21023907971E+04 0.  0.
        2    1    3    3  502    0 -0.62206676831E+02 -0.63965064908E+03  0.38879387085E+03  0.75112136006E+03  0.25500000920E-02 0. -1.
       -2    1    3    3    0  502  0.62206676831E+02  0.63965064908E+03 -0.14889438334E+04  0.16217201862E+04  0.25500000920E-02 0.  1.
</event>
<event>
 5   0  0.8858590E-05  0.2110994E+04  0.7818609E-02  0.8556416E-01
        2   -1    0    0  501    0  0.00000000000E+00  0.00000000000E+00  0.19233239510E+04  0.19233239510E+04  0.25500000920E-02 0.  1.
       -2   -1    0    0    0  501  0.00000000000E+00  0.00000000000E+00 -0.57924412455E+03  0.57924412456E+03  0.25500000920E-02 0. -1.
    10030    2    1    2    0    0  0.00000000000E+00  0.00000000000E+00  0.13440798265E+04  0.25025680756E+04  0.21109941717E+04 0.  0.
        1    1    3    3  502    0  0.44670994184E+03  0.68448311005E+03  0.14637566023E+04  0.16764994158E+04  0.50400001928E-02 0.  1.
       -1    1    3    3    0  502 -0.44670994184E+03 -0.68448311005E+03 -0.11967677585E+03  0.82606865985E+03  0.50400001928E-02 0. -1.
</event>
<event>
 5   0  0.4050368E-05  0.2084415E+04  0.7818609E-02  0.8568140E-01
       -1   -1    0    0    0  501  0.00000000000E+00  0.00000000000E+00  0.57905591076E+03  0.57905591079E+03  0.50400001928E-02 0.  1.
        1   -1    0    0  501    0  0.00000000000E+00  0.00000000000E+00 -0.18758053728E+04  0.18758053728E+04  0.50400001928E-02 0. -1.
    10030    2    1    2    0    0  0.00000000000E+00  0.00000000000E+00 -0.12967494620E+04  0.24548612836E+04  0.20844147270E+04 0.  0.
        2    1    3    3  502    0  0.14754986661E+03 -0.51550867608E+03  0.40413991764E+03  0.67145307453E+03  0.25500000920E-02 0.  1.
       -2    1    3    3    0  502 -0.14754986661E+03  0.51550867608E+03 -0.17008893796E+04  0.17834082090E+04  0.25500000920E-02 0. -1.
</event>
<event>
 5   0  0.9012466E-05  0.2114148E+04  0.7818609E-02  0.8555036E-01
       -2   -1    0    0    0  501  0.00000000000E+00  0.00000000000E+00  0.71122012288E+03  0.71122012288E+03  0.25500000920E-02 0.  1.
        2   -1    0    0  501    0  0.00000000000E+00  0.00000000000E+00 -0.15711108570E+04  0.15711108570E+04  0.25500000920E-02 0. -1.
    10030    2    1    2    0    0  0.00000000000E+00  0.00000000000E+00 -0.85989073417E+03  0.22823309799E+04  0.21141482037E+04 0.  0.
        2    1    3    3  502    0  0.63434049890E+03 -0.73611163538E+03 -0.87917023097E+03  0.13104153934E+04  0.25500000920E-02 0. -1.
       -2    1    3    3    0  502 -0.63434049890E+03  0.73611163538E+03  0.19279496807E+02  0.97191558651E+03  0.25500000920E-02 0.  1.
</event>
<event>
 5   0  0.4174093E-05  0.2102935E+04  0.7818609E-02  0.8559952E-01
       -1   -1    0    0    0  501  0.00000000000E+00  0.00000000000E+00  0.10468933644E+04  0.10468933644E+04  0.50400001928E-02 0. -1.
        1   -1    0    0  501    0  0.00000000000E+00  0.00000000000E+00 -0.10560614025E+04  0.10560614026E+04  0.50400001928E-02 0.  1.
    10030    2    1    2    0    0  0.00000000000E+00  0.00000000000E+00 -0.91680381977E+01  0.21029547669E+04  0.21029347823E+04 0.  0.
        3    1    3    3  502    0  0.86833505956E+03  0.15554126242E+03 -0.57676495810E+03  0.10539718626E+04  0.10100000352E+00 0.  1.
       -3    1    3    3    0  502 -0.86833505956E+03 -0.15554126242E+03  0.56759691990E+03  0.10489829044E+04  0.10100000352E+00 0. -1.
</event>
<event>
 5   0  0.4200061E-05  0.2120425E+04  0.7818609E-02  0.8552299E-01
       -1   -1    0    0    0  501  0.00000000000E+00  0.00000000000E+00  0.11210615256E+04  0.11210615257E+04  0.50400001928E-02 0.  1.
        1   -1    0    0  501    0  0.00000000000E+00  0.00000000000E+00 -0.10026666623E+04  0.10026666623E+04  0.50400001928E-02 0. -1.
    10030    2    1    2    0    0  0.00000000000E+00  0.00000000000E+00  0.11839486337E+03  0.21237281879E+04  0.21204254461E+04 0.  0.
        4    1    3    3  502    0 -0.51596694178E+03  0.41890041236E+03 -0.76813397449E+03  0.10157415302E+04  0.12699999809E+01 0. -1.
       -4    1    3    3    0  502  0.51596694178E+03 -0.41890041236E+03  0.88652883786E+03  0.11079866577E+04  0.12699999809E+01 0.  1.
</event>
<event>
 5   0  0.4050368E-05  0.2138542E+04  0.7818609E-02  0.8544453E-01
        1   -1    0    0  501    0  0.00000000000E+00  0.00000000000E+00  0.12786995591E+04  0.12786995591E+04  0.50400001928E-02 0.  1.
       -1   -1    0    0    0  501  0.00000000000E+00  0.00000000000E+00 -0.89414294842E+03  0.89414294843E+03  0.50400001928E-02 0. -1.
    10030    2    1    2    0    0  0.00000000000E+00  0.00000000000E+00  0.38455661067E+03  0.21728425075E+04  0.21385417405E+04 0.  0.
        2    1    3    3  502    0 -0.85676995573E+03 -0.53816757588E+03  0.54374729079E+03  0.11486253580E+04  0.25500000920E-02 0.  1.
       -2    1    3    3    0  502  0.85676995573E+03  0.53816757588E+03 -0.15919068012E+03  0.10242171495E+04  0.25500000920E-02 0. -1.
</event>
<event>
 5   0  0.4128678E-05  0.2153457E+04  0.7818609E-02  0.8538054E-01
       -1   -1    0    0    0  501  0.00000000000E+00  0.00000000000E+00  0.72645418435E+03  0.72645418437E+03  0.50400001928E-02 0.  1.
        1   -1    0    0  501    0  0.00000000000E+00  0.00000000000E+00 -0.15958940956E+04  0.15958940956E+04  0.50400001928E-02 0. -1.
    10030    2    1    2    0    0  0.00000000000E+00  0.00000000000E+00 -0.86943991122E+03  0.23223482799E+04  0.21534567036E+04 0.  0.
        5    1    3    3  502    0 -0.96794749666E+03 -0.44732315584E+03 -0.27367090793E+03  0.11008806556E+04  0.46999998093E+01 0.  1.
       -5    1    3    3    0  502  0.96794749666E+03  0.44732315584E+03 -0.59576900329E+03  0.12214676243E+04  0.46999998093E+01 0. -1.
</event>
<event>
 5   0  0.8858590E-05  0.2096961E+04  0.7818609E-02  0.8562583E-01
        2   -1    0    0  501    0  0.00000000000E+00  0.00000000000E+00  0.16859404041E+04  0.16859404041E+04  0.25500000920E-02 0. -1.
       -2   -1    0    0    0  501  0.00000000000E+00  0.00000000000E+00 -0.65204637332E+03  0.65204637332E+03  0.25500000920E-02 0.  1.
    10030    2    1    2    0    0  0.00000000000E+00  0.00000000000E+00  0.10338940307E+04  0.23379867774E+04  0.20969609687E+04 0.  0.
        1    1    3    3  502    0  0.82695024419E+02  0.98918750624E+03  0.14053124167E+03  0.10025364928E+04  0.50400001928E-02 0.  1.
       -1    1    3    3    0  502 -0.82695024419E+02 -0.98918750624E+03  0.89336278907E+03  0.13354502845E+04  0.50400001928E-02 0. -1.
</event>
<event>
 5   0  0.8547605E-05  0.2116421E+04  0.7818609E-02  0.8554044E-01
       -2   -1    0    0    0  501  0.00000000000E+00  0.00000000000E+00  0.45320102091E+03  0.45320102092E+03  0.25500000920E-02 0. -1.
        2   -1    0    0  501    0  0.00000000000E+00  0.00000000000E+00 -0.24708885249E+04  0.24708885249E+04  0.25500000920E-02 0.  1.
    10030    2    1    2    0    0  0.00000000000E+00  0.00000000000E+00 -0.20176875040E+04  0.29240895458E+04  0.21164207541E+04 0.  0.
        4    1    3    3  502    0  0.46620632223E+03 -0.90354855218E+03 -0.60353360110E+03  0.11823716597E+04  0.12699999809E+01 0. -1.
       -4    1    3    3    0  502 -0.46620632223E+03  0.90354855218E+03 -0.14141539029E+04  0.17417178862E+04  0.12699999809E+01 0.  1.
</event>
<event>
 5   0  0.8872777E-05  0.2119043E+04  0.7818609E-02  0.8552901E-01
       -2   -1    0    0    0  501  0.00000000000E+00  0.00000000000E+00  0.70237530090E+03  0.70237530090E+03  0.25500000920E-02 0.  1.
        2   -1    0    0  501    0  0.00000000000E+00  0.00000000000E+00 -0.15982702359E+04  0.15982702359E+04  0.25500000920E-02 0. -1.
    10030    2    1    2    0    0  0.00000000000E+00  0.00000000000E+00 -0.89589493501E+03  0.23006455368E+04  0.21190427441E+04 0.  0.
        3    1    3    3  502    0  0.43432308228E+03  0.49504318755E+03 -0.13490665163E+04  0.15012277552E+04  0.10100000352E+00 0. -1.
       -3    1    3    3    0  502 -0.43432308228E+03 -0.49504318755E+03  0.45317158127E+03  0.79941778165E+03  0.10100000352E+00 0.  1.
</event>
<event>
 5   0  0.4050368E-05  0.2085528E+04  0.7818609E-02  0.8567646E-01
        1   -1    0    0  501    0  0.00000000000E+00  0.00000000000E+00  0.14272585564E+04  0.14272585564E+04  0.50400001928E-02 0.  1.
       -1   -1    0    0    0  501  0.00000000000E+00  0.00000000000E+00 -0.76184952198E+03  0.76184952199E+03  0.50400001928E-02 0. -1.
    10030    2    1    2    0    0  0.00000000000E+00  0.00000000000E+00  0.66540903446E+03  0.21891080784E+04  0.20855275102E+04 0.  0.
        2    1    3    3  502    0  0.62709253268E+03 -0.82840027547E+03  0.23961983402E+03  0.10662596897E+04  0.25500000920E-02 0.  1.
       -2    1    3    3    0  502 -0.62709253268E+03  0.82840027547E+03  0.42578920044E+03  0.11228483888E+04  0.25500000920E-02 0. -1.
</event>
<event>
 5   0  0.3176125E-05  0.2124678E+04  0.7818609E-02  0.8550450E-01
        4   -1    0    0  501    0  0.00000000000E+00  0.00000000000E+00  0.95145181538E+03  0.95145266298E+03  0.12699999809E+01 0.  1.
       -4   -1    0    0    0  501  0.00000000000E+00  0.00000000000E+00 -0.11861478104E+04  0.11861484903E+04  0.12699999809E+01 0. -1.
    10030    2    1    2    0    0  0.00000000000E+00  0.00000000000E+00 -0.23469599505E+03  0.21376011533E+04  0.21246779710E+04 0.  0.
        3    1    3    3  502    0  0.49895123398E+03  0.40745023411E+02 -0.10600378932E+04  0.11723023654E+04  0.10100000352E+00 0. -1.
       -3    1    3    3    0  502 -0.49895123398E+03 -0.40745023411E+02  0.82534189814E+03  0.96529878786E+03  0.10100000352E+00 0.  1.
</event>
<event>
 5   0  0.3176125E-05  0.1993325E+04  0.7818609E-02  0.8609748E-01
       -3   -1    0    0    0  501  0.00000000000E+00  0.00000000000E+00  0.12045702456E+04  0.12045702498E+04  0.10100000352E+00 0.  1.
        3   -1    0    0  501    0  0.00000000000E+00  0.00000000000E+00 -0.82463964190E+03  0.82463964809E+03  0.10100000352E+00 0. -1.
    10030    2    1    2    0    0  0.00000000000E+00  0.00000000000E+00  0.37993060370E+03  0.20292098979E+04  0.19933252485E+04 0.  0.
        4    1    3    3  502    0 -0.38898082522E+03 -0.75827039470E+03  0.71604181970E+03  0.11131026792E+04  0.12699999809E+01 0.  1.
       -4    1    3    3    0  502  0.38898082522E+03  0.75827039470E+03 -0.33611121600E+03  0.91610721878E+03  0.12699999809E+01 0. -1.
</event>
<event>
 5   0  0.3176125E-05  0.2132734E+04  0.7818609E-02  0.8546959E-01
       -3   -1    0    0    0  501  0.00000000000E+00  0.00000000000E+00  0.17963644410E+04  0.17963644438E+04  0.10100000352E+00 0.  1.
        3   -1    0    0  501    0  0.00000000000E+00  0.00000000000E+00 -0.63302196432E+03  0.63302197237E+03  0.10100000352E+00 0. -1.
    10030    2    1    2    0    0  0.00000000000E+00  0.00000000000E+00  0.11633424767E+04  0.24293864162E+04  0.21327336076E+04 0.  0.
        2    1    3    3  502    0  0.30681889538E+03  0.21658123370E+03  0.17185388850E+04  0.17590966899E+04  0.25500000920E-02 0.  1.
       -2    1    3    3    0  502 -0.30681889538E+03 -0.21658123370E+03 -0.55519640830E+03  0.67028972627E+03  0.25500000920E-02 0. -1.
</event>
<event>
 5   0  0.4200061E-05  0.2104977E+04  0.7818609E-02  0.8559054E-01
        1   -1    0    0  501    0  0.00000000000E+00  0.00000000000E+00  0.11949100012E+04  0.11949100012E+04  0.50400001928E-02 0. -1.
       -1   -1    0    0    0  501  0.00000000000E+00  0.00000000000E+00 -0.92704222210E+03  0.92704222212E+03  0.50400001928E-02 0.  1.
    10030    2    1    2    0    0  0.00000000000E+00  0.00000000000E+00  0.26786777906E+03  0.21219522233E+04  0.21049769811E+04 0.  0.
        4    1    3    3  502    0 -0.65863592006E+03 -0.30312822158E+03  0.90300335304E+03  0.11580607335E+04  0.12699999809E+01 0. -1.
       -4    1    3    3    0  502  0.65863592006E+03  0.30312822158E+03 -0.63513557398E+03  0.96389148982E+03  0.12699999809E+01 0.  1.
</event>
<event>
 5   0  0.4182977E-05  0.2085827E+04  0.7818609E-02  0.8567513E-01
       -1   -1    0    0    0  501  0.00000000000E+00  0.00000000000E+00  0.60840137264E+03  0.60840137266E+03  0.50400001928E-02 0. -1.
        1   -1    0    0  501    0  0.00000000000E+00  0.00000000000E+00 -0.17877482839E+04  0.17877482839E+04  0.50400001928E-02 0.  1.
    10030    2    1    2    0    0  0.00000000000E+00  0.00000000000E+00 -0.11793469113E+04  0.23961496566E+04  0.20858269438E+04 0.  0.
        1    1    3    3  502    0  0.74165247002E+03  0.52302986056E+03  0.64571065563E+00  0.90752908399E+03  0.50400001928E-02 0. -1.
       -1    1    3    3    0  502 -0.74165247002E+03 -0.52302986056E+03 -0.11799926219E+04  0.14886205726E+04  0.50400001928E-02 0.  1.
</event>
<event>
 5   0  0.8547605E-05  0.2096397E+04  0.7818609E-02  0.8562832E-01
       -2   -1    0    0    0  501  0.00000000000E+00  0.00000000000E+00  0.11946648989E+04  0.11946648989E+04  0.25500000920E-02 0. -1.
        2   -1    0    0  501    0  0.00000000000E+00  0.00000000000E+00 -0.91968902345E+03  0.91968902345E+03  0.25500000920E-02 0.  1.
    10030    2    1    2    0    0  0.00000000000E+00  0.00000000000E+00  0.27497587546E+03  0.21143539224E+04  0.20963970943E+04 0.  0.
        4    1    3    3  502    0 -0.13274671323E+03  0.27655360176E+03 -0.87340221300E+03  0.92570871396E+03  0.12699999809E+01 0.  1.
       -4    1    3    3    0  502  0.13274671323E+03 -0.27655360176E+03  0.11483780885E+04  0.11886452084E+04  0.12699999809E+01 0. -1.
</event>
<event>
 5   0  0.9086985E-05  0.2031421E+04  0.7818609E-02  0.8592070E-01
        2   -1    0    0  501    0  0.00000000000E+00  0.00000000000E+00  0.10705668723E+04  0.10705668723E+04  0.25500000920E-02 0. -1.
       -2   -1    0    0    0  501  0.00000000000E+00  0.00000000000E+00 -0.96366462902E+03  0.96366462902E+03  0.25500000920E-02 0.  1.
    10030    2    1    2    0    0  0.00000000000E+00  0.00000000000E+00  0.10690224324E+03  0.20342315013E+04  0.20314206140E+04 0.  0.
        5    1    3    3  502    0 -0.95294896818E+03 -0.34604848188E+03  0.11505087234E+03  0.10203529198E+04  0.46999998093E+01 0. -1.
       -5    1    3    3    0  502  0.95294896818E+03  0.34604848188E+03 -0.81486291029E+01  0.10138785815E+04  0.46999998093E+01 0.  1.
</event>
<event>
 5   0  0.4128678E-05  0.2155236E+04  0.7818609E-02  0.8537294E-01
        1   -1    0    0  501    0  0.00000000000E+00  0.00000000000E+00  0.21764052945E+04  0.21764052945E+04  0.50400001928E-02 0.  1.
       -1   -1    0    0    0  501  0.00000000000E+00  0.00000000000E+00 -0.53356836576E+03  0.53356836578E+03  0.50400001928E-02 0. -1.
    10030    2    1    2    0    0  0.00000000000E+00  0.00000000000E+00  0.16428369287E+04  0.27099736603E+04  0.21552364290E+04 0.  0.
        5    1    3    3  502    0 -0.11800001498E+03 -0.59281464286E+03 -0.30033006132E+03  0.67496180637E+03  0.46999998093E+01 0. -1.
       -5    1    3    3    0  502  0.11800001498E+03  0.59281464286E+03  0.19431669901E+04  0.20350118539E+04  0.46999998093E+01 0.  1.
</event>
<event>
 5   0  0.8858590E-05  0.2037659E+04  0.7818609E-02  0.8589214E-01
        2   -1    0    0  501    0  0.00000000000E+00  0.00000000000E+00  0.13764287357E+04  0.13764287357E+04  0.25500000920E-02 0. -1.
       -2   -1    0    0    0  501  0.00000000000E+00  0.00000000000E+00 -0.75413500345E+03  0.75413500345E+03  0.25500000920E-02 0.  1.
    10030    2    1    2    0    0  0.00000000000E+00  0.00000000000E+00  0.62229373227E+03  0.21305637392E+04  0.20376585478E+04 0.  0.
        1    1    3    3  502    0 -0.45092494274E+03 -0.60531712600E+03  0.10266503201E+04  0.12742656736E+04  0.50400001928E-02 0. -1.
       -1    1    3    3    0  502  0.45092494274E+03  0.60531712600E+03 -0.40435658784E+03  0.85629806561E+03  0.50400001928E-02 0.  1.
</event>
<event>
 5   0  0.9012466E-05  0.2111035E+04  0.7818609E-02  0.8556398E-01
       -2   -1    0    0    0  501  0.00000000000E+00  0.00000000000E+00  0.88967710948E+03  0.88967710949E+03  0.25500000920E-02 0. -1.
        2   -1    0    0  501    0  0.00000000000E+00  0.00000000000E+00 -0.12522709123E+04  0.12522709123E+04  0.25500000920E-02 0.  1.
    10030    2    1    2    0    0  0.00000000000E+00  0.00000000000E+00 -0.36259380284E+03  0.21419480218E+04  0.21110345952E+04 0.  0.
        2    1    3    3  502    0  0.10421871115E+04  0.64221320323E+02 -0.24639023207E+02  0.10444546112E+04  0.25500000920E-02 0. -1.
       -2    1    3    3    0  502 -0.10421871115E+04 -0.64221320323E+02 -0.33795477963E+03  0.10974934106E+04  0.25500000920E-02 0.  1.
</event>
<event>
 5   0  0.9012466E-05  0.2189354E+04  0.7818609E-02  0.8522872E-01
        2   -1    0    0  501    0  0.00000000000E+00  0.00000000000E+00  0.15707139250E+04  0.15707139250E+04  0.25500000920E-02 0.  1.
       -2   -1    0    0    0  501  0.00000000000E+00  0.00000000000E+00 -0.76291291000E+03  0.76291291000E+03  0.25500000920E-02 0. -1.
    10030    2    1    2    0    0  0.00000000000E+00  0.00000000000E+00  0.80780101497E+03  0.23336268350E+04  0.21893541799E+04 0.  0.
        2    1    3    3  502    0  0.42849138693E+03  0.54664686825E+03  0.13057594451E+04  0.14789981054E+04  0.25500000920E-02 0.  1.
       -2    1    3    3    0  502 -0.42849138693E+03 -0.54664686825E+03 -0.49795843015E+03  0.85462872957E+03  0.25500000920E-02 0. -1.
</event>
<event>
 5   0  0.4200061E-05  0.2104310E+04  0.7818609E-02  0.8559347E-01
       -1   -1    0    0    0  501  0.00000000000E+00  0.00000000000E+00  0.20176469601E+04  0.20176469601E+04  0.50400001928E-02 0.  1.
        1   -1    0    0  501    0  0.00000000000E+00  0.00000000000E+00 -0.54867377488E+03  0.54867377490E+03  0.50400001928E-02 0. -1.
    10030    2    1    2    0    0  0.00000000000E+00  0.00000000000E+00  0.14689731853E+04  0.25663207350E+04  0.21043098384E+04 0.  0.
        4    1    3    3  502    0 -0.49997910498E+01 -0.11326442521E+03 -0.54120163700E+03  0.55295085922E+03  0.12699999809E+01 0. -1.
       -4    1    3    3    0  502  0.49997910498E+01  0.11326442521E+03  0.20101748223E+04  0.20133698758E+04  0.12699999809E+01 0.  1.
</event>
<event>
 5   0  0.4182977E-05  0.2112049E+04  0.7818609E-02  0.8555954E-01
       -1   -1    0    0    0  501  0.00000000000E+00  0.00000000000E+00  0.15404894257E+04  0.15404894257E+04  0.50400001928E-02 0.  1.
        1   -1    0    0  501    0  0.00000000000E+00  0.00000000000E+00 -0.72391761079E+03  0.72391761080E+03  0.50400001928E-02 0. -1.
    10030    2    1    2    0    0  0.00000000000E+00  0.00000000000E+00  0.81657181490E+03  0.22644070365E+04  0.21120486969E+04 0.  0.
        1    1    3    3  502    0 -0.93751958989E+03 -0.39165468492E+03  0.71688850620E+03  0.12434892456E+04  0.50400001928E-02 0.  1.
       -1    1    3    3    0  502  0.93751958989E+03  0.39165468492E+03  0.99683308704E+02  0.10209177909E+04  0.50400001928E-02 0. -1.
</event>
<event>
 5   0  0.9086985E-05  0.2114231E+04  0.7818609E-02  0.8555000E-01
       -2   -1    0    0    0  501  0.00000000000E+00  0.00000000000E+00  0.65297543730E+03  0.65297543731E+03  0.25500000920E-02 0. -1.
        2   -1    0    0  501    0  0.00000000000E+00  0.00000000000E+00 -0.17113862615E+04  0.17113862616E+04  0.25500000920E-02 0.  1.
    10030    2    1    2    0    0  0.00000000000E+00  0.00000000000E+00 -0.10584108242E+04  0.23643616989E+04  0.21142310115E+04 0.  0.
        5    1    3    3  502    0 -0.61020166509E+03 -0.73737442999E+03 -0.27330482836E+02  0.95751562252E+03  0.46999998093E+01 0. -1.
       -5    1    3    3    0  502  0.61020166509E+03  0.73737442999E+03 -0.10310803414E+04  0.14068460763E+04  0.46999998093E+01 0.  1.
</event>
<event>
 5   0  0.4128678E-05  0.2101210E+04  0.7818609E-02  0.8560711E-01
       -1   -1    0    0    0  501  0.00000000000E+00  0.00000000000E+00  0.73224771958E+03  0.73224771960E+03  0.50400001928E-02 0.  1.
        1   -1    0    0  501    0  0.00000000000E+00  0.00000000000E+00 -0.15073736901E+04  0.15073736901E+04  0.50400001928E-02 0. -1.
    10030    2    1    2    0    0  0.00000000000E+00  0.00000000000E+00 -0.77512597053E+03  0.22396214097E+04  0.21012100772E+04 0.  0.
        5    1    3    3  502    0 -0.26278264507E+03  0.20827509386E+03  0.67367090600E+03  0.75252097171E+03  0.46999998093E+01 0.  1.
       -5    1    3    3    0  502  0.26278264507E+03 -0.20827509386E+03 -0.14487968765E+04  0.14871004380E+04  0.46999998093E+01 0. -1.
</event>
<event>
 5   0  0.9012466E-05  0.2109546E+04  0.7818609E-02  0.8557050E-01
       -2   -1    0    0    0  501  0.00000000000E+00  0.00000000000E+00  0.87232862463E+03  0.87232862463E+03  0.25500000920E-02 0.  1.
        2   -1    0    0  501    0  0.00000000000E+00  0.00000000000E+00 -0.12753746487E+04  0.12753746487E+04  0.25500000920E-02 0. -1.
    10030    2    1    2    0    0  0.00000000000E+00  0.00000000000E+00 -0.40304602405E+03  0.21477032733E+04  0.21095457456E+04 0.  0.
        2    1    3    3  502    0  0.10257982075E+04  0.13413143247E+03  0.78484918247E+01  0.10345601976E+04  0.25500000920E-02 0. -1.
       -2    1    3    3    0  502 -0.10257982075E+04 -0.13413143247E+03 -0.41089451588E+03  0.11131430757E+04  0.25500000920E-02 0.  1.
</event>
<event>
 5   0  0.8547605E-05  0.2106927E+04  0.7818609E-02  0.8558198E-01
        2   -1    0    0  501    0  0.00000000000E+00  0.00000000000E+00  0.21602666454E+04  0.21602666454E+04  0.25500000920E-02 0. -1.
       -2   -1    0    0    0  501  0.00000000000E+00  0.00000000000E+00 -0.51372594751E+03  0.51372594752E+03  0.25500000920E-02 0.  1.
    10030    2    1    2    0    0  0.00000000000E+00  0.00000000000E+00  0.16465406979E+04  0.26739925929E+04  0.21069266995E+04 0.  0.
        4    1    3    3  502    0  0.26394949340E+03  0.81511309496E+03  0.16011888512E+04  0.18160082717E+04  0.12699999809E+01 0. -1.
       -4    1    3    3    0  502 -0.26394949340E+03 -0.81511309496E+03  0.45351846694E+02  0.85798432126E+03  0.12699999809E+01 0.  1.
</event>
<event>
 5   0  0.4200061E-05  0.2132504E+04  0.7818609E-02  0.8547059E-01
       -1   -1    0    0    0  501  0.00000000000E+00  0.00000000000E+00  0.18346717367E+04  0.18346717367E+04  0.50400001928E-02 0.  1.
        1   -1    0    0  501    0  0.00000000000E+00  0.00000000000E+00 -0.61967142408E+03  0.61967142410E+03  0.50400001928E-02 0. -1.
    10030    2    1    2    0    0  0.00000000000E+00  0.00000000000E+00  0.12150003126E+04  0.24543431608E+04  0.21325043004E+04 0.  0.
        4    1    3    3  502    0 -0.11452812048E+03 -0.10313328442E+04  0.88971731780E+03  0.13668806255E+04  0.12699999809E+01 0.  1.
       -4    1    3    3    0  502  0.11452812048E+03  0.10313328442E+04  0.32528299480E+03  0.10874625353E+04  0.12699999809E+01 0. -1.
</event>
<event>
 5   0  0.9086985E-05  0.2118581E+04  0.7818609E-02  0.8553102E-01
        2   -1    0    0  501    0  0.00000000000E+00  0.00000000000E+00  0.16865021008E+04  0.16865021009E+04  0.25500000920E-02 0. -1.
       -2   -1    0    0    0  501  0.00000000000E+00  0.00000000000E+00 -0.66533915248E+03  0.66533915249E+03  0.25500000920E-02 0.  1.
    10030    2    1    2    0    0  0.00000000000E+00  0.00000000000E+00  0.10211629484E+04  0.23518412533E+04  0.21185805422E+04 0.  0.
        5    1    3    3  502    0 -0.45836504455E+03  0.82454628728E+03 -0.24228346505E+02  0.94370768605E+03  0.46999998093E+01 0.  1.
       -5    1    3    3    0  502  0.45836504455E+03 -0.82454628728E+03  0.10453912949E+04  0.14081335673E+04  0.46999998093E+01 0. -1.
</event>
<event>
 5   0  0.8872777E-05  0.2106035E+04  0.7818609E-02  0.8558590E-01
        2   -1    0    0  501    0  0.00000000000E+00  0.00000000000E+00  0.11044452702E+04  0.11044452702E+04  0.25500000920E-02 0. -1.
       -2   -1    0    0    0  501  0.00000000000E+00  0.00000000000E+00 -0.10039840398E+04  0.10039840398E+04  0.25500000920E-02 0.  1.
    10030    2    1    2    0    0  0.00000000000E+00  0.00000000000E+00  0.10046123043E+03  0.21084293100E+04  0.21060345906E+04 0.  0.
        3    1    3    3  502    0 -0.43085843067E+03 -0.67582124659E+03  0.73399482896E+03  0.10867942601E+04  0.10100000352E+00 0. -1.
       -3    1    3    3    0  502  0.43085843067E+03  0.67582124659E+03 -0.63353359853E+03  0.10216350500E+04  0.10100000352E+00 0.  1.
</event>
<event>
 5   0  0.8547605E-05  0.2080866E+04  0.7818609E-02  0.8569719E-01
       -2   -1    0    0    0  501  0.00000000000E+00  0.00000000000E+00  0.56041004126E+03  0.56041004126E+03  0.25500000920E-02 0. -1.
        2   -1    0    0  501    0  0.00000000000E+00  0.00000000000E+00 -0.19316233099E+04  0.19316233099E+04  0.25500000920E-02 0.  1.
    10030    2    1    2    0    0  0.00000000000E+00  0.00000000000E+00 -0.13712132687E+04  0.24920333512E+04  0.20808662608E+04 0.  0.
        4    1    3    3  502    0  0.81000075181E+03 -0.63676790956E+03 -0.51236935691E+03  0.11506948159E+04  0.12699999809E+01 0. -1.
       -4    1    3    3    0  502 -0.81000075181E+03  0.63676790956E+03 -0.85884391177E+03  0.13413385353E+04  0.12699999809E+01 0.  1.
</event>
<event>
 5   0  0.4050368E-05  0.2100379E+04  0.7818609E-02  0.8561077E-01
       -1   -1    0    0    0  501  0.00000000000E+00  0.00000000000E+00  0.51437268034E+03  0.51437268037E+03  0.50400001928E-02 0.  1.
        1   -1    0    0  501    0  0.00000000000E+00  0.00000000000E+00 -0.21441602807E+04  0.21441602807E+04  0.50400001928E-02 0. -1.
    10030    2    1    2    0    0  0.00000000000E+00  0.00000000000E+00 -0.16297876003E+04  0.26585329610E+04  0.21003785094E+04 0.  0.
        2    1    3    3  502    0 -0.87541493411E+03  0.55616659189E+03 -0.60604714832E+03  0.12012350856E+04  0.25500000920E-02 0. -1.
       -2    1    3    3    0  502  0.87541493411E+03 -0.55616659189E+03 -0.10237404520E+04  0.14572978755E+04  0.25500000920E-02 0.  1.
</event>
<event>
 5   0  0.8872777E-05  0.2056035E+04  0.7818609E-02  0.8580861E-01
        2   -1    0    0  501    0  0.00000000000E+00  0.00000000000E+00  0.90525746685E+03  0.90525746685E+03  0.25500000920E-02 0. -1.
       -2   -1    0    0    0  501  0.00000000000E+00  0.00000000000E+00 -0.11674247028E+04  0.11674247028E+04  0.25500000920E-02 0.  1.
    10030    2    1    2    0    0  0.00000000000E+00  0.00000000000E+00 -0.26216723594E+03  0.20726821696E+04  0.20560349503E+04 0.  0.
        3    1    3    3  502    0 -0.54582270233E+03  0.85944085131E+03 -0.27456989260E+03  0.10544902254E+04  0.10100000352E+00 0.  1.
       -3    1    3    3    0  502  0.54582270233E+03 -0.85944085131E+03  0.12402656661E+02  0.10181919443E+04  0.10100000352E+00 0. -1.
</event>
<event>
 5   0  0.4174093E-05  0.2105598E+04  0.7818609E-02  0.8558781E-01
       -1   -1    0    0    0  501  0.00000000000E+00  0.00000000000E+00  0.23206115580E+04  0.23206115580E+04  0.50400001928E-02 0. -1.
        1   -1    0    0  501    0  0.00000000000E+00  0.00000000000E+00 -0.47762665284E+03  0.47762665287E+03  0.50400001928E-02 0.  1.
    10030    2    1    2    0    0  0.00000000000E+00  0.00000000000E+00  0.18429849052E+04  0.27982382109E+04  0.21055981868E+04 0.  0.
        3    1    3    3  502    0  0.58456600269E+03  0.61471901223E+03  0.92851878439E+02  0.85335710991E+03  0.10100000352E+00 0.  1.
       -3    1    3    3    0  502 -0.58456600269E+03 -0.61471901223E+03  0.17501330267E+04  0.19448811010E+04  0.10100000352E+00 0. -1.
</event>
<event>
 5   0  0.8547605E-05  0.2099458E+04  0.7818609E-02  0.8561482E-01
       -2   -1    0    0    0  501  0.00000000000E+00  0.00000000000E+00  0.49114306968E+03  0.49114306969E+03  0.25500000920E-02 0.  1.
        2   -1    0    0  501    0  0.00000000000E+00  0.00000000000E+00 -0.22436044362E+04  0.22436044362E+04  0.25500000920E-02 0. -1.
    10030    2    1    2    0    0  0.00000000000E+00  0.00000000000E+00 -0.17524613665E+04  0.27347475058E+04  0.20994578061E+04 0.  0.
        4    1    3    3  502    0  0.67915740959E+03  0.74839758187E+03 -0.50647794524E+03  0.11304314440E+04  0.12699999809E+01 0.  1.
       -4    1    3    3    0  502 -0.67915740959E+03 -0.74839758187E+03 -0.12459834212E+04  0.16043160619E+04  0.12699999809E+01 0. -1.
</event>
<event>
 5   0  0.4182977E-05  0.2095640E+04  0.7818609E-02  0.8563166E-01
       -1   -1    0    0    0  501  0.00000000000E+00  0.00000000000E+00  0.91975484073E+03  0.91975484075E+03  0.50400001928E-02 0. -1.
        1   -1    0    0  501    0  0.00000000000E+00  0.00000000000E+00 -0.11937166773E+04  0.11937166773E+04  0.50400001928E-02 0.  1.
    10030    2    1    2    0    0  0.00000000000E+00  0.00000000000E+00 -0.27396183655E+03  0.21134715180E+04  0.20956399428E+04 0.  0.
        1    1    3    3  502    0  0.48785767322E+03  0.62073295415E+03 -0.83176390125E+03  0.11467980193E+04  0.50400001928E-02 0.  1.
       -1    1    3    3    0  502 -0.48785767322E+03 -0.62073295415E+03  0.55780206471E+03  0.96667349871E+03  0.50400001928E-02 0. -1.
</event>
<event>
 5   0  0.9086985E-05  0.1947931E+04  0.7818609E-02  0.8631359E-01
       -2   -1    0    0    0  501  0.00000000000E+00  0.00000000000E+00  0.61801673832E+03  0.61801673833E+03  0.25500000920E-02 0. -1.
        2   -1    0    0  501    0  0.00000000000E+00  0.00000000000E+00 -0.15349248728E+04  0.15349248728E+04  0.25500000920E-02 0.  1.
    10030    2    1    2    0    0  0.00000000000E+00  0.00000000000E+00 -0.91690813449E+03  0.21529416111E+04  0.19479314808E+04 0.  0.
        5    1    3    3  502    0  0.38485156174E+03 -0.81550132112E+03 -0.51708808883E+02  0.90324361068E+03  0.46999998093E+01 0. -1.
       -5    1    3    3    0  502 -0.38485156174E+03  0.81550132112E+03 -0.86519932561E+03  0.12496980005E+04  0.46999998093E+01 0.  1.
</event>
<event>
 5   0  0.4128678E-05  0.2102192E+04  0.7818609E-02  0.8560278E-01
       -1   -1    0    0    0  501  0.00000000000E+00  0.00000000000E+00  0.69273900645E+03  0.69273900647E+03  0.50400001928E-02 0.  1.
        1   -1    0    0  501    0  0.00000000000E+00  0.00000000000E+00 -0.15948324038E+04  0.15948324038E+04  0.50400001928E-02 0. -1.
    10030    2    1    2    0    0  0.00000000000E+00  0.00000000000E+00 -0.90209339733E+03  0.22875714103E+04  0.21021918227E+04 0.  0.
        5    1    3    3  502    0  0.18954078512E+03 -0.10134967146E+04 -0.22888860685E+03  0.10561786705E+04  0.46999998093E+01 0. -1.
       -5    1    3    3    0  502 -0.18954078512E+03  0.10134967146E+04 -0.67320479049E+03  0.12313927398E+04  0.46999998093E+01 0.  1.
</event>
<event>
 5   0  0.4128678E-05  0.2100701E+04  0.7818609E-02  0.8560935E-01
       -1   -1    0    0    0  501  0.00000000000E+00  0.00000000000E+00  0.66468767768E+03  0.66468767770E+03  0.50400001928E-02 0. -1.
        1   -1    0    0  501    0  0.00000000000E+00  0.00000000000E+00 -0.16597817170E+04  0.16597817170E+04  0.50400001928E-02 0.  1.
    10030    2    1    2    0    0  0.00000000000E+00  0.00000000000E+00 -0.99509403934E+03  0.23244693947E+04  0.21007012686E+04 0.  0.
        5    1    3    3  502    0 -0.10492455200E+04  0.20669233128E+02 -0.44968457735E+03  0.11417450187E+04  0.46999998093E+01 0.  1.
       -5    1    3    3    0  502  0.10492455200E+04 -0.20669233128E+02 -0.54540946199E+03  0.11827243761E+04  0.46999998093E+01 0. -1.
</event>
<event>
 5   0  0.9086985E-05  0.2055759E+04  0.7818609E-02  0.8580986E-01
       -2   -1    0    0    0  501  0.00000000000E+00  0.00000000000E+00  0.75792099860E+03  0.75792099861E+03  0.25500000920E-02 0. -1.
        2   -1    0    0  501    0  0.00000000000E+00  0.00000000000E+00 -0.13939920757E+04  0.13939920757E+04  0.25500000920E-02 0.  1.
    10030    2    1    2    0    0  0.00000000000E+00  0.00000000000E+00 -0.63607107712E+03  0.21519130743E+04  0.20557586104E+04 0.  0.
        5    1    3    3  502    0  0.31015599856E+03 -0.89434374135E+03  0.10128345270E+03  0.95201255188E+03  0.46999998093E+01 0. -1.
       -5    1    3    3    0  502 -0.31015599856E+03  0.89434374135E+03 -0.73735452982E+03  0.11999005225E+04  0.46999998093E+01 0.  1.
</event>
<event>
 5   0  0.4200061E-05  0.2110078E+04  0.7818609E-02  0.8556817E-01
        1   -1    0    0  501    0  0.00000000000E+00  0.00000000000E+00  0.26666553732E+04  0.26666553732E+04  0.50400001928E-02 0.  1.
       -1   -1    0    0    0  501  0.00000000000E+00  0.00000000000E+00 -0.41741690223E+03  0.41741690226E+03  0.50400001928E-02 0. -1.
    10030    2    1    2    0    0  0.00000000000E+00  0.00000000000E+00  0.22492384710E+04  0.30840722755E+04  0.21100777476E+04 0.  0.
        4    1    3    3  502    0  0.21294326288E+03 -0.15777459749E+03  0.26172098607E+04  0.26305943672E+04  0.12699999809E+01 0.  1.
       -4    1    3    3    0  502 -0.21294326288E+03  0.15777459749E+03 -0.36797138968E+03  0.45347790833E+03  0.12699999809E+01 0. -1.
</event>
<event>
 5   0  0.4200061E-05  0.2205064E+04  0.7818609E-02  0.8516323E-01
        1   -1    0    0  501    0  0.00000000000E+00  0.00000000000E+00  0.19107366975E+04  0.19107366975E+04  0.50400001928E-02 0. -1.
       -1   -1    0    0    0  501  0.00000000000E+00  0.00000000000E+00 -0.63618233813E+03  0.63618233815E+03  0.50400001928E-02 0.  1.
    10030    2    1    2    0    0  0.00000000000E+00  0.00000000000E+00  0.12745543594E+04  0.25469190357E+04  0.22050641168E+04 0.  0.
        4    1    3    3  502    0 -0.85861666924E+03  0.55732808697E+03  0.11103302179E+04  0.15101893878E+04  0.12699999809E+01 0.  1.
       -4    1    3    3    0  502  0.85861666924E+03 -0.55732808697E+03  0.16422414143E+03  0.10367296479E+04  0.12699999809E+01 0. -1.
</event>
<event>
 5   0  0.4128678E-05  0.2119121E+04  0.7818609E-02  0.8552867E-01
       -1   -1    0    0    0  501  0.00000000000E+00  0.00000000000E+00  0.10453473929E+04  0.10453473929E+04  0.50400001928E-02 0. -1.
        1   -1    0    0  501    0  0.00000000000E+00  0.00000000000E+00 -0.10739664044E+04  0.10739664044E+04  0.50400001928E-02 0.  1.
    10030    2    1    2    0    0  0.00000000000E+00  0.00000000000E+00 -0.28619011545E+02  0.21193137973E+04  0.21191205543E+04 0.  0.
        5    1    3    3  502    0 -0.77318224617E+03  0.26116911441E+03 -0.69011205252E+03  0.10687828718E+04  0.46999998093E+01 0.  1.
       -5    1    3    3    0  502  0.77318224617E+03 -0.26116911441E+03  0.66149304097E+03  0.10505309255E+04  0.46999998093E+01 0. -1.
</event>
<event>
 5   0  0.4200061E-05  0.2092484E+04  0.7818609E-02  0.8564561E-01
       -1   -1    0    0    0  501  0.00000000000E+00  0.00000000000E+00  0.87836606537E+03  0.87836606538E+03  0.50400001928E-02 0.  1.
        1   -1    0    0  501    0  0.00000000000E+00  0.00000000000E+00 -0.12462029060E+04  0.12462029060E+04  0.50400001928E-02 0. -1.
    10030    2    1    2    0    0  0.00000000000E+00  0.00000000000E+00 -0.36783684061E+03  0.21245689714E+04  0.20924840197E+04 0.  0.
        4    1    3    3  502    0  0.75695032713E+03  0.55406942943E+03 -0.65433018791E+03  0.11437291367E+04  0.12699999809E+01 0. -1.
       -4    1    3    3    0  502 -0.75695032713E+03 -0.55406942943E+03  0.28649334730E+03  0.98083983469E+03  0.12699999809E+01 0.  1.
</event>
<event>
 5   0  0.4200061E-05  0.2093368E+04  0.7818609E-02  0.8564170E-01
       -1   -1    0    0    0  501  0.00000000000E+00  0.00000000000E+00  0.13401212232E+04  0.13401212232E+04  0.50400001928E-02 0. -1.
        1   -1    0    0  501    0  0.00000000000E+00  0.00000000000E+00 -0.81749874422E+03  0.81749874424E+03  0.50400001928E-02 0.  1.
    10030    2    1    2    0    0  0.00000000000E+00  0.00000000000E+00  0.52262247900E+03  0.21576199675E+04  0.20933680203E+04 0.  0.
        4    1    3    3  502    0  0.38629619144E+03  0.77284787937E+03 -0.34760703972E+03  0.93131673405E+03  0.12699999809E+01 0.  1.
       -4    1    3    3    0  502 -0.38629619144E+03 -0.77284787937E+03  0.87022951872E+03  0.12263032334E+04  0.12699999809E+01 0. -1.
</event>
<event>
 5   0  0.4200061E-05  0.2130417E+04  0.7818609E-02  0.8547962E-01
       -1   -1    0    0    0  501  0.00000000000E+00  0.00000000000E+00  0.71884434869E+03  0.71884434871E+03  0.50400001928E-02 0.  1.
        1   -1    0    0  501    0  0.00000000000E+00  0.00000000000E+00 -0.15784626862E+04  0.15784626862E+04  0.50400001928E-02 0. -1.
    10030    2    1    2    0    0  0.00000000000E+00  0.00000000000E+00 -0.85961833753E+03  0.22973070349E+04  0.21304168434E+04 0.  0.
        4    1    3    3  502    0 -0.99068866918E+03  0.24872803443E+03 -0.10391283277E+03  0.10267079254E+04  0.12699999809E+01 0.  1.
       -4    1    3    3    0  502  0.99068866918E+03 -0.24872803443E+03 -0.75570550476E+03  0.12705991095E+04  0.12699999809E+01 0. -1.
</event>
<event>
 5   0  0.4182977E-05  0.2194211E+04  0.7818609E-02  0.8520842E-01
       -1   -1    0    0    0  501  0.00000000000E+00  0.00000000000E+00  0.76372670616E+03  0.76372670617E+03  0.50400001928E-02 0. -1.
        1   -1    0    0  501    0  0.00000000000E+00  0.00000000000E+00 -0.15760092572E+04  0.15760092572E+04  0.50400001928E-02 0.  1.
    10030    2    1    2    0    0  0.00000000000E+00  0.00000000000E+00 -0.81228255102E+03  0.23397359634E+04  0.21942108913E+04 0.  0.
        1    1    3    3  502    0  0.73380169917E+03  0.65421756350E+03  0.11316403045E+03  0.98958155394E+03  0.50400001928E-02 0. -1.
       -1    1    3    3    0  502 -0.73380169917E+03 -0.65421756350E+03 -0.92544658147E+03  0.13501544094E+04  0.50400001928E-02 0.  1.
</event>
<event>
 5   0  0.9012466E-05  0.2115378E+04  0.7818609E-02  0.8554499E-01
        2   -1    0    0  501    0  0.00000000000E+00  0.00000000000E+00  0.16291141909E+04  0.16291141909E+04  0.25500000920E-02 0.  1.
       -2   -1    0    0    0  501  0.00000000000E+00  0.00000000000E+00 -0.68669570275E+03  0.68669570276E+03  0.25500000920E-02 0. -1.
    10030    2    1    2    0    0  0.00000000000E+00  0.00000000000E+00  0.94241848814E+03  0.23158098937E+04  0.21153777102E+04 0.  0.
        2    1    3    3  502    0 -0.36050853052E+03  0.89793900301E+03  0.36024657548E+01  0.96761243868E+03  0.25500000920E-02 0. -1.
       -2    1    3    3    0  502  0.36050853052E+03 -0.89793900301E+03  0.93881602238E+03  0.13481974550E+04  0.25500000920E-02 0.  1.
</event>
<event>
 5   0  0.4182977E-05  0.1995418E+04  0.7818609E-02  0.8608766E-01
       -1   -1    0    0    0  501  0.00000000000E+00  0.00000000000E+00  0.12804573682E+04  0.12804573682E+04  0.50400001928E-02 0.  1.
        1   -1    0    0  501    0  0.00000000000E+00  0.00000000000E+00 -0.77739676175E+03  0.77739676176E+03  0.50400001928E-02 0. -1.
    10030    2    1    2    0    0  0.00000000000E+00  0.00000000000E+00  0.50306060649E+03  0.20578541300E+04  0.19954181633E+04 0.  0.
        1    1    3    3  502    0 -0.41638564735E+03  0.93456804123E+02 -0.67852616436E+03  0.80156655201E+03  0.50400001928E-02 0. -1.
       -1    1    3    3    0  502  0.41638564735E+03 -0.93456804123E+02  0.11815867709E+04  0.12562875780E+04  0.50400001928E-02 0.  1.
</event>
<event>
 5   0  0.4200061E-05  0.2073463E+04  0.7818609E-02  0.8573024E-01
        1   -1    0    0  501    0  0.00000000000E+00  0.00000000000E+00  0.14563189616E+04  0.14563189616E+04  0.50400001928E-02 0.  1.
       -1   -1    0    0    0  501  0.00000000000E+00  0.00000000000E+00 -0.73803360940E+03  0.73803360942E+03  0.50400001928E-02 0. -1.
    10030    2    1    2    0    0  0.00000000000E+00  0.00000000000E+00  0.71828535219E+03  0.21943525710E+04  0.20734631318E+04 0.  0.
        4    1    3    3  502    0 -0.35971019221E+02  0.76899356915E+03 -0.37572348223E+03  0.85662989186E+03  0.12699999809E+01 0. -1.
       -4    1    3    3    0  502  0.35971019221E+02 -0.76899356915E+03  0.10940088344E+04  0.13377226792E+04  0.12699999809E+01 0.  1.
</event>
<event>
 5   0  0.9086985E-05  0.2094912E+04  0.7818609E-02  0.8563488E-01
        2   -1    0    0  501    0  0.00000000000E+00  0.00000000000E+00  0.25482678734E+04  0.25482678734E+04  0.25500000920E-02 0. -1.
       -2   -1    0    0    0  501  0.00000000000E+00  0.00000000000E+00 -0.43055307872E+03  0.43055307873E+03  0.25500000920E-02 0.  1.
    10030    2    1    2    0    0  0.00000000000E+00  0.00000000000E+00  0.21177147947E+04  0.29788209521E+04  0.20949124834E+04 0.  0.
        5    1    3    3  502    0  0.35987342179E+03  0.66162947942E+03  0.20939216160E+04  0.22252622928E+04  0.46999998093E+01 0. -1.
       -5    1    3    3    0  502 -0.35987342179E+03 -0.66162947942E+03  0.23793178699E+02  0.75355865936E+03  0.46999998093E+01 0.  1.
</event>
<event>
 5   0  0.9086985E-05  0.2281894E+04  0.7818609E-02  0.8485094E-01
        2   -1    0    0  501    0  0.00000000000E+00  0.00000000000E+00  0.15794566288E+04  0.15794566288E+04  0.25500000920E-02 0.  1.
       -2   -1    0    0    0  501  0.00000000000E+00  0.00000000000E+00 -0.82418225064E+03  0.82418225065E+03  0.25500000920E-02 0. -1.
    10030    2    1    2    0    0  0.00000000000E+00  0.00000000000E+00  0.75527437812E+03  0.24036388794E+04  0.22818940546E+04 0.  0.
        5    1    3    3  502    0  0.44287510817E+02 -0.76526728458E+03  0.12677933915E+04  0.14815254213E+04  0.46999998093E+01 0.  1.
       -5    1    3    3    0  502 -0.44287510817E+02  0.76526728458E+03 -0.51251901341E+03  0.92211345808E+03  0.46999998093E+01 0. -1.
</event>
<event>
 5   0  0.4174093E-05  0.2099854E+04  0.7818609E-02  0.8561308E-01
        1   -1    0    0  501    0  0.00000000000E+00  0.00000000000E+00  0.14844916065E+04  0.14844916065E+04  0.50400001928E-02 0. -1.
       -1   -1    0    0    0  501  0.00000000000E+00  0.00000000000E+00 -0.74257553579E+03  0.74257553580E+03  0.50400001928E-02 0.  1.
    10030    2    1    2    0    0  0.00000000000E+00  0.00000000000E+00  0.74191607071E+03  0.22270671423E+04  0.20998544236E+04 0.  0.
        3    1    3    3  502    0 -0.88397560605E+03  0.47671084204E+03  0.46341994432E+02  0.10053923064E+04  0.10100000352E+00 0. -1.
       -3    1    3    3    0  502  0.88397560605E+03 -0.47671084204E+03  0.69557407628E+03  0.12216748360E+04  0.10100000352E+00 0.  1.
</event>
<event>
 5   0  0.4200061E-05  0.2083190E+04  0.7818609E-02  0.8568685E-01
       -1   -1    0    0    0  501  0.00000000000E+00  0.00000000000E+00  0.11741394463E+04  0.11741394463E+04  0.50400001928E-02 0.  1.
        1   -1    0    0  501    0  0.00000000000E+00  0.00000000000E+00 -0.92401260811E+03  0.92401260812E+03  0.50400001928E-02 0. -1.
    10030    2    1    2    0    0  0.00000000000E+00  0.00000000000E+00  0.25012683818E+03  0.20981520544E+04  0.20831895277E+04 0.  0.
        4    1    3    3  502    0 -0.51757555205E+03 -0.41731093743E+03 -0.68249672762E+03  0.95280442206E+03  0.12699999809E+01 0. -1.
       -4    1    3    3    0  502  0.51757555205E+03  0.41731093743E+03  0.93262356580E+03  0.11453476324E+04  0.12699999809E+01 0.  1.
</event>
<event>
 5   0  0.4200061E-05  0.2100376E+04  0.7818609E-02  0.8561078E-01
        1   -1    0    0  501    0  0.00000000000E+00  0.00000000000E+00  0.16234100813E+04  0.16234100813E+04  0.50400001928E-02 0.  1.
       -1   -1    0    0    0  501  0.00000000000E+00  0.00000000000E+00 -0.67936936001E+03  0.67936936003E+03  0.50400001928E-02 0. -1.
    10030    2    1    2    0    0  0.00000000000E+00  0.00000000000E+00  0.94404072132E+03  0.23027794414E+04  0.21003762216E+04 0.  0.
        4    1    3    3  502    0 -0.49012327541E+03 -0.40239601498E+03  0.13897966376E+04  0.15276385975E+04  0.12699999809E+01 0.  1.
       -4    1    3    3    0  502  0.49012327541E+03  0.40239601498E+03 -0.44575591627E+03  0.77514084382E+03  0.12699999809E+01 0. -1.
</event>
<event>
 5   0  0.8547605E-05  0.2114738E+04  0.7818609E-02  0.8554779E-01
       -2   -1    0    0    0  501  0.00000000000E+00  0.00000000000E+00  0.86832275557E+03  0.86832275558E+03  0.25500000920E-02 0.  1.
        2   -1    0    0  501    0  0.00000000000E+00  0.00000000000E+00 -0.12875731256E+04  0.12875731256E+04  0.25500000920E-02 0. -1.
    10030    2    1    2    0    0  0.00000000000E+00  0.00000000000E+00 -0.41925037006E+03  0.21558958812E+04  0.21147378509E+04 0.  0.
        4    1    3    3  502    0 -0.16478126735E+03 -0.18209537155E+03 -0.12580945576E+04  0.12818405201E+04  0.12699999809E+01 0. -1.
       -4    1    3    3    0  502  0.16478126735E+03  0.18209537155E+03  0.83884418750E+03  0.87405536107E+03  0.12699999809E+01 0.  1.
</event>
<event>
 5   0  0.3176125E-05  0.1846381E+04  0.7818609E-02  0.8682016E-01
        3   -1    0    0  501    0  0.00000000000E+00  0.00000000000E+00  0.76342908642E+03  0.76342909310E+03  0.10100000352E+00 0.  1.
       -3   -1    0    0    0  501  0.00000000000E+00  0.00000000000E+00 -0.11163849995E+04  0.11163850041E+04  0.10100000352E+00 0. -1.
    10030    2    1    2    0    0  0.00000000000E+00  0.00000000000E+00 -0.35295591310E+03  0.18798140972E+04  0.18463810992E+04 0.  0.
        4    1    3    3  502    0  0.55944690561E+03  0.55136187601E+03  0.31738114428E+03  0.84717953360E+03  0.12699999809E+01 0.  1.
       -4    1    3    3    0  502 -0.55944690561E+03 -0.55136187601E+03 -0.67033705738E+03  0.10326345636E+04  0.12699999809E+01 0. -1.
</event>
<event>
 5   0  0.4174093E-05  0.2155400E+04  0.7818609E-02  0.8537225E-01
       -1   -1    0    0    0  501  0.00000000000E+00  0.00000000000E+00  0.42402425188E+03  0.42402425191E+03  0.50400001928E-02 0. -1.
        1   -1    0    0  501    0  0.00000000000E+00  0.00000000000E+00 -0.27390809751E+04  0.27390809751E+04  0.50400001928E-02 0.  1.
    10030    2    1    2    0    0  0.00000000000E+00  0.00000000000E+00 -0.23150567232E+04  0.31631052270E+04  0.21553995095E+04 0.  0.
        3    1    3    3  502    0  0.93143972562E+03  0.49444850713E+03 -0.14836279450E+04  0.18202228375E+04  0.10100000352E+00 0.  1.
       -3    1    3    3    0  502 -0.93143972562E+03 -0.49444850713E+03 -0.83142877818E+03  0.13428823895E+04  0.10100000352E+00 0. -1.
</event>
<event>
 5   0  0.9012466E-05  0.2107428E+04  0.7818609E-02  0.8557978E-01
       -2   -1    0    0    0  501  0.00000000000E+00  0.00000000000E+00  0.95826617503E+03  0.95826617504E+03  0.25500000920E-02 0.  1.
        2   -1    0    0  501    0  0.00000000000E+00  0.00000000000E+00 -0.11586689057E+04  0.11586689057E+04  0.25500000920E-02 0. -1.
    10030    2    1    2    0    0  0.00000000000E+00  0.00000000000E+00 -0.20040273062E+03  0.21169350807E+04  0.21074280252E+04 0.  0.
        2    1    3    3  502    0 -0.72003960058E+02 -0.16833927173E+03 -0.11425677669E+04  0.11571446680E+04  0.25500000920E-02 0. -1.
       -2    1    3    3    0  502  0.72003960058E+02  0.16833927173E+03  0.94216503630E+03  0.95979041269E+03  0.25500000920E-02 0.  1.
</event>
<event>
 5   0  0.9086985E-05  0.2072806E+04  0.7818609E-02  0.8573318E-01
        2   -1    0    0  501    0  0.00000000000E+00  0.00000000000E+00  0.18479918375E+04  0.18479918375E+04  0.25500000920E-02 0. -1.
       -2   -1    0    0    0  501  0.00000000000E+00  0.00000000000E+00 -0.58124215734E+03  0.58124215735E+03  0.25500000920E-02 0.  1.
    10030    2    1    2    0    0  0.00000000000E+00  0.00000000000E+00  0.12667496801E+04  0.24292339948E+04  0.20728055986E+04 0.  0.
        5    1    3    3  502    0  0.89592979730E+03  0.49977933887E+03  0.46097764134E+03  0.11247186604E+04  0.46999998093E+01 0. -1.
       -5    1    3    3    0  502 -0.89592979730E+03 -0.49977933887E+03  0.80577203880E+03  0.13045153344E+04  0.46999998093E+01 0.  1.
</event>
<event>
 5   0  0.8872777E-05  0.1891987E+04  0.7818609E-02  0.8658855E-01
        2   -1    0    0  501    0  0.00000000000E+00  0.00000000000E+00  0.10274644701E+04  0.10274644701E+04  0.25500000920E-02 0. -1.
       -2   -1    0    0    0  501  0.00000000000E+00  0.00000000000E+00 -0.87098280261E+03  0.87098280261E+03  0.25500000920E-02 0.  1.
    10030    2    1    2    0    0  0.00000000000E+00  0.00000000000E+00  0.15648166748E+03  0.18984472727E+04  0.18919871921E+04 0.  0.
        3    1    3    3  502    0 -0.14677613677E+03 -0.66349185181E+03 -0.58213944225E+03  0.89479104386E+03  0.10100000352E+00 0.  1.
       -3    1    3    3    0  502  0.14677613677E+03  0.66349185181E+03  0.73862110973E+03  0.10036562288E+04  0.10100000352E+00 0. -1.
</event>
<event>
 5   0  0.4050368E-05  0.2055006E+04  0.7818609E-02  0.8581327E-01
       -1   -1    0    0    0  501  0.00000000000E+00  0.00000000000E+00  0.96442246344E+03  0.96442246345E+03  0.50400001928E-02 0.  1.
        1   -1    0    0  501    0  0.00000000000E+00  0.00000000000E+00 -0.10947096287E+04  0.10947096287E+04  0.50400001928E-02 0. -1.
    10030    2    1    2    0    0  0.00000000000E+00  0.00000000000E+00 -0.13028716525E+03  0.20591320922E+04  0.20550061381E+04 0.  0.
        2    1    3    3  502    0 -0.10133894893E+03 -0.14036428242E+03  0.94970323152E+03  0.96535379127E+03  0.25500000920E-02 0.  1.
       -2    1    3    3    0  502  0.10133894893E+03  0.14036428242E+03 -0.10799903968E+04  0.10937783009E+04  0.25500000920E-02 0. -1.
</event>
<event>
 5   0  0.8872777E-05  0.2114393E+04  0.7818609E-02  0.8554929E-01
       -2   -1    0    0    0  501  0.00000000000E+00  0.00000000000E+00  0.82238000625E+03  0.82238000626E+03  0.25500000920E-02 0. -1.
        2   -1    0    0  501    0  0.00000000000E+00  0.00000000000E+00 -0.13590610818E+04  0.13590610818E+04  0.25500000920E-02 0.  1.
    10030    2    1    2    0    0  0.00000000000E+00  0.00000000000E+00 -0.53668107554E+03  0.21814410880E+04  0.21143932094E+04 0.  0.
        3    1    3    3  502    0  0.56178019543E+03 -0.41961231043E+02 -0.11913072097E+04  0.13177900482E+04  0.10100000352E+00 0.  1.
       -3    1    3    3    0  502 -0.56178019543E+03  0.41961231043E+02  0.65462613421E+03  0.86365103987E+03  0.10100000352E+00 0. -1.
</event>
<event>
 5   0  0.4128678E-05  0.1995657E+04  0.7818609E-02  0.8608654E-01
       -1   -1    0    0    0  501  0.00000000000E+00  0.00000000000E+00  0.57544075124E+03  0.57544075126E+03  0.50400001928E-02 0.  1.
        1   -1    0    0  501    0  0.00000000000E+00  0.00000000000E+00 -0.17302595184E+04  0.17302595185E+04  0.50400001928E-02 0. -1.
    10030    2    1    2    0    0  0.00000000000E+00  0.00000000000E+00 -0.11548187672E+04  0.23057002697E+04  0.19956571220E+04 0.  0.
        5    1    3    3  502    0  0.22439185321E+03 -0.82712960096E+03  0.13005781916E+02  0.85713844911E+03  0.46999998093E+01 0.  1.
       -5    1    3    3    0  502 -0.22439185321E+03  0.82712960096E+03 -0.11678245491E+04  0.14485618206E+04  0.46999998093E+01 0. -1.
</event>
<event>
 5   0  0.4174093E-05  0.1894472E+04  0.7818609E-02  0.8657613E-01
       -1   -1    0    0    0  501  0.00000000000E+00  0.00000000000E+00  0.17205757394E+04  0.17205757394E+04  0.50400001928E-02 0. -1.
        1   -1    0    0  501    0  0.00000000000E+00  0.00000000000E+00 -0.52148619539E+03  0.52148619541E+03  0.50400001928E-02 0.  1.
    10030    2    1    2    0    0  0.00000000000E+00  0.00000000000E+00  0.11990895440E+04  0.22420619348E+04  0.18944724820E+04 0.  0.
        3    1    3    3  502    0  0.25042511020E+02 -0.35291247105E+03 -0.44035398489E+03  0.56487696164E+03  0.10100000352E+00 0.  1.
       -3    1    3    3    0  502 -0.25042511020E+02  0.35291247105E+03  0.16394435289E+04  0.16771849732E+04  0.10100000352E+00 0. -1.
</event>
<event>
 5   0  0.4200061E-05  0.2103467E+04  0.7818609E-02  0.8559718E-01
        1   -1    0    0  501    0  0.00000000000E+00  0.00000000000E+00  0.11409259395E+04  0.11409259395E+04  0.50400001928E-02 0. -1.
       -1   -1    0    0    0  501  0.00000000000E+00  0.00000000000E+00 -0.96951395931E+03  0.96951395933E+03  0.50400001928E-02 0.  1.
    10030    2    1    2    0    0  0.00000000000E+00  0.00000000000E+00  0.17141198019E+03  0.21104398988E+04  0.21034672566E+04 0.  0.
        4    1    3    3  502    0  0.21767015268E+03 -0.10180257841E+04  0.23581885428E+03  0.10674122622E+04  0.12699999809E+01 0.  1.
       -4    1    3    3    0  502 -0.21767015268E+03  0.10180257841E+04 -0.64406874087E+02  0.10430276367E+04  0.12699999809E+01 0. -1.
</event>
<event>
 5   0  0.8547605E-05  0.2093919E+04  0.7818609E-02  0.8563927E-01
       -2   -1    0    0    0  501  0.00000000000E+00  0.00000000000E+00  0.47879703705E+03  0.47879703706E+03  0.25500000920E-02 0. -1.
        2   -1    0    0  501    0  0.00000000000E+00  0.00000000000E+00 -0.22893286473E+04  0.22893286473E+04  0.25500000920E-02 0.  1.
    10030    2    1    2    0    0  0.00000000000E+00  0.00000000000E+00 -0.18105316102E+04  0.27681256843E+04  0.20939185974E+04 0.  0.
        4    1    3    3  502    0 -0.97095021950E+03  0.39151613808E+03 -0.91801079088E+03  0.13923988797E+04  0.12699999809E+01 0.  1.
       -4    1    3    3    0  502  0.97095021950E+03 -0.39151613808E+03 -0.89252081933E+03  0.13757268046E+04  0.12699999809E+01 0. -1.
</event>
<event>
 5   0  0.4200061E-05  0.2119966E+04  0.7818609E-02  0.8552499E-01
       -1   -1    0    0    0  501  0.00000000000E+00  0.00000000000E+00  0.10492585132E+04  0.10492585133E+04  0.50400001928E-02 0. -1.
        1   -1    0    0  501    0  0.00000000000E+00  0.00000000000E+00 -0.10708169663E+04  0.10708169663E+04  0.50400001928E-02 0.  1.
    10030    2    1    2    0    0  0.00000000000E+00  0.00000000000E+00 -0.21558453069E+02  0.21200754796E+04  0.21199658658E+04 0.  0.
        4    1    3    3  502    0  0.59374716652E+03  0.58316231889E+03  0.64572117950E+03  0.10533619712E+04  0.12699999809E+01 0. -1.
       -4    1    3    3    0  502 -0.59374716652E+03 -0.58316231889E+03 -0.66727963257E+03  0.10667135083E+04  0.12699999809E+01 0.  1.
</event>
<event>
 5   0  0.9086985E-05  0.2077190E+04  0.7818609E-02  0.8571358E-01
       -2   -1    0    0    0  501  0.00000000000E+00  0.00000000000E+00  0.51531365914E+03  0.51531365914E+03  0.25500000920E-02 0. -1.
        2   -1    0    0  501    0  0.00000000000E+00  0.00000000000E+00 -0.20932494629E+04  0.20932494629E+04  0.25500000920E-02 0.  1.
    10030    2    1    2    0    0  0.00000000000E+00  0.00000000000E+00 -0.15779358038E+04  0.26085631221E+04  0.20771904489E+04 0.  0.
        5    1    3    3  502    0 -0.58198611978E+03 -0.53209539275E+02  0.28921835647E+03  0.65208009202E+03  0.46999998093E+01 0. -1.
       -5    1    3    3    0  502  0.58198611978E+03  0.53209539275E+02 -0.18671541602E+04  0.19564830300E+04  0.46999998093E+01 0.  1.
</event>
<event>
 5   0  0.4174093E-05  0.2144739E+04  0.7818609E-02  0.8541787E-01
       -1   -1    0    0    0  501  0.00000000000E+00  0.00000000000E+00  0.12301314405E+04  0.12301314405E+04  0.50400001928E-02 0.  1.
        1   -1    0    0  501    0  0.00000000000E+00  0.00000000000E+00 -0.93484056416E+03  0.93484056418E+03  0.50400001928E-02 0. -1.
    10030    2    1    2    0    0  0.00000000000E+00  0.00000000000E+00  0.29529087629E+03  0.21649720046E+04  0.21447393966E+04 0.  0.
        3    1    3    3  502    0  0.10160514290E+04 -0.32866776821E+03  0.24651713469E+03  0.10959715854E+04  0.10100000352E+00 0.  1.
       -3    1    3    3    0  502 -0.10160514290E+04  0.32866776821E+03  0.48773741607E+02  0.10690004192E+04  0.10100000352E+00 0. -1.
</event>
<event>
 5   0  0.9012466E-05  0.2145829E+04  0.7818609E-02  0.8541320E-01
        2   -1    0    0  501    0  0.00000000000E+00  0.00000000000E+00  0.10230736331E+04  0.10230736332E+04  0.25500000920E-02 0.  1.
       -2   -1    0    0    0  501  0.00000000000E+00  0.00000000000E+00 -0.11251834888E+04  0.11251834888E+04  0.25500000920E-02 0. -1.
    10030    2    1    2    0    0  0.00000000000E+00  0.00000000000E+00 -0.10210985563E+03  0.21482571219E+04  0.21458290331E+04 0.  0.
        2    1    3    3  502    0  0.69112112584E+03 -0.70734555941E+03  0.36554020384E+03  0.10543271749E+04  0.25500000920E-02 0.  1.
       -2    1    3    3    0  502 -0.69112112584E+03  0.70734555941E+03 -0.46765005946E+03  0.10939299471E+04  0.25500000920E-02 0. -1.
</event>
<event>
 5   0  0.8547605E-05  0.2104873E+04  0.7818609E-02  0.8559100E-01
        2   -1    0    0  501    0  0.00000000000E+00  0.00000000000E+00  0.11129838234E+04  0.11129838234E+04  0.25500000920E-02 0.  1.
       -2   -1    0    0    0  501  0.00000000000E+00  0.00000000000E+00 -0.99518310163E+03  0.99518310163E+03  0.25500000920E-02 0. -1.
    10030    2    1    2    0    0  0.00000000000E+00  0.00000000000E+00  0.11780072177E+03  0.21081669250E+04  0.21048731016E+04 0.  0.
        4    1    3    3  502    0 -0.90887958716E+03 -0.49763145269E+03 -0.12556687949E+03  0.10437757522E+04  0.12699999809E+01 0. -1.
       -4    1    3    3    0  502  0.90887958716E+03  0.49763145269E+03  0.24336760126E+03  0.10643911729E+04  0.12699999809E+01 0.  1.
</event>
<event>
 5   0  0.9012466E-05  0.2106223E+04  0.7818609E-02  0.8558507E-01
        2   -1    0    0  501    0  0.00000000000E+00  0.00000000000E+00  0.12842893699E+04  0.12842893699E+04  0.25500000920E-02 0. -1.
       -2   -1    0    0    0  501  0.00000000000E+00  0.00000000000E+00 -0.86354637721E+03  0.86354637721E+03  0.25500000920E-02 0.  1.
    10030    2    1    2    0    0  0.00000000000E+00  0.00000000000E+00  0.42074299265E+03  0.21478357471E+04  0.21062226213E+04 0.  0.
        2    1    3    3  502    0  0.99502428099E+03  0.40759667014E+02 -0.13889909531E+03  0.10054986966E+04  0.25500000920E-02 0.  1.
       -2    1    3    3    0  502 -0.99502428099E+03 -0.40759667014E+02  0.55964208797E+03  0.11423370505E+04  0.25500000920E-02 0. -1.
</event>
<event>
 5   0  0.4200061E-05  0.2109208E+04  0.7818609E-02  0.8557198E-01
       -1   -1    0    0    0  501  0.00000000000E+00  0.00000000000E+00  0.87226864329E+03  0.87226864330E+03  0.50400001928E-02 0.  1.
        1   -1    0    0  501    0  0.00000000000E+00  0.00000000000E+00 -0.12750538063E+04  0.12750538063E+04  0.50400001928E-02 0. -1.
    10030    2    1    2    0    0  0.00000000000E+00  0.00000000000E+00 -0.40278516304E+03  0.21473224496E+04  0.21092078644E+04 0.  0.
        4    1    3    3  502    0  0.37504804025E+03 -0.16577321322E+03 -0.11905706352E+04  0.12592068301E+04  0.12699999809E+01 0. -1.
       -4    1    3    3    0  502 -0.37504804025E+03  0.16577321322E+03  0.78778547212E+03  0.88811561956E+03  0.12699999809E+01 0.  1.
</event>
<event>
 5   0  0.9086985E-05  0.2106403E+04  0.7818609E-02  0.8558428E-01
        2   -1    0    0  501    0  0.00000000000E+00  0.00000000000E+00  0.11977086359E+04  0.11977086359E+04  0.25500000920E-02 0. -1.
       -2   -1    0    0    0  501  0.00000000000E+00  0.00000000000E+00 -0.92612974187E+03  0.92612974187E+03  0.25500000920E-02 0.  1.
    10030    2    1    2    0    0  0.00000000000E+00  0.00000000000E+00  0.27157889404E+03  0.21238383778E+04  0.21064031806E+04 0.  0.
        5    1    3    3  502    0  0.23067163631E+03  0.10166515360E+04 -0.15188918594E+02  0.10426133236E+04  0.46999998093E+01 0.  1.
       -5    1    3    3    0  502 -0.23067163631E+03 -0.10166515360E+04  0.28676781263E+03  0.10812250541E+04  0.46999998093E+01 0. -1.
</event>
<event>
 5   0  0.4050368E-05  0.2099001E+04  0.7818609E-02  0.8561683E-01
        1   -1    0    0  501    0  0.00000000000E+00  0.00000000000E+00  0.95084779064E+03  0.95084779065E+03  0.50400001928E-02 0.  1.
       -1   -1    0    0    0  501  0.00000000000E+00  0.00000000000E+00 -0.11583888825E+04  0.11583888825E+04  0.50400001928E-02 0. -1.
    10030    2    1    2    0    0  0.00000000000E+00  0.00000000000E+00 -0.20754109188E+03  0.21092366732E+04  0.20990012002E+04 0.  0.
        2    1    3    3  502    0 -0.43234995876E+03  0.16111916127E+03 -0.10510047773E+04  0.11478226835E+04  0.25500000920E-02 0. -1.
       -2    1    3    3    0  502  0.43234995876E+03 -0.16111916127E+03  0.84346368537E+03  0.96141398966E+03  0.25500000920E-02 0.  1.
</event>
<event>
 5   0  0.4182977E-05  0.2105384E+04  0.7818609E-02  0.8558875E-01
       -1   -1    0    0    0  501  0.00000000000E+00  0.00000000000E+00  0.15702354063E+04  0.15702354063E+04  0.50400001928E-02 0.  1.
        1   -1    0    0  501    0  0.00000000000E+00  0.00000000000E+00 -0.70572886829E+03  0.70572886830E+03  0.50400001928E-02 0. -1.
    10030    2    1    2    0    0  0.00000000000E+00  0.00000000000E+00  0.86450653804E+03  0.22759642746E+04  0.21053840089E+04 0.  0.
        1    1    3    3  502    0 -0.21030189223E+02  0.43424655181E+03  0.14686519993E+04  0.15316497745E+04  0.50400001928E-02 0.  1.
       -1    1    3    3    0  502  0.21030189223E+02 -0.43424655181E+03 -0.60414546131E+03  0.74431450010E+03  0.50400001928E-02 0. -1.
</event>
<event>
 5   0  0.4128678E-05  0.2159917E+04  0.7818609E-02  0.8535299E-01
       -1   -1    0    0    0  501  0.00000000000E+00  0.00000000000E+00  0.87640496446E+03  0.87640496448E+03  0.50400001928E-02 0. -1.
        1   -1    0    0  501    0  0.00000000000E+00  0.00000000000E+00 -0.13307890511E+04  0.13307890511E+04  0.50400001928E-02 0.  1.
    10030    2    1    2    0    0  0.00000000000E+00  0.00000000000E+00 -0.45438408659E+03  0.22071940155E+04  0.21599167864E+04 0.  0.
        5    1    3    3  502    0 -0.38322603853E+03 -0.27813095563E+03 -0.12190394232E+04  0.13077837093E+04  0.46999998093E+01 0.  1.
       -5    1    3    3    0  502  0.38322603853E+03  0.27813095563E+03  0.76465533661E+03  0.89941030620E+03  0.46999998093E+01 0. -1.
</event>
<event>
 5   0  0.4200061E-05  0.2093748E+04  0.7818609E-02  0.8564002E-01
       -1   -1    0    0    0  501  0.00000000000E+00  0.00000000000E+00  0.10805339638E+04  0.10805339638E+04  0.50400001928E-02 0.  1.
        1   -1    0    0  501    0  0.00000000000E+00  0.00000000000E+00 -0.10142627736E+04  0.10142627736E+04  0.50400001928E-02 0. -1.
    10030    2    1    2    0    0  0.00000000000E+00  0.00000000000E+00  0.66271190224E+02  0.20947967374E+04  0.20937481941E+04 0.  0.
        4    1    3    3  502    0 -0.13144098131E+03 -0.28345927123E+02  0.10718575943E+04  0.10802594774E+04  0.12699999809E+01 0.  1.
       -4    1    3    3    0  502  0.13144098131E+03  0.28345927123E+02 -0.10055864040E+04  0.10145372601E+04  0.12699999809E+01 0. -1.
</event>
<event>
 5   0  0.8858590E-05  0.2116038E+04  0.7818609E-02  0.8554211E-01
        2   -1    0    0  501    0  0.00000000000E+00  0.00000000000E+00  0.13335343946E+04  0.13335343946E+04  0.25500000920E-02 0.  1.
       -2   -1    0    0    0  501  0.00000000000E+00  0.00000000000E+00 -0.83942643546E+03  0.83942643547E+03  0.25500000920E-02 0. -1.
    10030    2    1    2    0    0  0.00000000000E+00  0.00000000000E+00  0.49410795912E+03  0.21729608301E+04  0.21160378290E+04 0.  0.
        1    1    3    3  502    0  0.59251158468E+03  0.83135825435E+03  0.53233561719E+03  0.11513503960E+04  0.50400001928E-02 0.  1.
       -1    1    3    3    0  502 -0.59251158468E+03 -0.83135825435E+03 -0.38227658069E+02  0.10216104340E+04  0.50400001928E-02 0. -1.
</event>
<event>
 5   0  0.4182977E-05  0.2108706E+04  0.7818609E-02  0.8557418E-01
        1   -1    0    0  501    0  0.00000000000E+00  0.00000000000E+00  0.10419952795E+04  0.10419952796E+04  0.50400001928E-02 0. -1.
       -1   -1    0    0    0  501  0.00000000000E+00  0.00000000000E+00 -0.10668571739E+04  0.10668571739E+04  0.50400001928E-02 0.  1.
    10030    2    1    2    0    0  0.00000000000E+00  0.00000000000E+00 -0.24861894353E+02  0.21088524535E+04  0.21087058962E+04 0.  0.
        1    1    3    3  502    0  0.10284716329E+04 -0.95988838503E+02 -0.22385136908E+03  0.10569187255E+04  0.50400001928E-02 0.  1.
       -1    1    3    3    0  502 -0.10284716329E+04  0.95988838503E+02  0.19898947472E+03  0.10519337279E+04  0.50400001928E-02 0. -1.
</event>
<event>
 5   0  0.8872777E-05  0.2098795E+04  0.7818609E-02  0.8561774E-01
        2   -1    0    0  501    0  0.00000000000E+00  0.00000000000E+00  0.16278906299E+04  0.16278906299E+04  0.25500000920E-02 0. -1.
       -2   -1    0    0    0  501  0.00000000000E+00  0.00000000000E+00 -0.67647961156E+03  0.67647961156E+03  0.25500000920E-02 0.  1.
    10030    2    1    2    0    0  0.00000000000E+00  0.00000000000E+00  0.95141101835E+03  0.23043702415E+04  0.20987947217E+04 0.  0.
        3    1    3    3  502    0  0.69983557202E+03  0.57875547208E+02  0.13319056542E+04  0.15056865838E+04  0.10100000352E+00 0. -1.
       -3    1    3    3    0  502 -0.69983557202E+03 -0.57875547208E+02 -0.38049463587E+03  0.79868365762E+03  0.10100000352E+00 0.  1.
</event>
<event>
 5   0  0.8858590E-05  0.2088698E+04  0.7818609E-02  0.8566238E-01
        2   -1    0    0  501    0  0.00000000000E+00  0.00000000000E+00  0.21044876956E+04  0.21044876956E+04  0.25500000920E-02 0. -1.
       -2   -1    0    0    0  501  0.00000000000E+00  0.00000000000E+00 -0.51825665138E+03  0.51825665139E+03  0.25500000920E-02 0.  1.
    10030    2    1    2    0    0  0.00000000000E+00  0.00000000000E+00  0.15862310442E+04  0.26227443470E+04  0.20886979159E+04 0.  0.
        1    1    3    3  502    0 -0.63676873842E+03  0.76456741736E+03  0.39479053159E+03  0.10704659386E+04  0.50400001928E-02 0.  1.
       -1    1    3    3    0  502  0.63676873842E+03 -0.76456741736E+03  0.11914405126E+04  0.15522784084E+04  0.50400001928E-02 0. -1.
</event>
<event>
 5   0  0.8858590E-05  0.2017584E+04  0.7818609E-02  0.8598444E-01
       -2   -1    0    0    0  501  0.00000000000E+00  0.00000000000E+00  0.46594710753E+03  0.46594710754E+03  0.25500000920E-02 0.  1.
        2   -1    0    0  501    0  0.00000000000E+00  0.00000000000E+00 -0.21840698554E+04  0.21840698554E+04  0.25500000920E-02 0. -1.
    10030    2    1    2    0    0  0.00000000000E+00  0.00000000000E+00 -0.17181227479E+04  0.26500169630E+04  0.20175837349E+04 0.  0.
        1    1    3    3  502    0 -0.33574596678E+03  0.91382817648E+03 -0.12062071793E+04  0.15500784012E+04  0.50400001928E-02 0.  1.
       -1    1    3    3    0  502  0.33574596678E+03 -0.91382817648E+03 -0.51191556858E+03  0.10999385618E+04  0.50400001928E-02 0. -1.
</event>
<event>
 5   0  0.9086985E-05  0.2123714E+04  0.7818609E-02  0.8550869E-01
       -2   -1    0    0    0  501  0.00000000000E+00  0.00000000000E+00  0.11690842671E+04  0.11690842671E+04  0.25500000920E-02 0.  1.
        2   -1    0    0  501    0  0.00000000000E+00  0.00000000000E+00 -0.96446440512E+03  0.96446440512E+03  0.25500000920E-02 0. -1.
    10030    2    1    2    0    0  0.00000000000E+00  0.00000000000E+00  0.20461986195E+03  0.21335486722E+04  0.21237138811E+04 0.  0.
        5    1    3    3  502    0  0.48463259221E+03 -0.26735258832E+03 -0.80807192418E+03  0.97946336356E+03  0.46999998093E+01 0. -1.
       -5    1    3    3    0  502 -0.48463259221E+03  0.26735258832E+03  0.10126917861E+04  0.11540853086E+04  0.46999998093E+01 0.  1.
</event>
<event>
 5   0  0.4128678E-05  0.2093681E+04  0.7818609E-02  0.8564032E-01
        1   -1    0    0  501    0  0.00000000000E+00  0.00000000000E+00  0.74003850939E+03  0.74003850940E+03  0.50400001928E-02 0.  1.
       -1   -1    0    0    0  501  0.00000000000E+00  0.00000000000E+00 -0.14808349401E+04  0.14808349401E+04  0.50400001928E-02 0. -1.
    10030    2    1    2    0    0  0.00000000000E+00  0.00000000000E+00 -0.74079643069E+03  0.22208734495E+04  0.20936808560E+04 0.  0.
        5    1    3    3  502    0  0.11448805176E+03  0.66257384912E+03 -0.12214754492E+04  0.13943227684E+04  0.46999998093E+01 0. -1.
       -5    1    3    3    0  502 -0.11448805176E+03 -0.66257384912E+03  0.48067901851E+03  0.82655068107E+03  0.46999998093E+01 0.  1.
</event>
<event>
 5   0  0.8872777E-05  0.2092786E+04  0.7818609E-02  0.8564428E-01
       -2   -1    0    0    0  501  0.00000000000E+00  0.00000000000E+00  0.15051714498E+04  0.15051714498E+04  0.25500000920E-02 0. -1.
        2   -1    0    0  501    0  0.00000000000E+00  0.00000000000E+00 -0.72745069128E+03  0.72745069128E+03  0.25500000920E-02 0.  1.
    10030    2    1    2    0    0  0.00000000000E+00  0.00000000000E+00  0.77772075856E+03  0.22326221411E+04  0.20927857145E+04 0.  0.
        3    1    3    3  502    0  0.49537242831E+03  0.22611336261E+03 -0.56438635783E+03  0.78425319035E+03  0.10100000352E+00 0.  1.
       -3    1    3    3    0  502 -0.49537242831E+03 -0.22611336261E+03  0.13421071164E+04  0.14483689508E+04  0.10100000352E+00 0. -1.
</event>
<event>
 5   0  0.4050368E-05  0.2091636E+04  0.7818609E-02  0.8564937E-01
        1   -1    0    0  501    0  0.00000000000E+00  0.00000000000E+00  0.16699685480E+04  0.16699685480E+04  0.50400001928E-02 0.  1.
       -1   -1    0    0    0  501  0.00000000000E+00  0.00000000000E+00 -0.65494387912E+03  0.65494387914E+03  0.50400001928E-02 0. -1.
    10030    2    1    2    0    0  0.00000000000E+00  0.00000000000E+00  0.10150246689E+04  0.23249124272E+04  0.20916363727E+04 0.  0.
        2    1    3    3  502    0  0.97639887454E+03  0.29631497346E+03  0.25263929202E+03  0.10511821619E+04  0.25500000920E-02 0. -1.
       -2    1    3    3    0  502 -0.97639887454E+03 -0.29631497346E+03  0.76238537690E+03  0.12737302652E+04  0.25500000920E-02 0.  1.
</event>
<event>
 5   0  0.4182977E-05  0.2062667E+04  0.7818609E-02  0.8577869E-01
       -1   -1    0    0    0  501  0.00000000000E+00  0.00000000000E+00  0.56302982968E+03  0.56302982970E+03  0.50400001928E-02 0. -1.
        1   -1    0    0  501    0  0.00000000000E+00  0.00000000000E+00 -0.18891526444E+04  0.18891526444E+04  0.50400001928E-02 0.  1.
    10030    2    1    2    0    0  0.00000000000E+00  0.00000000000E+00 -0.13261228147E+04  0.24521824741E+04  0.20626674881E+04 0.  0.
        1    1    3    3  502    0  0.58090379493E+03  0.43717014970E+03  0.20656729800E+03  0.75580222769E+03  0.50400001928E-02 0. -1.
       -1    1    3    3    0  502 -0.58090379493E+03 -0.43717014970E+03 -0.15326901127E+04  0.16963802464E+04  0.50400001928E-02 0.  1.
</event>
<event>
 5   0  0.4174093E-05  0.2045045E+04  0.7818609E-02  0.8585846E-01
       -1   -1    0    0    0  501  0.00000000000E+00  0.00000000000E+00  0.54012285434E+03  0.54012285436E+03  0.50400001928E-02 0. -1.
        1   -1    0    0  501    0  0.00000000000E+00  0.00000000000E+00 -0.19357667785E+04  0.19357667785E+04  0.50400001928E-02 0.  1.
    10030    2    1    2    0    0  0.00000000000E+00  0.00000000000E+00 -0.13956439242E+04  0.24758896329E+04  0.20450446233E+04 0.  0.
        3    1    3    3  502    0  0.15080401190E+03  0.55298909888E+03  0.32733892890E+03  0.66006785868E+03  0.10100000352E+00 0. -1.
       -3    1    3    3    0  502 -0.15080401190E+03 -0.55298909888E+03 -0.17229828531E+04  0.18158217742E+04  0.10100000352E+00 0.  1.
</event>
<event>
 5   0  0.4174093E-05  0.2097968E+04  0.7818609E-02  0.8562139E-01
       -1   -1    0    0    0  501  0.00000000000E+00  0.00000000000E+00  0.65963985173E+03  0.65963985175E+03  0.50400001928E-02 0. -1.
        1   -1    0    0  501    0  0.00000000000E+00  0.00000000000E+00 -0.16681330300E+04  0.16681330300E+04  0.50400001928E-02 0.  1.
    10030    2    1    2    0    0  0.00000000000E+00  0.00000000000E+00 -0.10084931783E+04  0.23277728818E+04  0.20979676114E+04 0.  0.
        3    1    3    3  502    0 -0.64506889003E+03  0.50215996427E+03 -0.12335834862E+04  0.14798671326E+04  0.10100000352E+00 0.  1.
       -3    1    3    3    0  502  0.64506889003E+03 -0.50215996427E+03  0.22509030787E+03  0.84790574918E+03  0.10100000352E+00 0. -1.
</event>
<event>
 5   0  0.9012466E-05  0.1870385E+04  0.7818609E-02  0.8669740E-01
       -2   -1    0    0    0  501  0.00000000000E+00  0.00000000000E+00  0.50504527437E+03  0.50504527438E+03  0.25500000920E-02 0.  1.
        2   -1    0    0  501    0  0.00000000000E+00  0.00000000000E+00 -0.17316954587E+04  0.17316954588E+04  0.25500000920E-02 0. -1.
    10030    2    1    2    0    0  0.00000000000E+00  0.00000000000E+00 -0.12266501844E+04  0.22367407331E+04  0.18703845681E+04 0.  0.
        2    1    3    3  502    0 -0.44136732251E+03  0.59450785432E+03 -0.12964809995E+04  0.14930196530E+04  0.25500000920E-02 0. -1.
       -2    1    3    3    0  502  0.44136732251E+03 -0.59450785432E+03  0.69830815140E+02  0.74372108010E+03  0.25500000920E-02 0.  1.
</event>
<event>
 5   0  0.4128678E-05  0.2088954E+04  0.7818609E-02  0.8566125E-01
        1   -1    0    0  501    0  0.00000000000E+00  0.00000000000E+00  0.82945839506E+03  0.82945839507E+03  0.50400001928E-02 0. -1.
       -1   -1    0    0    0  501  0.00000000000E+00  0.00000000000E+00 -0.13152348020E+04  0.13152348020E+04  0.50400001928E-02 0.  1.
    10030    2    1    2    0    0  0.00000000000E+00  0.00000000000E+00 -0.48577640691E+03  0.21446931970E+04  0.20889543298E+04 0.  0.
        5    1    3    3  502    0 -0.24238523447E+03 -0.46650258071E+03 -0.11694857737E+04  0.12822224162E+04  0.46999998093E+01 0.  1.
       -5    1    3    3    0  502  0.24238523447E+03  0.46650258071E+03  0.68370936676E+03  0.86247078089E+03  0.46999998093E+01 0. -1.
</event>
<event>
 5   0  0.9086985E-05  0.2121522E+04  0.7818609E-02  0.8551821E-01
        2   -1    0    0  501    0  0.00000000000E+00  0.00000000000E+00  0.18175224765E+04  0.18175224765E+04  0.25500000920E-02 0.  1.
       -2   -1    0    0    0  501  0.00000000000E+00  0.00000000000E+00 -0.61909233896E+03  0.61909233896E+03  0.25500000920E-02 0. -1.
    10030    2    1    2    0    0  0.00000000000E+00  0.00000000000E+00  0.11984301376E+04  0.24366148155E+04  0.21215223224E+04 0.  0.
        5    1    3    3  502    0  0.26684154731E+03  0.80084837454E+03  0.13369824929E+04  0.15811726050E+04  0.46999998093E+01 0.  1.
       -5    1    3    3    0  502 -0.26684154731E+03 -0.80084837454E+03 -0.13855235534E+03  0.85544221052E+03  0.46999998093E+01 0. -1.
</event>
<event>
 5   0  0.4050368E-05  0.2047862E+04  0.7818609E-02  0.8584565E-01
       -1   -1    0    0    0  501  0.00000000000E+00  0.00000000000E+00  0.12416465798E+04  0.12416465798E+04  0.50400001928E-02 0.  1.
        1   -1    0    0  501    0  0.00000000000E+00  0.00000000000E+00 -0.84439091371E+03  0.84439091373E+03  0.50400001928E-02 0. -1.
    10030    2    1    2    0    0  0.00000000000E+00  0.00000000000E+00  0.39725566608E+03  0.20860374935E+04  0.20478623880E+04 0.  0.
        2    1    3    3  502    0 -0.72417773543E+02 -0.34622572008E+03 -0.78017926631E+03  0.85661909315E+03  0.25500000920E-02 0. -1.
       -2    1    3    3    0  502  0.72417773543E+02  0.34622572008E+03  0.11774349324E+04  0.12294184004E+04  0.25500000920E-02 0.  1.
</event>
<event>
 5   0  0.3176125E-05  0.2133556E+04  0.7818609E-02  0.8546604E-01
        4   -1    0    0  501    0  0.00000000000E+00  0.00000000000E+00  0.25799980756E+04  0.25799983882E+04  0.12699999809E+01 0.  1.
       -4   -1    0    0    0  501  0.00000000000E+00  0.00000000000E+00 -0.44109022669E+03  0.44109205499E+03  0.12699999809E+01 0. -1.
    10030    2    1    2    0    0  0.00000000000E+00  0.00000000000E+00  0.21389078489E+04  0.30210904431E+04  0.21335558768E+04 0.  0.
        2    1    3    3  502    0 -0.41316372528E+03 -0.45780545469E+02 -0.32168898876E+03  0.52562717560E+03  0.25500000920E-02 0. -1.
       -2    1    3    3    0  502  0.41316372528E+03  0.45780545469E+02  0.24605968377E+04  0.24954632676E+04  0.25500000920E-02 0.  1.
</event>
<event>
 5   0  0.4182977E-05  0.2147726E+04  0.7818609E-02  0.8540506E-01
        1   -1    0    0  501    0  0.00000000000E+00  0.00000000000E+00  0.12629356444E+04  0.12629356445E+04  0.50400001928E-02 0.  1.
       -1   -1    0    0    0  501  0.00000000000E+00  0.00000000000E+00 -0.91309635430E+03  0.91309635431E+03  0.50400001928E-02 0. -1.
    10030    2    1    2    0    0  0.00000000000E+00  0.00000000000E+00  0.34983929015E+03  0.21760319988E+04  0.21477261768E+04 0.  0.
        1    1    3    3  502    0 -0.44078652935E+03 -0.97687032555E+03  0.10610144834E+03  0.10769521414E+04  0.50400001928E-02 0. -1.
       -1    1    3    3    0  502  0.44078652935E+03  0.97687032555E+03  0.24373784180E+03  0.10990798574E+04  0.50400001928E-02 0.  1.
</event>
<event>
 5   0  0.4050368E-05  0.2088424E+04  0.7818609E-02  0.8566360E-01
        1   -1    0    0  501    0  0.00000000000E+00  0.00000000000E+00  0.14995328264E+04  0.14995328264E+04  0.50400001928E-02 0. -1.
       -1   -1    0    0    0  501  0.00000000000E+00  0.00000000000E+00 -0.72714538554E+03  0.72714538556E+03  0.50400001928E-02 0.  1.
    10030    2    1    2    0    0  0.00000000000E+00  0.00000000000E+00  0.77238744085E+03  0.22266782120E+04  0.20884236881E+04 0.  0.
        2    1    3    3  502    0 -0.60873395666E+01  0.64296546105E+02 -0.72501387772E+03  0.72788476041E+03  0.25500000920E-02 0.  1.
       -2    1    3    3    0  502  0.60873395666E+01 -0.64296546105E+02  0.14974013186E+04  0.14987934515E+04  0.25500000920E-02 0. -1.
</event>
<event>
 5   0  0.8858590E-05  0.2144813E+04  0.7818609E-02  0.8541756E-01
       -2   -1    0    0    0  501  0.00000000000E+00  0.00000000000E+00  0.12791131371E+04  0.12791131371E+04  0.25500000920E-02 0. -1.
        2   -1    0    0  501    0  0.00000000000E+00  0.00000000000E+00 -0.89910407902E+03  0.89910407902E+03  0.25500000920E-02 0.  1.
    10030    2    1    2    0    0  0.00000000000E+00  0.00000000000E+00  0.38000905808E+03  0.21782172161E+04  0.21448131285E+04 0.  0.
        1    1    3    3  502    0 -0.48508895082E+03 -0.95568076157E+03  0.22825854503E+03  0.10957823560E+04  0.50400001928E-02 0. -1.
       -1    1    3    3    0  502  0.48508895082E+03  0.95568076157E+03  0.15175051305E+03  0.10824348602E+04  0.50400001928E-02 0.  1.
</event>
<event>
 5   0  0.8858590E-05  0.2099057E+04  0.7818609E-02  0.8561659E-01
       -2   -1    0    0    0  501  0.00000000000E+00  0.00000000000E+00  0.50984398841E+03  0.50984398842E+03  0.25500000920E-02 0.  1.
        2   -1    0    0  501    0  0.00000000000E+00  0.00000000000E+00 -0.21604853027E+04  0.21604853027E+04  0.25500000920E-02 0. -1.
    10030    2    1    2    0    0  0.00000000000E+00  0.00000000000E+00 -0.16506413142E+04  0.26703292911E+04  0.20990573538E+04 0.  0.
        1    1    3    3  502    0  0.89204861150E+03 -0.35958678467E+03 -0.29092854749E+03  0.10048347132E+04  0.50400001928E-02 0. -1.
       -1    1    3    3    0  502 -0.89204861150E+03  0.35958678467E+03 -0.13597127667E+04  0.16654945779E+04  0.50400001928E-02 0.  1.
</event>
<event>
 5   0  0.3176125E-05  0.2089146E+04  0.7818609E-02  0.8566040E-01
       -3   -1    0    0    0  501  0.00000000000E+00  0.00000000000E+00  0.12823436875E+04  0.12823436915E+04  0.10100000352E+00 0.  1.
        3   -1    0    0  501    0  0.00000000000E+00  0.00000000000E+00 -0.85088985204E+03  0.85088985804E+03  0.10100000352E+00 0. -1.
    10030    2    1    2    0    0  0.00000000000E+00  0.00000000000E+00  0.43145383550E+03  0.21332335496E+04  0.20891464680E+04 0.  0.
        4    1    3    3  502    0 -0.68836944142E+03  0.71016559687E+03  0.55889037307E+03  0.11360227660E+04  0.12699999809E+01 0.  1.
       -4    1    3    3    0  502  0.68836944142E+03 -0.71016559687E+03 -0.12743653756E+03  0.99721078357E+03  0.12699999809E+01 0. -1.
</event>
<event>
 5   0  0.4200061E-05  0.2077789E+04  0.7818609E-02  0.8571091E-01
        1   -1    0    0  501    0  0.00000000000E+00  0.00000000000E+00  0.47860582910E+03  0.47860582913E+03  0.50400001928E-02 0.  1.
       -1   -1    0    0    0  501  0.00000000000E+00  0.00000000000E+00 -0.22550958885E+04  0.22550958885E+04  0.50400001928E-02 0. -1.
    10030    2    1    2    0    0  0.00000000000E+00  0.00000000000E+00 -0.17764900594E+04  0.27337017176E+04  0.20777892458E+04 0.  0.
        4    1    3    3  502    0 -0.22622671234E+03  0.99988210322E+03 -0.66668828709E+03  0.12228726961E+04  0.12699999809E+01 0. -1.
       -4    1    3    3    0  502  0.22622671234E+03 -0.99988210322E+03 -0.11098017723E+04  0.15108290216E+04  0.12699999809E+01 0.  1.
</event>
<event>
 5   0  0.9086985E-05  0.2106164E+04  0.7818609E-02  0.8558533E-01
        2   -1    0    0  501    0  0.00000000000E+00  0.00000000000E+00  0.25358575708E+04  0.25358575708E+04  0.25500000920E-02 0.  1.
       -2   -1    0    0    0  501  0.00000000000E+00  0.00000000000E+00 -0.43732022373E+03  0.43732022374E+03  0.25500000920E-02 0. -1.
    10030    2    1    2    0    0  0.00000000000E+00  0.00000000000E+00  0.20985373471E+04  0.29731777946E+04  0.21061640964E+04 0.  0.
        5    1    3    3  502    0  0.13692824933E+03  0.17616598295E+03  0.25020917282E+04  0.25120248617E+04  0.46999998093E+01 0.  1.
       -5    1    3    3    0  502 -0.13692824933E+03 -0.17616598295E+03 -0.40355438114E+03  0.46115293293E+03  0.46999998093E+01 0. -1.
</event>
<event>
 5   0  0.4128678E-05  0.2079871E+04  0.7818609E-02  0.8570162E-01
       -1   -1    0    0    0  501  0.00000000000E+00  0.00000000000E+00  0.10101340141E+04  0.10101340141E+04  0.50400001928E-02 0. -1.
        1   -1    0    0  501    0  0.00000000000E+00  0.00000000000E+00 -0.10706166505E+04  0.10706166505E+04  0.50400001928E-02 0.  1.
    10030    2    1    2    0    0  0.00000000000E+00  0.00000000000E+00 -0.60482636391E+02  0.20807506646E+04  0.20798714333E+04 0.  0.
        5    1    3    3  502    0 -0.79889340795E+03 -0.20416982545E+03  0.60368908844E+03  0.10219484333E+04  0.46999998093E+01 0. -1.
       -5    1    3    3    0  502  0.79889340795E+03  0.20416982545E+03 -0.66417172483E+03  0.10588022313E+04  0.46999998093E+01 0.  1.
</event>
<event>
 5   0  0.4050368E-05  0.2105584E+04  0.7818609E-02  0.8558787E-01
        1   -1    0    0  501    0  0.00000000000E+00  0.00000000000E+00  0.17002770078E+04  0.17002770078E+04  0.50400001928E-02 0.  1.
       -1   -1    0    0    0  501  0.00000000000E+00  0.00000000000E+00 -0.65187700407E+03  0.65187700409E+03  0.50400001928E-02 0. -1.
    10030    2    1    2    0    0  0.00000000000E+00  0.00000000000E+00  0.10484000037E+04  0.23521540119E+04  0.21055844623E+04 0.  0.
        2    1    3    3  502    0 -0.19782231069E+03  0.47040370388E+03  0.15528800159E+04  0.16345793510E+04  0.25500000920E-02 0.  1.
       -2    1    3    3    0  502  0.19782231069E+03 -0.47040370388E+03 -0.50448001213E+03  0.71757466084E+03  0.25500000920E-02 0. -1.
</event>
<event>
 5   0  0.9086985E-05  0.2100561E+04  0.7818609E-02  0.8560996E-01
        2   -1    0    0  501    0  0.00000000000E+00  0.00000000000E+00  0.72456340795E+03  0.72456340795E+03  0.25500000920E-02 0. -1.
       -2   -1    0    0    0  501  0.00000000000E+00  0.00000000000E+00 -0.15224185352E+04  0.15224185352E+04  0.25500000920E-02 0.  1.
    10030    2    1    2    0    0  0.00000000000E+00  0.00000000000E+00 -0.79785512725E+03  0.22469819431E+04  0.21005606511E+04 0.  0.
        5    1    3    3  502    0 -0.71235190398E+02  0.21843655669E+03  0.69733965299E+03  0.73422997983E+03  0.46999998093E+01 0. -1.
       -5    1    3    3    0  502  0.71235190398E+02 -0.21843655669E+03 -0.14951947802E+04  0.15127519633E+04  0.46999998093E+01 0.  1.
</event>
<event>
 5   0  0.8858590E-05  0.2105511E+04  0.7818609E-02  0.8558820E-01
       -2   -1    0    0    0  501  0.00000000000E+00  0.00000000000E+00  0.55877492930E+03  0.55877492931E+03  0.25500000920E-02 0. -1.
        2   -1    0    0  501    0  0.00000000000E+00  0.00000000000E+00 -0.19834351384E+04  0.19834351384E+04  0.25500000920E-02 0.  1.
    10030    2    1    2    0    0  0.00000000000E+00  0.00000000000E+00 -0.14246602091E+04  0.25422100677E+04  0.21055107021E+04 0.  0.
        1    1    3    3  502    0  0.10226920929E+04  0.81233137642E+02 -0.99753375815E+03  0.14309337993E+04  0.50400001928E-02 0.  1.
       -1    1    3    3    0  502 -0.10226920929E+04 -0.81233137642E+02 -0.42712645091E+03  0.11112762683E+04  0.50400001928E-02 0. -1.
</event>
<event>
 5   0  0.4050368E-05  0.2103317E+04  0.7818609E-02  0.8559784E-01
       -1   -1    0    0    0  501  0.00000000000E+00  0.00000000000E+00  0.94704451768E+03  0.94704451770E+03  0.50400001928E-02 0. -1.
        1   -1    0    0  501    0  0.00000000000E+00  0.00000000000E+00 -0.11678280439E+04  0.11678280439E+04  0.50400001928E-02 0.  1.
    10030    2    1    2    0    0  0.00000000000E+00  0.00000000000E+00 -0.22078352617E+03  0.21148725616E+04  0.21033165682E+04 0.  0.
        2    1    3    3  502    0  0.12282317108E+03 -0.45840322817E+03  0.83325586812E+03  0.95892355937E+03  0.25500000920E-02 0. -1.
       -2    1    3    3    0  502 -0.12282317108E+03  0.45840322817E+03 -0.10540393943E+04  0.11559490022E+04  0.25500000920E-02 0.  1.
</event>
<event>
 5   0  0.4128678E-05  0.2090397E+04  0.7818609E-02  0.8565485E-01
       -1   -1    0    0    0  501  0.00000000000E+00  0.00000000000E+00  0.72763949000E+03  0.72763949001E+03  0.50400001928E-02 0.  1.
        1   -1    0    0  501    0  0.00000000000E+00  0.00000000000E+00 -0.15013475373E+04  0.15013475373E+04  0.50400001928E-02 0. -1.
    10030    2    1    2    0    0  0.00000000000E+00  0.00000000000E+00 -0.77370804734E+03  0.22289870274E+04  0.20903968584E+04 0.  0.
        5    1    3    3  502    0 -0.62514329015E+02  0.57338503109E+03  0.54256396385E+03  0.79188141793E+03  0.46999998093E+01 0.  1.
       -5    1    3    3    0  502  0.62514329015E+02 -0.57338503109E+03 -0.13162720112E+04  0.14371056094E+04  0.46999998093E+01 0. -1.
</event>
<event>
 5   0  0.4174093E-05  0.2117001E+04  0.7818609E-02  0.8553791E-01
       -1   -1    0    0    0  501  0.00000000000E+00  0.00000000000E+00  0.11452409857E+04  0.11452409857E+04  0.50400001928E-02 0. -1.
        1   -1    0    0  501    0  0.00000000000E+00  0.00000000000E+00 -0.97832960083E+03  0.97832960084E+03  0.50400001928E-02 0.  1.
    10030    2    1    2    0    0  0.00000000000E+00  0.00000000000E+00  0.16691138488E+03  0.21235705866E+04  0.21170008563E+04 0.  0.
        3    1    3    3  502    0  0.69369605914E+03  0.76073872941E+03  0.33015693599E+03  0.10811758643E+04  0.10100000352E+00 0. -1.
       -3    1    3    3    0  502 -0.69369605914E+03 -0.76073872941E+03 -0.16324555111E+03  0.10423947223E+04  0.10100000352E+00 0.  1.
</event>
<event>
 5   0  0.4174093E-05  0.2067851E+04  0.7818609E-02  0.8575539E-01
        1   -1    0    0  501    0  0.00000000000E+00  0.00000000000E+00  0.11318885024E+04  0.11318885024E+04  0.50400001928E-02 0.  1.
       -1   -1    0    0    0  501  0.00000000000E+00  0.00000000000E+00 -0.94444111482E+03  0.94444111483E+03  0.50400001928E-02 0. -1.
    10030    2    1    2    0    0  0.00000000000E+00  0.00000000000E+00  0.18744738754E+03  0.20763296172E+04  0.20678510962E+04 0.  0.
        3    1    3    3  502    0  0.90275055427E+02  0.67135480621E+03 -0.69059048342E+03  0.96735830355E+03  0.10100000352E+00 0. -1.
       -3    1    3    3    0  502 -0.90275055427E+02 -0.67135480621E+03  0.87803787097E+03  0.11089713137E+04  0.10100000352E+00 0.  1.
</event>
<event>
 5   0  0.4128678E-05  0.2098574E+04  0.7818609E-02  0.8561872E-01
       -1   -1    0    0    0  501  0.00000000000E+00  0.00000000000E+00  0.95807426196E+03  0.95807426198E+03  0.50400001928E-02 0. -1.
        1   -1    0    0  501    0  0.00000000000E+00  0.00000000000E+00 -0.11491836804E+04  0.11491836804E+04  0.50400001928E-02 0.  1.
    10030    2    1    2    0    0  0.00000000000E+00  0.00000000000E+00 -0.19110941839E+03  0.21072579423E+04  0.20985740935E+04 0.  0.
        5    1    3    3  502    0  0.93243106646E+03 -0.17211506045E+03 -0.54678031646E+03  0.10945510916E+04  0.46999998093E+01 0.  1.
       -5    1    3    3    0  502 -0.93243106646E+03  0.17211506045E+03  0.35567089807E+03  0.10127068507E+04  0.46999998093E+01 0. -1.
</event>
<event>
 5   0  0.4200061E-05  0.2121791E+04  0.7818609E-02  0.8551704E-01
       -1   -1    0    0    0  501  0.00000000000E+00  0.00000000000E+00  0.94755190672E+03  0.94755190673E+03  0.50400001928E-02 0. -1.
        1   -1    0    0  501    0  0.00000000000E+00  0.00000000000E+00 -0.11877971212E+04  0.11877971212E+04  0.50400001928E-02 0.  1.
    10030    2    1    2    0    0  0.00000000000E+00  0.00000000000E+00 -0.24024521451E+03  0.21353490280E+04  0.21217911556E+04 0.  0.
        4    1    3    3  502    0 -0.83821730569E+03 -0.41575083798E+03 -0.62335858168E+03  0.11242929089E+04  0.12699999809E+01 0.  1.
       -4    1    3    3    0  502  0.83821730569E+03  0.41575083798E+03  0.38311336717E+03  0.10110561190E+04  0.12699999809E+01 0. -1.
</event>
<event>
 5   0  0.4128678E-05  0.2106734E+04  0.7818609E-02  0.8558283E-01
        1   -1    0    0  501    0  0.00000000000E+00  0.00000000000E+00  0.19035034927E+04  0.19035034927E+04  0.50400001928E-02 0. -1.
       -1   -1    0    0    0  501  0.00000000000E+00  0.00000000000E+00 -0.58291550980E+03  0.58291550983E+03  0.50400001928E-02 0.  1.
    10030    2    1    2    0    0  0.00000000000E+00  0.00000000000E+00  0.13205879829E+04  0.24864190026E+04  0.21067336888E+04 0.  0.
        5    1    3    3  502    0  0.53840409148E+03  0.79383868136E+03  0.14652226436E+03  0.97033482968E+03  0.46999998093E+01 0.  1.
       -5    1    3    3    0  502 -0.53840409148E+03 -0.79383868136E+03  0.11740657186E+04  0.15160841729E+04  0.46999998093E+01 0. -1.
</event>
<event>
 5   0  0.8547605E-05  0.2094756E+04  0.7818609E-02  0.8563557E-01
       -2   -1    0    0    0  501  0.00000000000E+00  0.00000000000E+00  0.92307510361E+03  0.92307510361E+03  0.25500000920E-02 0. -1.
        2   -1    0    0  501    0  0.00000000000E+00  0.00000000000E+00 -0.11884201960E+04  0.11884201960E+04  0.25500000920E-02 0.  1.
    10030    2    1    2    0    0  0.00000000000E+00  0.00000000000E+00 -0.26534509243E+03  0.21114952997E+04  0.20947564017E+04 0.  0.
        4    1    3    3  502    0 -0.77820359453E+02 -0.81392112349E+03 -0.79248389614E+03  0.11386641042E+04  0.12699999809E+01 0.  1.
       -4    1    3    3    0  502  0.77820359453E+02  0.81392112349E+03  0.52713880371E+03  0.97283119548E+03  0.12699999809E+01 0. -1.
</event>
<event>
 5   0  0.4128678E-05  0.2186577E+04  0.7818609E-02  0.8524036E-01
        1   -1    0    0  501    0  0.00000000000E+00  0.00000000000E+00  0.71766678293E+03  0.71766678295E+03  0.50400001928E-02 0.  1.
       -1   -1    0    0    0  501  0.00000000000E+00  0.00000000000E+00 -0.16655085304E+04  0.16655085304E+04  0.50400001928E-02 0. -1.
    10030    2    1    2    0    0  0.00000000000E+00  0.00000000000E+00 -0.94784174751E+03  0.23831753134E+04  0.21865773702E+04 0.  0.
        5    1    3    3  502    0 -0.80135697564E+03  0.64945886061E+02  0.33354604272E+03  0.87044013185E+03  0.46999998093E+01 0.  1.
       -5    1    3    3    0  502  0.80135697564E+03 -0.64945886061E+02 -0.12813877902E+04  0.15127351815E+04  0.46999998093E+01 0. -1.
</event>
<event>
 5   0  0.8872777E-05  0.2111333E+04  0.7818609E-02  0.8556267E-01
        2   -1    0    0  501    0  0.00000000000E+00  0.00000000000E+00  0.10436225890E+04  0.10436225890E+04  0.25500000920E-02 0. -1.
       -2   -1    0    0    0  501  0.00000000000E+00  0.00000000000E+00 -0.10678494920E+04  0.10678494920E+04  0.25500000920E-02 0.  1.
    10030    2    1    2    0    0  0.00000000000E+00  0.00000000000E+00 -0.24226903032E+02  0.21114720810E+04  0.21113330874E+04 0.  0.
        3    1    3    3  502    0  0.67366754124E+03  0.99208115419E+02 -0.81886454072E+03  0.10649926537E+04  0.10100000352E+00 0.  1.
       -3    1    3    3    0  502 -0.67366754124E+03 -0.99208115419E+02  0.79463763769E+03  0.10464794273E+04  0.10100000352E+00 0. -1.
</event>
<event>
 5   0  0.8872777E-05  0.2096051E+04  0.7818609E-02  0.8562985E-01
       -2   -1    0    0    0  501  0.00000000000E+00  0.00000000000E+00  0.92280056030E+03  0.92280056031E+03  0.25500000920E-02 0.  1.
        2   -1    0    0  501    0  0.00000000000E+00  0.00000000000E+00 -0.11902434970E+04  0.11902434970E+04  0.25500000920E-02 0. -1.
    10030    2    1    2    0    0  0.00000000000E+00  0.00000000000E+00 -0.26744293667E+03  0.21130440573E+04  0.20960509210E+04 0.  0.
        3    1    3    3  502    0 -0.73447015969E+03  0.24352553142E+03 -0.84628018479E+03  0.11467088825E+04  0.10100000352E+00 0. -1.
       -3    1    3    3    0  502  0.73447015969E+03 -0.24352553142E+03  0.57883724813E+03  0.96633517474E+03  0.10100000352E+00 0.  1.
</event>
<event>
 5   0  0.3176125E-05  0.2105118E+04  0.7818609E-02  0.8558992E-01
       -4   -1    0    0    0  501  0.00000000000E+00  0.00000000000E+00  0.17494340813E+04  0.17494345423E+04  0.12699999809E+01 0.  1.
        4   -1    0    0  501    0  0.00000000000E+00  0.00000000000E+00 -0.63327812800E+03  0.63327940145E+03  0.12699999809E+01 0. -1.
    10030    2    1    2    0    0  0.00000000000E+00  0.00000000000E+00  0.11161559533E+04  0.23827139438E+04  0.21051179600E+04 0.  0.
        4    1    3    3  502    0  0.50058964618E+03  0.17559037718E+03  0.15870547069E+04  0.16733697231E+04  0.12699999809E+01 0.  1.
       -4    1    3    3    0  502 -0.50058964618E+03 -0.17559037718E+03 -0.47089875358E+03  0.70934422070E+03  0.12699999809E+01 0. -1.
</event>
<event>
 5   0  0.9086985E-05  0.2084339E+04  0.7818609E-02  0.8568174E-01
       -2   -1    0    0    0  501  0.00000000000E+00  0.00000000000E+00  0.60338590614E+03  0.60338590614E+03  0.25500000920E-02 0. -1.
        2   -1    0    0  501    0  0.00000000000E+00  0.00000000000E+00 -0.18000375210E+04  0.18000375210E+04  0.25500000920E-02 0.  1.
    10030    2    1    2    0    0  0.00000000000E+00  0.00000000000E+00 -0.11966516149E+04  0.24034234271E+04  0.20843390038E+04 0.  0.
        5    1    3    3  502    0  0.13208746980E+03  0.14062287229E+03 -0.17792538822E+04  0.17896894589E+04  0.46999998093E+01 0.  1.
       -5    1    3    3    0  502 -0.13208746980E+03 -0.14062287229E+03  0.58260226734E+03  0.61373396826E+03  0.46999998093E+01 0. -1.
</event>
<event>
 5   0  0.4128678E-05  0.2090524E+04  0.7818609E-02  0.8565429E-01
        1   -1    0    0  501    0  0.00000000000E+00  0.00000000000E+00  0.16657415905E+04  0.16657415905E+04  0.50400001928E-02 0.  1.
       -1   -1    0    0    0  501  0.00000000000E+00  0.00000000000E+00 -0.65590786437E+03  0.65590786439E+03  0.50400001928E-02 0. -1.
    10030    2    1    2    0    0  0.00000000000E+00  0.00000000000E+00  0.10098337261E+04  0.23216494549E+04  0.20905243450E+04 0.  0.
        5    1    3    3  502    0  0.38557834241E+03 -0.88166694567E+03  0.51700619734E+02  0.96369201787E+03  0.46999998093E+01 0. -1.
       -5    1    3    3    0  502 -0.38557834241E+03  0.88166694567E+03  0.95813310639E+03  0.13579574370E+04  0.46999998093E+01 0.  1.
</event>
<event>
 5   0  0.4050368E-05  0.1915854E+04  0.7818609E-02  0.8647005E-01
       -1   -1    0    0    0  501  0.00000000000E+00  0.00000000000E+00  0.12446626688E+04  0.12446626688E+04  0.50400001928E-02 0.  1.
        1   -1    0    0  501    0  0.00000000000E+00  0.00000000000E+00 -0.73724749842E+03  0.73724749844E+03  0.50400001928E-02 0. -1.
    10030    2    1    2    0    0  0.00000000000E+00  0.00000000000E+00  0.50741517037E+03  0.19819101672E+04  0.19158543149E+04 0.  0.
        2    1    3    3  502    0 -0.78514187722E+03 -0.35292400294E+03  0.68846104511E+03  0.11022620967E+04  0.25500000920E-02 0.  1.
       -2    1    3    3    0  502  0.78514187722E+03  0.35292400294E+03 -0.18104587474E+03  0.87964807053E+03  0.25500000920E-02 0. -1.
</event>
<event>
 5   0  0.9086985E-05  0.2158443E+04  0.7818609E-02  0.8535927E-01
        2   -1    0    0  501    0  0.00000000000E+00  0.00000000000E+00  0.79966944866E+03  0.79966944866E+03  0.25500000920E-02 0.  1.
       -2   -1    0    0    0  501  0.00000000000E+00  0.00000000000E+00 -0.14565002013E+04  0.14565002013E+04  0.25500000920E-02 0. -1.
    10030    2    1    2    0    0  0.00000000000E+00  0.00000000000E+00 -0.65683075261E+03  0.22561696499E+04  0.21584426913E+04 0.  0.
        5    1    3    3  502    0  0.80626241731E+03  0.70369924369E+03 -0.18265676594E+03  0.10856506322E+04  0.46999998093E+01 0.  1.
       -5    1    3    3    0  502 -0.80626241731E+03 -0.70369924369E+03 -0.47417398666E+03  0.11705190177E+04  0.46999998093E+01 0. -1.
</event>
<event>
 5   0  0.8858590E-05  0.2094612E+04  0.7818609E-02  0.8563621E-01
       -2   -1    0    0    0  501  0.00000000000E+00  0.00000000000E+00  0.89784263692E+03  0.89784263693E+03  0.25500000920E-02 0. -1.
        2   -1    0    0  501    0  0.00000000000E+00  0.00000000000E+00 -0.12216503169E+04  0.12216503169E+04  0.25500000920E-02 0.  1.
    10030    2    1    2    0    0  0.00000000000E+00  0.00000000000E+00 -0.32380767996E+03  0.21194929538E+04  0.20946118895E+04 0.  0.
        1    1    3    3  502    0 -0.56496510765E+03  0.43055262446E+03 -0.94064853651E+03  0.11787199856E+04  0.50400001928E-02 0.  1.
       -1    1    3    3    0  502  0.56496510765E+03 -0.43055262446E+03  0.61684085655E+03  0.94077296816E+03  0.50400001928E-02 0. -1.
</event>
<event>
 5   0  0.4050368E-05  0.2132917E+04  0.7818609E-02  0.8546880E-01
        1   -1    0    0  501    0  0.00000000000E+00  0.00000000000E+00  0.15137711129E+04  0.15137711129E+04  0.50400001928E-02 0. -1.
       -1   -1    0    0    0  501  0.00000000000E+00  0.00000000000E+00 -0.75132474614E+03  0.75132474615E+03  0.50400001928E-02 0.  1.
    10030    2    1    2    0    0  0.00000000000E+00  0.00000000000E+00  0.76244636676E+03  0.22650958591E+04  0.21329169671E+04 0.  0.
        2    1    3    3  502    0 -0.21201540110E+03 -0.11143703215E+03 -0.72239149593E+03  0.76106387106E+03  0.25500000920E-02 0.  1.
       -2    1    3    3    0  502  0.21201540110E+03  0.11143703215E+03  0.14848378627E+04  0.15040319880E+04  0.25500000920E-02 0. -1.
</event>
<event>
 5   0  0.8858590E-05  0.1980281E+04  0.7818609E-02  0.8615896E-01
       -2   -1    0    0    0  501  0.00000000000E+00  0.00000000000E+00  0.87855720126E+03  0.87855720126E+03  0.25500000920E-02 0. -1.
        2   -1    0    0  501    0  0.00000000000E+00  0.00000000000E+00 -0.11158957851E+04  0.11158957851E+04  0.25500000920E-02 0.  1.
    10030    2    1    2    0    0  0.00000000000E+00  0.00000000000E+00 -0.23733858383E+03  0.19944529864E+04  0.19802810688E+04 0.  0.
        1    1    3    3  502    0 -0.72338111837E+03  0.38280691538E+03 -0.67993377378E+03  0.10640165946E+04  0.50400001928E-02 0.  1.
       -1    1    3    3    0  502  0.72338111837E+03 -0.38280691538E+03  0.44259518994E+03  0.93043639173E+03  0.50400001928E-02 0. -1.
</event>
<event>
 5   0  0.4200061E-05  0.2117998E+04  0.7818609E-02  0.8553356E-01
        1   -1    0    0  501    0  0.00000000000E+00  0.00000000000E+00  0.20934022917E+04  0.20934022917E+04  0.50400001928E-02 0. -1.
       -1   -1    0    0    0  501  0.00000000000E+00  0.00000000000E+00 -0.53572084390E+03  0.53572084392E+03  0.50400001928E-02 0.  1.
    10030    2    1    2    0    0  0.00000000000E+00  0.00000000000E+00  0.15576814478E+04  0.26291231356E+04  0.21179983403E+04 0.  0.
        4    1    3    3  502    0 -0.16381505081E+03 -0.58354902880E+03  0.18568027565E+04  0.19532237274E+04  0.12699999809E+01 0. -1.
       -4    1    3    3    0  502  0.16381505081E+03  0.58354902880E+03 -0.29912130865E+03  0.67589940826E+03  0.12699999809E+01 0.  1.
</event>
<event>
 5   0  0.8872777E-05  0.2082780E+04  0.7818609E-02  0.8568867E-01
        2   -1    0    0  501    0  0.00000000000E+00  0.00000000000E+00  0.15222097993E+04  0.15222097994E+04  0.25500000920E-02 0. -1.
       -2   -1    0    0    0  501  0.00000000000E+00  0.00000000000E+00 -0.71244667028E+03  0.71244667028E+03  0.25500000920E-02 0.  1.
    10030    2    1    2    0    0  0.00000000000E+00  0.00000000000E+00  0.80976312907E+03  0.22346564696E+04  0.20827801641E+04 0.  0.
        3    1    3    3  502    0 -0.56012779408E+03  0.17980519925E+03 -0.51709340691E+03  0.78323601619E+03  0.10100000352E+00 0.  1.
       -3    1    3    3    0  502  0.56012779408E+03 -0.17980519925E+03  0.13268565360E+04  0.14514204534E+04  0.10100000352E+00 0. -1.
</event>
<event>
 5   0  0.4200061E-05  0.2101120E+04  0.7818609E-02  0.8560750E-01
       -1   -1    0    0    0  501  0.00000000000E+00  0.00000000000E+00  0.11899675641E+04  0.11899675641E+04  0.50400001928E-02 0. -1.
        1   -1    0    0  501    0  0.00000000000E+00  0.00000000000E+00 -0.92748436991E+03  0.92748436993E+03  0.50400001928E-02 0.  1.
    10030    2    1    2    0    0  0.00000000000E+00  0.00000000000E+00  0.26248319420E+03  0.21174519341E+04  0.21011200027E+04 0.  0.
        4    1    3    3  502    0 -0.76466674984E+03  0.71031833330E+03  0.25220513059E+03  0.10737208267E+04  0.12699999809E+01 0. -1.
       -4    1    3    3    0  502  0.76466674984E+03 -0.71031833330E+03  0.10278063615E+02  0.10437311073E+04  0.12699999809E+01 0.  1.
</event>
<event>
 5   0  0.8872777E-05  0.2088966E+04  0.7818609E-02  0.8566120E-01
        2   -1    0    0  501    0  0.00000000000E+00  0.00000000000E+00  0.11028132809E+04  0.11028132809E+04  0.25500000920E-02 0. -1.
       -2   -1    0    0    0  501  0.00000000000E+00  0.00000000000E+00 -0.98923747644E+03  0.98923747644E+03  0.25500000920E-02 0.  1.
    10030    2    1    2    0    0  0.00000000000E+00  0.00000000000E+00  0.11357580443E+03  0.20920507573E+04  0.20889655114E+04 0.  0.
        3    1    3    3  502    0  0.77397993569E+02 -0.10641051881E+03 -0.98090388967E+03  0.98968990037E+03  0.10100000352E+00 0.  1.
       -3    1    3    3    0  502 -0.77397993569E+02  0.10641051881E+03  0.10944796941E+04  0.11023608569E+04  0.10100000352E+00 0. -1.
</event>
<event>
 5   0  0.8547605E-05  0.2098741E+04  0.7818609E-02  0.8561798E-01
        2   -1    0    0  501    0  0.00000000000E+00  0.00000000000E+00  0.13389758685E+04  0.13389758685E+04  0.25500000920E-02 0.  1.
       -2   -1    0    0    0  501  0.00000000000E+00  0.00000000000E+00 -0.82240324264E+03  0.82240324265E+03  0.25500000920E-02 0. -1.
    10030    2    1    2    0    0  0.00000000000E+00  0.00000000000E+00  0.51657262584E+03  0.21613791111E+04  0.20987406663E+04 0.  0.
        4    1    3    3  502    0  0.47068766489E+03 -0.36486818440E+03  0.11480758913E+04  0.12933505073E+04  0.12699999809E+01 0.  1.
       -4    1    3    3    0  502 -0.47068766489E+03  0.36486818440E+03 -0.63150326541E+03  0.86802860379E+03  0.12699999809E+01 0. -1.
</event>
<event>
 5   0  0.9012466E-05  0.2104317E+04  0.7818609E-02  0.8559344E-01
        2   -1    0    0  501    0  0.00000000000E+00  0.00000000000E+00  0.11986894931E+04  0.11986894931E+04  0.25500000920E-02 0. -1.
       -2   -1    0    0    0  501  0.00000000000E+00  0.00000000000E+00 -0.92354021732E+03  0.92354021733E+03  0.25500000920E-02 0.  1.
    10030    2    1    2    0    0  0.00000000000E+00  0.00000000000E+00  0.27514927579E+03  0.21222297104E+04  0.21043174238E+04 0.  0.
        2    1    3    3  502    0  0.18183869734E+03 -0.95335622544E+03  0.54733916085E+03  0.11142412492E+04  0.25500000920E-02 0. -1.
       -2    1    3    3    0  502 -0.18183869734E+03  0.95335622544E+03 -0.27218988506E+03  0.10079884612E+04  0.25500000920E-02 0.  1.
</event>
<event>
 5   0  0.9012466E-05  0.2095543E+04  0.7818609E-02  0.8563209E-01
       -2   -1    0    0    0  501  0.00000000000E+00  0.00000000000E+00  0.95961674698E+03  0.95961674699E+03  0.25500000920E-02 0. -1.
        2   -1    0    0  501    0  0.00000000000E+00  0.00000000000E+00 -0.11440242753E+04  0.11440242753E+04  0.25500000920E-02 0.  1.
    10030    2    1    2    0    0  0.00000000000E+00  0.00000000000E+00 -0.18440752834E+03  0.21036410223E+04  0.20955427493E+04 0.  0.
        2    1    3    3  502    0 -0.87482662433E+03 -0.36695765621E+02 -0.66988977085E+03  0.11024611136E+04  0.25500000920E-02 0.  1.
       -2    1    3    3    0  502  0.87482662433E+03  0.36695765621E+02  0.48548224251E+03  0.10011799087E+04  0.25500000920E-02 0. -1.
</event>
<event>
 5   0  0.4200061E-05  0.2012653E+04  0.7818609E-02  0.8600728E-01
        1   -1    0    0  501    0  0.00000000000E+00  0.00000000000E+00  0.10692100311E+04  0.10692100312E+04  0.50400001928E-02 0.  1.
       -1   -1    0    0    0  501  0.00000000000E+00  0.00000000000E+00 -0.94714177059E+03  0.94714177060E+03  0.50400001928E-02 0. -1.
    10030    2    1    2    0    0  0.00000000000E+00  0.00000000000E+00  0.12206826056E+03  0.20163518018E+04  0.20126534546E+04 0.  0.
        4    1    3    3  502    0  0.57348975774E+02 -0.38437830300E+03  0.99099427093E+03  0.10644749141E+04  0.12699999809E+01 0.  1.
       -4    1    3    3    0  502 -0.57348975774E+02  0.38437830300E+03 -0.86892601038E+03  0.95187688765E+03  0.12699999809E+01 0. -1.
</event>
<event>
 5   0  0.9012466E-05  0.2098901E+04  0.7818609E-02  0.8561728E-01
        2   -1    0    0  501    0  0.00000000000E+00  0.00000000000E+00  0.13346382838E+04  0.13346382838E+04  0.25500000920E-02 0. -1.
       -2   -1    0    0    0  501  0.00000000000E+00  0.00000000000E+00 -0.82520238037E+03  0.82520238037E+03  0.25500000920E-02 0.  1.
    10030    2    1    2    0    0  0.00000000000E+00  0.00000000000E+00  0.50943590343E+03  0.21598406642E+04  0.20989013209E+04 0.  0.
        2    1    3    3  502    0 -0.57565870758E+02 -0.55792447326E+03  0.11674618440E+04  0.12952068192E+04  0.25500000920E-02 0. -1.
       -2    1    3    3    0  502  0.57565870758E+02  0.55792447326E+03 -0.65802594058E+03  0.86463384494E+03  0.25500000920E-02 0.  1.
</event>
<event>
 5   0  0.9086985E-05  0.1994658E+04  0.7818609E-02  0.8609122E-01
       -2   -1    0    0    0  501  0.00000000000E+00  0.00000000000E+00  0.76930530348E+03  0.76930530349E+03  0.25500000920E-02 0. -1.
        2   -1    0    0  501    0  0.00000000000E+00  0.00000000000E+00 -0.12929389689E+04  0.12929389689E+04  0.25500000920E-02 0.  1.
    10030    2    1    2    0    0  0.00000000000E+00  0.00000000000E+00 -0.52363366546E+03  0.20622442724E+04  0.19946576708E+04 0.  0.
        5    1    3    3  502    0  0.93920074416E+03 -0.22391036145E+03 -0.35344713021E+01  0.96554050680E+03  0.46999998093E+01 0. -1.
       -5    1    3    3    0  502 -0.93920074416E+03  0.22391036145E+03 -0.52009919416E+03  0.10967037656E+04  0.46999998093E+01 0.  1.
</event>
<event>
 5   0  0.9086985E-05  0.2088275E+04  0.7818609E-02  0.8566426E-01
        2   -1    0    0  501    0  0.00000000000E+00  0.00000000000E+00  0.14692529662E+04  0.14692529662E+04  0.25500000920E-02 0.  1.
       -2   -1    0    0    0  501  0.00000000000E+00  0.00000000000E+00 -0.74202512291E+03  0.74202512291E+03  0.25500000920E-02 0. -1.
    10030    2    1    2    0    0  0.00000000000E+00  0.00000000000E+00  0.72722784326E+03  0.22112780891E+04  0.20882745153E+04 0.  0.
        5    1    3    3  502    0  0.52343379344E+03 -0.86175023193E+03  0.76332957458E+02  0.10111603279E+04  0.46999998093E+01 0. -1.
       -5    1    3    3    0  502 -0.52343379344E+03  0.86175023193E+03  0.65089488580E+03  0.12001177612E+04  0.46999998093E+01 0.  1.
</event>
<event>
 5   0  0.8872777E-05  0.1796683E+04  0.7818609E-02  0.8708065E-01
       -2   -1    0    0    0  501  0.00000000000E+00  0.00000000000E+00  0.62407256124E+03  0.62407256125E+03  0.25500000920E-02 0. -1.
        2   -1    0    0  501    0  0.00000000000E+00  0.00000000000E+00 -0.12931473930E+04  0.12931473930E+04  0.25500000920E-02 0.  1.
    10030    2    1    2    0    0  0.00000000000E+00  0.00000000000E+00 -0.66907483180E+03  0.19172199543E+04  0.17966833952E+04 0.  0.
        3    1    3    3  502    0  0.99036821972E+02 -0.85767253227E+03 -0.69677289125E+02  0.86617861872E+03  0.10100000352E+00 0. -1.
       -3    1    3    3    0  502 -0.99036821972E+02  0.85767253227E+03 -0.59939754268E+03  0.10510413356E+04  0.10100000352E+00 0.  1.
</event>
<event>
 5   0  0.4128678E-05  0.2075222E+04  0.7818609E-02  0.8572237E-01
       -1   -1    0    0    0  501  0.00000000000E+00  0.00000000000E+00  0.13398773399E+04  0.13398773399E+04  0.50400001928E-02 0.  1.
        1   -1    0    0  501    0  0.00000000000E+00  0.00000000000E+00 -0.80353405758E+03  0.80353405760E+03  0.50400001928E-02 0. -1.
    10030    2    1    2    0    0  0.00000000000E+00  0.00000000000E+00  0.53634328236E+03  0.21434113975E+04  0.20752224706E+04 0.  0.
        5    1    3    3  502    0  0.24748163917E+03  0.85105532898E+03 -0.28906744971E+03  0.93226842443E+03  0.46999998093E+01 0. -1.
       -5    1    3    3    0  502 -0.24748163917E+03 -0.85105532898E+03  0.82541073207E+03  0.12111429731E+04  0.46999998093E+01 0.  1.
</event>
<event>
 5   0  0.4182977E-05  0.2109959E+04  0.7818609E-02  0.8556869E-01
       -1   -1    0    0    0  501  0.00000000000E+00  0.00000000000E+00  0.91113012107E+03  0.91113012108E+03  0.50400001928E-02 0. -1.
        1   -1    0    0  501    0  0.00000000000E+00  0.00000000000E+00 -0.12215395735E+04  0.12215395735E+04  0.50400001928E-02 0.  1.
    10030    2    1    2    0    0  0.00000000000E+00  0.00000000000E+00 -0.31040945245E+03  0.21326696946E+04  0.21099587669E+04 0.  0.
        1    1    3    3  502    0  0.20632931636E+03  0.56256917950E+03 -0.10328396228E+04  0.11940743507E+04  0.50400001928E-02 0.  1.
       -1    1    3    3    0  502 -0.20632931636E+03 -0.56256917950E+03  0.72243017037E+03  0.93859534391E+03  0.50400001928E-02 0. -1.
</event>
<event>
 5   0  0.8872777E-05  0.2237147E+04  0.7818609E-02  0.8503124E-01
       -2   -1    0    0    0  501  0.00000000000E+00  0.00000000000E+00  0.73577475840E+03  0.73577475840E+03  0.25500000920E-02 0. -1.
        2   -1    0    0  501    0  0.00000000000E+00  0.00000000000E+00 -0.17005289226E+04  0.17005289226E+04  0.25500000920E-02 0.  1.
    10030    2    1    2    0    0  0.00000000000E+00  0.00000000000E+00 -0.96475416419E+03  0.24363036810E+04  0.22371466265E+04 0.  0.
        3    1    3    3  502    0 -0.70590566552E+03  0.59036865483E+03 -0.11748862345E+04  0.14923791849E+04  0.10100000352E+00 0.  1.
       -3    1    3    3    0  502  0.70590566552E+03 -0.59036865483E+03  0.21013207031E+03  0.94392449612E+03  0.10100000352E+00 0. -1.
</event>
<event>
 5   0  0.4050368E-05  0.2233484E+04  0.7818609E-02  0.8504619E-01
       -1   -1    0    0    0  501  0.00000000000E+00  0.00000000000E+00  0.10138330465E+04  0.10138330465E+04  0.50400001928E-02 0.  1.
        1   -1    0    0  501    0  0.00000000000E+00  0.00000000000E+00 -0.12300971488E+04  0.12300971488E+04  0.50400001928E-02 0. -1.
    10030    2    1    2    0    0  0.00000000000E+00  0.00000000000E+00 -0.21626410230E+03  0.22439301953E+04  0.22334843988E+04 0.  0.
        2    1    3    3  502    0  0.10438635221E+04 -0.34828106901E+03  0.82921426006E+02  0.11035518650E+04  0.25500000920E-02 0. -1.
       -2    1    3    3    0  502 -0.10438635221E+04  0.34828106901E+03 -0.29918552830E+03  0.11403783303E+04  0.25500000920E-02 0.  1.
</event>
<event>
 5   0  0.8547605E-05  0.2122434E+04  0.7818609E-02  0.8551425E-01
        2   -1    0    0  501    0  0.00000000000E+00  0.00000000000E+00  0.13737007020E+04  0.13737007020E+04  0.25500000920E-02 0.  1.
       -2   -1    0    0    0  501  0.00000000000E+00  0.00000000000E+00 -0.81981577673E+03  0.81981577673E+03  0.25500000920E-02 0. -1.
    10030    2    1    2    0    0  0.00000000000E+00  0.00000000000E+00  0.55388492523E+03  0.21935164787E+04  0.21224339876E+04 0.  0.
        4    1    3    3  502    0  0.38639936573E+03 -0.77346126984E+03 -0.35899731726E+03  0.93617706257E+03  0.12699999809E+01 0. -1.
       -4    1    3    3    0  502 -0.38639936573E+03  0.77346126984E+03  0.91288224249E+03  0.12573394161E+04  0.12699999809E+01 0.  1.
</event>
<event>
 5   0  0.4200061E-05  0.2036491E+04  0.7818609E-02  0.8589747E-01
        1   -1    0    0  501    0  0.00000000000E+00  0.00000000000E+00  0.13302879037E+04  0.13302879037E+04  0.50400001928E-02 0.  1.
       -1   -1    0    0    0  501  0.00000000000E+00  0.00000000000E+00 -0.77939848027E+03  0.77939848028E+03  0.50400001928E-02 0. -1.
    10030    2    1    2    0    0  0.00000000000E+00  0.00000000000E+00  0.55088942344E+03  0.21096863840E+04  0.20364914638E+04 0.  0.
        4    1    3    3  502    0  0.13836073269E+03 -0.82696927449E+03  0.87396523552E+03  0.12111311734E+04  0.12699999809E+01 0.  1.
       -4    1    3    3    0  502 -0.13836073269E+03  0.82696927449E+03 -0.32307581208E+03  0.89855521063E+03  0.12699999809E+01 0. -1.
</event>
<event>
 5   0  0.8547605E-05  0.2095892E+04  0.7818609E-02  0.8563055E-01
       -2   -1    0    0    0  501  0.00000000000E+00  0.00000000000E+00  0.53397198096E+03  0.53397198097E+03  0.25500000920E-02 0.  1.
        2   -1    0    0  501    0  0.00000000000E+00  0.00000000000E+00 -0.20566444646E+04  0.20566444646E+04  0.25500000920E-02 0. -1.
    10030    2    1    2    0    0  0.00000000000E+00  0.00000000000E+00 -0.15226724836E+04  0.25906164456E+04  0.20958917137E+04 0.  0.
        4    1    3    3  502    0  0.74203541774E+03 -0.28300346788E+03  0.83779978387E+02  0.79857887631E+03  0.12699999809E+01 0.  1.
       -4    1    3    3    0  502 -0.74203541774E+03  0.28300346788E+03 -0.16064524620E+04  0.17920375693E+04  0.12699999809E+01 0. -1.
</event>
<event>
 5   0  0.8858590E-05  0.2103895E+04  0.7818609E-02  0.8559530E-01
       -2   -1    0    0    0  501  0.00000000000E+00  0.00000000000E+00  0.48225264574E+03  0.48225264574E+03  0.25500000920E-02 0. -1.
        2   -1    0    0  501    0  0.00000000000E+00  0.00000000000E+00 -0.22946335283E+04  0.22946335283E+04  0.25500000920E-02 0.  1.
    10030    2    1    2    0    0  0.00000000000E+00  0.00000000000E+00 -0.18123808826E+04  0.27768861741E+04  0.21038945697E+04 0.  0.
        1    1    3    3  502    0 -0.71400818528E+03  0.76370308906E+03 -0.10597905188E+04  0.14886927287E+04  0.50400001928E-02 0.  1.
       -1    1    3    3    0  502  0.71400818528E+03 -0.76370308906E+03 -0.75259036384E+03  0.12881934454E+04  0.50400001928E-02 0. -1.
</event>
<event>
 5   0  0.9012466E-05  0.2092723E+04  0.7818609E-02  0.8564456E-01
       -2   -1    0    0    0  501  0.00000000000E+00  0.00000000000E+00  0.62825284371E+03  0.62825284371E+03  0.25500000920E-02 0. -1.
        2   -1    0    0  501    0  0.00000000000E+00  0.00000000000E+00 -0.17427264710E+04  0.17427264710E+04  0.25500000920E-02 0.  1.
    10030    2    1    2    0    0  0.00000000000E+00  0.00000000000E+00 -0.11144736273E+04  0.23709793148E+04  0.20927234516E+04 0.  0.
        2    1    3    3  502    0 -0.25625860418E+03 -0.68428185271E+03  0.29132391711E+03  0.78662554678E+03  0.25500000920E-02 0.  1.
       -2    1    3    3    0  502  0.25625860418E+03  0.68428185271E+03 -0.14057975444E+04  0.15843537680E+04  0.25500000920E-02 0. -1.
</event>
<event>
 5   0  0.4174093E-05  0.2063033E+04  0.7818609E-02  0.8577705E-01
       -1   -1    0    0    0  501  0.00000000000E+00  0.00000000000E+00  0.76416882730E+03  0.76416882731E+03  0.50400001928E-02 0. -1.
        1   -1    0    0  501    0  0.00000000000E+00  0.00000000000E+00 -0.13923973114E+04  0.13923973114E+04  0.50400001928E-02 0.  1.
    10030    2    1    2    0    0  0.00000000000E+00  0.00000000000E+00 -0.62822848412E+03  0.21565661387E+04  0.20630333207E+04 0.  0.
        3    1    3    3  502    0  0.27567448878E+03 -0.28329890543E+03  0.68185267091E+03  0.78814831638E+03  0.10100000352E+00 0. -1.
       -3    1    3    3    0  502 -0.27567448878E+03  0.28329890543E+03 -0.13100811550E+04  0.13684178224E+04  0.10100000352E+00 0.  1.
</event>
<event>
 5   0  0.3176125E-05  0.2102197E+04  0.7818609E-02  0.8560276E-01
        3   -1    0    0  501    0  0.00000000000E+00  0.00000000000E+00  0.19224061383E+04  0.19224061409E+04  0.10100000352E+00 0.  1.
       -3   -1    0    0    0  501  0.00000000000E+00  0.00000000000E+00 -0.57470037192E+03  0.57470038080E+03  0.10100000352E+00 0. -1.
    10030    2    1    2    0    0  0.00000000000E+00  0.00000000000E+00  0.13477057663E+04  0.24971065217E+04  0.21021965056E+04 0.  0.
        5    1    3    3  502    0 -0.40939200821E+03 -0.22311917294E+03 -0.44513099596E+03  0.64462987464E+03  0.46999998093E+01 0. -1.
       -5    1    3    3    0  502  0.40939200821E+03  0.22311917294E+03  0.17928367623E+04  0.18524766471E+04  0.46999998093E+01 0.  1.
</event>
<event>
 5   0  0.4182977E-05  0.2116455E+04  0.7818609E-02  0.8554029E-01
       -1   -1    0    0    0  501  0.00000000000E+00  0.00000000000E+00  0.10565649537E+04  0.10565649538E+04  0.50400001928E-02 0.  1.
        1   -1    0    0  501    0  0.00000000000E+00  0.00000000000E+00 -0.10598922212E+04  0.10598922212E+04  0.50400001928E-02 0. -1.
    10030    2    1    2    0    0  0.00000000000E+00  0.00000000000E+00 -0.33272674555E+01  0.21164571750E+04  0.21164545596E+04 0.  0.
        1    1    3    3  502    0 -0.75168509294E+03  0.56589982428E+03 -0.48599045039E+03  0.10589899943E+04  0.50400001928E-02 0. -1.
       -1    1    3    3    0  502  0.75168509294E+03 -0.56589982428E+03  0.48266318294E+03  0.10574671807E+04  0.50400001928E-02 0.  1.
</event>
<event>
 5   0  0.4050368E-05  0.2095415E+04  0.7818609E-02  0.8563266E-01
       -1   -1    0    0    0  501  0.00000000000E+00  0.00000000000E+00  0.62551060873E+03  0.62551060875E+03  0.50400001928E-02 0. -1.
        1   -1    0    0  501    0  0.00000000000E+00  0.00000000000E+00 -0.17548725162E+04  0.17548725162E+04  0.50400001928E-02 0.  1.
    10030    2    1    2    0    0  0.00000000000E+00  0.00000000000E+00 -0.11293619075E+04  0.23803831250E+04  0.20954153535E+04 0.  0.
        2    1    3    3  502    0  0.75142703591E+03  0.30660987663E+03 -0.13173921482E+04  0.15473119526E+04  0.25500000920E-02 0.  1.
       -2    1    3    3    0  502 -0.75142703591E+03 -0.30660987663E+03  0.18803024069E+03  0.83307117232E+03  0.25500000920E-02 0. -1.
</event>
<event>
 5   0  0.9012466E-05  0.2100554E+04  0.7818609E-02  0.8560999E-01
       -2   -1    0    0    0  501  0.00000000000E+00  0.00000000000E+00  0.76613679427E+03  0.76613679428E+03  0.25500000920E-02 0.  1.
        2   -1    0    0  501    0  0.00000000000E+00  0.00000000000E+00 -0.14397978731E+04  0.14397978731E+04  0.25500000920E-02 0. -1.
    10030    2    1    2    0    0  0.00000000000E+00  0.00000000000E+00 -0.67366107886E+03  0.22059346674E+04  0.21005543334E+04 0.  0.
        2    1    3    3  502    0  0.26961062913E+03 -0.79799473828E+03 -0.99567729825E+03  0.13041697650E+04  0.25500000920E-02 0.  1.
       -2    1    3    3    0  502 -0.26961062913E+03  0.79799473828E+03  0.32201621939E+03  0.90176490241E+03  0.25500000920E-02 0. -1.
</event>
<event>
 5   0  0.9086985E-05  0.2080803E+04  0.7818609E-02  0.8569747E-01
       -2   -1    0    0    0  501  0.00000000000E+00  0.00000000000E+00  0.10335133975E+04  0.10335133975E+04  0.25500000920E-02 0. -1.
        2   -1    0    0  501    0  0.00000000000E+00  0.00000000000E+00 -0.10473357723E+04  0.10473357723E+04  0.25500000920E-02 0.  1.
    10030    2    1    2    0    0  0.00000000000E+00  0.00000000000E+00 -0.13822374769E+02  0.20808491698E+04  0.20808032607E+04 0.  0.
        5    1    3    3  502    0  0.52037368510E+03 -0.44623473049E+03 -0.78955177107E+03  0.10456234007E+04  0.46999998093E+01 0.  1.
       -5    1    3    3    0  502 -0.52037368510E+03  0.44623473049E+03  0.77572939630E+03  0.10352257692E+04  0.46999998093E+01 0. -1.
</event>
<event>
 5   0  0.4182977E-05  0.2083879E+04  0.7818609E-02  0.8568378E-01
       -1   -1    0    0    0  501  0.00000000000E+00  0.00000000000E+00  0.92457909875E+03  0.92457909876E+03  0.50400001928E-02 0. -1.
        1   -1    0    0  501    0  0.00000000000E+00  0.00000000000E+00 -0.11741973833E+04  0.11741973833E+04  0.50400001928E-02 0.  1.
    10030    2    1    2    0    0  0.00000000000E+00  0.00000000000E+00 -0.24961828455E+03  0.20987764821E+04  0.20838794192E+04 0.  0.
        1    1    3    3  502    0  0.94008480695E+03 -0.54336562167E+02  0.32439098649E+03  0.99596255873E+03  0.50400001928E-02 0. -1.
       -1    1    3    3    0  502 -0.94008480695E+03  0.54336562167E+02 -0.57400927104E+03  0.11028139233E+04  0.50400001928E-02 0.  1.
</event>
<event>
 5   0  0.8858590E-05  0.2099968E+04  0.7818609E-02  0.8561258E-01
        2   -1    0    0  501    0  0.00000000000E+00  0.00000000000E+00  0.18999218535E+04  0.18999218535E+04  0.25500000920E-02 0.  1.
       -2   -1    0    0    0  501  0.00000000000E+00  0.00000000000E+00 -0.58026908569E+03  0.58026908569E+03  0.25500000920E-02 0. -1.
    10030    2    1    2    0    0  0.00000000000E+00  0.00000000000E+00  0.13196527678E+04  0.24801909392E+04  0.20999675396E+04 0.  0.
        1    1    3    3  502    0 -0.76076079587E+03  0.39583695664E+03 -0.55688385272E+02  0.85938645618E+03  0.50400001928E-02 0. -1.
       -1    1    3    3    0  502  0.76076079587E+03 -0.39583695664E+03  0.13753411531E+04  0.16208044830E+04  0.50400001928E-02 0.  1.
</event>
<event>
 5   0  0.4182977E-05  0.2083311E+04  0.7818609E-02  0.8568631E-01
        1   -1    0    0  501    0  0.00000000000E+00  0.00000000000E+00  0.11627267837E+04  0.11627267837E+04  0.50400001928E-02 0. -1.
       -1   -1    0    0    0  501  0.00000000000E+00  0.00000000000E+00 -0.93319072509E+03  0.93319072510E+03  0.50400001928E-02 0.  1.
    10030    2    1    2    0    0  0.00000000000E+00  0.00000000000E+00  0.22953605857E+03  0.20959175088E+04  0.20833106829E+04 0.  0.
        1    1    3    3  502    0 -0.20751360192E+03 -0.10151610008E+04  0.72000253994E+01  0.10361783596E+04  0.50400001928E-02 0.  1.
       -1    1    3    3    0  502  0.20751360192E+03  0.10151610008E+04  0.22233603317E+03  0.10597391491E+04  0.50400001928E-02 0. -1.
</event>
<event>
 5   0  0.9086985E-05  0.2098741E+04  0.7818609E-02  0.8561798E-01
        2   -1    0    0  501    0  0.00000000000E+00  0.00000000000E+00  0.17365504160E+04  0.17365504160E+04  0.25500000920E-02 0. -1.
       -2   -1    0    0    0  501  0.00000000000E+00  0.00000000000E+00 -0.63411808710E+03  0.63411808710E+03  0.25500000920E-02 0.  1.
    10030    2    1    2    0    0  0.00000000000E+00  0.00000000000E+00  0.11024323289E+04  0.23706685031E+04  0.20987406013E+04 0.  0.
        5    1    3    3  502    0  0.73014139680E+03 -0.54166488488E+03  0.11431876457E+04  0.14606188381E+04  0.46999998093E+01 0. -1.
       -5    1    3    3    0  502 -0.73014139680E+03  0.54166488488E+03 -0.40755316892E+02  0.91004966495E+03  0.46999998093E+01 0.  1.
</event>
<event>
 5   0  0.8547605E-05  0.2112065E+04  0.7818609E-02  0.8555947E-01
        2   -1    0    0  501    0  0.00000000000E+00  0.00000000000E+00  0.65146099096E+03  0.65146099097E+03  0.25500000920E-02 0. -1.
       -2   -1    0    0    0  501  0.00000000000E+00  0.00000000000E+00 -0.17118521528E+04  0.17118521528E+04  0.25500000920E-02 0.  1.
    10030    2    1    2    0    0  0.00000000000E+00  0.00000000000E+00 -0.10603911618E+04  0.23633131437E+04  0.21120652450E+04 0.  0.
        4    1    3    3  502    0 -0.55291281073E+03  0.22377739079E+03  0.44491383778E+03  0.74413629991E+03  0.12699999809E+01 0. -1.
       -4    1    3    3    0  502  0.55291281073E+03 -0.22377739079E+03 -0.15053049996E+04  0.16191768438E+04  0.12699999809E+01 0.  1.
</event>
<event>
 5   0  0.9086985E-05  0.2287890E+04  0.7818609E-02  0.8482711E-01
        2   -1    0    0  501    0  0.00000000000E+00  0.00000000000E+00  0.13705961633E+04  0.13705961633E+04  0.25500000920E-02 0.  1.
       -2   -1    0    0    0  501  0.00000000000E+00  0.00000000000E+00 -0.95477408733E+03  0.95477408734E+03  0.25500000920E-02 0. -1.
    10030    2    1    2    0    0  0.00000000000E+00  0.00000000000E+00  0.41582207592E+03  0.23253702506E+04  0.22878895960E+04 0.  0.
        5    1    3    3  502    0 -0.10517991523E+04  0.15857565503E+03  0.63571005386E+03  0.12391840290E+04  0.46999998093E+01 0.  1.
       -5    1    3    3    0  502  0.10517991523E+04 -0.15857565503E+03 -0.21988797795E+03  0.10861862216E+04  0.46999998093E+01 0. -1.
</event>
<event>
 5   0  0.9086985E-05  0.1942102E+04  0.7818609E-02  0.8634179E-01
       -2   -1    0    0    0  501  0.00000000000E+00  0.00000000000E+00  0.94071695722E+03  0.94071695722E+03  0.25500000920E-02 0.  1.
        2   -1    0    0  501    0  0.00000000000E+00  0.00000000000E+00 -0.10023631484E+04  0.10023631484E+04  0.25500000920E-02 0. -1.
    10030    2    1    2    0    0  0.00000000000E+00  0.00000000000E+00 -0.61646191169E+02  0.19430801056E+04  0.19421019654E+04 0.  0.
        5    1    3    3  502    0 -0.19980890879E+03  0.23080745737E+03  0.89144496731E+03  0.94228016118E+03  0.46999998093E+01 0.  1.
       -5    1    3    3    0  502  0.19980890879E+03 -0.23080745737E+03 -0.95309115848E+03  0.10007999444E+04  0.46999998093E+01 0. -1.
</event>
<event>
 5   0  0.3176125E-05  0.1759909E+04  0.7818609E-02  0.8727915E-01
        4   -1    0    0  501    0  0.00000000000E+00  0.00000000000E+00  0.89184358525E+03  0.89184448950E+03  0.12699999809E+01 0.  1.
       -4   -1    0    0    0  501  0.00000000000E+00  0.00000000000E+00 -0.86822256505E+03  0.86822349390E+03  0.12699999809E+01 0. -1.
    10030    2    1    2    0    0  0.00000000000E+00  0.00000000000E+00  0.23621020197E+02  0.17600679834E+04  0.17599094731E+04 0.  0.
        4    1    3    3  502    0 -0.60222142929E+03  0.63127595213E+03  0.12644521125E+03  0.88157244852E+03  0.12699999809E+01 0. -1.
       -4    1    3    3    0  502  0.60222142929E+03 -0.63127595213E+03 -0.10282419105E+03  0.87849553488E+03  0.12699999809E+01 0.  1.
</event>
<event>
 5   0  0.8858590E-05  0.2109435E+04  0.7818609E-02  0.8557099E-01
       -2   -1    0    0    0  501  0.00000000000E+00  0.00000000000E+00  0.10899059101E+04  0.10899059101E+04  0.25500000920E-02 0.  1.
        2   -1    0    0  501    0  0.00000000000E+00  0.00000000000E+00 -0.10206647319E+04  0.10206647319E+04  0.25500000920E-02 0. -1.
    10030    2    1    2    0    0  0.00000000000E+00  0.00000000000E+00  0.69241178173E+02  0.21105706420E+04  0.21094345437E+04 0.  0.
        1    1    3    3  502    0 -0.85867818389E+03 -0.21834166951E+03 -0.53790015426E+03  0.10365027179E+04  0.50400001928E-02 0. -1.
       -1    1    3    3    0  502  0.85867818389E+03  0.21834166951E+03  0.60714133243E+03  0.10740679242E+04  0.50400001928E-02 0.  1.
</event>
<event>
 5   0  0.4050368E-05  0.2081148E+04  0.7818609E-02  0.8569594E-01
        1   -1    0    0  501    0  0.00000000000E+00  0.00000000000E+00  0.94156120936E+03  0.94156120938E+03  0.50400001928E-02 0.  1.
       -1   -1    0    0    0  501  0.00000000000E+00  0.00000000000E+00 -0.11499985539E+04  0.11499985540E+04  0.50400001928E-02 0. -1.
    10030    2    1    2    0    0  0.00000000000E+00  0.00000000000E+00 -0.20843734457E+03  0.20915597633E+04  0.20811477884E+04 0.  0.
        2    1    3    3  502    0  0.55004833077E+03  0.74611705629E+03 -0.57939510114E+03  0.10931342603E+04  0.25500000920E-02 0. -1.
       -2    1    3    3    0  502 -0.55004833077E+03 -0.74611705629E+03  0.37095775656E+03  0.99842550300E+03  0.25500000920E-02 0.  1.
</event>
<event>
 5   0  0.8547605E-05  0.1989518E+04  0.7818609E-02  0.8611537E-01
        2   -1    0    0  501    0  0.00000000000E+00  0.00000000000E+00  0.74692766518E+03  0.74692766518E+03  0.25500000920E-02 0. -1.
       -2   -1    0    0    0  501  0.00000000000E+00  0.00000000000E+00 -0.13248211970E+04  0.13248211970E+04  0.25500000920E-02 0.  1.
    10030    2    1    2    0    0  0.00000000000E+00  0.00000000000E+00 -0.57789353181E+03  0.20717488622E+04  0.19895181361E+04 0.  0.
        4    1    3    3  502    0 -0.95763259295E+03  0.24290763307E+03 -0.40984755818E+03  0.10695984925E+04  0.12699999809E+01 0. -1.
       -4    1    3    3    0  502  0.95763259295E+03 -0.24290763307E+03 -0.16804597363E+03  0.10021503697E+04  0.12699999809E+01 0.  1.
</event>
<event>
 5   0  0.4174093E-05  0.2109469E+04  0.7818609E-02  0.8557084E-01
       -1   -1    0    0    0  501  0.00000000000E+00  0.00000000000E+00  0.72408847810E+03  0.72408847812E+03  0.50400001928E-02 0.  1.
        1   -1    0    0  501    0  0.00000000000E+00  0.00000000000E+00 -0.15363662725E+04  0.15363662725E+04  0.50400001928E-02 0. -1.
    10030    2    1    2    0    0  0.00000000000E+00  0.00000000000E+00 -0.81227779438E+03  0.22604547506E+04  0.21094692376E+04 0.  0.
        3    1    3    3  502    0 -0.72223794520E+03 -0.76726367764E+03 -0.45575531743E+03  0.11480566711E+04  0.10100000352E+00 0. -1.
       -3    1    3    3    0  502  0.72223794520E+03  0.76726367764E+03 -0.35652247695E+03  0.11123980795E+04  0.10100000352E+00 0.  1.
</event>
<event>
 5   0  0.8872777E-05  0.2111286E+04  0.7818609E-02  0.8556288E-01
        2   -1    0    0  501    0  0.00000000000E+00  0.00000000000E+00  0.15039781061E+04  0.15039781061E+04  0.25500000920E-02 0.  1.
       -2   -1    0    0    0  501  0.00000000000E+00  0.00000000000E+00 -0.74095649657E+03  0.74095649658E+03  0.25500000920E-02 0. -1.
    10030    2    1    2    0    0  0.00000000000E+00  0.00000000000E+00  0.76302160950E+03  0.22449346027E+04  0.21112861942E+04 0.  0.
        3    1    3    3  502    0 -0.56763070329E+03 -0.62364807233E+03 -0.29369912837E+03  0.89297296803E+03  0.10100000352E+00 0. -1.
       -3    1    3    3    0  502  0.56763070329E+03  0.62364807233E+03  0.10567207379E+04  0.13519616346E+04  0.10100000352E+00 0.  1.
</event>
<event>
 5   0  0.4200061E-05  0.2035167E+04  0.7818609E-02  0.8590353E-01
       -1   -1    0    0    0  501  0.00000000000E+00  0.00000000000E+00  0.14107530637E+04  0.14107530637E+04  0.50400001928E-02 0. -1.
        1   -1    0    0  501    0  0.00000000000E+00  0.00000000000E+00 -0.73398838891E+03  0.73398838892E+03  0.50400001928E-02 0.  1.
    10030    2    1    2    0    0  0.00000000000E+00  0.00000000000E+00  0.67676467478E+03  0.21447414526E+04  0.20351671856E+04 0.  0.
        4    1    3    3  502    0  0.17413516090E+03  0.13935412954E+03 -0.70791304812E+03  0.74221635948E+03  0.12699999809E+01 0.  1.
       -4    1    3    3    0  502 -0.17413516090E+03 -0.13935412954E+03  0.13846777229E+04  0.14025250931E+04  0.12699999809E+01 0. -1.
</event>
<event>
 5   0  0.8858590E-05  0.2064396E+04  0.7818609E-02  0.8577092E-01
       -2   -1    0    0    0  501  0.00000000000E+00  0.00000000000E+00  0.10407872320E+04  0.10407872320E+04  0.25500000920E-02 0.  1.
        2   -1    0    0  501    0  0.00000000000E+00  0.00000000000E+00 -0.10236793630E+04  0.10236793630E+04  0.25500000920E-02 0. -1.
    10030    2    1    2    0    0  0.00000000000E+00  0.00000000000E+00  0.17107868954E+02  0.20644665950E+04  0.20643957088E+04 0.  0.
        1    1    3    3  502    0 -0.13601197368E+03 -0.25588252187E+03  0.99927321426E+03  0.10404432126E+04  0.50400001928E-02 0.  1.
       -1    1    3    3    0  502  0.13601197368E+03  0.25588252187E+03 -0.98216534530E+03  0.10240233823E+04  0.50400001928E-02 0. -1.
</event>
<event>
 5   0  0.4128678E-05  0.2195341E+04  0.7818609E-02  0.8520370E-01
        1   -1    0    0  501    0  0.00000000000E+00  0.00000000000E+00  0.24194117038E+04  0.24194117038E+04  0.50400001928E-02 0. -1.
       -1   -1    0    0    0  501  0.00000000000E+00  0.00000000000E+00 -0.49800546578E+03  0.49800546581E+03  0.50400001928E-02 0.  1.
    10030    2    1    2    0    0  0.00000000000E+00  0.00000000000E+00  0.19214062381E+04  0.29174171697E+04  0.21953407504E+04 0.  0.
        5    1    3    3  502    0 -0.25628814123E+03 -0.20434468403E+03  0.23528421055E+04  0.23755690738E+04  0.46999998093E+01 0. -1.
       -5    1    3    3    0  502  0.25628814123E+03  0.20434468403E+03 -0.43143586744E+03  0.54184809581E+03  0.46999998093E+01 0.  1.
</event>
<event>
 5   0  0.4200061E-05  0.2112703E+04  0.7818609E-02  0.8555668E-01
       -1   -1    0    0    0  501  0.00000000000E+00  0.00000000000E+00  0.71769792190E+03  0.71769792192E+03  0.50400001928E-02 0.  1.
        1   -1    0    0  501    0  0.00000000000E+00  0.00000000000E+00 -0.15548018522E+04  0.15548018522E+04  0.50400001928E-02 0. -1.
    10030    2    1    2    0    0  0.00000000000E+00  0.00000000000E+00 -0.83710393027E+03  0.22724997741E+04  0.21127025899E+04 0.  0.
        4    1    3    3  502    0 -0.89980444500E+03  0.46912160969E+03 -0.10283239939E+03  0.10199506062E+04  0.12699999809E+01 0. -1.
       -4    1    3    3    0  502  0.89980444500E+03 -0.46912160969E+03 -0.73427153088E+03  0.12525491679E+04  0.12699999809E+01 0.  1.
</event>
<event>
 5   0  0.8872777E-05  0.2099081E+04  0.7818609E-02  0.8561648E-01
        2   -1    0    0  501    0  0.00000000000E+00  0.00000000000E+00  0.47318205276E+03  0.47318205277E+03  0.25500000920E-02 0. -1.
       -2   -1    0    0    0  501  0.00000000000E+00  0.00000000000E+00 -0.23279318408E+04  0.23279318408E+04  0.25500000920E-02 0.  1.
    10030    2    1    2    0    0  0.00000000000E+00  0.00000000000E+00 -0.18547497881E+04  0.28011138936E+04  0.20990812916E+04 0.  0.
        3    1    3    3  502    0  0.58319136658E+03 -0.86749285631E+03 -0.80162821420E+03  0.13172941318E+04  0.10100000352E+00 0. -1.
       -3    1    3    3    0  502 -0.58319136658E+03  0.86749285631E+03 -0.10531215739E+04  0.14838197617E+04  0.10100000352E+00 0.  1.
</event>
<event>
 5   0  0.4128678E-05  0.2098982E+04  0.7818609E-02  0.8561692E-01
       -1   -1    0    0    0  501  0.00000000000E+00  0.00000000000E+00  0.91100266466E+03  0.91100266467E+03  0.50400001928E-02 0.  1.
        1   -1    0    0  501    0  0.00000000000E+00  0.00000000000E+00 -0.12090316246E+04  0.12090316246E+04  0.50400001928E-02 0. -1.
    10030    2    1    2    0    0  0.00000000000E+00  0.00000000000E+00 -0.29802895992E+03  0.21200342893E+04  0.20989816880E+04 0.  0.
        5    1    3    3  502    0 -0.17630239263E+03  0.32782747269E+03 -0.11401083863E+04  0.11993425733E+04  0.46999998093E+01 0. -1.
       -5    1    3    3    0  502  0.17630239263E+03 -0.32782747269E+03  0.84207942641E+03  0.92069171598E+03  0.46999998093E+01 0.  1.
</event>
<event>
 5   0  0.4174093E-05  0.2096231E+04  0.7818609E-02  0.8562906E-01
       -1   -1    0    0    0  501  0.00000000000E+00  0.00000000000E+00  0.53596168567E+03  0.53596168569E+03  0.50400001928E-02 0. -1.
        1   -1    0    0  501    0  0.00000000000E+00  0.00000000000E+00 -0.20496726236E+04  0.20496726236E+04  0.50400001928E-02 0.  1.
    10030    2    1    2    0    0  0.00000000000E+00  0.00000000000E+00 -0.15137109379E+04  0.25856343093E+04  0.20962308980E+04 0.  0.
        3    1    3    3  502    0  0.43032891140E+03 -0.18724230212E+03  0.39912434150E+03  0.61607053319E+03  0.10100000352E+00 0. -1.
       -3    1    3    3    0  502 -0.43032891140E+03  0.18724230212E+03 -0.19128352794E+04  0.19695637761E+04  0.10100000352E+00 0.  1.
</event>
<event>
 5   0  0.4050368E-05  0.2099372E+04  0.7818609E-02  0.8561520E-01
        1   -1    0    0  501    0  0.00000000000E+00  0.00000000000E+00  0.18060899531E+04  0.18060899531E+04  0.50400001928E-02 0. -1.
       -1   -1    0    0    0  501  0.00000000000E+00  0.00000000000E+00 -0.61006994630E+03  0.61006994632E+03  0.50400001928E-02 0.  1.
    10030    2    1    2    0    0  0.00000000000E+00  0.00000000000E+00  0.11960200068E+04  0.24161598994E+04  0.20993724784E+04 0.  0.
        2    1    3    3  502    0 -0.10957371832E+03  0.64766966970E+03  0.15403113896E+04  0.16745272699E+04  0.25500000920E-02 0. -1.
       -2    1    3    3    0  502  0.10957371832E+03 -0.64766966970E+03 -0.34429138284E+03  0.74163262947E+03  0.25500000920E-02 0.  1.
</event>
<event>
 5   0  0.9012466E-05  0.2021883E+04  0.7818609E-02  0.8596457E-01
       -2   -1    0    0    0  501  0.00000000000E+00  0.00000000000E+00  0.99948233505E+03  0.99948233505E+03  0.25500000920E-02 0. -1.
        2   -1    0    0  501    0  0.00000000000E+00  0.00000000000E+00 -0.10225324669E+04  0.10225324669E+04  0.25500000920E-02 0.  1.
    10030    2    1    2    0    0  0.00000000000E+00  0.00000000000E+00 -0.23050131817E+02  0.20220148019E+04  0.20218834167E+04 0.  0.
        2    1    3    3  502    0 -0.16140919409E+03 -0.54477963723E+03 -0.84774048392E+03  0.10205399106E+04  0.25500000920E-02 0.  1.
       -2    1    3    3    0  502  0.16140919409E+03  0.54477963723E+03  0.82469035210E+03  0.10014748913E+04  0.25500000920E-02 0. -1.
</event>
<event>
 5   0  0.4050368E-05  0.2104153E+04  0.7818609E-02  0.8559416E-01
        1   -1    0    0  501    0  0.00000000000E+00  0.00000000000E+00  0.10771440006E+04  0.10771440006E+04  0.50400001928E-02 0.  1.
       -1   -1    0    0    0  501  0.00000000000E+00  0.00000000000E+00 -0.10275925993E+04  0.10275925993E+04  0.50400001928E-02 0. -1.
    10030    2    1    2    0    0  0.00000000000E+00  0.00000000000E+00  0.49551401288E+02  0.21047365999E+04  0.21041532296E+04 0.  0.
        2    1    3    3  502    0  0.75667068745E+03 -0.37143578266E+03 -0.60496229074E+03  0.10375425018E+04  0.25500000920E-02 0. -1.
       -2    1    3    3    0  502 -0.75667068745E+03  0.37143578266E+03  0.65451369203E+03  0.10671940981E+04  0.25500000920E-02 0.  1.
</event>
<event>
 5   0  0.4050368E-05  0.2105508E+04  0.7818609E-02  0.8558821E-01
       -1   -1    0    0    0  501  0.00000000000E+00  0.00000000000E+00  0.15880817627E+04  0.15880817627E+04  0.50400001928E-02 0.  1.
        1   -1    0    0  501    0  0.00000000000E+00  0.00000000000E+00 -0.69788001689E+03  0.69788001691E+03  0.50400001928E-02 0. -1.
    10030    2    1    2    0    0  0.00000000000E+00  0.00000000000E+00  0.89020174585E+03  0.22859617797E+04  0.21055075658E+04 0.  0.
        2    1    3    3  502    0 -0.20970123255E+02 -0.37607570101E+03 -0.62221908314E+03  0.72734398079E+03  0.25500000920E-02 0. -1.
       -2    1    3    3    0  502  0.20970123255E+02  0.37607570101E+03  0.15124208290E+04  0.15586177989E+04  0.25500000920E-02 0.  1.
</event>
<event>
 5   0  0.4174093E-05  0.2079383E+04  0.7818609E-02  0.8570380E-01
        1   -1    0    0  501    0  0.00000000000E+00  0.00000000000E+00  0.20417100565E+04  0.20417100565E+04  0.50400001928E-02 0. -1.
       -1   -1    0    0    0  501  0.00000000000E+00  0.00000000000E+00 -0.52943751955E+03  0.52943751957E+03  0.50400001928E-02 0.  1.
    10030    2    1    2    0    0  0.00000000000E+00  0.00000000000E+00  0.15122725369E+04  0.25711475760E+04  0.20793825122E+04 0.  0.
        3    1    3    3  502    0 -0.66902926813E+03 -0.78406949358E+03  0.92473900216E+03  0.13847409016E+04  0.10100000352E+00 0. -1.
       -3    1    3    3    0  502  0.66902926813E+03  0.78406949358E+03  0.58753353476E+03  0.11864066744E+04  0.10100000352E+00 0.  1.
</event>
<event>
 5   0  0.8858590E-05  0.2107782E+04  0.7818609E-02  0.8557823E-01
       -2   -1    0    0    0  501  0.00000000000E+00  0.00000000000E+00  0.10038207081E+04  0.10038207082E+04  0.25500000920E-02 0. -1.
        2   -1    0    0  501    0  0.00000000000E+00  0.00000000000E+00 -0.11064589294E+04  0.11064589294E+04  0.25500000920E-02 0.  1.
    10030    2    1    2    0    0  0.00000000000E+00  0.00000000000E+00 -0.10263822130E+03  0.21102796376E+04  0.21077821387E+04 0.  0.
        1    1    3    3  502    0 -0.10171162976E+04  0.25215495004E+03  0.60968604421E+02  0.10496784519E+04  0.50400001928E-02 0.  1.
       -1    1    3    3    0  502  0.10171162976E+04 -0.25215495004E+03 -0.16360682572E+03  0.10606011857E+04  0.50400001928E-02 0. -1.
</event>
<event>
 5   0  0.8547605E-05  0.2102408E+04  0.7818609E-02  0.8560183E-01
       -2   -1    0    0    0  501  0.00000000000E+00  0.00000000000E+00  0.12547591817E+04  0.12547591818E+04  0.25500000920E-02 0.  1.
        2   -1    0    0  501    0  0.00000000000E+00  0.00000000000E+00 -0.88067126108E+03  0.88067126108E+03  0.25500000920E-02 0. -1.
    10030    2    1    2    0    0  0.00000000000E+00  0.00000000000E+00  0.37408792067E+03  0.21354304428E+04  0.21024084769E+04 0.  0.
        4    1    3    3  502    0 -0.49443754556E+03  0.53554335861E+03  0.95640648543E+03  0.12024933071E+04  0.12699999809E+01 0.  1.
       -4    1    3    3    0  502  0.49443754556E+03 -0.53554335861E+03 -0.58231856476E+03  0.93293713571E+03  0.12699999809E+01 0. -1.
</event>
<event>
 5   0  0.4182977E-05  0.2108389E+04  0.7818609E-02  0.8557557E-01
        1   -1    0    0  501    0  0.00000000000E+00  0.00000000000E+00  0.84018428651E+03  0.84018428652E+03  0.50400001928E-02 0.  1.
       -1   -1    0    0    0  501  0.00000000000E+00  0.00000000000E+00 -0.13227168257E+04  0.13227168257E+04  0.50400001928E-02 0. -1.
    10030    2    1    2    0    0  0.00000000000E+00  0.00000000000E+00 -0.48253253920E+03  0.21629011122E+04  0.21083888564E+04 0.  0.
        1    1    3    3  502    0  0.67670219535E+03 -0.10287113916E+02 -0.10704301117E+04  0.12664329078E+04  0.50400001928E-02 0. -1.
       -1    1    3    3    0  502 -0.67670219535E+03  0.10287113916E+02  0.58789757246E+03  0.89646820447E+03  0.50400001928E-02 0.  1.
</event>
<event>
 5   0  0.8858590E-05  0.2083185E+04  0.7818609E-02  0.8568687E-01
       -2   -1    0    0    0  501  0.00000000000E+00  0.00000000000E+00  0.98168394393E+03  0.98168394393E+03  0.25500000920E-02 0. -1.
        2   -1    0    0  501    0  0.00000000000E+00  0.00000000000E+00 -0.11051571767E+04  0.11051571767E+04  0.25500000920E-02 0.  1.
    10030    2    1    2    0    0  0.00000000000E+00  0.00000000000E+00 -0.12347323281E+03  0.20868411207E+04  0.20831851151E+04 0.  0.
        1    1    3    3  502    0 -0.63252852971E+03 -0.14995632596E+02 -0.89059299923E+03  0.10924619445E+04  0.50400001928E-02 0.  1.
       -1    1    3    3    0  502  0.63252852971E+03  0.14995632596E+02  0.76711976643E+03  0.99437917615E+03  0.50400001928E-02 0. -1.
</event>
<event>
 5   0  0.8547605E-05  0.2072525E+04  0.7818609E-02  0.8573444E-01
        2   -1    0    0  501    0  0.00000000000E+00  0.00000000000E+00  0.13826201959E+04  0.13826201959E+04  0.25500000920E-02 0. -1.
       -2   -1    0    0    0  501  0.00000000000E+00  0.00000000000E+00 -0.77667060980E+03  0.77667060980E+03  0.25500000920E-02 0.  1.
    10030    2    1    2    0    0  0.00000000000E+00  0.00000000000E+00  0.60594958612E+03  0.21592908057E+04  0.20725254842E+04 0.  0.
        4    1    3    3  502    0 -0.45170453976E+03  0.71253652642E+03  0.92990855675E+03  0.12555782849E+04  0.12699999809E+01 0. -1.
       -4    1    3    3    0  502  0.45170453976E+03 -0.71253652642E+03 -0.32395897063E+03  0.90371252081E+03  0.12699999809E+01 0.  1.
</event>
<event>
 5   0  0.9086985E-05  0.2121922E+04  0.7818609E-02  0.8551648E-01
        2   -1    0    0  501    0  0.00000000000E+00  0.00000000000E+00  0.50779263429E+03  0.50779263429E+03  0.25500000920E-02 0. -1.
       -2   -1    0    0    0  501  0.00000000000E+00  0.00000000000E+00 -0.22167272086E+04  0.22167272086E+04  0.25500000920E-02 0.  1.
    10030    2    1    2    0    0  0.00000000000E+00  0.00000000000E+00 -0.17089345743E+04  0.27245198429E+04  0.21219215337E+04 0.  0.
        5    1    3    3  502    0  0.59976114709E+03  0.86549501777E+03 -0.68794154072E+03  0.12578078998E+04  0.46999998093E+01 0. -1.
       -5    1    3    3    0  502 -0.59976114709E+03 -0.86549501777E+03 -0.10209930336E+04  0.14667119431E+04  0.46999998093E+01 0.  1.
</event>
<event>
 5   0  0.8858590E-05  0.2093298E+04  0.7818609E-02  0.8564202E-01
       -2   -1    0    0    0  501  0.00000000000E+00  0.00000000000E+00  0.11379229340E+04  0.11379229340E+04  0.25500000920E-02 0.  1.
        2   -1    0    0  501    0  0.00000000000E+00  0.00000000000E+00 -0.96269595308E+03  0.96269595309E+03  0.25500000920E-02 0. -1.
    10030    2    1    2    0    0  0.00000000000E+00  0.00000000000E+00  0.17522698092E+03  0.21006188871E+04  0.20932976888E+04 0.  0.
        1    1    3    3  502    0 -0.72351347470E+03  0.70483787981E+03  0.36280904615E+03  0.10732653860E+04  0.50400001928E-02 0. -1.
       -1    1    3    3    0  502  0.72351347470E+03 -0.70483787981E+03 -0.18758206522E+03  0.10273535010E+04  0.50400001928E-02 0.  1.
</event>
<event>
 5   0  0.9086985E-05  0.2096129E+04  0.7818609E-02  0.8562951E-01
        2   -1    0    0  501    0  0.00000000000E+00  0.00000000000E+00  0.14072227347E+04  0.14072227347E+04  0.25500000920E-02 0. -1.
       -2   -1    0    0    0  501  0.00000000000E+00  0.00000000000E+00 -0.78057201258E+03  0.78057201258E+03  0.25500000920E-02 0.  1.
    10030    2    1    2    0    0  0.00000000000E+00  0.00000000000E+00  0.62665072214E+03  0.21877947473E+04  0.20961285096E+04 0.  0.
        5    1    3    3  502    0 -0.43866708379E+03  0.74083485842E+03 -0.31043088311E+03  0.91523468085E+03  0.46999998093E+01 0.  1.
       -5    1    3    3    0  502  0.43866708379E+03 -0.74083485842E+03  0.93708160524E+03  0.12725600665E+04  0.46999998093E+01 0. -1.
</event>
<event>
 5   0  0.8858590E-05  0.2075799E+04  0.7818609E-02  0.8571979E-01
        2   -1    0    0  501    0  0.00000000000E+00  0.00000000000E+00  0.13780099123E+04  0.13780099123E+04  0.25500000920E-02 0.  1.
       -2   -1    0    0    0  501  0.00000000000E+00  0.00000000000E+00 -0.78173299183E+03  0.78173299183E+03  0.25500000920E-02 0. -1.
    10030    2    1    2    0    0  0.00000000000E+00  0.00000000000E+00  0.59627692048E+03  0.21597429041E+04  0.20757994234E+04 0.  0.
        1    1    3    3  502    0  0.14615157795E+03 -0.43036511606E+03 -0.67268734775E+03  0.81183907562E+03  0.50400001928E-02 0. -1.
       -1    1    3    3    0  502 -0.14615157795E+03  0.43036511606E+03  0.12689642682E+04  0.13479038285E+04  0.50400001928E-02 0.  1.
</event>
<event>
 5   0  0.4200061E-05  0.2116511E+04  0.7818609E-02  0.8554005E-01
        1   -1    0    0  501    0  0.00000000000E+00  0.00000000000E+00  0.95237969864E+03  0.95237969865E+03  0.50400001928E-02 0. -1.
       -1   -1    0    0    0  501  0.00000000000E+00  0.00000000000E+00 -0.11759017185E+04  0.11759017185E+04  0.50400001928E-02 0.  1.
    10030    2    1    2    0    0  0.00000000000E+00  0.00000000000E+00 -0.22352201988E+03  0.21282814172E+04  0.21165112089E+04 0.  0.
        4    1    3    3  502    0 -0.11752683390E+03 -0.16311512303E+03  0.93299920870E+03  0.95441512791E+03  0.12699999809E+01 0. -1.
       -4    1    3    3    0  502  0.11752683390E+03  0.16311512303E+03 -0.11565212286E+04  0.11738662893E+04  0.12699999809E+01 0.  1.
</event>
<event>
 5   0  0.4174093E-05  0.2098379E+04  0.7818609E-02  0.8561958E-01
       -1   -1    0    0    0  501  0.00000000000E+00  0.00000000000E+00  0.13890318518E+04  0.13890318518E+04  0.50400001928E-02 0.  1.
        1   -1    0    0  501    0  0.00000000000E+00  0.00000000000E+00 -0.79249351705E+03  0.79249351706E+03  0.50400001928E-02 0. -1.
    10030    2    1    2    0    0  0.00000000000E+00  0.00000000000E+00  0.59653833477E+03  0.21815253689E+04  0.20983791245E+04 0.  0.
        3    1    3    3  502    0  0.75163065433E+03 -0.49215485088E+03 -0.26508206895E+03  0.93671423137E+03  0.10100000352E+00 0.  1.
       -3    1    3    3    0  502 -0.75163065433E+03  0.49215485088E+03  0.86162040372E+03  0.12448111375E+04  0.10100000352E+00 0. -1.
</event>
<event>
 5   0  0.8858590E-05  0.2107689E+04  0.7818609E-02  0.8557864E-01
        2   -1    0    0  501    0  0.00000000000E+00  0.00000000000E+00  0.75877053284E+03  0.75877053284E+03  0.25500000920E-02 0.  1.
       -2   -1    0    0    0  501  0.00000000000E+00  0.00000000000E+00 -0.14636678210E+04  0.14636678210E+04  0.25500000920E-02 0. -1.
    10030    2    1    2    0    0  0.00000000000E+00  0.00000000000E+00 -0.70489728820E+03  0.22224383539E+04  0.21076887934E+04 0.  0.
        1    1    3    3  502    0  0.62421123068E+02 -0.10415635405E+04 -0.19662986645E+03  0.10617976784E+04  0.50400001928E-02 0.  1.
       -1    1    3    3    0  502 -0.62421123068E+02  0.10415635405E+04 -0.50826742175E+03  0.11606406755E+04  0.50400001928E-02 0. -1.
</event>
<event>
 5   0  0.4050368E-05  0.2098595E+04  0.7818609E-02  0.8561862E-01
       -1   -1    0    0    0  501  0.00000000000E+00  0.00000000000E+00  0.76843958677E+03  0.76843958678E+03  0.50400001928E-02 0. -1.
        1   -1    0    0  501    0  0.00000000000E+00  0.00000000000E+00 -0.14328071904E+04  0.14328071904E+04  0.50400001928E-02 0.  1.
    10030    2    1    2    0    0  0.00000000000E+00  0.00000000000E+00 -0.66436760361E+03  0.22012467772E+04  0.20985954973E+04 0.  0.
        2    1    3    3  502    0  0.45601851756E+02  0.88517333092E+03 -0.92127259683E+03  0.12784187703E+04  0.25500000920E-02 0. -1.
       -2    1    3    3    0  502 -0.45601851756E+02 -0.88517333092E+03  0.25690499322E+03  0.92282800684E+03  0.25500000920E-02 0.  1.
</event>
<event>
 5   0  0.9012466E-05  0.2097612E+04  0.7818609E-02  0.8562296E-01
        2   -1    0    0  501    0  0.00000000000E+00  0.00000000000E+00  0.16066478878E+04  0.16066478878E+04  0.25500000920E-02 0. -1.
       -2   -1    0    0    0  501  0.00000000000E+00  0.00000000000E+00 -0.68465190565E+03  0.68465190566E+03  0.25500000920E-02 0.  1.
    10030    2    1    2    0    0  0.00000000000E+00  0.00000000000E+00  0.92199598217E+03  0.22912997935E+04  0.20976124886E+04 0.  0.
        2    1    3    3  502    0  0.31235774856E+03 -0.30873448116E+03  0.15013652591E+04  0.15642832174E+04  0.25500000920E-02 0. -1.
       -2    1    3    3    0  502 -0.31235774856E+03  0.30873448116E+03 -0.57936927690E+03  0.72701657613E+03  0.25500000920E-02 0.  1.
</event>
<event>
 5   0  0.4200061E-05  0.2089748E+04  0.7818609E-02  0.8565773E-01
       -1   -1    0    0    0  501  0.00000000000E+00  0.00000000000E+00  0.23393928479E+04  0.23393928479E+04  0.50400001928E-02 0.  1.
        1   -1    0    0  501    0  0.00000000000E+00  0.00000000000E+00 -0.46668585060E+03  0.46668585063E+03  0.50400001928E-02 0. -1.
    10030    2    1    2    0    0  0.00000000000E+00  0.00000000000E+00  0.18727069973E+04  0.28060786986E+04  0.20897478711E+04 0.  0.
        4    1    3    3  502    0  0.11166550624E+03 -0.78679673022E+03  0.18473126724E+04  0.20109908012E+04  0.12699999809E+01 0.  1.
       -4    1    3    3    0  502 -0.11166550624E+03  0.78679673022E+03  0.25394324967E+02  0.79508789741E+03  0.12699999809E+01 0. -1.
</event>
<event>
 5   0  0.9086985E-05  0.2100623E+04  0.7818609E-02  0.8560969E-01
        2   -1    0    0  501    0  0.00000000000E+00  0.00000000000E+00  0.66100579178E+03  0.66100579179E+03  0.25500000920E-02 0.  1.
       -2   -1    0    0    0  501  0.00000000000E+00  0.00000000000E+00 -0.16689025598E+04  0.16689025598E+04  0.25500000920E-02 0. -1.
    10030    2    1    2    0    0  0.00000000000E+00  0.00000000000E+00 -0.10078967680E+04  0.23299083516E+04  0.21006230104E+04 0.  0.
        5    1    3    3  502    0 -0.98826651154E+03  0.35273970194E+03 -0.45389908105E+03  0.11433033110E+04  0.46999998093E+01 0.  1.
       -5    1    3    3    0  502  0.98826651154E+03 -0.35273970194E+03 -0.55399768694E+03  0.11866050406E+04  0.46999998093E+01 0. -1.
</event>
<event>
 5   0  0.4200061E-05  0.2175149E+04  0.7818609E-02  0.8528843E-01
       -1   -1    0    0    0  501  0.00000000000E+00  0.00000000000E+00  0.20545637209E+04  0.20545637209E+04  0.50400001928E-02 0. -1.
        1   -1    0    0  501    0  0.00000000000E+00  0.00000000000E+00 -0.57570311310E+03  0.57570311312E+03  0.50400001928E-02 0.  1.
    10030    2    1    2    0    0  0.00000000000E+00  0.00000000000E+00  0.14788606078E+04  0.26302668340E+04  0.21751494020E+04 0.  0.
        4    1    3    3  502    0 -0.30865816762E+03  0.44763433244E+03  0.18784056557E+04  0.19555193122E+04  0.12699999809E+01 0. -1.
       -4    1    3    3    0  502  0.30865816762E+03 -0.44763433244E+03 -0.39954504791E+03  0.67474752184E+03  0.12699999809E+01 0.  1.
</event>
<event>
 5   0  0.8858590E-05  0.2104686E+04  0.7818609E-02  0.8559182E-01
        2   -1    0    0  501    0  0.00000000000E+00  0.00000000000E+00  0.72618731108E+03  0.72618731108E+03  0.25500000920E-02 0.  1.
       -2   -1    0    0    0  501  0.00000000000E+00  0.00000000000E+00 -0.15249870788E+04  0.15249870788E+04  0.25500000920E-02 0. -1.
    10030    2    1    2    0    0  0.00000000000E+00  0.00000000000E+00 -0.79879976773E+03  0.22511743899E+04  0.21046864528E+04 0.  0.
        1    1    3    3  502    0  0.79883099678E+03 -0.58878293772E+02 -0.11294200078E+04  0.13846252810E+04  0.50400001928E-02 0. -1.
       -1    1    3    3    0  502 -0.79883099678E+03  0.58878293772E+02  0.33062024006E+03  0.86654910885E+03  0.50400001928E-02 0.  1.
</event>
<event>
 5   0  0.4050368E-05  0.1992075E+04  0.7818609E-02  0.8610335E-01
        1   -1    0    0  501    0  0.00000000000E+00  0.00000000000E+00  0.11626959293E+04  0.11626959293E+04  0.50400001928E-02 0. -1.
       -1   -1    0    0    0  501  0.00000000000E+00  0.00000000000E+00 -0.85326774750E+03  0.85326774752E+03  0.50400001928E-02 0.  1.
    10030    2    1    2    0    0  0.00000000000E+00  0.00000000000E+00  0.30942818183E+03  0.20159636769E+04  0.19920752362E+04 0.  0.
        2    1    3    3  502    0  0.60236264236E+03  0.24160690059E+03  0.91933816721E+03  0.11253431979E+04  0.25500000920E-02 0. -1.
       -2    1    3    3    0  502 -0.60236264236E+03 -0.24160690059E+03 -0.60990998538E+03  0.89062047899E+03  0.25500000920E-02 0.  1.
</event>
<event>
 5   0  0.4050368E-05  0.2139403E+04  0.7818609E-02  0.8544082E-01
        1   -1    0    0  501    0  0.00000000000E+00  0.00000000000E+00  0.13125491627E+04  0.13125491627E+04  0.50400001928E-02 0.  1.
       -1   -1    0    0    0  501  0.00000000000E+00  0.00000000000E+00 -0.87178533063E+03  0.87178533064E+03  0.50400001928E-02 0. -1.
    10030    2    1    2    0    0  0.00000000000E+00  0.00000000000E+00  0.44076383208E+03  0.21843344934E+04  0.21394028193E+04 0.  0.
        2    1    3    3  502    0  0.24338146270E+03  0.42678853817E+03 -0.74977312072E+03  0.89640544691E+03  0.25500000920E-02 0. -1.
       -2    1    3    3    0  502 -0.24338146270E+03 -0.42678853817E+03  0.11905369528E+04  0.12879290464E+04  0.25500000920E-02 0.  1.
</event>
<event>
 5   0  0.4174093E-05  0.2061493E+04  0.7818609E-02  0.8578398E-01
       -1   -1    0    0    0  501  0.00000000000E+00  0.00000000000E+00  0.56148322469E+03  0.56148322471E+03  0.50400001928E-02 0. -1.
        1   -1    0    0  501    0  0.00000000000E+00  0.00000000000E+00 -0.18921988444E+04  0.18921988444E+04  0.50400001928E-02 0.  1.
    10030    2    1    2    0    0  0.00000000000E+00  0.00000000000E+00 -0.13307156197E+04  0.24536820691E+04  0.20614925748E+04 0.  0.
        3    1    3    3  502    0 -0.64636278591E+03  0.76811810716E+03 -0.94359946318E+03  0.13777409897E+04  0.10100000352E+00 0.  1.
       -3    1    3    3    0  502  0.64636278591E+03 -0.76811810716E+03 -0.38711615652E+03  0.10759410794E+04  0.10100000352E+00 0. -1.
</event>
<event>
 5   0  0.4128678E-05  0.2079313E+04  0.7818609E-02  0.8570411E-01
        1   -1    0    0  501    0  0.00000000000E+00  0.00000000000E+00  0.21016217899E+04  0.21016217899E+04  0.50400001928E-02 0.  1.
       -1   -1    0    0    0  501  0.00000000000E+00  0.00000000000E+00 -0.51431023585E+03  0.51431023588E+03  0.50400001928E-02 0. -1.
    10030    2    1    2    0    0  0.00000000000E+00  0.00000000000E+00  0.15873115541E+04  0.26159320258E+04  0.20793129620E+04 0.  0.
        5    1    3    3  502    0 -0.45304298903E+03  0.64368941005E+03 -0.60798193022E+02  0.78949510245E+03  0.46999998093E+01 0.  1.
       -5    1    3    3    0  502  0.45304298903E+03 -0.64368941005E+03  0.16481097471E+04  0.18264369234E+04  0.46999998093E+01 0. -1.
</event>
<event>
 5   0  0.4200061E-05  0.2100484E+04  0.7818609E-02  0.8561030E-01
        1   -1    0    0  501    0  0.00000000000E+00  0.00000000000E+00  0.69667852554E+03  0.69667852555E+03  0.50400001928E-02 0.  1.
       -1   -1    0    0    0  501  0.00000000000E+00  0.00000000000E+00 -0.15832390458E+04  0.15832390459E+04  0.50400001928E-02 0. -1.
    10030    2    1    2    0    0  0.00000000000E+00  0.00000000000E+00 -0.88656052031E+03  0.22799175714E+04  0.21004843671E+04 0.  0.
        4    1    3    3  502    0 -0.38864565488E+03  0.97436335393E+03 -0.38817273905E+03  0.11185298739E+04  0.12699999809E+01 0. -1.
       -4    1    3    3    0  502  0.38864565488E+03 -0.97436335393E+03 -0.49838778126E+03  0.11613876975E+04  0.12699999809E+01 0.  1.
</event>
<event>
 5   0  0.8547605E-05  0.2085590E+04  0.7818609E-02  0.8567618E-01
       -2   -1    0    0    0  501  0.00000000000E+00  0.00000000000E+00  0.49895144592E+03  0.49895144593E+03  0.25500000920E-02 0.  1.
        2   -1    0    0  501    0  0.00000000000E+00  0.00000000000E+00 -0.21794135799E+04  0.21794135799E+04  0.25500000920E-02 0. -1.
    10030    2    1    2    0    0  0.00000000000E+00  0.00000000000E+00 -0.16804621340E+04  0.26783650259E+04  0.20855901390E+04 0.  0.
        4    1    3    3  502    0 -0.35016329869E+03  0.28120929298E+03  0.36839158116E+03  0.58086743081E+03  0.12699999809E+01 0.  1.
       -4    1    3    3    0  502  0.35016329869E+03 -0.28120929298E+03 -0.20488537152E+04  0.20974975951E+04  0.12699999809E+01 0. -1.
</event>
<event>
 5   0  0.8858590E-05  0.2116022E+04  0.7818609E-02  0.8554218E-01
        2   -1    0    0  501    0  0.00000000000E+00  0.00000000000E+00  0.10909894376E+04  0.10909894376E+04  0.25500000920E-02 0. -1.
       -2   -1    0    0    0  501  0.00000000000E+00  0.00000000000E+00 -0.10260298206E+04  0.10260298206E+04  0.25500000920E-02 0.  1.
    10030    2    1    2    0    0  0.00000000000E+00  0.00000000000E+00  0.64959616990E+02  0.21170192582E+04  0.21160223978E+04 0.  0.
        1    1    3    3  502    0  0.34073042763E+03 -0.50476278219E+03  0.89804922542E+03  0.10850691692E+04  0.50400001928E-02 0. -1.
       -1    1    3    3    0  502 -0.34073042763E+03  0.50476278219E+03 -0.83308960843E+03  0.10319500891E+04  0.50400001928E-02 0.  1.
</event>
<event>
 5   0  0.9086985E-05  0.2094783E+04  0.7818609E-02  0.8563545E-01
        2   -1    0    0  501    0  0.00000000000E+00  0.00000000000E+00  0.76314917142E+03  0.76314917142E+03  0.25500000920E-02 0.  1.
       -2   -1    0    0    0  501  0.00000000000E+00  0.00000000000E+00 -0.14375022305E+04  0.14375022306E+04  0.25500000920E-02 0. -1.
    10030    2    1    2    0    0  0.00000000000E+00  0.00000000000E+00 -0.67435305913E+03  0.22006514020E+04  0.20947826963E+04 0.  0.
        5    1    3    3  502    0  0.29131622611E+03  0.54112423137E+03 -0.12281712788E+04  0.13733562383E+04  0.46999998093E+01 0. -1.
       -5    1    3    3    0  502 -0.29131622611E+03 -0.54112423137E+03  0.55381821965E+03  0.82729516364E+03  0.46999998093E+01 0.  1.
</event>
<event>
 5   0  0.9012466E-05  0.2090524E+04  0.7818609E-02  0.8565429E-01
        2   -1    0    0  501    0  0.00000000000E+00  0.00000000000E+00  0.17507934684E+04  0.17507934684E+04  0.25500000920E-02 0. -1.
       -2   -1    0    0    0  501  0.00000000000E+00  0.00000000000E+00 -0.62404447125E+03  0.62404447125E+03  0.25500000920E-02 0.  1.
    10030    2    1    2    0    0  0.00000000000E+00  0.00000000000E+00  0.11267489971E+04  0.23748379396E+04  0.20905243211E+04 0.  0.
        2    1    3    3  502    0 -0.19570421470E+03 -0.54395349020E+01 -0.60302995646E+03  0.63401487095E+03  0.25500000920E-02 0.  1.
       -2    1    3    3    0  502  0.19570421470E+03  0.54395349020E+01  0.17297789536E+04  0.17408230687E+04  0.25500000920E-02 0. -1.
</event>
<event>
 5   0  0.4050368E-05  0.2106051E+04  0.7818609E-02  0.8558583E-01
        1   -1    0    0  501    0  0.00000000000E+00  0.00000000000E+00  0.13197779197E+04  0.13197779197E+04  0.50400001928E-02 0. -1.
       -1   -1    0    0    0  501  0.00000000000E+00  0.00000000000E+00 -0.84018870477E+03  0.84018870478E+03  0.50400001928E-02 0.  1.
    10030    2    1    2    0    0  0.00000000000E+00  0.00000000000E+00  0.47958921490E+03  0.21599666245E+04  0.21060508075E+04 0.  0.
        2    1    3    3  502    0 -0.94862666030E+03  0.45680642168E+03  0.25749486116E+03  0.10839133965E+04  0.25500000920E-02 0. -1.
       -2    1    3    3    0  502  0.94862666030E+03 -0.45680642168E+03  0.22209435375E+03  0.10760532280E+04  0.25500000920E-02 0.  1.
</event>
<event>
 5   0  0.4182977E-05  0.2086435E+04  0.7818609E-02  0.8567243E-01
        1   -1    0    0  501    0  0.00000000000E+00  0.00000000000E+00  0.13879390597E+04  0.13879390597E+04  0.50400001928E-02 0.  1.
       -1   -1    0    0    0  501  0.00000000000E+00  0.00000000000E+00 -0.78411404781E+03  0.78411404783E+03  0.50400001928E-02 0. -1.
    10030    2    1    2    0    0  0.00000000000E+00  0.00000000000E+00  0.60382501191E+03  0.21720531076E+04  0.20864347718E+04 0.  0.
        1    1    3    3  502    0  0.10072718979E+04 -0.91306955633E+02  0.56807762607E+03  0.11600197523E+04  0.50400001928E-02 0.  1.
       -1    1    3    3    0  502 -0.10072718979E+04  0.91306955633E+02  0.35747385840E+02  0.10120333552E+04  0.50400001928E-02 0. -1.
</event>
<event>
 5   0  0.9086985E-05  0.1955537E+04  0.7818609E-02  0.8627695E-01
       -2   -1    0    0    0  501  0.00000000000E+00  0.00000000000E+00  0.55999809260E+03  0.55999809260E+03  0.25500000920E-02 0.  1.
        2   -1    0    0  501    0  0.00000000000E+00  0.00000000000E+00 -0.17072040859E+04  0.17072040859E+04  0.25500000920E-02 0. -1.
    10030    2    1    2    0    0  0.00000000000E+00  0.00000000000E+00 -0.11472059933E+04  0.22672021785E+04  0.19555367875E+04 0.  0.
        5    1    3    3  502    0 -0.69432656543E+03  0.28553318873E+03 -0.12998484473E+04  0.15010818289E+04  0.46999998093E+01 0. -1.
       -5    1    3    3    0  502  0.69432656543E+03 -0.28553318873E+03  0.15264245393E+03  0.76612034960E+03  0.46999998093E+01 0.  1.
</event>
<event>
 5   0  0.8858590E-05  0.2115749E+04  0.7818609E-02  0.8554337E-01
       -2   -1    0    0    0  501  0.00000000000E+00  0.00000000000E+00  0.52492717893E+03  0.52492717894E+03  0.25500000920E-02 0. -1.
        2   -1    0    0  501    0  0.00000000000E+00  0.00000000000E+00 -0.21319117340E+04  0.21319117340E+04  0.25500000920E-02 0.  1.
    10030    2    1    2    0    0  0.00000000000E+00  0.00000000000E+00 -0.16069845551E+04  0.26568389130E+04  0.21157489570E+04 0.  0.
        1    1    3    3  502    0  0.53008516109E+03  0.72887235316E+02  0.34246992936E+03  0.63528613996E+03  0.50400001928E-02 0. -1.
       -1    1    3    3    0  502 -0.53008516109E+03 -0.72887235316E+02 -0.19494544844E+04  0.20215527730E+04  0.50400001928E-02 0.  1.
</event>
<event>
 5   0  0.4128678E-05  0.2062302E+04  0.7818609E-02  0.8578034E-01
       -1   -1    0    0    0  501  0.00000000000E+00  0.00000000000E+00  0.96691118643E+03  0.96691118644E+03  0.50400001928E-02 0.  1.
        1   -1    0    0  501    0  0.00000000000E+00  0.00000000000E+00 -0.10996583223E+04  0.10996583223E+04  0.50400001928E-02 0. -1.
    10030    2    1    2    0    0  0.00000000000E+00  0.00000000000E+00 -0.13274713582E+03  0.20665695087E+04  0.20623015619E+04 0.  0.
        5    1    3    3  502    0  0.27165173972E+03  0.15499554207E+03 -0.10509707577E+04  0.10965308520E+04  0.46999998093E+01 0. -1.
       -5    1    3    3    0  502 -0.27165173972E+03 -0.15499554207E+03  0.91822362190E+03  0.97003865673E+03  0.46999998093E+01 0.  1.
</event>
<event>
 5   0  0.4174093E-05  0.2074026E+04  0.7818609E-02  0.8572772E-01
       -1   -1    0    0    0  501  0.00000000000E+00  0.00000000000E+00  0.10280174482E+04  0.10280174482E+04  0.50400001928E-02 0. -1.
        1   -1    0    0  501    0  0.00000000000E+00  0.00000000000E+00 -0.10460875029E+04  0.10460875029E+04  0.50400001928E-02 0.  1.
    10030    2    1    2    0    0  0.00000000000E+00  0.00000000000E+00 -0.18070054685E+02  0.20741049512E+04  0.20740262345E+04 0.  0.
        3    1    3    3  502    0 -0.69669956610E+03 -0.65033491692E+03 -0.41779300914E+03  0.10406136643E+04  0.10100000352E+00 0.  1.
       -3    1    3    3    0  502  0.69669956610E+03  0.65033491692E+03  0.39972295446E+03  0.10334912869E+04  0.10100000352E+00 0. -1.
</event>
<event>
 5   0  0.9086985E-05  0.2100885E+04  0.7818609E-02  0.8560854E-01
       -2   -1    0    0    0  501  0.00000000000E+00  0.00000000000E+00  0.69370203540E+03  0.69370203541E+03  0.25500000920E-02 0. -1.
        2   -1    0    0  501    0  0.00000000000E+00  0.00000000000E+00 -0.15906388347E+04  0.15906388347E+04  0.25500000920E-02 0.  1.
    10030    2    1    2    0    0  0.00000000000E+00  0.00000000000E+00 -0.89693679931E+03  0.22843408701E+04  0.21008849538E+04 0.  0.
        5    1    3    3  502    0 -0.89498563100E+03  0.15324763586E+03 -0.10227183294E+04  0.13676472458E+04  0.46999998093E+01 0.  1.
       -5    1    3    3    0  502  0.89498563100E+03 -0.15324763586E+03  0.12578153010E+03  0.91669362434E+03  0.46999998093E+01 0. -1.
</event>
<event>
 5   0  0.4174093E-05  0.2104634E+04  0.7818609E-02  0.8559205E-01
       -1   -1    0    0    0  501  0.00000000000E+00  0.00000000000E+00  0.16664327480E+04  0.16664327480E+04  0.50400001928E-02 0. -1.
        1   -1    0    0  501    0  0.00000000000E+00  0.00000000000E+00 -0.66451591264E+03  0.66451591266E+03  0.50400001928E-02 0.  1.
    10030    2    1    2    0    0  0.00000000000E+00  0.00000000000E+00  0.10019168354E+04  0.23309486607E+04  0.21046340094E+04 0.  0.
        3    1    3    3  502    0 -0.80912976692E+03  0.19539103881E+03 -0.21209105811E+03  0.85898269185E+03  0.10100000352E+00 0.  1.
       -3    1    3    3    0  502  0.80912976692E+03 -0.19539103881E+03  0.12140078935E+04  0.14719659688E+04  0.10100000352E+00 0. -1.
</event>
<event>
 5   0  0.8872777E-05  0.2070569E+04  0.7818609E-02  0.8574320E-01
        2   -1    0    0  501    0  0.00000000000E+00  0.00000000000E+00  0.17180095523E+04  0.17180095523E+04  0.25500000920E-02 0.  1.
       -2   -1    0    0    0  501  0.00000000000E+00  0.00000000000E+00 -0.62386940162E+03  0.62386940162E+03  0.25500000920E-02 0. -1.
    10030    2    1    2    0    0  0.00000000000E+00  0.00000000000E+00  0.10941401507E+04  0.23418789539E+04  0.20705686092E+04 0.  0.
        3    1    3    3  502    0 -0.21622267180E+03  0.63248621664E+03  0.14412453400E+04  0.15887036220E+04  0.10100000352E+00 0.  1.
       -3    1    3    3    0  502  0.21622267180E+03 -0.63248621664E+03 -0.34710518934E+03  0.75317533198E+03  0.10100000352E+00 0. -1.
</event>
<event>
 5   0  0.4050368E-05  0.2128278E+04  0.7818609E-02  0.8548888E-01
        1   -1    0    0  501    0  0.00000000000E+00  0.00000000000E+00  0.11485891652E+04  0.11485891652E+04  0.50400001928E-02 0. -1.
       -1   -1    0    0    0  501  0.00000000000E+00  0.00000000000E+00 -0.98589797261E+03  0.98589797262E+03  0.50400001928E-02 0.  1.
    10030    2    1    2    0    0  0.00000000000E+00  0.00000000000E+00  0.16269119258E+03  0.21344871378E+04  0.21282779230E+04 0.  0.
        2    1    3    3  502    0  0.32936027366E+03  0.89885666599E+03  0.54742740324E+03  0.11027684515E+04  0.25500000920E-02 0.  1.
       -2    1    3    3    0  502 -0.32936027366E+03 -0.89885666599E+03 -0.38473621066E+03  0.10317186863E+04  0.25500000920E-02 0. -1.
</event>
<event>
 5   0  0.8858590E-05  0.2094661E+04  0.7818609E-02  0.8563599E-01
       -2   -1    0    0    0  501  0.00000000000E+00  0.00000000000E+00  0.72671491465E+03  0.72671491466E+03  0.25500000920E-02 0.  1.
        2   -1    0    0  501    0  0.00000000000E+00  0.00000000000E+00 -0.15093973554E+04  0.15093973554E+04  0.25500000920E-02 0. -1.
    10030    2    1    2    0    0  0.00000000000E+00  0.00000000000E+00 -0.78268244074E+03  0.22361122701E+04  0.20946613763E+04 0.  0.
        1    1    3    3  502    0 -0.90180680851E+03 -0.15933769573E+03  0.15116696166E+03  0.92816780352E+03  0.50400001928E-02 0.  1.
       -1    1    3    3    0  502  0.90180680851E+03  0.15933769573E+03 -0.93384940239E+03  0.13079444665E+04  0.50400001928E-02 0. -1.
</event>
<event>
 5   0  0.4050368E-05  0.2078709E+04  0.7818609E-02  0.8570680E-01
       -1   -1    0    0    0  501  0.00000000000E+00  0.00000000000E+00  0.88245423034E+03  0.88245423035E+03  0.50400001928E-02 0.  1.
        1   -1    0    0  501    0  0.00000000000E+00  0.00000000000E+00 -0.12241520035E+04  0.12241520035E+04  0.50400001928E-02 0. -1.
    10030    2    1    2    0    0  0.00000000000E+00  0.00000000000E+00 -0.34169777319E+03  0.21066062339E+04  0.20787093247E+04 0.  0.
        2    1    3    3  502    0  0.86794544984E+03 -0.57152210048E+03 -0.18814541748E+03  0.10561086655E+04  0.25500000920E-02 0. -1.
       -2    1    3    3    0  502 -0.86794544984E+03  0.57152210048E+03 -0.15355235571E+03  0.10504975684E+04  0.25500000920E-02 0.  1.
</event>
<event>
 5   0  0.8547605E-05  0.2099713E+04  0.7818609E-02  0.8561370E-01
        2   -1    0    0  501    0  0.00000000000E+00  0.00000000000E+00  0.13348392932E+04  0.13348392932E+04  0.25500000920E-02 0.  1.
       -2   -1    0    0    0  501  0.00000000000E+00  0.00000000000E+00 -0.82571673584E+03  0.82571673585E+03  0.25500000920E-02 0. -1.
    10030    2    1    2    0    0  0.00000000000E+00  0.00000000000E+00  0.50912255738E+03  0.21605560291E+04  0.20997134510E+04 0.  0.
        4    1    3    3  502    0  0.94649362555E+03 -0.16784544097E+03 -0.17977809270E+03  0.97792844870E+03  0.12699999809E+01 0. -1.
       -4    1    3    3    0  502 -0.94649362555E+03  0.16784544097E+03  0.68890065008E+03  0.11826275804E+04  0.12699999809E+01 0.  1.
</event>
<event>
 5   0  0.4200061E-05  0.2017930E+04  0.7818609E-02  0.8598283E-01
       -1   -1    0    0    0  501  0.00000000000E+00  0.00000000000E+00  0.21235182497E+04  0.21235182497E+04  0.50400001928E-02 0.  1.
        1   -1    0    0  501    0  0.00000000000E+00  0.00000000000E+00 -0.47939794165E+03  0.47939794168E+03  0.50400001928E-02 0. -1.
    10030    2    1    2    0    0  0.00000000000E+00  0.00000000000E+00  0.16441203080E+04  0.26029161913E+04  0.20179299076E+04 0.  0.
        4    1    3    3  502    0 -0.64367201360E+03  0.52326521663E+03  0.81197492905E+02  0.83349552715E+03  0.12699999809E+01 0. -1.
       -4    1    3    3    0  502  0.64367201360E+03 -0.52326521663E+03  0.15629228151E+04  0.17694206642E+04  0.12699999809E+01 0.  1.
</event>
<event>
 5   0  0.3176125E-05  0.2103577E+04  0.7818609E-02  0.8559669E-01
       -4   -1    0    0    0  501  0.00000000000E+00  0.00000000000E+00  0.61894514613E+03  0.61894644907E+03  0.12699999809E+01 0. -1.
        4   -1    0    0  501    0  0.00000000000E+00  0.00000000000E+00 -0.17873269693E+04  0.17873274205E+04  0.12699999809E+01 0.  1.
    10030    2    1    2    0    0  0.00000000000E+00  0.00000000000E+00 -0.11683818232E+04  0.24062738696E+04  0.21035773936E+04 0.  0.
        1    1    3    3  502    0 -0.25377179046E+03 -0.10088455076E+04 -0.76173479131E+03  0.12893445126E+04  0.50400001928E-02 0. -1.
       -1    1    3    3    0  502  0.25377179046E+03  0.10088455076E+04 -0.40664703190E+03  0.11169293570E+04  0.50400001928E-02 0.  1.
</event>
<event>
 5   0  0.4128678E-05  0.2067173E+04  0.7818609E-02  0.8575843E-01
        1   -1    0    0  501    0  0.00000000000E+00  0.00000000000E+00  0.14871093211E+04  0.14871093211E+04  0.50400001928E-02 0. -1.
       -1   -1    0    0    0  501  0.00000000000E+00  0.00000000000E+00 -0.71837454708E+03  0.71837454709E+03  0.50400001928E-02 0.  1.
    10030    2    1    2    0    0  0.00000000000E+00  0.00000000000E+00  0.76873477404E+03  0.22054838682E+04  0.20671734180E+04 0.  0.
        5    1    3    3  502    0  0.72038016633E+02 -0.37384550012E+03  0.14095596509E+04  0.14600789134E+04  0.46999998093E+01 0. -1.
       -5    1    3    3    0  502 -0.72038016633E+02  0.37384550012E+03 -0.64082487690E+03  0.74540495481E+03  0.46999998093E+01 0.  1.
</event>
<event>
 5   0  0.4050368E-05  0.2094374E+04  0.7818609E-02  0.8563726E-01
       -1   -1    0    0    0  501  0.00000000000E+00  0.00000000000E+00  0.79765720554E+03  0.79765720556E+03  0.50400001928E-02 0. -1.
        1   -1    0    0  501    0  0.00000000000E+00  0.00000000000E+00 -0.13747770792E+04  0.13747770792E+04  0.50400001928E-02 0.  1.
    10030    2    1    2    0    0  0.00000000000E+00  0.00000000000E+00 -0.57711987365E+03  0.21724342848E+04  0.20943742199E+04 0.  0.
        2    1    3    3  502    0 -0.39663370986E+03  0.72588882675E+03  0.37753298547E+03  0.90926566180E+03  0.25500000920E-02 0. -1.
       -2    1    3    3    0  502  0.39663370986E+03 -0.72588882675E+03 -0.95465285913E+03  0.12631686230E+04  0.25500000920E-02 0.  1.
</event>
<event>
 5   0  0.4174093E-05  0.2097453E+04  0.7818609E-02  0.8562366E-01
        1   -1    0    0  501    0  0.00000000000E+00  0.00000000000E+00  0.17622757390E+04  0.17622757390E+04  0.50400001928E-02 0.  1.
       -1   -1    0    0    0  501  0.00000000000E+00  0.00000000000E+00 -0.62409468752E+03  0.62409468754E+03  0.50400001928E-02 0. -1.
    10030    2    1    2    0    0  0.00000000000E+00  0.00000000000E+00  0.11381810515E+04  0.23863704265E+04  0.20974526709E+04 0.  0.
        3    1    3    3  502    0  0.20787863586E+03 -0.45697827615E+03  0.16166733256E+04  0.16928305656E+04  0.10100000352E+00 0.  1.
       -3    1    3    3    0  502 -0.20787863586E+03  0.45697827615E+03 -0.47849227409E+03  0.69353986092E+03  0.10100000352E+00 0. -1.
</event>
<event>
 5   0  0.4128678E-05  0.2062886E+04  0.7818609E-02  0.8577771E-01
       -1   -1    0    0    0  501  0.00000000000E+00  0.00000000000E+00  0.53191915338E+03  0.53191915340E+03  0.50400001928E-02 0.  1.
        1   -1    0    0  501    0  0.00000000000E+00  0.00000000000E+00 -0.20000677866E+04  0.20000677866E+04  0.50400001928E-02 0. -1.
    10030    2    1    2    0    0  0.00000000000E+00  0.00000000000E+00 -0.14681486332E+04  0.25319869400E+04  0.20628857106E+04 0.  0.
        5    1    3    3  502    0  0.46289638771E+03 -0.18681451770E+03  0.37377246280E+03  0.62361901328E+03  0.46999998093E+01 0.  1.
       -5    1    3    3    0  502 -0.46289638771E+03  0.18681451770E+03 -0.18419210960E+04  0.19083679267E+04  0.46999998093E+01 0. -1.
</event>
<event>
 5   0  0.4128678E-05  0.2094270E+04  0.7818609E-02  0.8563772E-01
       -1   -1    0    0    0  501  0.00000000000E+00  0.00000000000E+00  0.10112078918E+04  0.10112078919E+04  0.50400001928E-02 0. -1.
        1   -1    0    0  501    0  0.00000000000E+00  0.00000000000E+00 -0.10843383673E+04  0.10843383673E+04  0.50400001928E-02 0.  1.
    10030    2    1    2    0    0  0.00000000000E+00  0.00000000000E+00 -0.73130475476E+02  0.20955462592E+04  0.20942698150E+04 0.  0.
        5    1    3    3  502    0  0.70121606673E+03  0.39990699049E+03  0.63080442789E+03  0.10244832305E+04  0.46999998093E+01 0. -1.
       -5    1    3    3    0  502 -0.70121606673E+03 -0.39990699049E+03 -0.70393490336E+03  0.10710630287E+04  0.46999998093E+01 0.  1.
</event>
<event>
 5   0  0.4128678E-05  0.2098651E+04  0.7818609E-02  0.8561838E-01
        1   -1    0    0  501    0  0.00000000000E+00  0.00000000000E+00  0.13086620132E+04  0.13086620132E+04  0.50400001928E-02 0. -1.
       -1   -1    0    0    0  501  0.00000000000E+00  0.00000000000E+00 -0.84138112194E+03  0.84138112196E+03  0.50400001928E-02 0.  1.
    10030    2    1    2    0    0  0.00000000000E+00  0.00000000000E+00  0.46728089129E+03  0.21500431352E+04  0.20986505311E+04 0.  0.
        5    1    3    3  502    0 -0.15654613092E+03 -0.92992405695E+03  0.70512329990E+03  0.11774915715E+04  0.46999998093E+01 0. -1.
       -5    1    3    3    0  502  0.15654613092E+03  0.92992405695E+03 -0.23784240861E+03  0.97255156374E+03  0.46999998093E+01 0.  1.
</event>
<event>
 5   0  0.8547605E-05  0.2076778E+04  0.7818609E-02  0.8571542E-01
        2   -1    0    0  501    0  0.00000000000E+00  0.00000000000E+00  0.23760516715E+04  0.23760516715E+04  0.25500000920E-02 0. -1.
       -2   -1    0    0    0  501  0.00000000000E+00  0.00000000000E+00 -0.45379977169E+03  0.45379977170E+03  0.25500000920E-02 0.  1.
    10030    2    1    2    0    0  0.00000000000E+00  0.00000000000E+00  0.19222518998E+04  0.28298514432E+04  0.20767779911E+04 0.  0.
        4    1    3    3  502    0 -0.27360475959E+03 -0.71620778284E+03  0.68693949966E+01  0.76672156234E+03  0.12699999809E+01 0.  1.
       -4    1    3    3    0  502  0.27360475959E+03  0.71620778284E+03  0.19153825048E+04  0.20631298809E+04  0.12699999809E+01 0. -1.
</event>
<event>
 5   0  0.4200061E-05  0.2080947E+04  0.7818609E-02  0.8569683E-01
        1   -1    0    0  501    0  0.00000000000E+00  0.00000000000E+00  0.25386315428E+04  0.25386315428E+04  0.50400001928E-02 0.  1.
       -1   -1    0    0    0  501  0.00000000000E+00  0.00000000000E+00 -0.42644451807E+03  0.42644451810E+03  0.50400001928E-02 0. -1.
    10030    2    1    2    0    0  0.00000000000E+00  0.00000000000E+00  0.21121870247E+04  0.29650760609E+04  0.20809473851E+04 0.  0.
        4    1    3    3  502    0 -0.71653758548E+03  0.92368640651E+02  0.21229629758E+04  0.22425279232E+04  0.12699999809E+01 0. -1.
       -4    1    3    3    0  502  0.71653758548E+03 -0.92368640651E+02 -0.10775951051E+02  0.72254813764E+03  0.12699999809E+01 0.  1.
</event>
<event>
 5   0  0.8872777E-05  0.2081276E+04  0.7818609E-02  0.8569536E-01
       -2   -1    0    0    0  501  0.00000000000E+00  0.00000000000E+00  0.53919575856E+03  0.53919575857E+03  0.25500000920E-02 0. -1.
        2   -1    0    0  501    0  0.00000000000E+00  0.00000000000E+00 -0.20084127850E+04  0.20084127850E+04  0.25500000920E-02 0.  1.
    10030    2    1    2    0    0  0.00000000000E+00  0.00000000000E+00 -0.14692170264E+04  0.25476085435E+04  0.20812761999E+04 0.  0.
        3    1    3    3  502    0 -0.57496196272E+03 -0.17822093155E+03 -0.17736794351E+04  0.18730410321E+04  0.10100000352E+00 0.  1.
       -3    1    3    3    0  502  0.57496196272E+03  0.17822093155E+03  0.30446240871E+03  0.67456751148E+03  0.10100000352E+00 0. -1.
</event>
<event>
 5   0  0.8858590E-05  0.2100600E+04  0.7818609E-02  0.8560979E-01
        2   -1    0    0  501    0  0.00000000000E+00  0.00000000000E+00  0.19003846682E+04  0.19003846682E+04  0.25500000920E-02 0. -1.
       -2   -1    0    0    0  501  0.00000000000E+00  0.00000000000E+00 -0.58047701872E+03  0.58047701873E+03  0.25500000920E-02 0.  1.
    10030    2    1    2    0    0  0.00000000000E+00  0.00000000000E+00  0.13199076495E+04  0.24808616869E+04  0.21005995588E+04 0.  0.
        1    1    3    3  502    0 -0.68482334242E+03  0.75099326527E+03  0.97277119577E+03  0.14068609363E+04  0.50400001928E-02 0. -1.
       -1    1    3    3    0  502  0.68482334242E+03 -0.75099326527E+03  0.34713645372E+03  0.10740007506E+04  0.50400001928E-02 0.  1.
</event>
<event>
 5   0  0.4200061E-05  0.2111320E+04  0.7818609E-02  0.8556273E-01
        1   -1    0    0  501    0  0.00000000000E+00  0.00000000000E+00  0.16421042251E+04  0.16421042251E+04  0.50400001928E-02 0.  1.
       -1   -1    0    0    0  501  0.00000000000E+00  0.00000000000E+00 -0.67865259635E+03  0.67865259637E+03  0.50400001928E-02 0. -1.
    10030    2    1    2    0    0  0.00000000000E+00  0.00000000000E+00  0.96345162872E+03  0.23207568215E+04  0.21113202465E+04 0.  0.
        4    1    3    3  502    0  0.17486082956E+03  0.17188592688E+03 -0.64691751880E+03  0.69182726934E+03  0.12699999809E+01 0. -1.
       -4    1    3    3    0  502 -0.17486082956E+03 -0.17188592688E+03  0.16103691475E+04  0.16289295521E+04  0.12699999809E+01 0.  1.
</event>
<event>
 5   0  0.8858590E-05  0.2112622E+04  0.7818609E-02  0.8555703E-01
       -2   -1    0    0    0  501  0.00000000000E+00  0.00000000000E+00  0.20150096788E+04  0.20150096788E+04  0.25500000920E-02 0. -1.
        2   -1    0    0  501    0  0.00000000000E+00  0.00000000000E+00 -0.55374097133E+03  0.55374097133E+03  0.25500000920E-02 0.  1.
    10030    2    1    2    0    0  0.00000000000E+00  0.00000000000E+00  0.14612687075E+04  0.25687506501E+04  0.21126224620E+04 0.  0.
        1    1    3    3  502    0  0.93303303171E+03 -0.43011950186E+03  0.43220433162E+03  0.11146093524E+04  0.50400001928E-02 0.  1.
       -1    1    3    3    0  502 -0.93303303171E+03  0.43011950186E+03  0.10290643759E+04  0.14541412978E+04  0.50400001928E-02 0. -1.
</event>
<event>
 5   0  0.8858590E-05  0.2103295E+04  0.7818609E-02  0.8559793E-01
        2   -1    0    0  501    0  0.00000000000E+00  0.00000000000E+00  0.15672270095E+04  0.15672270095E+04  0.25500000920E-02 0. -1.
       -2   -1    0    0    0  501  0.00000000000E+00  0.00000000000E+00 -0.70568134019E+03  0.70568134020E+03  0.25500000920E-02 0.  1.
    10030    2    1    2    0    0  0.00000000000E+00  0.00000000000E+00  0.86154566933E+03  0.22729083497E+04  0.21032953730E+04 0.  0.
        1    1    3    3  502    0  0.37794152835E+03 -0.94750182665E+03  0.70705242025E+03  0.12411779225E+04  0.50400001928E-02 0. -1.
       -1    1    3    3    0  502 -0.37794152835E+03  0.94750182665E+03  0.15449324908E+03  0.10317304272E+04  0.50400001928E-02 0.  1.
</event>
<event>
 5   0  0.4050368E-05  0.2087594E+04  0.7818609E-02  0.8566728E-01
        1   -1    0    0  501    0  0.00000000000E+00  0.00000000000E+00  0.25622875195E+04  0.25622875195E+04  0.50400001928E-02 0. -1.
       -1   -1    0    0    0  501  0.00000000000E+00  0.00000000000E+00 -0.42521083860E+03  0.42521083863E+03  0.50400001928E-02 0.  1.
    10030    2    1    2    0    0  0.00000000000E+00  0.00000000000E+00  0.21370766809E+04  0.29874983581E+04  0.20875942373E+04 0.  0.
        2    1    3    3  502    0 -0.76838209495E+02 -0.10395655297E+03  0.25507875982E+04  0.25540611673E+04  0.25500000920E-02 0. -1.
       -2    1    3    3    0  502  0.76838209495E+02  0.10395655297E+03 -0.41371091725E+03  0.43343719084E+03  0.25500000920E-02 0.  1.
</event>
<event>
 5   0  0.8858590E-05  0.2091532E+04  0.7818609E-02  0.8564983E-01
        2   -1    0    0  501    0  0.00000000000E+00  0.00000000000E+00  0.71952950233E+03  0.71952950233E+03  0.25500000920E-02 0. -1.
       -2   -1    0    0    0  501  0.00000000000E+00  0.00000000000E+00 -0.15199192634E+04  0.15199192634E+04  0.25500000920E-02 0.  1.
    10030    2    1    2    0    0  0.00000000000E+00  0.00000000000E+00 -0.80038976108E+03  0.22394487657E+04  0.20915322146E+04 0.  0.
        1    1    3    3  502    0  0.27424182130E+03 -0.20272164037E+03 -0.14587060258E+04  0.14980413579E+04  0.50400001928E-02 0.  1.
       -1    1    3    3    0  502 -0.27424182130E+03  0.20272164037E+03  0.65831626475E+03  0.74140740789E+03  0.50400001928E-02 0. -1.
</event>
<event>
 5   0  0.4200061E-05  0.2111893E+04  0.7818609E-02  0.8556022E-01
       -1   -1    0    0    0  501  0.00000000000E+00  0.00000000000E+00  0.91416903816E+03  0.91416903818E+03  0.50400001928E-02 0. -1.
        1   -1    0    0  501    0  0.00000000000E+00  0.00000000000E+00 -0.12197123001E+04  0.12197123001E+04  0.50400001928E-02 0.  1.
    10030    2    1    2    0    0  0.00000000000E+00  0.00000000000E+00 -0.30554326194E+03  0.21338813383E+04  0.21118931983E+04 0.  0.
        4    1    3    3  502    0 -0.71241287147E+03 -0.29471429922E+03  0.57628985371E+03  0.96254881746E+03  0.12699999809E+01 0. -1.
       -4    1    3    3    0  502  0.71241287147E+03  0.29471429922E+03 -0.88183311565E+03  0.11713325208E+04  0.12699999809E+01 0.  1.
</event>
<event>
 5   0  0.4050368E-05  0.2088452E+04  0.7818609E-02  0.8566347E-01
       -1   -1    0    0    0  501  0.00000000000E+00  0.00000000000E+00  0.64243895176E+03  0.64243895178E+03  0.50400001928E-02 0. -1.
        1   -1    0    0  501    0  0.00000000000E+00  0.00000000000E+00 -0.16972949909E+04  0.16972949909E+04  0.50400001928E-02 0.  1.
    10030    2    1    2    0    0  0.00000000000E+00  0.00000000000E+00 -0.10548560391E+04  0.23397339426E+04  0.20884524556E+04 0.  0.
        2    1    3    3  502    0  0.32711936529E+03  0.16691917832E+03 -0.16225592517E+04  0.16636007984E+04  0.25500000920E-02 0.  1.
       -2    1    3    3    0  502 -0.32711936529E+03 -0.16691917832E+03  0.56770321255E+03  0.67613314427E+03  0.25500000920E-02 0. -1.
</event>
<event>
 5   0  0.4200061E-05  0.2141501E+04  0.7818609E-02  0.8543179E-01
        1   -1    0    0  501    0  0.00000000000E+00  0.00000000000E+00  0.10814298255E+04  0.10814298255E+04  0.50400001928E-02 0. -1.
       -1   -1    0    0    0  501  0.00000000000E+00  0.00000000000E+00 -0.10601762056E+04  0.10601762056E+04  0.50400001928E-02 0.  1.
    10030    2    1    2    0    0  0.00000000000E+00  0.00000000000E+00  0.21253619935E+02  0.21416060311E+04  0.21415005665E+04 0.  0.
        4    1    3    3  502    0  0.82425533254E+03 -0.94053789652E+02  0.68761035900E+03  0.10775215020E+04  0.12699999809E+01 0. -1.
       -4    1    3    3    0  502 -0.82425533254E+03  0.94053789652E+02 -0.66635673907E+03  0.10640845291E+04  0.12699999809E+01 0.  1.
</event>
<event>
 5   0  0.8858590E-05  0.2099123E+04  0.7818609E-02  0.8561630E-01
       -2   -1    0    0    0  501  0.00000000000E+00  0.00000000000E+00  0.13790691269E+04  0.13790691269E+04  0.25500000920E-02 0.  1.
        2   -1    0    0  501    0  0.00000000000E+00  0.00000000000E+00 -0.79878479132E+03  0.79878479132E+03  0.25500000920E-02 0. -1.
    10030    2    1    2    0    0  0.00000000000E+00  0.00000000000E+00  0.58028433562E+03  0.21778539183E+04  0.20991230977E+04 0.  0.
        1    1    3    3  502    0  0.79302383770E+03 -0.66437147568E+03  0.10657920166E+03  0.10400170148E+04  0.50400001928E-02 0. -1.
       -1    1    3    3    0  502 -0.79302383770E+03  0.66437147568E+03  0.47370513397E+03  0.11378369034E+04  0.50400001928E-02 0.  1.
</event>
<event>
 5   0  0.4182977E-05  0.1939735E+04  0.7818609E-02  0.8635327E-01
        1   -1    0    0  501    0  0.00000000000E+00  0.00000000000E+00  0.89302488748E+03  0.89302488749E+03  0.50400001928E-02 0. -1.
       -1   -1    0    0    0  501  0.00000000000E+00  0.00000000000E+00 -0.10533219184E+04  0.10533219184E+04  0.50400001928E-02 0.  1.
    10030    2    1    2    0    0  0.00000000000E+00  0.00000000000E+00 -0.16029703091E+03  0.19463468059E+04  0.19397347114E+04 0.  0.
        1    1    3    3  502    0 -0.46919835104E+03 -0.82613958301E+03 -0.27572053967E+03  0.98928030369E+03  0.50400001928E-02 0.  1.
       -1    1    3    3    0  502  0.46919835104E+03  0.82613958301E+03  0.11542350876E+03  0.95706650220E+03  0.50400001928E-02 0. -1.
</event>
<event>
 5   0  0.4050368E-05  0.2086220E+04  0.7818609E-02  0.8567338E-01
       -1   -1    0    0    0  501  0.00000000000E+00  0.00000000000E+00  0.49282388641E+03  0.49282388644E+03  0.50400001928E-02 0. -1.
        1   -1    0    0  501    0  0.00000000000E+00  0.00000000000E+00 -0.22078436574E+04  0.22078436574E+04  0.50400001928E-02 0.  1.
    10030    2    1    2    0    0  0.00000000000E+00  0.00000000000E+00 -0.17150197710E+04  0.27006675438E+04  0.20862196355E+04 0.  0.
        2    1    3    3  502    0  0.64750985719E+02 -0.28556249346E+03 -0.21535502015E+04  0.21733653854E+04  0.25500000920E-02 0.  1.
       -2    1    3    3    0  502 -0.64750985719E+02  0.28556249346E+03  0.43853043054E+03  0.52730215848E+03  0.25500000920E-02 0. -1.
</event>
<event>
 5   0  0.9012466E-05  0.1862699E+04  0.7818609E-02  0.8673649E-01
       -2   -1    0    0    0  501  0.00000000000E+00  0.00000000000E+00  0.58798801134E+03  0.58798801134E+03  0.25500000920E-02 0.  1.
        2   -1    0    0  501    0  0.00000000000E+00  0.00000000000E+00 -0.14752207492E+04  0.14752207492E+04  0.25500000920E-02 0. -1.
    10030    2    1    2    0    0  0.00000000000E+00  0.00000000000E+00 -0.88723273784E+03  0.20632087605E+04  0.18626992399E+04 0.  0.
        2    1    3    3  502    0  0.83702905030E+03 -0.23577856367E+03 -0.74248941330E+02  0.87276690326E+03  0.25500000920E-02 0.  1.
       -2    1    3    3    0  502 -0.83702905030E+03  0.23577856367E+03 -0.81298379651E+03  0.11904418573E+04  0.25500000920E-02 0. -1.
</event>
<event>
 5   0  0.9012466E-05  0.1963929E+04  0.7818609E-02  0.8623673E-01
        2   -1    0    0  501    0  0.00000000000E+00  0.00000000000E+00  0.14657902888E+04  0.14657902888E+04  0.25500000920E-02 0. -1.
       -2   -1    0    0    0  501  0.00000000000E+00  0.00000000000E+00 -0.65783903878E+03  0.65783903879E+03  0.25500000920E-02 0.  1.
    10030    2    1    2    0    0  0.00000000000E+00  0.00000000000E+00  0.80795125000E+03  0.21236293276E+04  0.19639287916E+04 0.  0.
        2    1    3    3  502    0  0.17733016888E+03  0.58832325612E+03 -0.42426215586E+03  0.74670517568E+03  0.25500000920E-02 0.  1.
       -2    1    3    3    0  502 -0.17733016888E+03 -0.58832325612E+03  0.12322134059E+04  0.13769241519E+04  0.25500000920E-02 0. -1.
</event>
<event>
 5   0  0.9086985E-05  0.2069253E+04  0.7818609E-02  0.8574910E-01
       -2   -1    0    0    0  501  0.00000000000E+00  0.00000000000E+00  0.57602518852E+03  0.57602518853E+03  0.25500000920E-02 0. -1.
        2   -1    0    0  501    0  0.00000000000E+00  0.00000000000E+00 -0.18583426905E+04  0.18583426905E+04  0.25500000920E-02 0.  1.
    10030    2    1    2    0    0  0.00000000000E+00  0.00000000000E+00 -0.12823175020E+04  0.24343678790E+04  0.20692531973E+04 0.  0.
        5    1    3    3  502    0  0.33171967347E+03 -0.60931190366E+03 -0.15441396735E+04  0.16928344157E+04  0.46999998093E+01 0.  1.
       -5    1    3    3    0  502 -0.33171967347E+03  0.60931190366E+03  0.26182217154E+03  0.74153346331E+03  0.46999998093E+01 0. -1.
</event>
<event>
 5   0  0.8858590E-05  0.2137473E+04  0.7818609E-02  0.8544914E-01
       -2   -1    0    0    0  501  0.00000000000E+00  0.00000000000E+00  0.99906872030E+03  0.99906872031E+03  0.25500000920E-02 0.  1.
        2   -1    0    0  501    0  0.00000000000E+00  0.00000000000E+00 -0.11432622830E+04  0.11432622830E+04  0.25500000920E-02 0. -1.
    10030    2    1    2    0    0  0.00000000000E+00  0.00000000000E+00 -0.14419356274E+03  0.21423310034E+04  0.21374728874E+04 0.  0.
        1    1    3    3  502    0  0.62273442521E+02 -0.10575347861E+04  0.69432449626E+02  0.10616396142E+04  0.50400001928E-02 0.  1.
       -1    1    3    3    0  502 -0.62273442521E+02  0.10575347861E+04 -0.21362601237E+03  0.10806913891E+04  0.50400001928E-02 0. -1.
</event>
<event>
 5   0  0.4174093E-05  0.2117920E+04  0.7818609E-02  0.8553390E-01
        1   -1    0    0  501    0  0.00000000000E+00  0.00000000000E+00  0.17518495108E+04  0.17518495108E+04  0.50400001928E-02 0. -1.
       -1   -1    0    0    0  501  0.00000000000E+00  0.00000000000E+00 -0.64012147084E+03  0.64012147086E+03  0.50400001928E-02 0.  1.
    10030    2    1    2    0    0  0.00000000000E+00  0.00000000000E+00  0.11117280400E+04  0.23919709817E+04  0.21179201926E+04 0.  0.
        3    1    3    3  502    0  0.55721486321E+03  0.19976404127E+03 -0.43582197612E+03  0.73507474520E+03  0.10100000352E+00 0.  1.
       -3    1    3    3    0  502 -0.55721486321E+03 -0.19976404127E+03  0.15475500161E+04  0.16568962365E+04  0.10100000352E+00 0. -1.
</event>
<event>
 5   0  0.8547605E-05  0.2116805E+04  0.7818609E-02  0.8553877E-01
       -2   -1    0    0    0  501  0.00000000000E+00  0.00000000000E+00  0.67669332560E+03  0.67669332560E+03  0.25500000920E-02 0. -1.
        2   -1    0    0  501    0  0.00000000000E+00  0.00000000000E+00 -0.16554254724E+04  0.16554254724E+04  0.25500000920E-02 0.  1.
    10030    2    1    2    0    0  0.00000000000E+00  0.00000000000E+00 -0.97873214684E+03  0.23321187980E+04  0.21168045429E+04 0.  0.
        4    1    3    3  502    0 -0.28532249323E+03 -0.98909126457E+03 -0.76035992906E+03  0.12797887675E+04  0.12699999809E+01 0. -1.
       -4    1    3    3    0  502  0.28532249323E+03  0.98909126457E+03 -0.21837221777E+03  0.10523300305E+04  0.12699999809E+01 0.  1.
</event>
<event>
 5   0  0.9086985E-05  0.2101945E+04  0.7818609E-02  0.8560387E-01
        2   -1    0    0  501    0  0.00000000000E+00  0.00000000000E+00  0.11165511244E+04  0.11165511244E+04  0.25500000920E-02 0.  1.
       -2   -1    0    0    0  501  0.00000000000E+00  0.00000000000E+00 -0.98924581990E+03  0.98924581991E+03  0.25500000920E-02 0. -1.
    10030    2    1    2    0    0  0.00000000000E+00  0.00000000000E+00  0.12730530445E+03  0.21057969443E+04  0.21019453204E+04 0.  0.
        5    1    3    3  502    0 -0.44981753480E+02  0.49013928453E+03  0.99393459515E+03  0.11091383799E+04  0.46999998093E+01 0.  1.
       -5    1    3    3    0  502  0.44981753480E+02 -0.49013928453E+03 -0.86662929069E+03  0.99665856434E+03  0.46999998093E+01 0. -1.
</event>
<event>
 5   0  0.8858590E-05  0.2097858E+04  0.7818609E-02  0.8562188E-01
       -2   -1    0    0    0  501  0.00000000000E+00  0.00000000000E+00  0.78131108114E+03  0.78131108114E+03  0.25500000920E-02 0.  1.
        2   -1    0    0  501    0  0.00000000000E+00  0.00000000000E+00 -0.14082119448E+04  0.14082119448E+04  0.25500000920E-02 0. -1.
    10030    2    1    2    0    0  0.00000000000E+00  0.00000000000E+00 -0.62690086366E+03  0.21895230259E+04  0.20978575710E+04 0.  0.
        1    1    3    3  502    0  0.62399188064E+03  0.79655634727E+03 -0.60190266619E+03  0.11773507129E+04  0.50400001928E-02 0. -1.
       -1    1    3    3    0  502 -0.62399188064E+03 -0.79655634727E+03 -0.24998197472E+02  0.10121723131E+04  0.50400001928E-02 0.  1.
</event>
<event>
 5   0  0.4182977E-05  0.2095933E+04  0.7818609E-02  0.8563037E-01
       -1   -1    0    0    0  501  0.00000000000E+00  0.00000000000E+00  0.11944413937E+04  0.11944413937E+04  0.50400001928E-02 0.  1.
        1   -1    0    0  501    0  0.00000000000E+00  0.00000000000E+00 -0.91945357401E+03  0.91945357403E+03  0.50400001928E-02 0. -1.
    10030    2    1    2    0    0  0.00000000000E+00  0.00000000000E+00  0.27498781965E+03  0.21138949677E+04  0.20959326405E+04 0.  0.
        1    1    3    3  502    0 -0.34491915261E+02  0.20862225215E+03  0.11727017999E+04  0.11916133802E+04  0.50400001928E-02 0.  1.
       -1    1    3    3    0  502  0.34491915261E+02 -0.20862225215E+03 -0.89771398025E+03  0.92228158752E+03  0.50400001928E-02 0. -1.
</event>
<event>
 5   0  0.3176125E-05  0.2098663E+04  0.7818609E-02  0.8561832E-01
       -4   -1    0    0    0  501  0.00000000000E+00  0.00000000000E+00  0.14773196220E+04  0.14773201679E+04  0.12699999809E+01 0. -1.
        4   -1    0    0  501    0  0.00000000000E+00  0.00000000000E+00 -0.74533291310E+03  0.74533399510E+03  0.12699999809E+01 0.  1.
    10030    2    1    2    0    0  0.00000000000E+00  0.00000000000E+00  0.73198670891E+03  0.22226541630E+04  0.20986631426E+04 0.  0.
        3    1    3    3  502    0  0.50812205675E+03 -0.61592906301E+03  0.10870556943E+04  0.13487945462E+04  0.10100000352E+00 0. -1.
       -3    1    3    3    0  502 -0.50812205675E+03  0.61592906301E+03 -0.35506898541E+03  0.87385961677E+03  0.10100000352E+00 0.  1.
</event>
<event>
 5   0  0.4050368E-05  0.2120928E+04  0.7818609E-02  0.8552080E-01
        1   -1    0    0  501    0  0.00000000000E+00  0.00000000000E+00  0.10227351321E+04  0.10227351321E+04  0.50400001928E-02 0.  1.
       -1   -1    0    0    0  501  0.00000000000E+00  0.00000000000E+00 -0.10995843851E+04  0.10995843851E+04  0.50400001928E-02 0. -1.
    10030    2    1    2    0    0  0.00000000000E+00  0.00000000000E+00 -0.76849252941E+02  0.21223195172E+04  0.21209277040E+04 0.  0.
        2    1    3    3  502    0  0.85104325334E+03  0.32125683452E+03 -0.58385388080E+03  0.10809097682E+04  0.25500000920E-02 0. -1.
       -2    1    3    3    0  502 -0.85104325334E+03 -0.32125683452E+03  0.50700462786E+03  0.10414097491E+04  0.25500000920E-02 0.  1.
</event>
<event>
 5   0  0.9012466E-05  0.2122067E+04  0.7818609E-02  0.8551585E-01
        2   -1    0    0  501    0  0.00000000000E+00  0.00000000000E+00  0.17124558875E+04  0.17124558875E+04  0.25500000920E-02 0. -1.
       -2   -1    0    0    0  501  0.00000000000E+00  0.00000000000E+00 -0.65741365660E+03  0.65741365661E+03  0.25500000920E-02 0.  1.
    10030    2    1    2    0    0  0.00000000000E+00  0.00000000000E+00  0.10550422309E+04  0.23698695441E+04  0.21220668102E+04 0.  0.
        2    1    3    3  502    0 -0.26495195800E+03 -0.96115616069E+03  0.93291351939E+03  0.13654114178E+04  0.25500000920E-02 0. -1.
       -2    1    3    3    0  502  0.26495195800E+03  0.96115616069E+03  0.12212871151E+03  0.10044581263E+04  0.25500000920E-02 0.  1.
</event>
<event>
 5   0  0.8547605E-05  0.2101403E+04  0.7818609E-02  0.8560626E-01
       -2   -1    0    0    0  501  0.00000000000E+00  0.00000000000E+00  0.46675871165E+03  0.46675871165E+03  0.25500000920E-02 0. -1.
        2   -1    0    0  501    0  0.00000000000E+00  0.00000000000E+00 -0.23651911647E+04  0.23651911647E+04  0.25500000920E-02 0.  1.
    10030    2    1    2    0    0  0.00000000000E+00  0.00000000000E+00 -0.18984324531E+04  0.28319498764E+04  0.21014029417E+04 0.  0.
        4    1    3    3  502    0  0.91298327435E+03  0.48913782125E+03 -0.71125934592E+03  0.12564576147E+04  0.12699999809E+01 0.  1.
       -4    1    3    3    0  502 -0.91298327435E+03 -0.48913782125E+03 -0.11871731072E+04  0.15754922617E+04  0.12699999809E+01 0. -1.
</event>
<event>
 5   0  0.9086985E-05  0.2105630E+04  0.7818609E-02  0.8558767E-01
       -2   -1    0    0    0  501  0.00000000000E+00  0.00000000000E+00  0.72445231060E+03  0.72445231060E+03  0.25500000920E-02 0.  1.
        2   -1    0    0  501    0  0.00000000000E+00  0.00000000000E+00 -0.15300102538E+04  0.15300102538E+04  0.25500000920E-02 0. -1.
    10030    2    1    2    0    0  0.00000000000E+00  0.00000000000E+00 -0.80555794321E+03  0.22544625644E+04  0.21056300374E+04 0.  0.
        5    1    3    3  502    0 -0.30685511673E+03  0.20504958928E+03 -0.14584703560E+04  0.15044478276E+04  0.46999998093E+01 0. -1.
       -5    1    3    3    0  502  0.30685511673E+03 -0.20504958928E+03  0.65291241275E+03  0.75001473682E+03  0.46999998093E+01 0.  1.
</event>
<event>
 5   0  0.4200061E-05  0.1979818E+04  0.7818609E-02  0.8616115E-01
        1   -1    0    0  501    0  0.00000000000E+00  0.00000000000E+00  0.15189004089E+04  0.15189004089E+04  0.50400001928E-02 0.  1.
       -1   -1    0    0    0  501  0.00000000000E+00  0.00000000000E+00 -0.64515071377E+03  0.64515071379E+03  0.50400001928E-02 0. -1.
    10030    2    1    2    0    0  0.00000000000E+00  0.00000000000E+00  0.87374969512E+03  0.21640511227E+04  0.19798178532E+04 0.  0.
        4    1    3    3  502    0  0.68552258287E+03 -0.69210505869E+03  0.62922608104E+03  0.11596886211E+04  0.12699999809E+01 0. -1.
       -4    1    3    3    0  502 -0.68552258287E+03  0.69210505869E+03  0.24452361408E+03  0.10043625016E+04  0.12699999809E+01 0.  1.
</event>
<event>
 5   0  0.4200061E-05  0.2103516E+04  0.7818609E-02  0.8559696E-01
       -1   -1    0    0    0  501  0.00000000000E+00  0.00000000000E+00  0.99826130205E+03  0.99826130207E+03  0.50400001928E-02 0. -1.
        1   -1    0    0  501    0  0.00000000000E+00  0.00000000000E+00 -0.11081219649E+04  0.11081219649E+04  0.50400001928E-02 0.  1.
    10030    2    1    2    0    0  0.00000000000E+00  0.00000000000E+00 -0.10986066281E+03  0.21063832669E+04  0.21035163660E+04 0.  0.
        4    1    3    3  502    0  0.81081039883E+03  0.12353835943E+03 -0.71424886667E+03  0.10875790939E+04  0.12699999809E+01 0.  1.
       -4    1    3    3    0  502 -0.81081039883E+03 -0.12353835943E+03  0.60438820386E+03  0.10188041730E+04  0.12699999809E+01 0. -1.
</event>
<event>
 5   0  0.9012466E-05  0.2136200E+04  0.7818609E-02  0.8545463E-01
       -2   -1    0    0    0  501  0.00000000000E+00  0.00000000000E+00  0.97871750149E+03  0.97871750149E+03  0.25500000920E-02 0. -1.
        2   -1    0    0  501    0  0.00000000000E+00  0.00000000000E+00 -0.11656450910E+04  0.11656450910E+04  0.25500000920E-02 0.  1.
    10030    2    1    2    0    0  0.00000000000E+00  0.00000000000E+00 -0.18692758949E+03  0.21443625925E+04  0.21361996640E+04 0.  0.
        2    1    3    3  502    0 -0.11086710496E+03 -0.38774895099E+03  0.89935371863E+03  0.98563577206E+03  0.25500000920E-02 0. -1.
       -2    1    3    3    0  502  0.11086710496E+03  0.38774895099E+03 -0.10862813081E+04  0.11587268204E+04  0.25500000920E-02 0.  1.
</event>
<event>
 5   0  0.8858590E-05  0.2092491E+04  0.7818609E-02  0.8564558E-01
        2   -1    0    0  501    0  0.00000000000E+00  0.00000000000E+00  0.11244788519E+04  0.11244788519E+04  0.25500000920E-02 0.  1.
       -2   -1    0    0    0  501  0.00000000000E+00  0.00000000000E+00 -0.97345532271E+03  0.97345532272E+03  0.25500000920E-02 0. -1.
    10030    2    1    2    0    0  0.00000000000E+00  0.00000000000E+00  0.15102352915E+03  0.20979341746E+04  0.20924912651E+04 0.  0.
        1    1    3    3  502    0 -0.50514502815E+03  0.88987788946E+02  0.98977166349E+03  0.11147817149E+04  0.50400001928E-02 0.  1.
       -1    1    3    3    0  502  0.50514502815E+03 -0.88987788946E+02 -0.83874813434E+03  0.98315245966E+03  0.50400001928E-02 0. -1.
</event>
<event>
 5   0  0.8858590E-05  0.2095006E+04  0.7818609E-02  0.8563447E-01
        2   -1    0    0  501    0  0.00000000000E+00  0.00000000000E+00  0.14022673855E+04  0.14022673855E+04  0.25500000920E-02 0.  1.
       -2   -1    0    0    0  501  0.00000000000E+00  0.00000000000E+00 -0.78249159444E+03  0.78249159444E+03  0.25500000920E-02 0. -1.
    10030    2    1    2    0    0  0.00000000000E+00  0.00000000000E+00  0.61977579105E+03  0.21847589799E+04  0.20950059115E+04 0.  0.
        1    1    3    3  502    0  0.56882807640E+03 -0.86287601647E+03  0.13186401230E+03  0.10418774007E+04  0.50400001928E-02 0.  1.
       -1    1    3    3    0  502 -0.56882807640E+03  0.86287601647E+03  0.48791177875E+03  0.11428815792E+04  0.50400001928E-02 0. -1.
</event>
<event>
 5   0  0.4050368E-05  0.2068346E+04  0.7818609E-02  0.8575317E-01
       -1   -1    0    0    0  501  0.00000000000E+00  0.00000000000E+00  0.16109688270E+04  0.16109688270E+04  0.50400001928E-02 0.  1.
        1   -1    0    0  501    0  0.00000000000E+00  0.00000000000E+00 -0.66389457109E+03  0.66389457111E+03  0.50400001928E-02 0. -1.
    10030    2    1    2    0    0  0.00000000000E+00  0.00000000000E+00  0.94707425588E+03  0.22748633981E+04  0.20683456756E+04 0.  0.
        2    1    3    3  502    0 -0.53623975900E+03 -0.38043591885E+03 -0.40443338333E+03  0.77191380933E+03  0.25500000920E-02 0. -1.
       -2    1    3    3    0  502  0.53623975900E+03  0.38043591885E+03  0.13515076392E+04  0.15029495888E+04  0.25500000920E-02 0.  1.
</event>
<event>
 5   0  0.9086985E-05  0.2080022E+04  0.7818609E-02  0.8570095E-01
       -2   -1    0    0    0  501  0.00000000000E+00  0.00000000000E+00  0.97755993229E+03  0.97755993230E+03  0.25500000920E-02 0. -1.
        2   -1    0    0  501    0  0.00000000000E+00  0.00000000000E+00 -0.11064513031E+04  0.11064513031E+04  0.25500000920E-02 0.  1.
    10030    2    1    2    0    0  0.00000000000E+00  0.00000000000E+00 -0.12889137083E+03  0.20840112354E+04  0.20800215970E+04 0.  0.
        5    1    3    3  502    0 -0.10275765978E+04  0.11383514200E+03 -0.17748170348E+03  0.10489966392E+04  0.46999998093E+01 0.  1.
       -5    1    3    3    0  502  0.10275765978E+04 -0.11383514200E+03  0.48590332654E+02  0.10350145962E+04  0.46999998093E+01 0. -1.
</event>
<event>
 5   0  0.4200061E-05  0.2102678E+04  0.7818609E-02  0.8560064E-01
        1   -1    0    0  501    0  0.00000000000E+00  0.00000000000E+00  0.15719186390E+04  0.15719186390E+04  0.50400001928E-02 0.  1.
       -1   -1    0    0    0  501  0.00000000000E+00  0.00000000000E+00 -0.70316233744E+03  0.70316233746E+03  0.50400001928E-02 0. -1.
    10030    2    1    2    0    0  0.00000000000E+00  0.00000000000E+00  0.86875630155E+03  0.22750809765E+04  0.21026782773E+04 0.  0.
        4    1    3    3  502    0 -0.87354935812E+03  0.12358067717E+03  0.10530578068E+04  0.13737878374E+04  0.12699999809E+01 0.  1.
       -4    1    3    3    0  502  0.87354935812E+03 -0.12358067717E+03 -0.18430150522E+03  0.90129313908E+03  0.12699999809E+01 0. -1.
</event>
<event>
 5   0  0.4182977E-05  0.2180335E+04  0.7818609E-02  0.8526658E-01
        1   -1    0    0  501    0  0.00000000000E+00  0.00000000000E+00  0.11050203961E+04  0.11050203961E+04  0.50400001928E-02 0. -1.
       -1   -1    0    0    0  501  0.00000000000E+00  0.00000000000E+00 -0.10755146242E+04  0.10755146242E+04  0.50400001928E-02 0.  1.
    10030    2    1    2    0    0  0.00000000000E+00  0.00000000000E+00  0.29505771877E+02  0.21805350203E+04  0.21803353834E+04 0.  0.
        1    1    3    3  502    0 -0.77015925923E+03 -0.76427639393E+03 -0.91095857581E+02  0.10888352245E+04  0.50400001928E-02 0.  1.
       -1    1    3    3    0  502  0.77015925923E+03  0.76427639393E+03  0.12060162946E+03  0.10916997957E+04  0.50400001928E-02 0. -1.
</event>
<event>
 5   0  0.4182977E-05  0.2106875E+04  0.7818609E-02  0.8558221E-01
       -1   -1    0    0    0  501  0.00000000000E+00  0.00000000000E+00  0.54707696289E+03  0.54707696291E+03  0.50400001928E-02 0.  1.
        1   -1    0    0  501    0  0.00000000000E+00  0.00000000000E+00 -0.20284718698E+04  0.20284718698E+04  0.50400001928E-02 0. -1.
    10030    2    1    2    0    0  0.00000000000E+00  0.00000000000E+00 -0.14813949069E+04  0.25755488327E+04  0.21068746805E+04 0.  0.
        1    1    3    3  502    0  0.69759219021E+03  0.14129785697E+03 -0.16900699620E+04  0.18338310786E+04  0.50400001928E-02 0. -1.
       -1    1    3    3    0  502 -0.69759219021E+03 -0.14129785697E+03  0.20867505506E+03  0.74171775417E+03  0.50400001928E-02 0.  1.
</event>
<event>
 5   0  0.4050368E-05  0.1887740E+04  0.7818609E-02  0.8660983E-01
        1   -1    0    0  501    0  0.00000000000E+00  0.00000000000E+00  0.41158062788E+03  0.41158062791E+03  0.50400001928E-02 0.  1.
       -1   -1    0    0    0  501  0.00000000000E+00  0.00000000000E+00 -0.21645596068E+04  0.21645596068E+04  0.50400001928E-02 0. -1.
    10030    2    1    2    0    0  0.00000000000E+00  0.00000000000E+00 -0.17529789789E+04  0.25761402347E+04  0.18877402386E+04 0.  0.
        2    1    3    3  502    0  0.40988657313E+03 -0.10061928759E+03 -0.20286123455E+04  0.20720519521E+04  0.25500000920E-02 0. -1.
       -2    1    3    3    0  502 -0.40988657313E+03  0.10061928759E+03  0.27563336660E+03  0.50408828260E+03  0.25500000920E-02 0.  1.
</event>
<event>
 5   0  0.4182977E-05  0.2077024E+04  0.7818609E-02  0.8571433E-01
       -1   -1    0    0    0  501  0.00000000000E+00  0.00000000000E+00  0.75940119647E+03  0.75940119649E+03  0.50400001928E-02 0.  1.
        1   -1    0    0  501    0  0.00000000000E+00  0.00000000000E+00 -0.14202067688E+04  0.14202067688E+04  0.50400001928E-02 0. -1.
    10030    2    1    2    0    0  0.00000000000E+00  0.00000000000E+00 -0.66080557228E+03  0.21796079653E+04  0.20770235622E+04 0.  0.
        1    1    3    3  502    0  0.64710829125E+03  0.26680896461E+03  0.47467200651E+03  0.84572435107E+03  0.50400001928E-02 0.  1.
       -1    1    3    3    0  502 -0.64710829125E+03 -0.26680896461E+03 -0.11354775788E+04  0.13338836142E+04  0.50400001928E-02 0. -1.
</event>
<event>
 5   0  0.8858590E-05  0.2043710E+04  0.7818609E-02  0.8586453E-01
       -2   -1    0    0    0  501  0.00000000000E+00  0.00000000000E+00  0.13977271399E+04  0.13977271399E+04  0.25500000920E-02 0. -1.
        2   -1    0    0  501    0  0.00000000000E+00  0.00000000000E+00 -0.74706135873E+03  0.74706135873E+03  0.25500000920E-02 0.  1.
    10030    2    1    2    0    0  0.00000000000E+00  0.00000000000E+00  0.65066578120E+03  0.21447884987E+04  0.20437102890E+04 0.  0.
        1    1    3    3  502    0  0.45318033218E+02  0.10207611823E+04  0.31122086726E+03  0.10681130763E+04  0.50400001928E-02 0. -1.
       -1    1    3    3    0  502 -0.45318033218E+02 -0.10207611823E+04  0.33944491394E+03  0.10766754224E+04  0.50400001928E-02 0.  1.
</event>
<event>
 5   0  0.4174093E-05  0.2090823E+04  0.7818609E-02  0.8565297E-01
        1   -1    0    0  501    0  0.00000000000E+00  0.00000000000E+00  0.10793570228E+04  0.10793570228E+04  0.50400001928E-02 0. -1.
       -1   -1    0    0    0  501  0.00000000000E+00  0.00000000000E+00 -0.10125339771E+04  0.10125339771E+04  0.50400001928E-02 0.  1.
    10030    2    1    2    0    0  0.00000000000E+00  0.00000000000E+00  0.66823045705E+02  0.20918909999E+04  0.20908234349E+04 0.  0.
        3    1    3    3  502    0 -0.73198038822E+02 -0.60401120178E+03 -0.81713910188E+03  0.10187756410E+04  0.10100000352E+00 0.  1.
       -3    1    3    3    0  502  0.73198038822E+02  0.60401120178E+03  0.88396214759E+03  0.10731153588E+04  0.10100000352E+00 0. -1.
</event>
<event>
 5   0  0.8547605E-05  0.2093891E+04  0.7818609E-02  0.8563939E-01
       -2   -1    0    0    0  501  0.00000000000E+00  0.00000000000E+00  0.70960184497E+03  0.70960184498E+03  0.25500000920E-02 0. -1.
        2   -1    0    0  501    0  0.00000000000E+00  0.00000000000E+00 -0.15446623385E+04  0.15446623385E+04  0.25500000920E-02 0.  1.
    10030    2    1    2    0    0  0.00000000000E+00  0.00000000000E+00 -0.83506049350E+03  0.22542641834E+04  0.20938913489E+04 0.  0.
        4    1    3    3  502    0 -0.44675577292E+03  0.50782226899E+02 -0.14354205700E+04  0.15041952602E+04  0.12699999809E+01 0.  1.
       -4    1    3    3    0  502  0.44675577292E+03 -0.50782226899E+02  0.60036007651E+03  0.75006892321E+03  0.12699999809E+01 0. -1.
</event>
<event>
 5   0  0.8872777E-05  0.1934222E+04  0.7818609E-02  0.8638007E-01
        2   -1    0    0  501    0  0.00000000000E+00  0.00000000000E+00  0.73910960989E+03  0.73910960990E+03  0.25500000920E-02 0. -1.
       -2   -1    0    0    0  501  0.00000000000E+00  0.00000000000E+00 -0.12654471319E+04  0.12654471319E+04  0.25500000920E-02 0.  1.
    10030    2    1    2    0    0  0.00000000000E+00  0.00000000000E+00 -0.52633752203E+03  0.20045567418E+04  0.19342224650E+04 0.  0.
        3    1    3    3  502    0 -0.34285440345E+03  0.65675447404E+03 -0.90740704708E+03  0.11714363578E+04  0.10100000352E+00 0.  1.
       -3    1    3    3    0  502  0.34285440345E+03 -0.65675447404E+03  0.38106952504E+03  0.83312038401E+03  0.10100000352E+00 0. -1.
</event>
<event>
 5   0  0.9012466E-05  0.2111503E+04  0.7818609E-02  0.8556193E-01
       -2   -1    0    0    0  501  0.00000000000E+00  0.00000000000E+00  0.10539148693E+04  0.10539148693E+04  0.25500000920E-02 0.  1.
        2   -1    0    0  501    0  0.00000000000E+00  0.00000000000E+00 -0.10575916166E+04  0.10575916166E+04  0.25500000920E-02 0. -1.
    10030    2    1    2    0    0  0.00000000000E+00  0.00000000000E+00 -0.36767472107E+01  0.21115064859E+04  0.21115032848E+04 0.  0.
        2    1    3    3  502    0 -0.54436528177E+03  0.51788379350E+03 -0.74350946965E+03  0.10570447081E+04  0.25500000920E-02 0. -1.
       -2    1    3    3    0  502  0.54436528177E+03 -0.51788379350E+03  0.73983272244E+03  0.10544617778E+04  0.25500000920E-02 0.  1.
</event>
<event>
 5   0  0.4128678E-05  0.2112297E+04  0.7818609E-02  0.8555846E-01
       -1   -1    0    0    0  501  0.00000000000E+00  0.00000000000E+00  0.12125281135E+04  0.12125281135E+04  0.50400001928E-02 0. -1.
        1   -1    0    0  501    0  0.00000000000E+00  0.00000000000E+00 -0.91993708710E+03  0.91993708712E+03  0.50400001928E-02 0.  1.
    10030    2    1    2    0    0  0.00000000000E+00  0.00000000000E+00  0.29259102635E+03  0.21324652006E+04  0.21122969306E+04 0.  0.
        5    1    3    3  502    0 -0.27968496020E+03  0.87042676825E+03 -0.38748820195E+03  0.99299326911E+03  0.46999998093E+01 0.  1.
       -5    1    3    3    0  502  0.27968496020E+03 -0.87042676825E+03  0.68007922830E+03  0.11394719315E+04  0.46999998093E+01 0. -1.
</event>
<event>
 5   0  0.4182977E-05  0.2132828E+04  0.7818609E-02  0.8546919E-01
        1   -1    0    0  501    0  0.00000000000E+00  0.00000000000E+00  0.11282179454E+04  0.11282179454E+04  0.50400001928E-02 0. -1.
       -1   -1    0    0    0  501  0.00000000000E+00  0.00000000000E+00 -0.10079952270E+04  0.10079952270E+04  0.50400001928E-02 0.  1.
    10030    2    1    2    0    0  0.00000000000E+00  0.00000000000E+00  0.12022271840E+03  0.21362131724E+04  0.21328275167E+04 0.  0.
        1    1    3    3  502    0  0.18009594490E+03  0.60260812780E+03  0.92267945304E+03  0.11166505622E+04  0.50400001928E-02 0. -1.
       -1    1    3    3    0  502 -0.18009594490E+03 -0.60260812780E+03 -0.80245673464E+03  0.10195626102E+04  0.50400001928E-02 0.  1.
</event>
<event>
 5   0  0.8547605E-05  0.2099228E+04  0.7818609E-02  0.8561584E-01
        2   -1    0    0  501    0  0.00000000000E+00  0.00000000000E+00  0.74814318924E+03  0.74814318924E+03  0.25500000920E-02 0.  1.
       -2   -1    0    0    0  501  0.00000000000E+00  0.00000000000E+00 -0.14725650743E+04  0.14725650743E+04  0.25500000920E-02 0. -1.
    10030    2    1    2    0    0  0.00000000000E+00  0.00000000000E+00 -0.72442188507E+03  0.22207082636E+04  0.20992279829E+04 0.  0.
        4    1    3    3  502    0  0.73245625461E+03  0.32455670632E+03 -0.10795824183E+04  0.13443693806E+04  0.12699999809E+01 0. -1.
       -4    1    3    3    0  502 -0.73245625461E+03 -0.32455670632E+03  0.35516053327E+03  0.87633888298E+03  0.12699999809E+01 0.  1.
</event>
<event>
 5   0  0.8547605E-05  0.2031391E+04  0.7818609E-02  0.8592084E-01
        2   -1    0    0  501    0  0.00000000000E+00  0.00000000000E+00  0.20784503677E+04  0.20784503677E+04  0.25500000920E-02 0. -1.
       -2   -1    0    0    0  501  0.00000000000E+00  0.00000000000E+00 -0.49634911680E+03  0.49634911681E+03  0.25500000920E-02 0.  1.
    10030    2    1    2    0    0  0.00000000000E+00  0.00000000000E+00  0.15821012509E+04  0.25747994845E+04  0.20313906609E+04 0.  0.
        4    1    3    3  502    0 -0.34048716304E+03 -0.54526533057E+03 -0.20568745635E+03  0.67494794726E+03  0.12699999809E+01 0.  1.
       -4    1    3    3    0  502  0.34048716304E+03  0.54526533057E+03  0.17877887072E+04  0.18998515372E+04  0.12699999809E+01 0. -1.
</event>
<event>
 5   0  0.9086985E-05  0.2111845E+04  0.7818609E-02  0.8556043E-01
       -2   -1    0    0    0  501  0.00000000000E+00  0.00000000000E+00  0.44108848744E+03  0.44108848745E+03  0.25500000920E-02 0. -1.
        2   -1    0    0  501    0  0.00000000000E+00  0.00000000000E+00 -0.25277756805E+04  0.25277756805E+04  0.25500000920E-02 0.  1.
    10030    2    1    2    0    0  0.00000000000E+00  0.00000000000E+00 -0.20866871931E+04  0.29688641680E+04  0.21118454030E+04 0.  0.
        5    1    3    3  502    0 -0.92802108827E+02  0.55367284432E+03 -0.23005737300E+04  0.23680851815E+04  0.46999998093E+01 0.  1.
       -5    1    3    3    0  502  0.92802108827E+02 -0.55367284432E+03  0.21388653686E+03  0.60077898647E+03  0.46999998093E+01 0. -1.
</event>
<event>
 5   0  0.8872777E-05  0.2105220E+04  0.7818609E-02  0.8558947E-01
       -2   -1    0    0    0  501  0.00000000000E+00  0.00000000000E+00  0.66325444765E+03  0.66325444765E+03  0.25500000920E-02 0.  1.
        2   -1    0    0  501    0  0.00000000000E+00  0.00000000000E+00 -0.16705327427E+04  0.16705327427E+04  0.25500000920E-02 0. -1.
    10030    2    1    2    0    0  0.00000000000E+00  0.00000000000E+00 -0.10072782951E+04  0.23337871904E+04  0.21052204365E+04 0.  0.
        3    1    3    3  502    0 -0.64076937418E+03 -0.72726691546E+03 -0.48603727933E+02  0.97049723842E+03  0.10100000352E+00 0.  1.
       -3    1    3    3    0  502  0.64076937418E+03  0.72726691546E+03 -0.95867456712E+03  0.13632899519E+04  0.10100000352E+00 0. -1.
</event>
<event>
 5   0  0.8547605E-05  0.2101121E+04  0.7818609E-02  0.8560750E-01
        2   -1    0    0  501    0  0.00000000000E+00  0.00000000000E+00  0.15393471403E+04  0.15393471403E+04  0.25500000920E-02 0.  1.
       -2   -1    0    0    0  501  0.00000000000E+00  0.00000000000E+00 -0.71697779122E+03  0.71697779122E+03  0.25500000920E-02 0. -1.
    10030    2    1    2    0    0  0.00000000000E+00  0.00000000000E+00  0.82236934909E+03  0.22563249315E+04  0.21011213317E+04 0.  0.
        4    1    3    3  502    0  0.37358644849E+03 -0.67636748830E+03 -0.35317656476E+03  0.84957348859E+03  0.12699999809E+01 0. -1.
       -4    1    3    3    0  502 -0.37358644849E+03  0.67636748830E+03  0.11755459139E+04  0.14067514429E+04  0.12699999809E+01 0.  1.
</event>
<event>
 5   0  0.4128678E-05  0.2003809E+04  0.7818609E-02  0.8604842E-01
       -1   -1    0    0    0  501  0.00000000000E+00  0.00000000000E+00  0.98771511586E+03  0.98771511587E+03  0.50400001928E-02 0. -1.
        1   -1    0    0  501    0  0.00000000000E+00  0.00000000000E+00 -0.10162977097E+04  0.10162977098E+04  0.50400001928E-02 0.  1.
    10030    2    1    2    0    0  0.00000000000E+00  0.00000000000E+00 -0.28582593882E+02  0.20040128256E+04  0.20038089831E+04 0.  0.
        5    1    3    3  502    0 -0.28590571978E+03 -0.95834116559E+03  0.45969707031E+02  0.10011469294E+04  0.46999998093E+01 0. -1.
       -5    1    3    3    0  502  0.28590571978E+03  0.95834116559E+03 -0.74552300913E+02  0.10028658962E+04  0.46999998093E+01 0.  1.
</event>
<event>
 5   0  0.4050368E-05  0.2082530E+04  0.7818609E-02  0.8568978E-01
       -1   -1    0    0    0  501  0.00000000000E+00  0.00000000000E+00  0.58543656412E+03  0.58543656414E+03  0.50400001928E-02 0. -1.
        1   -1    0    0  501    0  0.00000000000E+00  0.00000000000E+00 -0.18520081167E+04  0.18520081167E+04  0.50400001928E-02 0.  1.
    10030    2    1    2    0    0  0.00000000000E+00  0.00000000000E+00 -0.12665715526E+04  0.24374446809E+04  0.20825304498E+04 0.  0.
        2    1    3    3  502    0  0.75639060918E+03 -0.13177387291E+03 -0.14565379172E+04  0.16465095843E+04  0.25500000920E-02 0.  1.
       -2    1    3    3    0  502 -0.75639060918E+03  0.13177387291E+03  0.18996636455E+03  0.79093509652E+03  0.25500000920E-02 0. -1.
</event>
<event>
 5   0  0.8547605E-05  0.2072936E+04  0.7818609E-02  0.8573260E-01
        2   -1    0    0  501    0  0.00000000000E+00  0.00000000000E+00  0.10644763537E+04  0.10644763537E+04  0.25500000920E-02 0.  1.
       -2   -1    0    0    0  501  0.00000000000E+00  0.00000000000E+00 -0.10091967792E+04  0.10091967792E+04  0.25500000920E-02 0. -1.
    10030    2    1    2    0    0  0.00000000000E+00  0.00000000000E+00  0.55279574495E+02  0.20736731330E+04  0.20729361860E+04 0.  0.
        4    1    3    3  502    0  0.62252254396E+03  0.37345134318E+03 -0.71239633017E+03  0.10171088278E+04  0.12699999809E+01 0. -1.
       -4    1    3    3    0  502 -0.62252254396E+03 -0.37345134318E+03  0.76767590466E+03  0.10565643052E+04  0.12699999809E+01 0.  1.
</event>
<event>
 5   0  0.8872777E-05  0.2098453E+04  0.7818609E-02  0.8561925E-01
        2   -1    0    0  501    0  0.00000000000E+00  0.00000000000E+00  0.14326403057E+04  0.14326403057E+04  0.25500000920E-02 0. -1.
       -2   -1    0    0    0  501  0.00000000000E+00  0.00000000000E+00 -0.76842510145E+03  0.76842510145E+03  0.25500000920E-02 0.  1.
    10030    2    1    2    0    0  0.00000000000E+00  0.00000000000E+00  0.66421520425E+03  0.22010654072E+04  0.20984534994E+04 0.  0.
        3    1    3    3  502    0  0.36328544079E+03 -0.69057377040E+02  0.13620234505E+04  0.14113302670E+04  0.10100000352E+00 0. -1.
       -3    1    3    3    0  502 -0.36328544079E+03  0.69057377040E+02 -0.69780824623E+03  0.78973514011E+03  0.10100000352E+00 0.  1.
</event>
<event>
 5   0  0.3176125E-05  0.2102537E+04  0.7818609E-02  0.8560127E-01
       -3   -1    0    0    0  501  0.00000000000E+00  0.00000000000E+00  0.10582439500E+04  0.10582439548E+04  0.10100000352E+00 0.  1.
        3   -1    0    0  501    0  0.00000000000E+00  0.00000000000E+00 -0.10443386797E+04  0.10443386846E+04  0.10100000352E+00 0. -1.
    10030    2    1    2    0    0  0.00000000000E+00  0.00000000000E+00  0.13905270288E+02  0.21025826395E+04  0.21025366582E+04 0.  0.
        2    1    3    3  502    0 -0.97573388388E+03 -0.23549101406E+03 -0.30554815074E+03  0.10492246196E+04  0.25500000920E-02 0. -1.
       -2    1    3    3    0  502  0.97573388388E+03  0.23549101406E+03  0.31945342103E+03  0.10533580199E+04  0.25500000920E-02 0.  1.
</event>
<event>
 5   0  0.9012466E-05  0.2100891E+04  0.7818609E-02  0.8560851E-01
       -2   -1    0    0    0  501  0.00000000000E+00  0.00000000000E+00  0.61419025637E+03  0.61419025638E+03  0.25500000920E-02 0.  1.
        2   -1    0    0  501    0  0.00000000000E+00  0.00000000000E+00 -0.17965698345E+04  0.17965698345E+04  0.25500000920E-02 0. -1.
    10030    2    1    2    0    0  0.00000000000E+00  0.00000000000E+00 -0.11823795781E+04  0.24107600908E+04  0.21008909417E+04 0.  0.
        2    1    3    3  502    0 -0.25292487797E+02  0.66728181777E+03  0.33929351674E+03  0.74901590422E+03  0.25500000920E-02 0.  1.
       -2    1    3    3    0  502  0.25292487797E+02 -0.66728181777E+03 -0.15216730948E+04  0.16617441866E+04  0.25500000920E-02 0. -1.
</event>
<event>
 5   0  0.8547605E-05  0.2106231E+04  0.7818609E-02  0.8558504E-01
       -2   -1    0    0    0  501  0.00000000000E+00  0.00000000000E+00  0.92909945900E+03  0.92909945901E+03  0.25500000920E-02 0.  1.
        2   -1    0    0  501    0  0.00000000000E+00  0.00000000000E+00 -0.11936847667E+04  0.11936847667E+04  0.25500000920E-02 0. -1.
    10030    2    1    2    0    0  0.00000000000E+00  0.00000000000E+00 -0.26458530774E+03  0.21227842258E+04  0.21062306341E+04 0.  0.
        4    1    3    3  502    0  0.40093291034E+03  0.67873727972E+03 -0.83607785688E+03  0.11491123919E+04  0.12699999809E+01 0. -1.
       -4    1    3    3    0  502 -0.40093291034E+03 -0.67873727972E+03  0.57149254915E+03  0.97367183389E+03  0.12699999809E+01 0.  1.
</event>
<event>
 5   0  0.4182977E-05  0.2098005E+04  0.7818609E-02  0.8562123E-01
        1   -1    0    0  501    0  0.00000000000E+00  0.00000000000E+00  0.14261772588E+04  0.14261772588E+04  0.50400001928E-02 0.  1.
       -1   -1    0    0    0  501  0.00000000000E+00  0.00000000000E+00 -0.77157721259E+03  0.77157721261E+03  0.50400001928E-02 0. -1.
    10030    2    1    2    0    0  0.00000000000E+00  0.00000000000E+00  0.65460004621E+03  0.21977544714E+04  0.20980046464E+04 0.  0.
        1    1    3    3  502    0 -0.14735051616E+03  0.87851520373E+03 -0.25302930886E+03  0.92602644075E+03  0.50400001928E-02 0. -1.
       -1    1    3    3    0  502  0.14735051616E+03 -0.87851520373E+03  0.90762935507E+03  0.12717280307E+04  0.50400001928E-02 0.  1.
</event>
<event>
 5   0  0.9012466E-05  0.2063914E+04  0.7818609E-02  0.8577308E-01
        2   -1    0    0  501    0  0.00000000000E+00  0.00000000000E+00  0.19419367462E+04  0.19419367462E+04  0.25500000920E-02 0.  1.
       -2   -1    0    0    0  501  0.00000000000E+00  0.00000000000E+00 -0.54838836397E+03  0.54838836398E+03  0.25500000920E-02 0. -1.
    10030    2    1    2    0    0  0.00000000000E+00  0.00000000000E+00  0.13935483823E+04  0.24903251102E+04  0.20639142572E+04 0.  0.
        2    1    3    3  502    0  0.43757421115E+03  0.31077024401E+03 -0.36673952311E+03  0.65003631640E+03  0.25500000920E-02 0. -1.
       -2    1    3    3    0  502 -0.43757421115E+03 -0.31077024401E+03  0.17602879054E+04  0.18402887938E+04  0.25500000920E-02 0.  1.
</event>
<event>
 5   0  0.4128678E-05  0.2244970E+04  0.7818609E-02  0.8499940E-01
        1   -1    0    0  501    0  0.00000000000E+00  0.00000000000E+00  0.98100531875E+03  0.98100531876E+03  0.50400001928E-02 0.  1.
       -1   -1    0    0    0  501  0.00000000000E+00  0.00000000000E+00 -0.12843684367E+04  0.12843684367E+04  0.50400001928E-02 0. -1.
    10030    2    1    2    0    0  0.00000000000E+00  0.00000000000E+00 -0.30336311799E+03  0.22653737555E+04  0.22449697260E+04 0.  0.
        5    1    3    3  502    0  0.10825061907E+04  0.28353921598E+03 -0.24043570835E+03  0.11445722169E+04  0.46999998093E+01 0.  1.
       -5    1    3    3    0  502 -0.10825061907E+04 -0.28353921598E+03 -0.62927409644E+02  0.11208015386E+04  0.46999998093E+01 0. -1.
</event>
<event>
 5   0  0.4174093E-05  0.2100682E+04  0.7818609E-02  0.8560943E-01
        1   -1    0    0  501    0  0.00000000000E+00  0.00000000000E+00  0.11011547697E+04  0.11011547697E+04  0.50400001928E-02 0. -1.
       -1   -1    0    0    0  501  0.00000000000E+00  0.00000000000E+00 -0.10018725005E+04  0.10018725005E+04  0.50400001928E-02 0.  1.
    10030    2    1    2    0    0  0.00000000000E+00  0.00000000000E+00  0.99282269218E+02  0.21030272702E+04  0.21006824439E+04 0.  0.
        3    1    3    3  502    0  0.84784427069E+03 -0.51093178854E+03  0.40121039259E+03  0.10681109442E+04  0.10100000352E+00 0. -1.
       -3    1    3    3    0  502 -0.84784427069E+03  0.51093178854E+03 -0.30192812337E+03  0.10349163260E+04  0.10100000352E+00 0.  1.
</event>
<event>
 5   0  0.9086985E-05  0.2126290E+04  0.7818609E-02  0.8549750E-01
       -2   -1    0    0    0  501  0.00000000000E+00  0.00000000000E+00  0.14366933975E+04  0.14366933975E+04  0.25500000920E-02 0. -1.
        2   -1    0    0  501    0  0.00000000000E+00  0.00000000000E+00 -0.78672136076E+03  0.78672136077E+03  0.25500000920E-02 0.  1.
    10030    2    1    2    0    0  0.00000000000E+00  0.00000000000E+00  0.64997203670E+03  0.22234147582E+04  0.21262900881E+04 0.  0.
        5    1    3    3  502    0  0.45337928814E+02  0.63983845437E+03 -0.56156548988E+03  0.85254129806E+03  0.46999998093E+01 0.  1.
       -5    1    3    3    0  502 -0.45337928814E+02 -0.63983845437E+03  0.12115375266E+04  0.13708734602E+04  0.46999998093E+01 0. -1.
</event>
<event>
 5   0  0.4128678E-05  0.2096422E+04  0.7818609E-02  0.8562821E-01
        1   -1    0    0  501    0  0.00000000000E+00  0.00000000000E+00  0.11242325531E+04  0.11242325531E+04  0.50400001928E-02 0.  1.
       -1   -1    0    0    0  501  0.00000000000E+00  0.00000000000E+00 -0.97733037582E+03  0.97733037583E+03  0.50400001928E-02 0. -1.
    10030    2    1    2    0    0  0.00000000000E+00  0.00000000000E+00  0.14690217731E+03  0.21015629290E+04  0.20964223083E+04 0.  0.
        5    1    3    3  502    0 -0.59924943781E+02 -0.93241127551E+03  0.54974006551E+03  0.10840747277E+04  0.46999998093E+01 0.  1.
       -5    1    3    3    0  502  0.59924943781E+02  0.93241127551E+03 -0.40283788820E+03  0.10174882013E+04  0.46999998093E+01 0. -1.
</event>
<event>
 5   0  0.8872777E-05  0.2093799E+04  0.7818609E-02  0.8563980E-01
       -2   -1    0    0    0  501  0.00000000000E+00  0.00000000000E+00  0.75476653236E+03  0.75476653236E+03  0.25500000920E-02 0.  1.
        2   -1    0    0  501    0  0.00000000000E+00  0.00000000000E+00 -0.14521027215E+04  0.14521027215E+04  0.25500000920E-02 0. -1.
    10030    2    1    2    0    0  0.00000000000E+00  0.00000000000E+00 -0.69733618917E+03  0.22068692539E+04  0.20937989739E+04 0.  0.
        3    1    3    3  502    0  0.86741048219E+03  0.57309229330E+03 -0.47845515212E+03  0.11444453085E+04  0.10100000352E+00 0. -1.
       -3    1    3    3    0  502 -0.86741048219E+03 -0.57309229330E+03 -0.21888103705E+03  0.10624239454E+04  0.10100000352E+00 0.  1.
</event>
<event>
 5   0  0.4182977E-05  0.1916525E+04  0.7818609E-02  0.8646674E-01
        1   -1    0    0  501    0  0.00000000000E+00  0.00000000000E+00  0.23982637370E+04  0.23982637370E+04  0.50400001928E-02 0.  1.
       -1   -1    0    0    0  501  0.00000000000E+00  0.00000000000E+00 -0.38288828612E+03  0.38288828615E+03  0.50400001928E-02 0. -1.
    10030    2    1    2    0    0  0.00000000000E+00  0.00000000000E+00  0.20153754509E+04  0.27811520231E+04  0.19165250762E+04 0.  0.
        1    1    3    3  502    0 -0.61843199174E+03 -0.18971887968E+02  0.20695526888E+04  0.21600616641E+04  0.50400001928E-02 0.  1.
       -1    1    3    3    0  502  0.61843199174E+03  0.18971887968E+02 -0.54177237953E+02  0.62109035902E+03  0.50400001928E-02 0. -1.
</event>
<event>
 5   0  0.4174093E-05  0.2064236E+04  0.7818609E-02  0.8577163E-01
       -1   -1    0    0    0  501  0.00000000000E+00  0.00000000000E+00  0.67884438190E+03  0.67884438191E+03  0.50400001928E-02 0. -1.
        1   -1    0    0  501    0  0.00000000000E+00  0.00000000000E+00 -0.15692368566E+04  0.15692368566E+04  0.50400001928E-02 0.  1.
    10030    2    1    2    0    0  0.00000000000E+00  0.00000000000E+00 -0.89039247467E+03  0.22480812385E+04  0.20642360562E+04 0.  0.
        3    1    3    3  502    0  0.69709853744E+03  0.64994789050E+03 -0.13827303792E+02  0.95318929694E+03  0.10100000352E+00 0. -1.
       -3    1    3    3    0  502 -0.69709853744E+03 -0.64994789050E+03 -0.87656517088E+03  0.12948919415E+04  0.10100000352E+00 0.  1.
</event>
<event>
 5   0  0.8872777E-05  0.2070017E+04  0.7818609E-02  0.8574567E-01
        2   -1    0    0  501    0  0.00000000000E+00  0.00000000000E+00  0.13784339851E+04  0.13784339851E+04  0.25500000920E-02 0. -1.
       -2   -1    0    0    0  501  0.00000000000E+00  0.00000000000E+00 -0.77714462345E+03  0.77714462346E+03  0.25500000920E-02 0.  1.
    10030    2    1    2    0    0  0.00000000000E+00  0.00000000000E+00  0.60128936166E+03  0.21555786086E+04  0.20700169664E+04 0.  0.
        3    1    3    3  502    0 -0.75074843779E+03  0.72850502118E+01 -0.44123987992E+03  0.87084380381E+03  0.10100000352E+00 0.  1.
       -3    1    3    3    0  502  0.75074843779E+03 -0.72850502118E+01  0.10425292416E+04  0.12847348048E+04  0.10100000352E+00 0. -1.
</event>
<event>
 5   0  0.9086985E-05  0.2268117E+04  0.7818609E-02  0.8490599E-01
       -2   -1    0    0    0  501  0.00000000000E+00  0.00000000000E+00  0.67072203632E+03  0.67072203632E+03  0.25500000920E-02 0.  1.
        2   -1    0    0  501    0  0.00000000000E+00  0.00000000000E+00 -0.19174687948E+04  0.19174687948E+04  0.25500000920E-02 0. -1.
    10030    2    1    2    0    0  0.00000000000E+00  0.00000000000E+00 -0.12467467585E+04  0.25881908311E+04  0.22681169058E+04 0.  0.
        5    1    3    3  502    0  0.56773434152E+03  0.49080132366E+03  0.34681804952E+03  0.82674849339E+03  0.46999998093E+01 0.  1.
       -5    1    3    3    0  502 -0.56773434152E+03 -0.49080132366E+03 -0.15935648080E+04  0.17614423377E+04  0.46999998093E+01 0. -1.
</event>
<event>
 5   0  0.9086985E-05  0.2110441E+04  0.7818609E-02  0.8556658E-01
        2   -1    0    0  501    0  0.00000000000E+00  0.00000000000E+00  0.19177649028E+04  0.19177649028E+04  0.25500000920E-02 0.  1.
       -2   -1    0    0    0  501  0.00000000000E+00  0.00000000000E+00 -0.58061852613E+03  0.58061852613E+03  0.25500000920E-02 0. -1.
    10030    2    1    2    0    0  0.00000000000E+00  0.00000000000E+00  0.13371463767E+04  0.24983834289E+04  0.21104405524E+04 0.  0.
        5    1    3    3  502    0 -0.98998938680E+03 -0.27634503081E+03  0.95126151370E+03  0.14004878148E+04  0.46999998093E+01 0.  1.
       -5    1    3    3    0  502  0.98998938680E+03  0.27634503081E+03  0.38588486298E+03  0.10978956141E+04  0.46999998093E+01 0. -1.
</event>
<event>
 5   0  0.4200061E-05  0.2139535E+04  0.7818609E-02  0.8544025E-01
        1   -1    0    0  501    0  0.00000000000E+00  0.00000000000E+00  0.14861270699E+04  0.14861270699E+04  0.50400001928E-02 0.  1.
       -1   -1    0    0    0  501  0.00000000000E+00  0.00000000000E+00 -0.77005665145E+03  0.77005665146E+03  0.50400001928E-02 0. -1.
    10030    2    1    2    0    0  0.00000000000E+00  0.00000000000E+00  0.71607041842E+03  0.22561837213E+04  0.21395345616E+04 0.  0.
        4    1    3    3  502    0 -0.19034697583E+03 -0.36488164619E+03 -0.68323659238E+03  0.79761171067E+03  0.12699999809E+01 0. -1.
       -4    1    3    3    0  502  0.19034697583E+03  0.36488164619E+03  0.13993070108E+04  0.14585720107E+04  0.12699999809E+01 0.  1.
</event>
<event>
 5   0  0.4128678E-05  0.2305113E+04  0.7818609E-02  0.8475908E-01
       -1   -1    0    0    0  501  0.00000000000E+00  0.00000000000E+00  0.94619659712E+03  0.94619659713E+03  0.50400001928E-02 0. -1.
        1   -1    0    0  501    0  0.00000000000E+00  0.00000000000E+00 -0.14039220070E+04  0.14039220070E+04  0.50400001928E-02 0.  1.
    10030    2    1    2    0    0  0.00000000000E+00  0.00000000000E+00 -0.45772540986E+03  0.23501186041E+04  0.23051127744E+04 0.  0.
        5    1    3    3  502    0 -0.15257424834E+02  0.78084325390E+03 -0.10930051690E+04  0.13433656858E+04  0.46999998093E+01 0.  1.
       -5    1    3    3    0  502  0.15257424834E+02 -0.78084325390E+03  0.63527975918E+03  0.10067529183E+04  0.46999998093E+01 0. -1.
</event>
<event>
 5   0  0.4200061E-05  0.2064800E+04  0.7818609E-02  0.8576910E-01
       -1   -1    0    0    0  501  0.00000000000E+00  0.00000000000E+00  0.11456009213E+04  0.11456009213E+04  0.50400001928E-02 0.  1.
        1   -1    0    0  501    0  0.00000000000E+00  0.00000000000E+00 -0.93038473088E+03  0.93038473089E+03  0.50400001928E-02 0. -1.
    10030    2    1    2    0    0  0.00000000000E+00  0.00000000000E+00  0.21521619042E+03  0.20759856522E+04  0.20647998498E+04 0.  0.
        4    1    3    3  502    0 -0.50018145890E+03 -0.63749560617E+03 -0.53559650639E+03  0.97131218991E+03  0.12699999809E+01 0. -1.
       -4    1    3    3    0  502  0.50018145890E+03  0.63749560617E+03  0.75081269681E+03  0.11046734623E+04  0.12699999809E+01 0.  1.
</event>
<event>
 5   0  0.4174093E-05  0.2093659E+04  0.7818609E-02  0.8564042E-01
       -1   -1    0    0    0  501  0.00000000000E+00  0.00000000000E+00  0.10651277058E+04  0.10651277058E+04  0.50400001928E-02 0.  1.
        1   -1    0    0  501    0  0.00000000000E+00  0.00000000000E+00 -0.10288451683E+04  0.10288451683E+04  0.50400001928E-02 0. -1.
    10030    2    1    2    0    0  0.00000000000E+00  0.00000000000E+00  0.36282537556E+02  0.20939728741E+04  0.20936585144E+04 0.  0.
        3    1    3    3  502    0 -0.39597071019E+03  0.96446620491E+03 -0.76019666365E+02  0.10453548984E+04  0.10100000352E+00 0. -1.
       -3    1    3    3    0  502  0.39597071019E+03 -0.96446620491E+03  0.11230220392E+03  0.10486179757E+04  0.10100000352E+00 0.  1.
</event>
<event>
 5   0  0.4200061E-05  0.2120735E+04  0.7818609E-02  0.8552164E-01
        1   -1    0    0  501    0  0.00000000000E+00  0.00000000000E+00  0.10631759513E+04  0.10631759513E+04  0.50400001928E-02 0. -1.
       -1   -1    0    0    0  501  0.00000000000E+00  0.00000000000E+00 -0.10575660968E+04  0.10575660968E+04  0.50400001928E-02 0.  1.
    10030    2    1    2    0    0  0.00000000000E+00  0.00000000000E+00  0.56098545742E+01  0.21207420481E+04  0.21207346284E+04 0.  0.
        4    1    3    3  502    0  0.64120877983E+03 -0.46788784054E+03 -0.70026900647E+03  0.10585112304E+04  0.12699999809E+01 0.  1.
       -4    1    3    3    0  502 -0.64120877983E+03  0.46788784054E+03  0.70587886105E+03  0.10622308177E+04  0.12699999809E+01 0. -1.
</event>
<event>
 5   0  0.8872777E-05  0.1975728E+04  0.7818609E-02  0.8618053E-01
        2   -1    0    0  501    0  0.00000000000E+00  0.00000000000E+00  0.11220960160E+04  0.11220960160E+04  0.25500000920E-02 0. -1.
       -2   -1    0    0    0  501  0.00000000000E+00  0.00000000000E+00 -0.86968978869E+03  0.86968978869E+03  0.25500000920E-02 0.  1.
    10030    2    1    2    0    0  0.00000000000E+00  0.00000000000E+00  0.25240622733E+03  0.19917858047E+04  0.19757281666E+04 0.  0.
        3    1    3    3  502    0  0.23897229646E+03  0.55785452015E+03 -0.65959716275E+03  0.89631347833E+03  0.10100000352E+00 0.  1.
       -3    1    3    3    0  502 -0.23897229646E+03 -0.55785452015E+03  0.91200339008E+03  0.10954723264E+04  0.10100000352E+00 0. -1.
</event>
<event>
 5   0  0.9086985E-05  0.2046710E+04  0.7818609E-02  0.8585088E-01
       -2   -1    0    0    0  501  0.00000000000E+00  0.00000000000E+00  0.12740102471E+04  0.12740102471E+04  0.25500000920E-02 0. -1.
        2   -1    0    0  501    0  0.00000000000E+00  0.00000000000E+00 -0.82201509684E+03  0.82201509684E+03  0.25500000920E-02 0.  1.
    10030    2    1    2    0    0  0.00000000000E+00  0.00000000000E+00  0.45199515023E+03  0.20960253439E+04  0.20467101960E+04 0.  0.
        5    1    3    3  502    0 -0.95498150703E+03 -0.26547365946E+03 -0.34629277289E+02  0.99181007228E+03  0.46999998093E+01 0.  1.
       -5    1    3    3    0  502  0.95498150703E+03  0.26547365946E+03  0.48662442752E+03  0.11042152716E+04  0.46999998093E+01 0. -1.
</event>
<event>
 5   0  0.9086985E-05  0.2185593E+04  0.7818609E-02  0.8524449E-01
       -2   -1    0    0    0  501  0.00000000000E+00  0.00000000000E+00  0.11387394134E+04  0.11387394134E+04  0.25500000920E-02 0. -1.
        2   -1    0    0  501    0  0.00000000000E+00  0.00000000000E+00 -0.10487073878E+04  0.10487073878E+04  0.25500000920E-02 0.  1.
    10030    2    1    2    0    0  0.00000000000E+00  0.00000000000E+00  0.90032025649E+02  0.21874468012E+04  0.21855932244E+04 0.  0.
        5    1    3    3  502    0  0.47529611118E+03  0.90352072197E+03  0.43512376775E+03  0.11097796500E+04  0.46999998093E+01 0.  1.
       -5    1    3    3    0  502 -0.47529611118E+03 -0.90352072197E+03 -0.34509174210E+03  0.10776671512E+04  0.46999998093E+01 0. -1.
</event>
<event>
 5   0  0.4182977E-05  0.2089230E+04  0.7818609E-02  0.8566002E-01
        1   -1    0    0  501    0  0.00000000000E+00  0.00000000000E+00  0.11880695810E+04  0.11880695810E+04  0.50400001928E-02 0.  1.
       -1   -1    0    0    0  501  0.00000000000E+00  0.00000000000E+00 -0.91848240331E+03  0.91848240333E+03  0.50400001928E-02 0. -1.
    10030    2    1    2    0    0  0.00000000000E+00  0.00000000000E+00  0.26958717768E+03  0.21065519843E+04  0.20892304842E+04 0.  0.
        1    1    3    3  502    0 -0.48749846647E+03  0.73384877335E+03  0.70072437329E+03  0.11257013033E+04  0.50400001928E-02 0.  1.
       -1    1    3    3    0  502  0.48749846647E+03 -0.73384877335E+03 -0.43113719561E+03  0.98085068100E+03  0.50400001928E-02 0. -1.
</event>
<event>
 5   0  0.8858590E-05  0.2064854E+04  0.7818609E-02  0.8576886E-01
       -2   -1    0    0    0  501  0.00000000000E+00  0.00000000000E+00  0.11276619749E+04  0.11276619749E+04  0.25500000920E-02 0.  1.
        2   -1    0    0  501    0  0.00000000000E+00  0.00000000000E+00 -0.94523458108E+03  0.94523458108E+03  0.25500000920E-02 0. -1.
    10030    2    1    2    0    0  0.00000000000E+00  0.00000000000E+00  0.18242739384E+03  0.20728965560E+04  0.20648535972E+04 0.  0.
        1    1    3    3  502    0 -0.48232977048E+03 -0.11996154918E+03  0.99965413747E+03  0.11163965135E+04  0.50400001928E-02 0.  1.
       -1    1    3    3    0  502  0.48232977048E+03  0.11996154918E+03 -0.81722674363E+03  0.95650004250E+03  0.50400001928E-02 0. -1.
</event>
<event>
 5   0  0.8858590E-05  0.2173417E+04  0.7818609E-02  0.8529575E-01
       -2   -1    0    0    0  501  0.00000000000E+00  0.00000000000E+00  0.99028185914E+03  0.99028185914E+03  0.25500000920E-02 0.  1.
        2   -1    0    0  501    0  0.00000000000E+00  0.00000000000E+00 -0.11925243809E+04  0.11925243809E+04  0.25500000920E-02 0. -1.
    10030    2    1    2    0    0  0.00000000000E+00  0.00000000000E+00 -0.20224252177E+03  0.21828062400E+04  0.21734169052E+04 0.  0.
        1    1    3    3  502    0 -0.49254660549E+03  0.25388336226E+03  0.83773074093E+03  0.10044161063E+04  0.50400001928E-02 0.  1.
       -1    1    3    3    0  502  0.49254660549E+03 -0.25388336226E+03 -0.10399732627E+04  0.11783901338E+04  0.50400001928E-02 0. -1.
</event>
<event>
 5   0  0.4174093E-05  0.2095293E+04  0.7818609E-02  0.8563320E-01
       -1   -1    0    0    0  501  0.00000000000E+00  0.00000000000E+00  0.82136089872E+03  0.82136089874E+03  0.50400001928E-02 0.  1.
        1   -1    0    0  501    0  0.00000000000E+00  0.00000000000E+00 -0.13362735420E+04  0.13362735420E+04  0.50400001928E-02 0. -1.
    10030    2    1    2    0    0  0.00000000000E+00  0.00000000000E+00 -0.51491264332E+03  0.21576344408E+04  0.20952926645E+04 0.  0.
        3    1    3    3  502    0 -0.66679154892E+03 -0.56320781611E+03 -0.85413485910E+03  0.12212126684E+04  0.10100000352E+00 0. -1.
       -3    1    3    3    0  502  0.66679154892E+03  0.56320781611E+03  0.33922221578E+03  0.93642177234E+03  0.10100000352E+00 0.  1.
</event>
<event>
 5   0  0.8547605E-05  0.2126651E+04  0.7818609E-02  0.8549594E-01
        2   -1    0    0  501    0  0.00000000000E+00  0.00000000000E+00  0.22261919070E+04  0.22261919070E+04  0.25500000920E-02 0. -1.
       -2   -1    0    0    0  501  0.00000000000E+00  0.00000000000E+00 -0.50789002169E+03  0.50789002170E+03  0.25500000920E-02 0.  1.
    10030    2    1    2    0    0  0.00000000000E+00  0.00000000000E+00  0.17183018853E+04  0.27340819287E+04  0.21266505646E+04 0.  0.
        4    1    3    3  502    0  0.33941033430E+03  0.94517969192E+03  0.40992548454E+03  0.10847140364E+04  0.12699999809E+01 0.  1.
       -4    1    3    3    0  502 -0.33941033430E+03 -0.94517969192E+03  0.13083764007E+04  0.16493678922E+04  0.12699999809E+01 0. -1.
</event>
<event>
 5   0  0.4050368E-05  0.2057825E+04  0.7818609E-02  0.8580053E-01
        1   -1    0    0  501    0  0.00000000000E+00  0.00000000000E+00  0.25451501038E+04  0.25451501038E+04  0.50400001928E-02 0.  1.
       -1   -1    0    0    0  501  0.00000000000E+00  0.00000000000E+00 -0.41595225667E+03  0.41595225671E+03  0.50400001928E-02 0. -1.
    10030    2    1    2    0    0  0.00000000000E+00  0.00000000000E+00  0.21291978471E+04  0.29611023605E+04  0.20578249967E+04 0.  0.
        2    1    3    3  502    0  0.61964235411E+03 -0.33405965582E+03 -0.15195290695E+02  0.70411888024E+03  0.25500000920E-02 0. -1.
       -2    1    3    3    0  502 -0.61964235411E+03  0.33405965582E+03  0.21443931378E+04  0.22569834802E+04  0.25500000920E-02 0.  1.
</event>
<event>
 5   0  0.9012466E-05  0.2147716E+04  0.7818609E-02  0.8540511E-01
        2   -1    0    0  501    0  0.00000000000E+00  0.00000000000E+00  0.18436062788E+04  0.18436062788E+04  0.25500000920E-02 0. -1.
       -2   -1    0    0    0  501  0.00000000000E+00  0.00000000000E+00 -0.62549747734E+03  0.62549747734E+03  0.25500000920E-02 0.  1.
    10030    2    1    2    0    0  0.00000000000E+00  0.00000000000E+00  0.12181088015E+04  0.24691037562E+04  0.21477160675E+04 0.  0.
        2    1    3    3  502    0 -0.49003056945E+03 -0.46301931407E+03 -0.35187973458E+03  0.76048418249E+03  0.25500000920E-02 0.  1.
       -2    1    3    3    0  502  0.49003056945E+03  0.46301931407E+03  0.15699885360E+04  0.17086195737E+04  0.25500000920E-02 0. -1.
</event>
<event>
 5   0  0.4182977E-05  0.2078941E+04  0.7818609E-02  0.8570577E-01
        1   -1    0    0  501    0  0.00000000000E+00  0.00000000000E+00  0.14120596685E+04  0.14120596686E+04  0.50400001928E-02 0.  1.
       -1   -1    0    0    0  501  0.00000000000E+00  0.00000000000E+00 -0.76519386632E+03  0.76519386634E+03  0.50400001928E-02 0. -1.
    10030    2    1    2    0    0  0.00000000000E+00  0.00000000000E+00  0.64686580222E+03  0.21772535349E+04  0.20789414588E+04 0.  0.
        1    1    3    3  502    0 -0.52476493889E+03 -0.26008266058E+03  0.12228089704E+04  0.13558329578E+04  0.50400001928E-02 0.  1.
       -1    1    3    3    0  502  0.52476493889E+03  0.26008266058E+03 -0.57594316818E+03  0.82142057706E+03  0.50400001928E-02 0. -1.
</event>
<event>
 5   0  0.9012466E-05  0.2040683E+04  0.7818609E-02  0.8587833E-01
       -2   -1    0    0    0  501  0.00000000000E+00  0.00000000000E+00  0.57352090158E+03  0.57352090159E+03  0.25500000920E-02 0. -1.
        2   -1    0    0  501    0  0.00000000000E+00  0.00000000000E+00 -0.18152722445E+04  0.18152722445E+04  0.25500000920E-02 0.  1.
    10030    2    1    2    0    0  0.00000000000E+00  0.00000000000E+00 -0.12417513429E+04  0.23887931461E+04  0.20406828017E+04 0.  0.
        2    1    3    3  502    0 -0.31418047852E+03  0.88759107235E+03 -0.10810947782E+04  0.14336293818E+04  0.25500000920E-02 0. -1.
       -2    1    3    3    0  502  0.31418047852E+03 -0.88759107235E+03 -0.16065656466E+03  0.95516376427E+03  0.25500000920E-02 0.  1.
</event>
<event>
 5   0  0.9086985E-05  0.2058407E+04  0.7818609E-02  0.8579790E-01
        2   -1    0    0  501    0  0.00000000000E+00  0.00000000000E+00  0.12751579022E+04  0.12751579022E+04  0.25500000920E-02 0. -1.
       -2   -1    0    0    0  501  0.00000000000E+00  0.00000000000E+00 -0.83068936496E+03  0.83068936496E+03  0.25500000920E-02 0.  1.
    10030    2    1    2    0    0  0.00000000000E+00  0.00000000000E+00  0.44446853723E+03  0.21058472672E+04  0.20584072561E+04 0.  0.
        5    1    3    3  502    0  0.10126507504E+03 -0.88043433975E+03 -0.31310262894E+03  0.93993328927E+03  0.46999998093E+01 0. -1.
       -5    1    3    3    0  502 -0.10126507504E+03  0.88043433975E+03  0.75757116616E+03  0.11659139779E+04  0.46999998093E+01 0.  1.
</event>
<event>
 5   0  0.9086985E-05  0.2128516E+04  0.7818609E-02  0.8548785E-01
       -2   -1    0    0    0  501  0.00000000000E+00  0.00000000000E+00  0.93734055375E+03  0.93734055375E+03  0.25500000920E-02 0. -1.
        2   -1    0    0  501    0  0.00000000000E+00  0.00000000000E+00 -0.12083599901E+04  0.12083599901E+04  0.25500000920E-02 0.  1.
    10030    2    1    2    0    0  0.00000000000E+00  0.00000000000E+00 -0.27101943637E+03  0.21457005439E+04  0.21285157479E+04 0.  0.
        5    1    3    3  502    0 -0.92130185684E+03  0.33569166714E+03  0.28151697334E+03  0.10201764078E+04  0.46999998093E+01 0. -1.
       -5    1    3    3    0  502  0.92130185684E+03 -0.33569166714E+03 -0.55253640971E+03  0.11255241361E+04  0.46999998093E+01 0.  1.
</event>
<event>
 5   0  0.9086985E-05  0.2100316E+04  0.7818609E-02  0.8561104E-01
        2   -1    0    0  501    0  0.00000000000E+00  0.00000000000E+00  0.18808207798E+04  0.18808207798E+04  0.25500000920E-02 0.  1.
       -2   -1    0    0    0  501  0.00000000000E+00  0.00000000000E+00 -0.58635669288E+03  0.58635669288E+03  0.25500000920E-02 0. -1.
    10030    2    1    2    0    0  0.00000000000E+00  0.00000000000E+00  0.12944640869E+04  0.24671774727E+04  0.21003160261E+04 0.  0.
        5    1    3    3  502    0  0.84565165185E+03  0.23359340809E+03 -0.30743848497E+02  0.87787235450E+03  0.46999998093E+01 0. -1.
       -5    1    3    3    0  502 -0.84565165185E+03 -0.23359340809E+03  0.13252079354E+04  0.15893051182E+04  0.46999998093E+01 0.  1.
</event>
<event>
 5   0  0.4182977E-05  0.2440918E+04  0.7818609E-02  0.8424342E-01
       -1   -1    0    0    0  501  0.00000000000E+00  0.00000000000E+00  0.11532375733E+04  0.11532375733E+04  0.50400001928E-02 0.  1.
        1   -1    0    0  501    0  0.00000000000E+00  0.00000000000E+00 -0.12915982480E+04  0.12915982481E+04  0.50400001928E-02 0. -1.
    10030    2    1    2    0    0  0.00000000000E+00  0.00000000000E+00 -0.13836067479E+03  0.24448358213E+04  0.24409175564E+04 0.  0.
        1    1    3    3  502    0  0.12426331852E+03  0.11179574569E+04 -0.54349026628E+03  0.12492605482E+04  0.50400001928E-02 0. -1.
       -1    1    3    3    0  502 -0.12426331852E+03 -0.11179574569E+04  0.40512959150E+03  0.11955752731E+04  0.50400001928E-02 0.  1.
</event>
<event>
 5   0  0.4174093E-05  0.2089282E+04  0.7818609E-02  0.8565979E-01
        1   -1    0    0  501    0  0.00000000000E+00  0.00000000000E+00  0.15747808953E+04  0.15747808953E+04  0.50400001928E-02 0.  1.
       -1   -1    0    0    0  501  0.00000000000E+00  0.00000000000E+00 -0.69296928146E+03  0.69296928148E+03  0.50400001928E-02 0. -1.
    10030    2    1    2    0    0  0.00000000000E+00  0.00000000000E+00  0.88181161383E+03  0.22677501768E+04  0.20892819680E+04 0.  0.
        3    1    3    3  502    0 -0.10288223829E+04 -0.85726734574E+02  0.26774730865E+03  0.10665426386E+04  0.10100000352E+00 0. -1.
       -3    1    3    3    0  502  0.10288223829E+04  0.85726734574E+02  0.61406430518E+03  0.12012075381E+04  0.10100000352E+00 0.  1.
</event>
<event>
 5   0  0.4174093E-05  0.2098665E+04  0.7818609E-02  0.8561832E-01
       -1   -1    0    0    0  501  0.00000000000E+00  0.00000000000E+00  0.10211300845E+04  0.10211300846E+04  0.50400001928E-02 0.  1.
        1   -1    0    0  501    0  0.00000000000E+00  0.00000000000E+00 -0.10783137533E+04  0.10783137533E+04  0.50400001928E-02 0. -1.
    10030    2    1    2    0    0  0.00000000000E+00  0.00000000000E+00 -0.57183668727E+02  0.20994438378E+04  0.20986649223E+04 0.  0.
        3    1    3    3  502    0 -0.44152406258E+02  0.51565683103E+03  0.88457071004E+03  0.10248496249E+04  0.10100000352E+00 0.  1.
       -3    1    3    3    0  502  0.44152406258E+02 -0.51565683103E+03 -0.94175437877E+03  0.10745942129E+04  0.10100000352E+00 0. -1.
</event>
<event>
 5   0  0.8858590E-05  0.2088979E+04  0.7818609E-02  0.8566114E-01
       -2   -1    0    0    0  501  0.00000000000E+00  0.00000000000E+00  0.72922339167E+03  0.72922339168E+03  0.25500000920E-02 0.  1.
        2   -1    0    0  501    0  0.00000000000E+00  0.00000000000E+00 -0.14960553604E+04  0.14960553604E+04  0.25500000920E-02 0. -1.
    10030    2    1    2    0    0  0.00000000000E+00  0.00000000000E+00 -0.76683196877E+03  0.22252787521E+04  0.20889792379E+04 0.  0.
        1    1    3    3  502    0 -0.58312021152E+03 -0.62690301965E+03  0.25388484893E+03  0.89302524806E+03  0.50400001928E-02 0.  1.
       -1    1    3    3    0  502  0.58312021152E+03  0.62690301965E+03 -0.10207168177E+04  0.13322535041E+04  0.50400001928E-02 0. -1.
</event>
<event>
 5   0  0.4128678E-05  0.2120131E+04  0.7818609E-02  0.8552427E-01
        1   -1    0    0  501    0  0.00000000000E+00  0.00000000000E+00  0.13050811669E+04  0.13050811669E+04  0.50400001928E-02 0.  1.
       -1   -1    0    0    0  501  0.00000000000E+00  0.00000000000E+00 -0.86104931974E+03  0.86104931975E+03  0.50400001928E-02 0. -1.
    10030    2    1    2    0    0  0.00000000000E+00  0.00000000000E+00  0.44403184713E+03  0.21661304866E+04  0.21201313648E+04 0.  0.
        5    1    3    3  502    0 -0.51751955892E+03  0.56411830113E+03 -0.52714686259E+03  0.92949548481E+03  0.46999998093E+01 0. -1.
       -5    1    3    3    0  502  0.51751955892E+03 -0.56411830113E+03  0.97117870972E+03  0.12366350018E+04  0.46999998093E+01 0.  1.
</event>
<event>
 5   0  0.8858590E-05  0.2065633E+04  0.7818609E-02  0.8576535E-01
       -2   -1    0    0    0  501  0.00000000000E+00  0.00000000000E+00  0.67760898917E+03  0.67760898918E+03  0.25500000920E-02 0.  1.
        2   -1    0    0  501    0  0.00000000000E+00  0.00000000000E+00 -0.15742266485E+04  0.15742266485E+04  0.25500000920E-02 0. -1.
    10030    2    1    2    0    0  0.00000000000E+00  0.00000000000E+00 -0.89661765932E+03  0.22518356377E+04  0.20656331988E+04 0.  0.
        1    1    3    3  502    0 -0.72135729418E+03  0.44988022869E+03  0.19104083142E+03  0.87134675379E+03  0.50400001928E-02 0.  1.
       -1    1    3    3    0  502  0.72135729418E+03 -0.44988022869E+03 -0.10876584907E+04  0.13804888839E+04  0.50400001928E-02 0. -1.
</event>
<event>
 5   0  0.8872777E-05  0.2102078E+04  0.7818609E-02  0.8560329E-01
       -2   -1    0    0    0  501  0.00000000000E+00  0.00000000000E+00  0.15902261508E+04  0.15902261508E+04  0.25500000920E-02 0.  1.
        2   -1    0    0  501    0  0.00000000000E+00  0.00000000000E+00 -0.69467039439E+03  0.69467039440E+03  0.25500000920E-02 0. -1.
    10030    2    1    2    0    0  0.00000000000E+00  0.00000000000E+00  0.89555575644E+03  0.22848965452E+04  0.21020780455E+04 0.  0.
        3    1    3    3  502    0 -0.39184577382E+03  0.82670392098E+03  0.10101740078E+04  0.13628771110E+04  0.10100000352E+00 0.  1.
       -3    1    3    3    0  502  0.39184577382E+03 -0.82670392098E+03 -0.11461825133E+03  0.92201943427E+03  0.10100000352E+00 0. -1.
</event>
<event>
 5   0  0.9012466E-05  0.2099814E+04  0.7818609E-02  0.8561325E-01
       -2   -1    0    0    0  501  0.00000000000E+00  0.00000000000E+00  0.84161214664E+03  0.84161214664E+03  0.25500000920E-02 0.  1.
        2   -1    0    0  501    0  0.00000000000E+00  0.00000000000E+00 -0.13097543462E+04  0.13097543462E+04  0.25500000920E-02 0. -1.
    10030    2    1    2    0    0  0.00000000000E+00  0.00000000000E+00 -0.46814219959E+03  0.21513664929E+04  0.20998144365E+04 0.  0.
        2    1    3    3  502    0  0.99535206926E+03 -0.60541885503E+02  0.10249672048E+03  0.10024453299E+04  0.25500000920E-02 0.  1.
       -2    1    3    3    0  502 -0.99535206926E+03  0.60541885503E+02 -0.57063892007E+03  0.11489211630E+04  0.25500000920E-02 0. -1.
</event>
<event>
 5   0  0.4050368E-05  0.2121652E+04  0.7818609E-02  0.8551765E-01
       -1   -1    0    0    0  501  0.00000000000E+00  0.00000000000E+00  0.84741226829E+03  0.84741226831E+03  0.50400001928E-02 0. -1.
        1   -1    0    0  501    0  0.00000000000E+00  0.00000000000E+00 -0.13279863272E+04  0.13279863272E+04  0.50400001928E-02 0.  1.
    10030    2    1    2    0    0  0.00000000000E+00  0.00000000000E+00 -0.48057405888E+03  0.21753985955E+04  0.21216520976E+04 0.  0.
        2    1    3    3  502    0  0.79403254996E+03  0.56599808419E+03  0.18803983103E+03  0.99307628094E+03  0.25500000920E-02 0. -1.
       -2    1    3    3    0  502 -0.79403254996E+03 -0.56599808419E+03 -0.66861388991E+03  0.11823223146E+04  0.25500000920E-02 0.  1.
</event>
<event>
 5   0  0.9086985E-05  0.2098864E+04  0.7818609E-02  0.8561744E-01
       -2   -1    0    0    0  501  0.00000000000E+00  0.00000000000E+00  0.12878140745E+04  0.12878140745E+04  0.25500000920E-02 0. -1.
        2   -1    0    0  501    0  0.00000000000E+00  0.00000000000E+00 -0.85517567465E+03  0.85517567465E+03  0.25500000920E-02 0.  1.
    10030    2    1    2    0    0  0.00000000000E+00  0.00000000000E+00  0.43263839986E+03  0.21429897492E+04  0.20988637593E+04 0.  0.
        5    1    3    3  502    0 -0.88960366010E+03  0.11459114699E+03 -0.33988987477E+03  0.95920436821E+03  0.46999998093E+01 0.  1.
       -5    1    3    3    0  502  0.88960366010E+03 -0.11459114699E+03  0.77252827464E+03  0.11837853809E+04  0.46999998093E+01 0. -1.
</event>
<event>
 5   0  0.3176125E-05  0.2155993E+04  0.7818609E-02  0.8536971E-01
        3   -1    0    0  501    0  0.00000000000E+00  0.00000000000E+00  0.70782717215E+03  0.70782717936E+03  0.10100000352E+00 0. -1.
       -3   -1    0    0    0  501  0.00000000000E+00  0.00000000000E+00 -0.16417520562E+04  0.16417520593E+04  0.10100000352E+00 0.  1.
    10030    2    1    2    0    0  0.00000000000E+00  0.00000000000E+00 -0.93392488407E+03  0.23495792387E+04  0.21559932537E+04 0.  0.
        1    1    3    3  502    0 -0.37631526253E+03  0.74924004311E+03  0.27144781460E+03  0.88128187039E+03  0.50400001928E-02 0. -1.
       -1    1    3    3    0  502  0.37631526253E+03 -0.74924004311E+03 -0.12053726987E+04  0.14682973683E+04  0.50400001928E-02 0.  1.
</event>
<event>
 5   0  0.9086985E-05  0.2065794E+04  0.7818609E-02  0.8576463E-01
        2   -1    0    0  501    0  0.00000000000E+00  0.00000000000E+00  0.15019925312E+04  0.15019925312E+04  0.25500000920E-02 0.  1.
       -2   -1    0    0    0  501  0.00000000000E+00  0.00000000000E+00 -0.71030709338E+03  0.71030709339E+03  0.25500000920E-02 0. -1.
    10030    2    1    2    0    0  0.00000000000E+00  0.00000000000E+00  0.79168543779E+03  0.22122996246E+04  0.20657937449E+04 0.  0.
        5    1    3    3  502    0 -0.99663220544E+03 -0.15933819864E+03  0.63093206511E+03  0.11902780244E+04  0.46999998093E+01 0.  1.
       -5    1    3    3    0  502  0.99663220544E+03  0.15933819864E+03  0.16075337267E+03  0.10220216002E+04  0.46999998093E+01 0. -1.
</event>
<event>
 5   0  0.8858590E-05  0.2058171E+04  0.7818609E-02  0.8579897E-01
        2   -1    0    0  501    0  0.00000000000E+00  0.00000000000E+00  0.83101039102E+03  0.83101039103E+03  0.25500000920E-02 0.  1.
       -2   -1    0    0    0  501  0.00000000000E+00  0.00000000000E+00 -0.12743724183E+04  0.12743724183E+04  0.25500000920E-02 0. -1.
    10030    2    1    2    0    0  0.00000000000E+00  0.00000000000E+00 -0.44336202728E+03  0.21053828093E+04  0.20581707623E+04 0.  0.
        1    1    3    3  502    0 -0.58725094459E+03 -0.52707437986E+02 -0.10844588100E+04  0.12343794622E+04  0.50400001928E-02 0. -1.
       -1    1    3    3    0  502  0.58725094459E+03  0.52707437986E+02  0.64109678273E+03  0.87100334718E+03  0.50400001928E-02 0.  1.
</event>
<event>
 5   0  0.8547605E-05  0.2134926E+04  0.7818609E-02  0.8546012E-01
        2   -1    0    0  501    0  0.00000000000E+00  0.00000000000E+00  0.21136827572E+04  0.21136827572E+04  0.25500000920E-02 0. -1.
       -2   -1    0    0    0  501  0.00000000000E+00  0.00000000000E+00 -0.53909589097E+03  0.53909589098E+03  0.25500000920E-02 0.  1.
    10030    2    1    2    0    0  0.00000000000E+00  0.00000000000E+00  0.15745868662E+04  0.26527786481E+04  0.21349264055E+04 0.  0.
        4    1    3    3  502    0 -0.87945997719E+03  0.12074287395E+02  0.35691828216E+02  0.88026766350E+03  0.12699999809E+01 0.  1.
       -4    1    3    3    0  502  0.87945997719E+03 -0.12074287395E+02  0.15388950380E+04  0.17725109846E+04  0.12699999809E+01 0. -1.
</event>
<event>
 5   0  0.4050368E-05  0.2050636E+04  0.7818609E-02  0.8583306E-01
        1   -1    0    0  501    0  0.00000000000E+00  0.00000000000E+00  0.14238305080E+04  0.14238305080E+04  0.50400001928E-02 0. -1.
       -1   -1    0    0    0  501  0.00000000000E+00  0.00000000000E+00 -0.73834435905E+03  0.73834435906E+03  0.50400001928E-02 0.  1.
    10030    2    1    2    0    0  0.00000000000E+00  0.00000000000E+00  0.68548614893E+03  0.21621748671E+04  0.20506362172E+04 0.  0.
        2    1    3    3  502    0 -0.29347184971E+03  0.88859197530E+02 -0.68886833268E+03  0.75403001488E+03  0.25500000920E-02 0.  1.
       -2    1    3    3    0  502  0.29347184971E+03 -0.88859197530E+02  0.13743544816E+04  0.14081448522E+04  0.25500000920E-02 0. -1.
</event>
<event>
 5   0  0.4050368E-05  0.1998256E+04  0.7818609E-02  0.8607436E-01
        1   -1    0    0  501    0  0.00000000000E+00  0.00000000000E+00  0.93686051779E+03  0.93686051780E+03  0.50400001928E-02 0. -1.
       -1   -1    0    0    0  501  0.00000000000E+00  0.00000000000E+00 -0.10655341593E+04  0.10655341594E+04  0.50400001928E-02 0.  1.
    10030    2    1    2    0    0  0.00000000000E+00  0.00000000000E+00 -0.12867364155E+03  0.20023946772E+04  0.19982561240E+04 0.  0.
        2    1    3    3  502    0  0.70678247250E+03  0.62958581647E+03 -0.38490109938E+03  0.10217967606E+04  0.25500000920E-02 0. -1.
       -2    1    3    3    0  502 -0.70678247250E+03 -0.62958581647E+03  0.25622745783E+03  0.98059791652E+03  0.25500000920E-02 0.  1.
</event>
<event>
 5   0  0.9086985E-05  0.2110842E+04  0.7818609E-02  0.8556483E-01
        2   -1    0    0  501    0  0.00000000000E+00  0.00000000000E+00  0.17789836413E+04  0.17789836413E+04  0.25500000920E-02 0.  1.
       -2   -1    0    0    0  501  0.00000000000E+00  0.00000000000E+00 -0.62615142896E+03  0.62615142896E+03  0.25500000920E-02 0. -1.
    10030    2    1    2    0    0  0.00000000000E+00  0.00000000000E+00  0.11528322124E+04  0.24051350703E+04  0.21108416796E+04 0.  0.
        5    1    3    3  502    0 -0.16079489421E+03  0.63916181670E+03  0.15156660368E+04  0.16527699328E+04  0.46999998093E+01 0.  1.
       -5    1    3    3    0  502  0.16079489421E+03 -0.63916181670E+03 -0.36283382439E+03  0.75236513745E+03  0.46999998093E+01 0. -1.
</event>
<event>
 5   0  0.8872777E-05  0.2129626E+04  0.7818609E-02  0.8548304E-01
       -2   -1    0    0    0  501  0.00000000000E+00  0.00000000000E+00  0.67848631314E+03  0.67848631315E+03  0.25500000920E-02 0.  1.
        2   -1    0    0  501    0  0.00000000000E+00  0.00000000000E+00 -0.16711116726E+04  0.16711116726E+04  0.25500000920E-02 0. -1.
    10030    2    1    2    0    0  0.00000000000E+00  0.00000000000E+00 -0.99262535950E+03  0.23495979858E+04  0.21296256926E+04 0.  0.
        3    1    3    3  502    0  0.76642947560E+03  0.73030786549E+03 -0.62241010743E+03  0.12280708740E+04  0.10100000352E+00 0. -1.
       -3    1    3    3    0  502 -0.76642947560E+03 -0.73030786549E+03 -0.37021525206E+03  0.11215271118E+04  0.10100000352E+00 0.  1.
</event>
<event>
 5   0  0.4050368E-05  0.2161869E+04  0.7818609E-02  0.8534469E-01
        1   -1    0    0  501    0  0.00000000000E+00  0.00000000000E+00  0.15722069296E+04  0.15722069296E+04  0.50400001928E-02 0.  1.
       -1   -1    0    0    0  501  0.00000000000E+00  0.00000000000E+00 -0.74317126207E+03  0.74317126209E+03  0.50400001928E-02 0. -1.
    10030    2    1    2    0    0  0.00000000000E+00  0.00000000000E+00  0.82903566756E+03  0.23153781917E+04  0.21618686437E+04 0.  0.
        2    1    3    3  502    0  0.55989993887E+03  0.45058144295E+03 -0.45022227151E+03  0.84806348350E+03  0.25500000920E-02 0. -1.
       -2    1    3    3    0  502 -0.55989993887E+03 -0.45058144295E+03  0.12792579391E+04  0.14673147082E+04  0.25500000920E-02 0.  1.
</event>
<event>
 5   0  0.8547605E-05  0.2020784E+04  0.7818609E-02  0.8596965E-01
       -2   -1    0    0    0  501  0.00000000000E+00  0.00000000000E+00  0.11156338044E+04  0.11156338044E+04  0.25500000920E-02 0.  1.
        2   -1    0    0  501    0  0.00000000000E+00  0.00000000000E+00 -0.91507782428E+03  0.91507782428E+03  0.25500000920E-02 0. -1.
    10030    2    1    2    0    0  0.00000000000E+00  0.00000000000E+00  0.20055598007E+03  0.20307116286E+04  0.20207837632E+04 0.  0.
        4    1    3    3  502    0 -0.20347180155E+02  0.27790845457E+03  0.10762564059E+04  0.11117448363E+04  0.12699999809E+01 0.  1.
       -4    1    3    3    0  502  0.20347180155E+02 -0.27790845457E+03 -0.87570042580E+03  0.91896679238E+03  0.12699999809E+01 0. -1.
</event>
<event>
 5   0  0.4050368E-05  0.2102657E+04  0.7818609E-02  0.8560074E-01
       -1   -1    0    0    0  501  0.00000000000E+00  0.00000000000E+00  0.16396851299E+04  0.16396851299E+04  0.50400001928E-02 0.  1.
        1   -1    0    0  501    0  0.00000000000E+00  0.00000000000E+00 -0.67408768938E+03  0.67408768940E+03  0.50400001928E-02 0. -1.
    10030    2    1    2    0    0  0.00000000000E+00  0.00000000000E+00  0.96559744052E+03  0.23137728193E+04  0.21026569483E+04 0.  0.
        2    1    3    3  502    0  0.41620669462E+03 -0.39424918619E+03 -0.48695105755E+03  0.75218466211E+03  0.25500000920E-02 0. -1.
       -2    1    3    3    0  502 -0.41620669462E+03  0.39424918619E+03  0.14525484981E+04  0.15615881572E+04  0.25500000920E-02 0.  1.
</event>
<event>
 5   0  0.4174093E-05  0.2060829E+04  0.7818609E-02  0.8578698E-01
        1   -1    0    0  501    0  0.00000000000E+00  0.00000000000E+00  0.30341176983E+04  0.30341176983E+04  0.50400001928E-02 0. -1.
       -1   -1    0    0    0  501  0.00000000000E+00  0.00000000000E+00 -0.34993832483E+03  0.34993832486E+03  0.50400001928E-02 0.  1.
    10030    2    1    2    0    0  0.00000000000E+00  0.00000000000E+00  0.26841793735E+04  0.33840560232E+04  0.20608290223E+04 0.  0.
        3    1    3    3  502    0  0.14884755725E+03  0.10079897300E+04  0.15941117967E+04  0.18919279377E+04  0.10100000352E+00 0. -1.
       -3    1    3    3    0  502 -0.14884755725E+03 -0.10079897300E+04  0.10900675768E+04  0.14921280855E+04  0.10100000352E+00 0.  1.
</event>
<event>
 5   0  0.8858590E-05  0.2087268E+04  0.7818609E-02  0.8566873E-01
        2   -1    0    0  501    0  0.00000000000E+00  0.00000000000E+00  0.78896257065E+03  0.78896257066E+03  0.25500000920E-02 0.  1.
       -2   -1    0    0    0  501  0.00000000000E+00  0.00000000000E+00 -0.13805118104E+04  0.13805118104E+04  0.25500000920E-02 0. -1.
    10030    2    1    2    0    0  0.00000000000E+00  0.00000000000E+00 -0.59154923975E+03  0.21694743811E+04  0.20872682116E+04 0.  0.
        1    1    3    3  502    0  0.57578376073E+03  0.19324209992E+03 -0.11779070488E+04  0.13252676952E+04  0.50400001928E-02 0. -1.
       -1    1    3    3    0  502 -0.57578376073E+03 -0.19324209992E+03  0.58635780901E+03  0.84420668590E+03  0.50400001928E-02 0.  1.
</event>
<event>
 5   0  0.4050368E-05  0.2090463E+04  0.7818609E-02  0.8565456E-01
       -1   -1    0    0    0  501  0.00000000000E+00  0.00000000000E+00  0.74671782167E+03  0.74671782169E+03  0.50400001928E-02 0. -1.
        1   -1    0    0  501    0  0.00000000000E+00  0.00000000000E+00 -0.14630817903E+04  0.14630817904E+04  0.50400001928E-02 0.  1.
    10030    2    1    2    0    0  0.00000000000E+00  0.00000000000E+00 -0.71636396867E+03  0.22097996120E+04  0.20904633433E+04 0.  0.
        2    1    3    3  502    0 -0.89246581506E+03  0.51273163291E+03 -0.16580310286E+03  0.10425351924E+04  0.25500000920E-02 0. -1.
       -2    1    3    3    0  502  0.89246581506E+03 -0.51273163291E+03 -0.55056086581E+03  0.11672644197E+04  0.25500000920E-02 0.  1.
</event>
<event>
 5   0  0.8858590E-05  0.2088924E+04  0.7818609E-02  0.8566138E-01
       -2   -1    0    0    0  501  0.00000000000E+00  0.00000000000E+00  0.70923525436E+03  0.70923525436E+03  0.25500000920E-02 0. -1.
        2   -1    0    0  501    0  0.00000000000E+00  0.00000000000E+00 -0.15381364549E+04  0.15381364549E+04  0.25500000920E-02 0.  1.
    10030    2    1    2    0    0  0.00000000000E+00  0.00000000000E+00 -0.82890120050E+03  0.22473717092E+04  0.20889237418E+04 0.  0.
        1    1    3    3  502    0 -0.22144758149E+03 -0.28571586108E+03  0.63978944746E+03  0.73484904690E+03  0.50400001928E-02 0. -1.
       -1    1    3    3    0  502  0.22144758149E+03  0.28571586108E+03 -0.14686906480E+04  0.15125226623E+04  0.50400001928E-02 0.  1.
</event>
<event>
 5   0  0.8872777E-05  0.2089635E+04  0.7818609E-02  0.8565823E-01
        2   -1    0    0  501    0  0.00000000000E+00  0.00000000000E+00  0.51559170804E+03  0.51559170804E+03  0.25500000920E-02 0.  1.
       -2   -1    0    0    0  501  0.00000000000E+00  0.00000000000E+00 -0.21172640279E+04  0.21172640279E+04  0.25500000920E-02 0. -1.
    10030    2    1    2    0    0  0.00000000000E+00  0.00000000000E+00 -0.16016723199E+04  0.26328557359E+04  0.20896351610E+04 0.  0.
        3    1    3    3  502    0 -0.97095865827E+03  0.28017571060E+02 -0.12857128310E+04  0.16113979007E+04  0.10100000352E+00 0. -1.
       -3    1    3    3    0  502  0.97095865827E+03 -0.28017571060E+02 -0.31595948884E+03  0.10214578352E+04  0.10100000352E+00 0.  1.
</event>
<event>
 5   0  0.4182977E-05  0.2145981E+04  0.7818609E-02  0.8541255E-01
       -1   -1    0    0    0  501  0.00000000000E+00  0.00000000000E+00  0.61052124998E+03  0.61052125000E+03  0.50400001928E-02 0. -1.
        1   -1    0    0  501    0  0.00000000000E+00  0.00000000000E+00 -0.18857797526E+04  0.18857797526E+04  0.50400001928E-02 0.  1.
    10030    2    1    2    0    0  0.00000000000E+00  0.00000000000E+00 -0.12752585026E+04  0.24963010026E+04  0.21459809988E+04 0.  0.
        1    1    3    3  502    0 -0.81781685611E+03  0.19952308565E+03  0.13632171941E+03  0.85277047501E+03  0.50400001928E-02 0. -1.
       -1    1    3    3    0  502  0.81781685611E+03 -0.19952308565E+03 -0.14115802220E+04  0.16435305276E+04  0.50400001928E-02 0.  1.
</event>
<event>
 5   0  0.4182977E-05  0.2136359E+04  0.7818609E-02  0.8545394E-01
        1   -1    0    0  501    0  0.00000000000E+00  0.00000000000E+00  0.10248977046E+04  0.10248977046E+04  0.50400001928E-02 0.  1.
       -1   -1    0    0    0  501  0.00000000000E+00  0.00000000000E+00 -0.11132886309E+04  0.11132886309E+04  0.50400001928E-02 0. -1.
    10030    2    1    2    0    0  0.00000000000E+00  0.00000000000E+00 -0.88390926343E+02  0.21381863355E+04  0.21363585489E+04 0.  0.
        1    1    3    3  502    0 -0.24044936094E+03 -0.36571349502E+03  0.93103272490E+03  0.10287780084E+04  0.50400001928E-02 0.  1.
       -1    1    3    3    0  502  0.24044936094E+03  0.36571349502E+03 -0.10194236512E+04  0.11094083272E+04  0.50400001928E-02 0. -1.
</event>
<event>
 5   0  0.8858590E-05  0.2114841E+04  0.7818609E-02  0.8554734E-01
       -2   -1    0    0    0  501  0.00000000000E+00  0.00000000000E+00  0.88304468917E+03  0.88304468917E+03  0.25500000920E-02 0.  1.
        2   -1    0    0  501    0  0.00000000000E+00  0.00000000000E+00 -0.12662301475E+04  0.12662301475E+04  0.25500000920E-02 0. -1.
    10030    2    1    2    0    0  0.00000000000E+00  0.00000000000E+00 -0.38318545837E+03  0.21492748367E+04  0.21148407099E+04 0.  0.
        1    1    3    3  502    0  0.51038112390E+03 -0.16715779959E+02 -0.11326115438E+04  0.12424078308E+04  0.50400001928E-02 0. -1.
       -1    1    3    3    0  502 -0.51038112390E+03  0.16715779959E+02  0.74942608539E+03  0.90686700592E+03  0.50400001928E-02 0.  1.
</event>
<event>
 5   0  0.4050368E-05  0.2124394E+04  0.7818609E-02  0.8550573E-01
       -1   -1    0    0    0  501  0.00000000000E+00  0.00000000000E+00  0.17019720306E+04  0.17019720306E+04  0.50400001928E-02 0. -1.
        1   -1    0    0  501    0  0.00000000000E+00  0.00000000000E+00 -0.66291474632E+03  0.66291474634E+03  0.50400001928E-02 0.  1.
    10030    2    1    2    0    0  0.00000000000E+00  0.00000000000E+00  0.10390572842E+04  0.23648867769E+04  0.21243938966E+04 0.  0.
        2    1    3    3  502    0 -0.99842447153E+03 -0.35715775940E+03  0.45046264329E+03  0.11520979487E+04  0.25500000920E-02 0. -1.
       -2    1    3    3    0  502  0.99842447153E+03  0.35715775940E+03  0.58859464096E+03  0.12127888282E+04  0.25500000920E-02 0.  1.
</event>
<event>
 5   0  0.4182977E-05  0.2084595E+04  0.7818609E-02  0.8568060E-01
       -1   -1    0    0    0  501  0.00000000000E+00  0.00000000000E+00  0.11786230961E+04  0.11786230961E+04  0.50400001928E-02 0. -1.
        1   -1    0    0  501    0  0.00000000000E+00  0.00000000000E+00 -0.92174009163E+03  0.92174009164E+03  0.50400001928E-02 0.  1.
    10030    2    1    2    0    0  0.00000000000E+00  0.00000000000E+00  0.25688300445E+03  0.21003631877E+04  0.20845950788E+04 0.  0.
        1    1    3    3  502    0 -0.30829870111E+03  0.76546166456E+03 -0.51308851009E+03  0.97171985069E+03  0.50400001928E-02 0.  1.
       -1    1    3    3    0  502  0.30829870111E+03 -0.76546166456E+03  0.76997151453E+03  0.11286433370E+04  0.50400001928E-02 0. -1.
</event>
<event>
 5   0  0.8872777E-05  0.2107091E+04  0.7818609E-02  0.8558126E-01
        2   -1    0    0  501    0  0.00000000000E+00  0.00000000000E+00  0.11760303321E+04  0.11760303321E+04  0.25500000920E-02 0.  1.
       -2   -1    0    0    0  501  0.00000000000E+00  0.00000000000E+00 -0.94381769893E+03  0.94381769893E+03  0.25500000920E-02 0. -1.
    10030    2    1    2    0    0  0.00000000000E+00  0.00000000000E+00  0.23221263316E+03  0.21198480310E+04  0.21070911152E+04 0.  0.
        3    1    3    3  502    0  0.53020863391E+03 -0.43426728525E+03 -0.68889363358E+03  0.97174261978E+03  0.10100000352E+00 0. -1.
       -3    1    3    3    0  502 -0.53020863391E+03  0.43426728525E+03  0.92110626674E+03  0.11481054112E+04  0.10100000352E+00 0.  1.
</event>
<event>
 5   0  0.4200061E-05  0.1720531E+04  0.7818609E-02  0.8749741E-01
        1   -1    0    0  501    0  0.00000000000E+00  0.00000000000E+00  0.61102152941E+03  0.61102152943E+03  0.50400001928E-02 0.  1.
       -1   -1    0    0    0  501  0.00000000000E+00  0.00000000000E+00 -0.12111797408E+04  0.12111797408E+04  0.50400001928E-02 0. -1.
    10030    2    1    2    0    0  0.00000000000E+00  0.00000000000E+00 -0.60015821143E+03  0.18222012703E+04  0.17205311943E+04 0.  0.
        4    1    3    3  502    0  0.48294055773E+03 -0.67945123009E+02 -0.10506215292E+04  0.11582984644E+04  0.12699999809E+01 0. -1.
       -4    1    3    3    0  502 -0.48294055773E+03  0.67945123009E+02  0.45046331781E+03  0.66390280587E+03  0.12699999809E+01 0.  1.
</event>
<event>
 5   0  0.4200061E-05  0.2060460E+04  0.7818609E-02  0.8578864E-01
        1   -1    0    0  501    0  0.00000000000E+00  0.00000000000E+00  0.16366161050E+04  0.16366161050E+04  0.50400001928E-02 0. -1.
       -1   -1    0    0    0  501  0.00000000000E+00  0.00000000000E+00 -0.64851750784E+03  0.64851750786E+03  0.50400001928E-02 0.  1.
    10030    2    1    2    0    0  0.00000000000E+00  0.00000000000E+00  0.98809859718E+03  0.22851336129E+04  0.20604603347E+04 0.  0.
        4    1    3    3  502    0 -0.23181457416E+03 -0.67735974921E+03 -0.32755301817E+03  0.78730351153E+03  0.12699999809E+01 0. -1.
       -4    1    3    3    0  502  0.23181457416E+03  0.67735974921E+03  0.13156516154E+04  0.14978301014E+04  0.12699999809E+01 0.  1.
</event>
<event>
 5   0  0.4200061E-05  0.2097843E+04  0.7818609E-02  0.8562194E-01
       -1   -1    0    0    0  501  0.00000000000E+00  0.00000000000E+00  0.11707131758E+04  0.11707131758E+04  0.50400001928E-02 0. -1.
        1   -1    0    0  501    0  0.00000000000E+00  0.00000000000E+00 -0.93980007736E+03  0.93980007738E+03  0.50400001928E-02 0.  1.
    10030    2    1    2    0    0  0.00000000000E+00  0.00000000000E+00  0.23091309843E+03  0.21105132532E+04  0.20978430191E+04 0.  0.
        4    1    3    3  502    0  0.66043672607E+03  0.27895906325E+03  0.88574392561E+03  0.11395344412E+04  0.12699999809E+01 0. -1.
       -4    1    3    3    0  502 -0.66043672607E+03 -0.27895906325E+03 -0.65483082718E+03  0.97097881194E+03  0.12699999809E+01 0.  1.
</event>
<event>
 5   0  0.9012466E-05  0.2102581E+04  0.7818609E-02  0.8560107E-01
       -2   -1    0    0    0  501  0.00000000000E+00  0.00000000000E+00  0.65579727855E+03  0.65579727856E+03  0.25500000920E-02 0. -1.
        2   -1    0    0  501    0  0.00000000000E+00  0.00000000000E+00 -0.16852949328E+04  0.16852949328E+04  0.25500000920E-02 0.  1.
    10030    2    1    2    0    0  0.00000000000E+00  0.00000000000E+00 -0.10294976543E+04  0.23410922114E+04  0.21025811095E+04 0.  0.
        2    1    3    3  502    0  0.45001793925E+03  0.22279769010E+03  0.51363385697E+03  0.71831378616E+03  0.25500000920E-02 0. -1.
       -2    1    3    3    0  502 -0.45001793925E+03 -0.22279769010E+03 -0.15431315112E+04  0.16227784252E+04  0.25500000920E-02 0.  1.
</event>
<event>
 5   0  0.8547605E-05  0.1978833E+04  0.7818609E-02  0.8616581E-01
        2   -1    0    0  501    0  0.00000000000E+00  0.00000000000E+00  0.14850275411E+04  0.14850275411E+04  0.25500000920E-02 0. -1.
       -2   -1    0    0    0  501  0.00000000000E+00  0.00000000000E+00 -0.65920979265E+03  0.65920979266E+03  0.25500000920E-02 0.  1.
    10030    2    1    2    0    0  0.00000000000E+00  0.00000000000E+00  0.82581774847E+03  0.21442373338E+04  0.19788326837E+04 0.  0.
        4    1    3    3  502    0  0.41980839836E+03 -0.60687816876E+02  0.13815053186E+04  0.14451576595E+04  0.12699999809E+01 0. -1.
       -4    1    3    3    0  502 -0.41980839836E+03  0.60687816876E+02 -0.55568757018E+03  0.69907967429E+03  0.12699999809E+01 0.  1.
</event>
<event>
 5   0  0.8872777E-05  0.2047760E+04  0.7818609E-02  0.8584611E-01
        2   -1    0    0  501    0  0.00000000000E+00  0.00000000000E+00  0.16998919693E+04  0.16998919693E+04  0.25500000920E-02 0. -1.
       -2   -1    0    0    0  501  0.00000000000E+00  0.00000000000E+00 -0.61670383292E+03  0.61670383292E+03  0.25500000920E-02 0.  1.
    10030    2    1    2    0    0  0.00000000000E+00  0.00000000000E+00  0.10831881364E+04  0.23165958022E+04  0.20477596471E+04 0.  0.
        3    1    3    3  502    0 -0.98332400686E+03 -0.28512712358E+03  0.52993011919E+03  0.11528441007E+04  0.10100000352E+00 0.  1.
       -3    1    3    3    0  502  0.98332400686E+03  0.28512712358E+03  0.55325801721E+03  0.11637517016E+04  0.10100000352E+00 0. -1.
</event>
<event>
 5   0  0.4174093E-05  0.2149911E+04  0.7818609E-02  0.8539570E-01
       -1   -1    0    0    0  501  0.00000000000E+00  0.00000000000E+00  0.56745995925E+03  0.56745995927E+03  0.50400001928E-02 0.  1.
        1   -1    0    0  501    0  0.00000000000E+00  0.00000000000E+00 -0.20363189217E+04  0.20363189217E+04  0.50400001928E-02 0. -1.
    10030    2    1    2    0    0  0.00000000000E+00  0.00000000000E+00 -0.14688589624E+04  0.26037788810E+04  0.21499111166E+04 0.  0.
        3    1    3    3  502    0 -0.28599082200E+02 -0.98894576194E+03 -0.22533406834E+03  0.10146955603E+04  0.10100000352E+00 0. -1.
       -3    1    3    3    0  502  0.28599082200E+02  0.98894576194E+03 -0.12435248941E+04  0.15890833207E+04  0.10100000352E+00 0.  1.
</event>
<event>
 5   0  0.8872777E-05  0.2076687E+04  0.7818609E-02  0.8571583E-01
        2   -1    0    0  501    0  0.00000000000E+00  0.00000000000E+00  0.13929367322E+04  0.13929367322E+04  0.25500000920E-02 0.  1.
       -2   -1    0    0    0  501  0.00000000000E+00  0.00000000000E+00 -0.77401766341E+03  0.77401766342E+03  0.25500000920E-02 0. -1.
    10030    2    1    2    0    0  0.00000000000E+00  0.00000000000E+00  0.61891906878E+03  0.21669543956E+04  0.20766873956E+04 0.  0.
        3    1    3    3  502    0 -0.12598964076E+03 -0.51512954526E+03 -0.62205060055E+03  0.81742204388E+03  0.10100000352E+00 0. -1.
       -3    1    3    3    0  502  0.12598964076E+03  0.51512954526E+03  0.12409696693E+04  0.13495323517E+04  0.10100000352E+00 0.  1.
</event>
<event>
 5   0  0.9012466E-05  0.2081420E+04  0.7818609E-02  0.8569472E-01
        2   -1    0    0  501    0  0.00000000000E+00  0.00000000000E+00  0.81647884732E+03  0.81647884732E+03  0.25500000920E-02 0. -1.
       -2   -1    0    0    0  501  0.00000000000E+00  0.00000000000E+00 -0.13265221863E+04  0.13265221863E+04  0.25500000920E-02 0.  1.
    10030    2    1    2    0    0  0.00000000000E+00  0.00000000000E+00 -0.51004333895E+03  0.21430010336E+04  0.20814200014E+04 0.  0.
        2    1    3    3  502    0 -0.12666354278E+03  0.42251510602E+03 -0.12255203525E+04  0.13024833213E+04  0.25500000920E-02 0.  1.
       -2    1    3    3    0  502  0.12666354278E+03 -0.42251510602E+03  0.71547701350E+03  0.84051771233E+03  0.25500000920E-02 0. -1.
</event>
<event>
 5   0  0.4174093E-05  0.2105981E+04  0.7818609E-02  0.8558613E-01
       -1   -1    0    0    0  501  0.00000000000E+00  0.00000000000E+00  0.93779967672E+03  0.93779967673E+03  0.50400001928E-02 0.  1.
        1   -1    0    0  501    0  0.00000000000E+00  0.00000000000E+00 -0.11823304804E+04  0.11823304804E+04  0.50400001928E-02 0. -1.
    10030    2    1    2    0    0  0.00000000000E+00  0.00000000000E+00 -0.24453080364E+03  0.21201301571E+04  0.21059811417E+04 0.  0.
        3    1    3    3  502    0  0.44317551331E+01  0.63097669752E+03 -0.97092246117E+03  0.11579471789E+04  0.10100000352E+00 0. -1.
       -3    1    3    3    0  502 -0.44317551331E+01 -0.63097669752E+03  0.72639165752E+03  0.96218297823E+03  0.10100000352E+00 0.  1.
</event>
<event>
 5   0  0.9086985E-05  0.2088449E+04  0.7818609E-02  0.8566349E-01
       -2   -1    0    0    0  501  0.00000000000E+00  0.00000000000E+00  0.72730367320E+03  0.72730367320E+03  0.25500000920E-02 0.  1.
        2   -1    0    0  501    0  0.00000000000E+00  0.00000000000E+00 -0.14992429923E+04  0.14992429923E+04  0.25500000920E-02 0. -1.
    10030    2    1    2    0    0  0.00000000000E+00  0.00000000000E+00 -0.77193931914E+03  0.22265466655E+04  0.20884491235E+04 0.  0.
        5    1    3    3  502    0  0.16873891293E+03 -0.53849584811E+03  0.55072381232E+03  0.78852356124E+03  0.46999998093E+01 0.  1.
       -5    1    3    3    0  502 -0.16873891293E+03  0.53849584811E+03 -0.13226631315E+04  0.14380231043E+04  0.46999998093E+01 0. -1.
</event>
<event>
 5   0  0.4128678E-05  0.2110326E+04  0.7818609E-02  0.8556708E-01
        1   -1    0    0  501    0  0.00000000000E+00  0.00000000000E+00  0.14362130649E+04  0.14362130649E+04  0.50400001928E-02 0.  1.
       -1   -1    0    0    0  501  0.00000000000E+00  0.00000000000E+00 -0.77521186349E+03  0.77521186350E+03  0.50400001928E-02 0. -1.
    10030    2    1    2    0    0  0.00000000000E+00  0.00000000000E+00  0.66100120141E+03  0.22114249284E+04  0.21103264263E+04 0.  0.
        5    1    3    3  502    0 -0.31400031266E+03  0.12765600989E+03 -0.71659618237E+03  0.79273225732E+03  0.46999998093E+01 0. -1.
       -5    1    3    3    0  502  0.31400031266E+03 -0.12765600989E+03  0.13775973838E+04  0.14186926711E+04  0.46999998093E+01 0.  1.
</event>
<event>
 5   0  0.9086985E-05  0.2098645E+04  0.7818609E-02  0.8561840E-01
       -2   -1    0    0    0  501  0.00000000000E+00  0.00000000000E+00  0.94465154550E+03  0.94465154550E+03  0.25500000920E-02 0.  1.
        2   -1    0    0  501    0  0.00000000000E+00  0.00000000000E+00 -0.11655918526E+04  0.11655918526E+04  0.25500000920E-02 0. -1.
    10030    2    1    2    0    0  0.00000000000E+00  0.00000000000E+00 -0.22094030709E+03  0.21102433981E+04  0.20986454155E+04 0.  0.
        5    1    3    3  502    0 -0.15602587941E+03  0.10102757499E+03  0.92795455797E+03  0.94639970288E+03  0.46999998093E+01 0.  1.
       -5    1    3    3    0  502  0.15602587941E+03 -0.10102757499E+03 -0.11488948651E+04  0.11638436952E+04  0.46999998093E+01 0. -1.
</event>
<event>
 5   0  0.8858590E-05  0.2074645E+04  0.7818609E-02  0.8572496E-01
       -2   -1    0    0    0  501  0.00000000000E+00  0.00000000000E+00  0.69258485918E+03  0.69258485918E+03  0.25500000920E-02 0. -1.
        2   -1    0    0  501    0  0.00000000000E+00  0.00000000000E+00 -0.15536544115E+04  0.15536544115E+04  0.25500000920E-02 0.  1.
    10030    2    1    2    0    0  0.00000000000E+00  0.00000000000E+00 -0.86106955233E+03  0.22462392707E+04  0.20746445689E+04 0.  0.
        1    1    3    3  502    0 -0.13811649990E+03 -0.44601356488E+03  0.57238079028E+03  0.73866368308E+03  0.50400001928E-02 0. -1.
       -1    1    3    3    0  502  0.13811649990E+03  0.44601356488E+03 -0.14334503426E+04  0.15075755876E+04  0.50400001928E-02 0.  1.
</event>
<event>
 5   0  0.8547605E-05  0.2139200E+04  0.7818609E-02  0.8544169E-01
       -2   -1    0    0    0  501  0.00000000000E+00  0.00000000000E+00  0.72312772907E+03  0.72312772907E+03  0.25500000920E-02 0.  1.
        2   -1    0    0  501    0  0.00000000000E+00  0.00000000000E+00 -0.15820778487E+04  0.15820778487E+04  0.25500000920E-02 0. -1.
    10030    2    1    2    0    0  0.00000000000E+00  0.00000000000E+00 -0.85895011959E+03  0.23052055777E+04  0.21392001888E+04 0.  0.
        4    1    3    3  502    0  0.98898532135E+02  0.10965787499E+03  0.71208961484E+03  0.72724067658E+03  0.12699999809E+01 0.  1.
       -4    1    3    3    0  502 -0.98898532135E+02 -0.10965787499E+03 -0.15710397344E+04  0.15779649012E+04  0.12699999809E+01 0. -1.
</event>
<event>
 5   0  0.4174093E-05  0.2136237E+04  0.7818609E-02  0.8545447E-01
       -1   -1    0    0    0  501  0.00000000000E+00  0.00000000000E+00  0.41425734734E+03  0.41425734737E+03  0.50400001928E-02 0.  1.
        1   -1    0    0  501    0  0.00000000000E+00  0.00000000000E+00 -0.27540292782E+04  0.27540292782E+04  0.50400001928E-02 0. -1.
    10030    2    1    2    0    0  0.00000000000E+00  0.00000000000E+00 -0.23397719309E+04  0.31682866256E+04  0.21362367503E+04 0.  0.
        3    1    3    3  502    0 -0.17655514003E+03  0.34490733597E+03 -0.26461220665E+04  0.26743400661E+04  0.10100000352E+00 0. -1.
       -3    1    3    3    0  502  0.17655514003E+03 -0.34490733597E+03  0.30635013562E+03  0.49394655954E+03  0.10100000352E+00 0.  1.
</event>
<event>
 5   0  0.4200061E-05  0.2114000E+04  0.7818609E-02  0.8555101E-01
        1   -1    0    0  501    0  0.00000000000E+00  0.00000000000E+00  0.76501779081E+03  0.76501779082E+03  0.50400001928E-02 0. -1.
       -1   -1    0    0    0  501  0.00000000000E+00  0.00000000000E+00 -0.14604217407E+04  0.14604217407E+04  0.50400001928E-02 0.  1.
    10030    2    1    2    0    0  0.00000000000E+00  0.00000000000E+00 -0.69540394989E+03  0.22254395315E+04  0.21139996346E+04 0.  0.
        4    1    3    3  502    0  0.15188844694E+03  0.97135426206E+03  0.60892307000E+02  0.98504248065E+03  0.12699999809E+01 0. -1.
       -4    1    3    3    0  502 -0.15188844694E+03 -0.97135426206E+03 -0.75629625689E+03  0.12403970509E+04  0.12699999809E+01 0.  1.
</event>
<event>
 5   0  0.8858590E-05  0.2069153E+04  0.7818609E-02  0.8574955E-01
        2   -1    0    0  501    0  0.00000000000E+00  0.00000000000E+00  0.21946607559E+04  0.21946607559E+04  0.25500000920E-02 0.  1.
       -2   -1    0    0    0  501  0.00000000000E+00  0.00000000000E+00 -0.48770578635E+03  0.48770578636E+03  0.25500000920E-02 0. -1.
    10030    2    1    2    0    0  0.00000000000E+00  0.00000000000E+00  0.17069549696E+04  0.26823665423E+04  0.20691532082E+04 0.  0.
        1    1    3    3  502    0  0.65187169823E+03  0.27430161991E+03  0.18323539961E+04  0.19641026594E+04  0.50400001928E-02 0.  1.
       -1    1    3    3    0  502 -0.65187169823E+03 -0.27430161991E+03 -0.12539902649E+03  0.71826388292E+03  0.50400001928E-02 0. -1.
</event>
<event>
 5   0  0.4182977E-05  0.2068590E+04  0.7818609E-02  0.8575207E-01
       -1   -1    0    0    0  501  0.00000000000E+00  0.00000000000E+00  0.59856355670E+03  0.59856355672E+03  0.50400001928E-02 0. -1.
        1   -1    0    0  501    0  0.00000000000E+00  0.00000000000E+00 -0.17872228245E+04  0.17872228245E+04  0.50400001928E-02 0.  1.
    10030    2    1    2    0    0  0.00000000000E+00  0.00000000000E+00 -0.11886592678E+04  0.23857863812E+04  0.20685902934E+04 0.  0.
        1    1    3    3  502    0 -0.40988138381E+03  0.32356203721E+03  0.43535838927E+03  0.67987650927E+03  0.50400001928E-02 0. -1.
       -1    1    3    3    0  502  0.40988138381E+03 -0.32356203721E+03 -0.16240176570E+04  0.17059098719E+04  0.50400001928E-02 0.  1.
</event>
<event>
 5   0  0.8547605E-05  0.2087982E+04  0.7818609E-02  0.8566556E-01
       -2   -1    0    0    0  501  0.00000000000E+00  0.00000000000E+00  0.14002065123E+04  0.14002065123E+04  0.25500000920E-02 0. -1.
        2   -1    0    0  501    0  0.00000000000E+00  0.00000000000E+00 -0.77839762099E+03  0.77839762100E+03  0.25500000920E-02 0.  1.
    10030    2    1    2    0    0  0.00000000000E+00  0.00000000000E+00  0.62180889128E+03  0.21786041333E+04  0.20879822011E+04 0.  0.
        4    1    3    3  502    0  0.22789627836E+03  0.21271483771E+03 -0.72869832901E+03  0.79258260356E+03  0.12699999809E+01 0.  1.
       -4    1    3    3    0  502 -0.22789627836E+03 -0.21271483771E+03  0.13505072203E+04  0.13860215297E+04  0.12699999809E+01 0. -1.
</event>
<event>
 5   0  0.8872777E-05  0.2097886E+04  0.7818609E-02  0.8562175E-01
        2   -1    0    0  501    0  0.00000000000E+00  0.00000000000E+00  0.61292013049E+03  0.61292013049E+03  0.25500000920E-02 0. -1.
       -2   -1    0    0    0  501  0.00000000000E+00  0.00000000000E+00 -0.17951463840E+04  0.17951463840E+04  0.25500000920E-02 0.  1.
    10030    2    1    2    0    0  0.00000000000E+00  0.00000000000E+00 -0.11822262535E+04  0.24080665145E+04  0.20978859416E+04 0.  0.
        3    1    3    3  502    0 -0.78370032359E+03  0.57762884364E+03 -0.14294994763E+03  0.98401015032E+03  0.10100000352E+00 0. -1.
       -3    1    3    3    0  502  0.78370032359E+03 -0.57762884364E+03 -0.10392763059E+04  0.14240563642E+04  0.10100000352E+00 0.  1.
</event>
<event>
 5   0  0.9086985E-05  0.1892922E+04  0.7818609E-02  0.8658388E-01
        2   -1    0    0  501    0  0.00000000000E+00  0.00000000000E+00  0.12593841338E+04  0.12593841338E+04  0.25500000920E-02 0. -1.
       -2   -1    0    0    0  501  0.00000000000E+00  0.00000000000E+00 -0.71129085399E+03  0.71129085399E+03  0.25500000920E-02 0.  1.
    10030    2    1    2    0    0  0.00000000000E+00  0.00000000000E+00  0.54809327982E+03  0.19706749878E+04  0.18929219910E+04 0.  0.
        5    1    3    3  502    0  0.22703199929E+03 -0.37114448543E+03 -0.60099869567E+03  0.74196582129E+03  0.46999998093E+01 0.  1.
       -5    1    3    3    0  502 -0.22703199929E+03  0.37114448543E+03  0.11490919755E+04  0.12287091665E+04  0.46999998093E+01 0. -1.
</event>
<event>
 5   0  0.4200061E-05  0.2116855E+04  0.7818609E-02  0.8553855E-01
       -1   -1    0    0    0  501  0.00000000000E+00  0.00000000000E+00  0.12826879222E+04  0.12826879223E+04  0.50400001928E-02 0. -1.
        1   -1    0    0  501    0  0.00000000000E+00  0.00000000000E+00 -0.87337563322E+03  0.87337563324E+03  0.50400001928E-02 0.  1.
    10030    2    1    2    0    0  0.00000000000E+00  0.00000000000E+00  0.40931228902E+03  0.21560635555E+04  0.21168546255E+04 0.  0.
        4    1    3    3  502    0  0.42483141261E+03  0.43716318410E+03 -0.67662955273E+03  0.91072638218E+03  0.12699999809E+01 0.  1.
       -4    1    3    3    0  502 -0.42483141261E+03 -0.43716318410E+03  0.10859418417E+04  0.12453371733E+04  0.12699999809E+01 0. -1.
</event>
<event>
 5   0  0.4200061E-05  0.2074104E+04  0.7818609E-02  0.8572737E-01
        1   -1    0    0  501    0  0.00000000000E+00  0.00000000000E+00  0.88949037870E+03  0.88949037872E+03  0.50400001928E-02 0.  1.
       -1   -1    0    0    0  501  0.00000000000E+00  0.00000000000E+00 -0.12090935095E+04  0.12090935095E+04  0.50400001928E-02 0. -1.
    10030    2    1    2    0    0  0.00000000000E+00  0.00000000000E+00 -0.31960313078E+03  0.20985838882E+04  0.20741041861E+04 0.  0.
        4    1    3    3  502    0 -0.81569835214E+03 -0.38143557744E+03  0.36068064701E+03  0.97002527980E+03  0.12699999809E+01 0.  1.
       -4    1    3    3    0  502  0.81569835214E+03  0.38143557744E+03 -0.68028377779E+03  0.11285586084E+04  0.12699999809E+01 0. -1.
</event>
<event>
 5   0  0.4182977E-05  0.2085347E+04  0.7818609E-02  0.8567726E-01
       -1   -1    0    0    0  501  0.00000000000E+00  0.00000000000E+00  0.75696151599E+03  0.75696151600E+03  0.50400001928E-02 0.  1.
        1   -1    0    0  501    0  0.00000000000E+00  0.00000000000E+00 -0.14362260606E+04  0.14362260606E+04  0.50400001928E-02 0. -1.
    10030    2    1    2    0    0  0.00000000000E+00  0.00000000000E+00 -0.67926454459E+03  0.21931875766E+04  0.20853468356E+04 0.  0.
        1    1    3    3  502    0  0.45450453953E+03 -0.63840878881E+03  0.38370486921E+03  0.87256494587E+03  0.50400001928E-02 0.  1.
       -1    1    3    3    0  502 -0.45450453953E+03  0.63840878881E+03 -0.10629694138E+04  0.13206226307E+04  0.50400001928E-02 0. -1.
</event>
<event>
 5   0  0.9086985E-05  0.2099461E+04  0.7818609E-02  0.8561481E-01
       -2   -1    0    0    0  501  0.00000000000E+00  0.00000000000E+00  0.59005638035E+03  0.59005638036E+03  0.25500000920E-02 0.  1.
        2   -1    0    0  501    0  0.00000000000E+00  0.00000000000E+00 -0.18675064378E+04  0.18675064378E+04  0.25500000920E-02 0. -1.
    10030    2    1    2    0    0  0.00000000000E+00  0.00000000000E+00 -0.12774500575E+04  0.24575628182E+04  0.20994609680E+04 0.  0.
        5    1    3    3  502    0  0.10006636743E+04  0.12310251646E+03 -0.29658650560E+03  0.10509365651E+04  0.46999998093E+01 0.  1.
       -5    1    3    3    0  502 -0.10006636743E+04 -0.12310251646E+03 -0.98086355189E+03  0.14066262531E+04  0.46999998093E+01 0. -1.
</event>
<event>
 5   0  0.8547605E-05  0.2094107E+04  0.7818609E-02  0.8563844E-01
        2   -1    0    0  501    0  0.00000000000E+00  0.00000000000E+00  0.11050037099E+04  0.11050037099E+04  0.25500000920E-02 0. -1.
       -2   -1    0    0    0  501  0.00000000000E+00  0.00000000000E+00 -0.99214231858E+03  0.99214231859E+03  0.25500000920E-02 0.  1.
    10030    2    1    2    0    0  0.00000000000E+00  0.00000000000E+00  0.11286139132E+03  0.20971460285E+04  0.20941069149E+04 0.  0.
        4    1    3    3  502    0  0.76366934540E+03  0.97701244567E+02  0.76709633952E+03  0.10868186644E+04  0.12699999809E+01 0. -1.
       -4    1    3    3    0  502 -0.76366934540E+03 -0.97701244567E+02 -0.65423494820E+03  0.10103273641E+04  0.12699999809E+01 0.  1.
</event>
<event>
 5   0  0.8858590E-05  0.2106151E+04  0.7818609E-02  0.8558538E-01
       -2   -1    0    0    0  501  0.00000000000E+00  0.00000000000E+00  0.77710194909E+03  0.77710194910E+03  0.25500000920E-02 0.  1.
        2   -1    0    0  501    0  0.00000000000E+00  0.00000000000E+00 -0.14270564718E+04  0.14270564718E+04  0.25500000920E-02 0. -1.
    10030    2    1    2    0    0  0.00000000000E+00  0.00000000000E+00 -0.64995452266E+03  0.22041584209E+04  0.21061513390E+04 0.  0.
        1    1    3    3  502    0 -0.10022857407E+04 -0.57084265783E+02 -0.65778987328E+03  0.12002178289E+04  0.50400001928E-02 0. -1.
       -1    1    3    3    0  502  0.10022857407E+04  0.57084265783E+02  0.78353506187E+01  0.10039405919E+04  0.50400001928E-02 0.  1.
</event>
<event>
 5   0  0.8858590E-05  0.2123671E+04  0.7818609E-02  0.8550887E-01
       -2   -1    0    0    0  501  0.00000000000E+00  0.00000000000E+00  0.40884249332E+03  0.40884249333E+03  0.25500000920E-02 0. -1.
        2   -1    0    0  501    0  0.00000000000E+00  0.00000000000E+00 -0.27577718722E+04  0.27577718722E+04  0.25500000920E-02 0.  1.
    10030    2    1    2    0    0  0.00000000000E+00  0.00000000000E+00 -0.23489293789E+04  0.31666143656E+04  0.21236707167E+04 0.  0.
        1    1    3    3  502    0  0.27677372220E+03  0.72360323989E+03 -0.91704326372E+02  0.78013782473E+03  0.50400001928E-02 0. -1.
       -1    1    3    3    0  502 -0.27677372220E+03 -0.72360323989E+03 -0.22572250525E+04  0.23864765408E+04  0.50400001928E-02 0.  1.
</event>
<event>
 5   0  0.4050368E-05  0.2113587E+04  0.7818609E-02  0.8555282E-01
        1   -1    0    0  501    0  0.00000000000E+00  0.00000000000E+00  0.23055424514E+04  0.23055424514E+04  0.50400001928E-02 0. -1.
       -1   -1    0    0    0  501  0.00000000000E+00  0.00000000000E+00 -0.48440331890E+03  0.48440331893E+03  0.50400001928E-02 0.  1.
    10030    2    1    2    0    0  0.00000000000E+00  0.00000000000E+00  0.18211391325E+04  0.27899457703E+04  0.21135869183E+04 0.  0.
        2    1    3    3  502    0  0.69910627336E+03 -0.24962808183E+03 -0.82289062171E+02  0.74688369272E+03  0.25500000920E-02 0.  1.
       -2    1    3    3    0  502 -0.69910627336E+03  0.24962808183E+03  0.19034281946E+04  0.20430620776E+04  0.25500000920E-02 0. -1.
</event>
<event>
 5   0  0.4128678E-05  0.2078483E+04  0.7818609E-02  0.8570781E-01
        1   -1    0    0  501    0  0.00000000000E+00  0.00000000000E+00  0.20524579078E+04  0.20524579078E+04  0.50400001928E-02 0. -1.
       -1   -1    0    0    0  501  0.00000000000E+00  0.00000000000E+00 -0.52620960907E+03  0.52620960910E+03  0.50400001928E-02 0.  1.
    10030    2    1    2    0    0  0.00000000000E+00  0.00000000000E+00  0.15262482987E+04  0.25786675169E+04  0.20784831713E+04 0.  0.
        5    1    3    3  502    0  0.47787519880E+03  0.36534205833E+03 -0.28825626860E+03  0.66704819286E+03  0.46999998093E+01 0.  1.
       -5    1    3    3    0  502 -0.47787519880E+03 -0.36534205833E+03  0.18145045673E+04  0.19116193241E+04  0.46999998093E+01 0. -1.
</event>
<event>
 5   0  0.9086985E-05  0.2099685E+04  0.7818609E-02  0.8561382E-01
       -2   -1    0    0    0  501  0.00000000000E+00  0.00000000000E+00  0.11872895202E+04  0.11872895202E+04  0.25500000920E-02 0.  1.
        2   -1    0    0  501    0  0.00000000000E+00  0.00000000000E+00 -0.92830674625E+03  0.92830674626E+03  0.25500000920E-02 0. -1.
    10030    2    1    2    0    0  0.00000000000E+00  0.00000000000E+00  0.25898277391E+03  0.21155962664E+04  0.20996846157E+04 0.  0.
        5    1    3    3  502    0  0.94101476614E+03  0.46155971926E+03  0.18995125257E+03  0.10651993864E+04  0.46999998093E+01 0.  1.
       -5    1    3    3    0  502 -0.94101476614E+03 -0.46155971926E+03  0.69031521338E+02  0.10503968800E+04  0.46999998093E+01 0. -1.
</event>
<event>
 5   0  0.4200061E-05  0.2090534E+04  0.7818609E-02  0.8565425E-01
        1   -1    0    0  501    0  0.00000000000E+00  0.00000000000E+00  0.99449775640E+03  0.99449775641E+03  0.50400001928E-02 0.  1.
       -1   -1    0    0    0  501  0.00000000000E+00  0.00000000000E+00 -0.10986279472E+04  0.10986279472E+04  0.50400001928E-02 0. -1.
    10030    2    1    2    0    0  0.00000000000E+00  0.00000000000E+00 -0.10413019082E+03  0.20931257036E+04  0.20905339305E+04 0.  0.
        4    1    3    3  502    0  0.70921522249E+03 -0.50433613812E+03  0.52765207528E+03  0.10177227017E+04  0.12699999809E+01 0.  1.
       -4    1    3    3    0  502 -0.70921522249E+03  0.50433613812E+03 -0.63178226611E+03  0.10754030020E+04  0.12699999809E+01 0. -1.
</event>
<event>
 5   0  0.9012466E-05  0.2094998E+04  0.7818609E-02  0.8563450E-01
        2   -1    0    0  501    0  0.00000000000E+00  0.00000000000E+00  0.12816727792E+04  0.12816727792E+04  0.25500000920E-02 0.  1.
       -2   -1    0    0    0  501  0.00000000000E+00  0.00000000000E+00 -0.85611108823E+03  0.85611108824E+03  0.25500000920E-02 0. -1.
    10030    2    1    2    0    0  0.00000000000E+00  0.00000000000E+00  0.42556169101E+03  0.21377838675E+04  0.20949981172E+04 0.  0.
        2    1    3    3  502    0  0.33685877291E+02 -0.64681479271E+03 -0.62728818368E+03  0.90166212063E+03  0.25500000920E-02 0. -1.
       -2    1    3    3    0  502 -0.33685877291E+02  0.64681479271E+03  0.10528498747E+04  0.12361217468E+04  0.25500000920E-02 0.  1.
</event>
<event>
 5   0  0.4182977E-05  0.2110637E+04  0.7818609E-02  0.8556572E-01
        1   -1    0    0  501    0  0.00000000000E+00  0.00000000000E+00  0.13687042614E+04  0.13687042614E+04  0.50400001928E-02 0.  1.
       -1   -1    0    0    0  501  0.00000000000E+00  0.00000000000E+00 -0.81368718027E+03  0.81368718029E+03  0.50400001928E-02 0. -1.
    10030    2    1    2    0    0  0.00000000000E+00  0.00000000000E+00  0.55501708115E+03  0.21823914417E+04  0.21106369760E+04 0.  0.
        1    1    3    3  502    0  0.51973074404E+03 -0.36576540018E+02 -0.67142727524E+03  0.84986615155E+03  0.50400001928E-02 0. -1.
       -1    1    3    3    0  502 -0.51973074404E+03  0.36576540018E+02  0.12264443564E+04  0.13325252902E+04  0.50400001928E-02 0.  1.
</event>
<event>
 5   0  0.8872777E-05  0.2159447E+04  0.7818609E-02  0.8535499E-01
       -2   -1    0    0    0  501  0.00000000000E+00  0.00000000000E+00  0.64563735230E+03  0.64563735230E+03  0.25500000920E-02 0.  1.
        2   -1    0    0  501    0  0.00000000000E+00  0.00000000000E+00 -0.18056627008E+04  0.18056627008E+04  0.25500000920E-02 0. -1.
    10030    2    1    2    0    0  0.00000000000E+00  0.00000000000E+00 -0.11600253485E+04  0.24513000531E+04  0.21594474157E+04 0.  0.
        3    1    3    3  502    0 -0.48576038399E+03 -0.51983201916E+03  0.34191963694E+03  0.78936526850E+03  0.10100000352E+00 0.  1.
       -3    1    3    3    0  502  0.48576038399E+03  0.51983201916E+03 -0.15019449854E+04  0.16619347846E+04  0.10100000352E+00 0. -1.
</event>
<event>
 5   0  0.9086985E-05  0.2086249E+04  0.7818609E-02  0.8567325E-01
        2   -1    0    0  501    0  0.00000000000E+00  0.00000000000E+00  0.15455392013E+04  0.15455392014E+04  0.25500000920E-02 0. -1.
       -2   -1    0    0    0  501  0.00000000000E+00  0.00000000000E+00 -0.70403199667E+03  0.70403199667E+03  0.25500000920E-02 0.  1.
    10030    2    1    2    0    0  0.00000000000E+00  0.00000000000E+00  0.84150720468E+03  0.22495711980E+04  0.20862493138E+04 0.  0.
        5    1    3    3  502    0 -0.18351996051E+03  0.37475013195E+03 -0.61010580986E+03  0.73916738735E+03  0.46999998093E+01 0.  1.
       -5    1    3    3    0  502  0.18351996051E+03 -0.37475013195E+03  0.14516130145E+04  0.15104038107E+04  0.46999998093E+01 0. -1.
</event>
<event>
 5   0  0.4182977E-05  0.2121403E+04  0.7818609E-02  0.8551873E-01
        1   -1    0    0  501    0  0.00000000000E+00  0.00000000000E+00  0.87813344801E+03  0.87813344802E+03  0.50400001928E-02 0.  1.
       -1   -1    0    0    0  501  0.00000000000E+00  0.00000000000E+00 -0.12812262964E+04  0.12812262964E+04  0.50400001928E-02 0. -1.
    10030    2    1    2    0    0  0.00000000000E+00  0.00000000000E+00 -0.40309284841E+03  0.21593597445E+04  0.21214029937E+04 0.  0.
        1    1    3    3  502    0 -0.52714324883E+03  0.21944519074E+03 -0.11114370706E+04  0.12495313355E+04  0.50400001928E-02 0. -1.
       -1    1    3    3    0  502  0.52714324883E+03 -0.21944519074E+03  0.70834422220E+03  0.90982840892E+03  0.50400001928E-02 0.  1.
</event>
<event>
 5   0  0.4200061E-05  0.2100822E+04  0.7818609E-02  0.8560881E-01
        1   -1    0    0  501    0  0.00000000000E+00  0.00000000000E+00  0.12806424267E+04  0.12806424267E+04  0.50400001928E-02 0. -1.
       -1   -1    0    0    0  501  0.00000000000E+00  0.00000000000E+00 -0.86156988052E+03  0.86156988053E+03  0.50400001928E-02 0.  1.
    10030    2    1    2    0    0  0.00000000000E+00  0.00000000000E+00  0.41907254619E+03  0.21422123072E+04  0.21008216893E+04 0.  0.
        4    1    3    3  502    0 -0.76294012888E+03  0.65677370056E+03 -0.96258764181E+02  0.10112846763E+04  0.12699999809E+01 0.  1.
       -4    1    3    3    0  502  0.76294012888E+03 -0.65677370056E+03  0.51533131037E+03  0.11309276309E+04  0.12699999809E+01 0. -1.
</event>
<event>
 5   0  0.4128678E-05  0.2006376E+04  0.7818609E-02  0.8603646E-01
       -1   -1    0    0    0  501  0.00000000000E+00  0.00000000000E+00  0.84047858183E+03  0.84047858184E+03  0.50400001928E-02 0. -1.
        1   -1    0    0  501    0  0.00000000000E+00  0.00000000000E+00 -0.11973961999E+04  0.11973961999E+04  0.50400001928E-02 0.  1.
    10030    2    1    2    0    0  0.00000000000E+00  0.00000000000E+00 -0.35691761811E+03  0.20378747818E+04  0.20063756977E+04 0.  0.
        5    1    3    3  502    0  0.74665432592E+03 -0.66676432075E+03 -0.24503501102E+03  0.10305976851E+04  0.46999998093E+01 0.  1.
       -5    1    3    3    0  502 -0.74665432592E+03  0.66676432075E+03 -0.11188260709E+03  0.10072770967E+04  0.46999998093E+01 0. -1.
</event>
<event>
 5   0  0.4128678E-05  0.2057826E+04  0.7818609E-02  0.8580052E-01
        1   -1    0    0  501    0  0.00000000000E+00  0.00000000000E+00  0.15321216427E+04  0.15321216427E+04  0.50400001928E-02 0. -1.
       -1   -1    0    0    0  501  0.00000000000E+00  0.00000000000E+00 -0.69097762696E+03  0.69097762698E+03  0.50400001928E-02 0.  1.
    10030    2    1    2    0    0  0.00000000000E+00  0.00000000000E+00  0.84114401578E+03  0.22230992697E+04  0.20578258206E+04 0.  0.
        5    1    3    3  502    0  0.45320601264E+03 -0.86216876667E+03  0.77872361255E+03  0.12470618376E+04  0.46999998093E+01 0. -1.
       -5    1    3    3    0  502 -0.45320601264E+03  0.86216876667E+03  0.62420403225E+02  0.97603743210E+03  0.46999998093E+01 0.  1.
</event>
<event>
 5   0  0.9086985E-05  0.2171488E+04  0.7818609E-02  0.8530390E-01
       -2   -1    0    0    0  501  0.00000000000E+00  0.00000000000E+00  0.20741637038E+04  0.20741637038E+04  0.25500000920E-02 0.  1.
        2   -1    0    0  501    0  0.00000000000E+00  0.00000000000E+00 -0.56834465329E+03  0.56834465330E+03  0.25500000920E-02 0. -1.
    10030    2    1    2    0    0  0.00000000000E+00  0.00000000000E+00  0.15058190505E+04  0.26425083571E+04  0.21714878320E+04 0.  0.
        5    1    3    3  502    0 -0.10045291025E+04  0.38476311644E+03  0.93215685119E+03  0.14233972947E+04  0.46999998093E+01 0. -1.
       -5    1    3    3    0  502  0.10045291025E+04 -0.38476311644E+03  0.57366219932E+03  0.12191110624E+04  0.46999998093E+01 0.  1.
</event>
<event>
 5   0  0.9086985E-05  0.2169529E+04  0.7818609E-02  0.8531219E-01
       -2   -1    0    0    0  501  0.00000000000E+00  0.00000000000E+00  0.89465088263E+03  0.89465088263E+03  0.25500000920E-02 0.  1.
        2   -1    0    0  501    0  0.00000000000E+00  0.00000000000E+00 -0.13152777762E+04  0.13152777762E+04  0.25500000920E-02 0. -1.
    10030    2    1    2    0    0  0.00000000000E+00  0.00000000000E+00 -0.42062689356E+03  0.22099286588E+04  0.21695293714E+04 0.  0.
        5    1    3    3  502    0  0.18525399393E+03 -0.21712980484E+03  0.85570563074E+03  0.90206352930E+03  0.46999998093E+01 0.  1.
       -5    1    3    3    0  502 -0.18525399393E+03  0.21712980484E+03 -0.12763325243E+04  0.13078651295E+04  0.46999998093E+01 0. -1.
</event>
<event>
 5   0  0.8872777E-05  0.2106467E+04  0.7818609E-02  0.8558400E-01
       -2   -1    0    0    0  501  0.00000000000E+00  0.00000000000E+00  0.10605199342E+04  0.10605199342E+04  0.25500000920E-02 0. -1.
        2   -1    0    0  501    0  0.00000000000E+00  0.00000000000E+00 -0.10459974233E+04  0.10459974233E+04  0.25500000920E-02 0.  1.
    10030    2    1    2    0    0  0.00000000000E+00  0.00000000000E+00  0.14522510888E+02  0.21065173574E+04  0.21064672971E+04 0.  0.
        3    1    3    3  502    0 -0.10512498742E+04  0.64077622256E+02  0.15560160952E+02  0.10533158921E+04  0.10100000352E+00 0.  1.
       -3    1    3    3    0  502  0.10512498742E+04 -0.64077622256E+02 -0.10376500645E+01  0.10532014654E+04  0.10100000352E+00 0. -1.
</event>
<event>
 5   0  0.9086985E-05  0.2114392E+04  0.7818609E-02  0.8554930E-01
        2   -1    0    0  501    0  0.00000000000E+00  0.00000000000E+00  0.17838592984E+04  0.17838592984E+04  0.25500000920E-02 0.  1.
       -2   -1    0    0    0  501  0.00000000000E+00  0.00000000000E+00 -0.62654230760E+03  0.62654230760E+03  0.25500000920E-02 0. -1.
    10030    2    1    2    0    0  0.00000000000E+00  0.00000000000E+00  0.11573169908E+04  0.24104016060E+04  0.21143919422E+04 0.  0.
        5    1    3    3  502    0 -0.34951646631E+03  0.71804471990E+03  0.13683824821E+04  0.15843745413E+04  0.46999998093E+01 0.  1.
       -5    1    3    3    0  502  0.34951646631E+03 -0.71804471990E+03 -0.21106549125E+03  0.82602706469E+03  0.46999998093E+01 0. -1.
</event>
<event>
 5   0  0.4050368E-05  0.1972133E+04  0.7818609E-02  0.8619761E-01
        1   -1    0    0  501    0  0.00000000000E+00  0.00000000000E+00  0.10213483902E+04  0.10213483902E+04  0.50400001928E-02 0.  1.
       -1   -1    0    0    0  501  0.00000000000E+00  0.00000000000E+00 -0.95200326506E+03  0.95200326508E+03  0.50400001928E-02 0. -1.
    10030    2    1    2    0    0  0.00000000000E+00  0.00000000000E+00  0.69345125152E+02  0.19733516553E+04  0.19721328579E+04 0.  0.
        2    1    3    3  502    0  0.53978953211E+03 -0.52381299284E+03 -0.60335322124E+03  0.96425510111E+03  0.25500000920E-02 0. -1.
       -2    1    3    3    0  502 -0.53978953211E+03  0.52381299284E+03  0.67269834639E+03  0.10090965542E+04  0.25500000920E-02 0.  1.
</event>
<event>
 5   0  0.8872777E-05  0.2120798E+04  0.7818609E-02  0.8552137E-01
       -2   -1    0    0    0  501  0.00000000000E+00  0.00000000000E+00  0.63283777474E+03  0.63283777474E+03  0.25500000920E-02 0.  1.
        2   -1    0    0  501    0  0.00000000000E+00  0.00000000000E+00 -0.17768310822E+04  0.17768310822E+04  0.25500000920E-02 0. -1.
    10030    2    1    2    0    0  0.00000000000E+00  0.00000000000E+00 -0.11439933074E+04  0.24096688569E+04  0.21207978010E+04 0.  0.
        3    1    3    3  502    0 -0.79393518485E+03 -0.16413093318E+03  0.20460324403E+03  0.83614265447E+03  0.10100000352E+00 0.  1.
       -3    1    3    3    0  502  0.79393518485E+03  0.16413093318E+03 -0.13485965514E+04  0.15735262024E+04  0.10100000352E+00 0. -1.
</event>
<event>
 5   0  0.8547605E-05  0.2131807E+04  0.7818609E-02  0.8547360E-01
        2   -1    0    0  501    0  0.00000000000E+00  0.00000000000E+00  0.10411175104E+04  0.10411175104E+04  0.25500000920E-02 0.  1.
       -2   -1    0    0    0  501  0.00000000000E+00  0.00000000000E+00 -0.10912795406E+04  0.10912795406E+04  0.25500000920E-02 0. -1.
    10030    2    1    2    0    0  0.00000000000E+00  0.00000000000E+00 -0.50162030155E+02  0.21323970510E+04  0.21318069692E+04 0.  0.
        4    1    3    3  502    0 -0.54300976526E+03 -0.48318083857E+03  0.75476630007E+03  0.10478535721E+04  0.12699999809E+01 0.  1.
       -4    1    3    3    0  502  0.54300976526E+03  0.48318083857E+03 -0.80492833023E+03  0.10845434789E+04  0.12699999809E+01 0. -1.
</event>
<event>
 5   0  0.8872777E-05  0.1959464E+04  0.7818609E-02  0.8625811E-01
       -2   -1    0    0    0  501  0.00000000000E+00  0.00000000000E+00  0.70004877038E+03  0.70004877039E+03  0.25500000920E-02 0. -1.
        2   -1    0    0  501    0  0.00000000000E+00  0.00000000000E+00 -0.13711540223E+04  0.13711540223E+04  0.25500000920E-02 0.  1.
    10030    2    1    2    0    0  0.00000000000E+00  0.00000000000E+00 -0.67110525193E+03  0.20712027927E+04  0.19594638933E+04 0.  0.
        3    1    3    3  502    0 -0.32428836451E+03  0.11537543722E+03 -0.13051393808E+04  0.13497641455E+04  0.10100000352E+00 0.  1.
       -3    1    3    3    0  502  0.32428836451E+03 -0.11537543722E+03  0.63403412890E+03  0.72143864721E+03  0.10100000352E+00 0. -1.
</event>
<event>
 5   0  0.4050368E-05  0.2146004E+04  0.7818609E-02  0.8541245E-01
        1   -1    0    0  501    0  0.00000000000E+00  0.00000000000E+00  0.23691634573E+04  0.23691634573E+04  0.50400001928E-02 0.  1.
       -1   -1    0    0    0  501  0.00000000000E+00  0.00000000000E+00 -0.48596606647E+03  0.48596606649E+03  0.50400001928E-02 0. -1.
    10030    2    1    2    0    0  0.00000000000E+00  0.00000000000E+00  0.18831973908E+04  0.28551295238E+04  0.21460037709E+04 0.  0.
        2    1    3    3  502    0  0.64884003128E+03 -0.80576577906E+03  0.13204382661E+04  0.16774412334E+04  0.25500000920E-02 0.  1.
       -2    1    3    3    0  502 -0.64884003128E+03  0.80576577906E+03  0.56275912477E+03  0.11776882904E+04  0.25500000920E-02 0. -1.
</event>
<event>
 5   0  0.9012466E-05  0.2105485E+04  0.7818609E-02  0.8558831E-01
       -2   -1    0    0    0  501  0.00000000000E+00  0.00000000000E+00  0.14049277029E+04  0.14049277029E+04  0.25500000920E-02 0. -1.
        2   -1    0    0  501    0  0.00000000000E+00  0.00000000000E+00 -0.78884227509E+03  0.78884227509E+03  0.25500000920E-02 0.  1.
    10030    2    1    2    0    0  0.00000000000E+00  0.00000000000E+00  0.61608542778E+03  0.21937699780E+04  0.21054846145E+04 0.  0.
        2    1    3    3  502    0  0.90849732210E+03 -0.48918082500E+03  0.52560707109E+03  0.11579844805E+04  0.25500000920E-02 0. -1.
       -2    1    3    3    0  502 -0.90849732210E+03  0.48918082500E+03  0.90478356693E+02  0.10357854975E+04  0.25500000920E-02 0.  1.
</event>
<event>
 5   0  0.4200061E-05  0.2086645E+04  0.7818609E-02  0.8567149E-01
        1   -1    0    0  501    0  0.00000000000E+00  0.00000000000E+00  0.95156855634E+03  0.95156855636E+03  0.50400001928E-02 0.  1.
       -1   -1    0    0    0  501  0.00000000000E+00  0.00000000000E+00 -0.11439237079E+04  0.11439237079E+04  0.50400001928E-02 0. -1.
    10030    2    1    2    0    0  0.00000000000E+00  0.00000000000E+00 -0.19235515151E+03  0.20954922642E+04  0.20866449926E+04 0.  0.
        4    1    3    3  502    0  0.85888949461E+03  0.44795495662E+03 -0.48533242752E+03  0.10834684976E+04  0.12699999809E+01 0. -1.
       -4    1    3    3    0  502 -0.85888949461E+03 -0.44795495662E+03  0.29297727601E+03  0.10120237667E+04  0.12699999809E+01 0.  1.
</event>
<event>
 5   0  0.4200061E-05  0.2122806E+04  0.7818609E-02  0.8551263E-01
       -1   -1    0    0    0  501  0.00000000000E+00  0.00000000000E+00  0.14833756990E+04  0.14833756990E+04  0.50400001928E-02 0. -1.
        1   -1    0    0  501    0  0.00000000000E+00  0.00000000000E+00 -0.75946813283E+03  0.75946813285E+03  0.50400001928E-02 0.  1.
    10030    2    1    2    0    0  0.00000000000E+00  0.00000000000E+00  0.72390756618E+03  0.22428438319E+04  0.21228062299E+04 0.  0.
        4    1    3    3  502    0  0.10045844349E+04 -0.34261478004E+03  0.36240858088E+03  0.11215687079E+04  0.12699999809E+01 0.  1.
       -4    1    3    3    0  502 -0.10045844349E+04  0.34261478004E+03  0.36149898531E+03  0.11212751239E+04  0.12699999809E+01 0. -1.
</event>
<event>
 5   0  0.8547605E-05  0.2129699E+04  0.7818609E-02  0.8548272E-01
       -2   -1    0    0    0  501  0.00000000000E+00  0.00000000000E+00  0.56787383926E+03  0.56787383926E+03  0.25500000920E-02 0.  1.
        2   -1    0    0  501    0  0.00000000000E+00  0.00000000000E+00 -0.19967538747E+04  0.19967538747E+04  0.25500000920E-02 0. -1.
    10030    2    1    2    0    0  0.00000000000E+00  0.00000000000E+00 -0.14288800355E+04  0.25646277140E+04  0.21296988415E+04 0.  0.
        4    1    3    3  502    0  0.51775126603E+02  0.13692684919E+02  0.56625012534E+03  0.56877849002E+03  0.12699999809E+01 0.  1.
       -4    1    3    3    0  502 -0.51775126603E+02 -0.13692684919E+02 -0.19951301608E+04  0.19958492240E+04  0.12699999809E+01 0. -1.
</event>
<event>
 5   0  0.4174093E-05  0.2061479E+04  0.7818609E-02  0.8578405E-01
        1   -1    0    0  501    0  0.00000000000E+00  0.00000000000E+00  0.24516055443E+04  0.24516055443E+04  0.50400001928E-02 0.  1.
       -1   -1    0    0    0  501  0.00000000000E+00  0.00000000000E+00 -0.43335840960E+03  0.43335840962E+03  0.50400001928E-02 0. -1.
    10030    2    1    2    0    0  0.00000000000E+00  0.00000000000E+00  0.20182471347E+04  0.28849639540E+04  0.20614789640E+04 0.  0.
        3    1    3    3  502    0  0.18297550125E+03 -0.47508618561E+03  0.22633712967E+04  0.23199216699E+04  0.10100000352E+00 0.  1.
       -3    1    3    3    0  502 -0.18297550125E+03  0.47508618561E+03 -0.24512416191E+03  0.56504228405E+03  0.10100000352E+00 0. -1.
</event>
<event>
 5   0  0.3176125E-05  0.2133660E+04  0.7818609E-02  0.8546559E-01
       -4   -1    0    0    0  501  0.00000000000E+00  0.00000000000E+00  0.87330308080E+03  0.87330400425E+03  0.12699999809E+01 0. -1.
        4   -1    0    0  501    0  0.00000000000E+00  0.00000000000E+00 -0.13032406703E+04  0.13032412891E+04  0.12699999809E+01 0.  1.
    10030    2    1    2    0    0  0.00000000000E+00  0.00000000000E+00 -0.42993758948E+03  0.21765452933E+04  0.21336595518E+04 0.  0.
        5    1    3    3  502    0  0.55182140231E+03 -0.19637981289E+03 -0.11245360812E+04  0.12679413941E+04  0.46999998093E+01 0.  1.
       -5    1    3    3    0  502 -0.55182140231E+03  0.19637981289E+03  0.69459849173E+03  0.90860389922E+03  0.46999998093E+01 0. -1.
</event>
<event>
 5   0  0.8858590E-05  0.2127474E+04  0.7818609E-02  0.8549237E-01
       -2   -1    0    0    0  501  0.00000000000E+00  0.00000000000E+00  0.14335390106E+04  0.14335390106E+04  0.25500000920E-02 0.  1.
        2   -1    0    0  501    0  0.00000000000E+00  0.00000000000E+00 -0.78933073910E+03  0.78933073911E+03  0.25500000920E-02 0. -1.
    10030    2    1    2    0    0  0.00000000000E+00  0.00000000000E+00  0.64420827146E+03  0.22228697497E+04  0.21274740015E+04 0.  0.
        1    1    3    3  502    0  0.91038862389E+03 -0.29617393869E+03 -0.16237942080E+03  0.97102704638E+03  0.50400001928E-02 0. -1.
       -1    1    3    3    0  502 -0.91038862389E+03  0.29617393869E+03  0.80658769226E+03  0.12518427033E+04  0.50400001928E-02 0.  1.
</event>
<event>
 5   0  0.8872777E-05  0.2083578E+04  0.7818609E-02  0.8568512E-01
       -2   -1    0    0    0  501  0.00000000000E+00  0.00000000000E+00  0.12872359417E+04  0.12872359417E+04  0.25500000920E-02 0. -1.
        2   -1    0    0  501    0  0.00000000000E+00  0.00000000000E+00 -0.84314342972E+03  0.84314342973E+03  0.25500000920E-02 0.  1.
    10030    2    1    2    0    0  0.00000000000E+00  0.00000000000E+00  0.44409251196E+03  0.21303793714E+04  0.20835781979E+04 0.  0.
        3    1    3    3  502    0  0.10618026652E+03  0.80814848583E+03  0.88542337525E+03  0.12034752959E+04  0.10100000352E+00 0. -1.
       -3    1    3    3    0  502 -0.10618026652E+03 -0.80814848583E+03 -0.44133086329E+03  0.92690407553E+03  0.10100000352E+00 0.  1.
</event>
<event>
 5   0  0.8547605E-05  0.2077222E+04  0.7818609E-02  0.8571344E-01
        2   -1    0    0  501    0  0.00000000000E+00  0.00000000000E+00  0.12002555458E+04  0.12002555458E+04  0.25500000920E-02 0.  1.
       -2   -1    0    0    0  501  0.00000000000E+00  0.00000000000E+00 -0.89873588076E+03  0.89873588077E+03  0.25500000920E-02 0. -1.
    10030    2    1    2    0    0  0.00000000000E+00  0.00000000000E+00  0.30151966500E+03  0.20989914265E+04  0.20772219189E+04 0.  0.
        4    1    3    3  502    0 -0.42973684163E+02  0.80497440733E+03 -0.51099322706E+03  0.95443502921E+03  0.12699999809E+01 0. -1.
       -4    1    3    3    0  502  0.42973684163E+02 -0.80497440733E+03  0.81251289205E+03  0.11445563973E+04  0.12699999809E+01 0.  1.
</event>
<event>
 5   0  0.4182977E-05  0.2104176E+04  0.7818609E-02  0.8559406E-01
        1   -1    0    0  501    0  0.00000000000E+00  0.00000000000E+00  0.28323420101E+04  0.28323420101E+04  0.50400001928E-02 0.  1.
       -1   -1    0    0    0  501  0.00000000000E+00  0.00000000000E+00 -0.39080363751E+03  0.39080363754E+03  0.50400001928E-02 0. -1.
    10030    2    1    2    0    0  0.00000000000E+00  0.00000000000E+00  0.24415383726E+04  0.32231456476E+04  0.21041763807E+04 0.  0.
        1    1    3    3  502    0  0.40517201167E+03  0.56570884372E+03  0.24295199762E+04  0.25272036265E+04  0.50400001928E-02 0.  1.
       -1    1    3    3    0  502 -0.40517201167E+03 -0.56570884372E+03  0.12018396355E+02  0.69594202113E+03  0.50400001928E-02 0. -1.
</event>
<event>
 5   0  0.8547605E-05  0.2090343E+04  0.7818609E-02  0.8565509E-01
       -2   -1    0    0    0  501  0.00000000000E+00  0.00000000000E+00  0.72900870216E+03  0.72900870217E+03  0.25500000920E-02 0.  1.
        2   -1    0    0  501    0  0.00000000000E+00  0.00000000000E+00 -0.14984509732E+04  0.14984509733E+04  0.25500000920E-02 0. -1.
    10030    2    1    2    0    0  0.00000000000E+00  0.00000000000E+00 -0.76944227109E+03  0.22274596754E+04  0.20903433204E+04 0.  0.
        4    1    3    3  502    0 -0.68766757113E+03  0.62808856936E+03 -0.89017756716E+03  0.12883321207E+04  0.12699999809E+01 0. -1.
       -4    1    3    3    0  502  0.68766757113E+03 -0.62808856936E+03  0.12073529608E+03  0.93912755468E+03  0.12699999809E+01 0.  1.
</event>
<event>
 5   0  0.4174093E-05  0.2125200E+04  0.7818609E-02  0.8550223E-01
       -1   -1    0    0    0  501  0.00000000000E+00  0.00000000000E+00  0.12860102927E+04  0.12860102927E+04  0.50400001928E-02 0.  1.
        1   -1    0    0  501    0  0.00000000000E+00  0.00000000000E+00 -0.87800104545E+03  0.87800104547E+03  0.50400001928E-02 0. -1.
    10030    2    1    2    0    0  0.00000000000E+00  0.00000000000E+00  0.40800924721E+03  0.21640113381E+04  0.21251996438E+04 0.  0.
        3    1    3    3  502    0 -0.62947856239E+03 -0.84980591090E+03  0.98649992412E+02  0.10621417880E+04  0.10100000352E+00 0.  1.
       -3    1    3    3    0  502  0.62947856239E+03  0.84980591090E+03  0.30935925480E+03  0.11018695501E+04  0.10100000352E+00 0. -1.
</event>
<event>
 5   0  0.8872777E-05  0.1988241E+04  0.7818609E-02  0.8612138E-01
        2   -1    0    0  501    0  0.00000000000E+00  0.00000000000E+00  0.16068543132E+04  0.16068543132E+04  0.25500000920E-02 0. -1.
       -2   -1    0    0    0  501  0.00000000000E+00  0.00000000000E+00 -0.61503759853E+03  0.61503759853E+03  0.25500000920E-02 0.  1.
    10030    2    1    2    0    0  0.00000000000E+00  0.00000000000E+00  0.99181671463E+03  0.22218919117E+04  0.19882412509E+04 0.  0.
        3    1    3    3  502    0 -0.91188715975E+01 -0.99383145282E+03  0.52068844109E+03  0.11220073856E+04  0.10100000352E+00 0.  1.
       -3    1    3    3    0  502  0.91188715975E+01  0.99383145282E+03  0.47112827354E+03  0.10998845261E+04  0.10100000352E+00 0. -1.
</event>
<event>
 5   0  0.8872777E-05  0.2034340E+04  0.7818609E-02  0.8590732E-01
        2   -1    0    0  501    0  0.00000000000E+00  0.00000000000E+00  0.20753835525E+04  0.20753835525E+04  0.25500000920E-02 0.  1.
       -2   -1    0    0    0  501  0.00000000000E+00  0.00000000000E+00 -0.49852721621E+03  0.49852721622E+03  0.25500000920E-02 0. -1.
    10030    2    1    2    0    0  0.00000000000E+00  0.00000000000E+00  0.15768563362E+04  0.25739107687E+04  0.20343403697E+04 0.  0.
        3    1    3    3  502    0 -0.58499900331E+02  0.18832878818E+03  0.20509647806E+04  0.20604238672E+04  0.10100000352E+00 0.  1.
       -3    1    3    3    0  502  0.58499900331E+02 -0.18832878818E+03 -0.47410844438E+03  0.51348690152E+03  0.10100000352E+00 0. -1.
</event>
<event>
 5   0  0.4200061E-05  0.2092677E+04  0.7818609E-02  0.8564476E-01
        1   -1    0    0  501    0  0.00000000000E+00  0.00000000000E+00  0.18406866431E+04  0.18406866431E+04  0.50400001928E-02 0.  1.
       -1   -1    0    0    0  501  0.00000000000E+00  0.00000000000E+00 -0.59479128149E+03  0.59479128151E+03  0.50400001928E-02 0. -1.
    10030    2    1    2    0    0  0.00000000000E+00  0.00000000000E+00  0.12458953616E+04  0.24354779247E+04  0.20926771058E+04 0.  0.
        4    1    3    3  502    0 -0.85394479535E+03  0.50230647142E+03  0.10146682028E+04  0.14181278784E+04  0.12699999809E+01 0.  1.
       -4    1    3    3    0  502  0.85394479535E+03 -0.50230647142E+03  0.23122715879E+03  0.10173500462E+04  0.12699999809E+01 0. -1.
</event>
<event>
 5   0  0.4182977E-05  0.2104829E+04  0.7818609E-02  0.8559119E-01
       -1   -1    0    0    0  501  0.00000000000E+00  0.00000000000E+00  0.10671386242E+04  0.10671386242E+04  0.50400001928E-02 0. -1.
        1   -1    0    0  501    0  0.00000000000E+00  0.00000000000E+00 -0.10378931556E+04  0.10378931556E+04  0.50400001928E-02 0.  1.
    10030    2    1    2    0    0  0.00000000000E+00  0.00000000000E+00  0.29245468560E+02  0.21050317799E+04  0.21048286146E+04 0.  0.
        1    1    3    3  502    0 -0.34793314263E+03  0.78549377009E+03  0.62256128158E+03  0.10609620558E+04  0.50400001928E-02 0. -1.
       -1    1    3    3    0  502  0.34793314263E+03 -0.78549377009E+03 -0.59331581302E+03  0.10440697240E+04  0.50400001928E-02 0.  1.
</event>
<event>
 5   0  0.8858590E-05  0.2114671E+04  0.7818609E-02  0.8554808E-01
        2   -1    0    0  501    0  0.00000000000E+00  0.00000000000E+00  0.97116758056E+03  0.97116758057E+03  0.25500000920E-02 0.  1.
       -2   -1    0    0    0  501  0.00000000000E+00  0.00000000000E+00 -0.11511488194E+04  0.11511488194E+04  0.25500000920E-02 0. -1.
    10030    2    1    2    0    0  0.00000000000E+00  0.00000000000E+00 -0.17998123886E+03  0.21223164000E+04  0.21146710513E+04 0.  0.
        1    1    3    3  502    0  0.96444893862E+03  0.43132895775E+03 -0.13199871319E+03  0.10647206607E+04  0.50400001928E-02 0. -1.
       -1    1    3    3    0  502 -0.96444893862E+03 -0.43132895775E+03 -0.47982525673E+02  0.10575957393E+04  0.50400001928E-02 0.  1.
</event>
<event>
 5   0  0.4200061E-05  0.2033446E+04  0.7818609E-02  0.8591141E-01
       -1   -1    0    0    0  501  0.00000000000E+00  0.00000000000E+00  0.73938396722E+03  0.73938396724E+03  0.50400001928E-02 0.  1.
        1   -1    0    0  501    0  0.00000000000E+00  0.00000000000E+00 -0.13980903289E+04  0.13980903289E+04  0.50400001928E-02 0. -1.
    10030    2    1    2    0    0  0.00000000000E+00  0.00000000000E+00 -0.65870636165E+03  0.21374742961E+04  0.20334459166E+04 0.  0.
        4    1    3    3  502    0 -0.19091488714E+03  0.38859449333E+03  0.63763840008E+03  0.77073894188E+03  0.12699999809E+01 0.  1.
       -4    1    3    3    0  502  0.19091488714E+03 -0.38859449333E+03 -0.12963447617E+04  0.13667353542E+04  0.12699999809E+01 0. -1.
</event>
<event>
 5   0  0.9086985E-05  0.2087512E+04  0.7818609E-02  0.8566764E-01
       -2   -1    0    0    0  501  0.00000000000E+00  0.00000000000E+00  0.94517096564E+03  0.94517096564E+03  0.25500000920E-02 0.  1.
        2   -1    0    0  501    0  0.00000000000E+00  0.00000000000E+00 -0.11526239925E+04  0.11526239925E+04  0.25500000920E-02 0. -1.
    10030    2    1    2    0    0  0.00000000000E+00  0.00000000000E+00 -0.20745302689E+03  0.20977949582E+04  0.20875121385E+04 0.  0.
        5    1    3    3  502    0 -0.83220639331E+03  0.62111036540E+03  0.19536384943E+01  0.10384466639E+04  0.46999998093E+01 0.  1.
       -5    1    3    3    0  502  0.83220639331E+03 -0.62111036540E+03 -0.20940666539E+03  0.10593482943E+04  0.46999998093E+01 0. -1.
</event>
<event>
 5   0  0.4050368E-05  0.2047285E+04  0.7818609E-02  0.8584827E-01
        1   -1    0    0  501    0  0.00000000000E+00  0.00000000000E+00  0.25970182530E+04  0.25970182530E+04  0.50400001928E-02 0. -1.
       -1   -1    0    0    0  501  0.00000000000E+00  0.00000000000E+00 -0.40347957484E+03  0.40347957487E+03  0.50400001928E-02 0.  1.
    10030    2    1    2    0    0  0.00000000000E+00  0.00000000000E+00  0.21935386782E+04  0.30004978279E+04  0.20472848562E+04 0.  0.
        2    1    3    3  502    0 -0.73414638167E+03  0.30604688504E+03  0.15238666333E+03  0.80985017177E+03  0.25500000920E-02 0.  1.
       -2    1    3    3    0  502  0.73414638167E+03 -0.30604688504E+03  0.20411520148E+04  0.21906476561E+04  0.25500000920E-02 0. -1.
</event>
<event>
 5   0  0.4128678E-05  0.2101500E+04  0.7818609E-02  0.8560583E-01
        1   -1    0    0  501    0  0.00000000000E+00  0.00000000000E+00  0.14122138499E+04  0.14122138499E+04  0.50400001928E-02 0. -1.
       -1   -1    0    0    0  501  0.00000000000E+00  0.00000000000E+00 -0.78180450483E+03  0.78180450485E+03  0.50400001928E-02 0.  1.
    10030    2    1    2    0    0  0.00000000000E+00  0.00000000000E+00  0.63040934510E+03  0.21940183548E+04  0.21014996071E+04 0.  0.
        5    1    3    3  502    0  0.38176738837E+03  0.97124568977E+03  0.18738712564E+03  0.10602832421E+04  0.46999998093E+01 0.  1.
       -5    1    3    3    0  502 -0.38176738837E+03 -0.97124568977E+03  0.44302221946E+03  0.11337351126E+04  0.46999998093E+01 0. -1.
</event>
<event>
 5   0  0.4182977E-05  0.2101673E+04  0.7818609E-02  0.8560507E-01
        1   -1    0    0  501    0  0.00000000000E+00  0.00000000000E+00  0.23549196621E+04  0.23549196621E+04  0.50400001928E-02 0. -1.
       -1   -1    0    0    0  501  0.00000000000E+00  0.00000000000E+00 -0.46891495779E+03  0.46891495782E+03  0.50400001928E-02 0.  1.
    10030    2    1    2    0    0  0.00000000000E+00  0.00000000000E+00  0.18860047043E+04  0.28238346200E+04  0.21016727186E+04 0.  0.
        1    1    3    3  502    0  0.16944493351E+03 -0.55602847645E+03  0.21192415012E+04  0.21975130927E+04  0.50400001928E-02 0. -1.
       -1    1    3    3    0  502 -0.16944493351E+03  0.55602847645E+03 -0.23323679684E+03  0.62632152729E+03  0.50400001928E-02 0.  1.
</event>
<event>
 5   0  0.9086985E-05  0.2198412E+04  0.7818609E-02  0.8519089E-01
       -2   -1    0    0    0  501  0.00000000000E+00  0.00000000000E+00  0.87486052675E+03  0.87486052675E+03  0.25500000920E-02 0. -1.
        2   -1    0    0  501    0  0.00000000000E+00  0.00000000000E+00 -0.13810818270E+04  0.13810818270E+04  0.25500000920E-02 0.  1.
    10030    2    1    2    0    0  0.00000000000E+00  0.00000000000E+00 -0.50622130025E+03  0.22559423537E+04  0.21984121312E+04 0.  0.
        5    1    3    3  502    0  0.23992431847E+03 -0.68833830533E+03  0.59113310407E+03  0.93852743056E+03  0.46999998093E+01 0. -1.
       -5    1    3    3    0  502 -0.23992431847E+03  0.68833830533E+03 -0.10973544043E+04  0.13174149232E+04  0.46999998093E+01 0.  1.
</event>
<event>
 5   0  0.4050368E-05  0.1967471E+04  0.7818609E-02  0.8621982E-01
       -1   -1    0    0    0  501  0.00000000000E+00  0.00000000000E+00  0.98672417548E+03  0.98672417549E+03  0.50400001928E-02 0.  1.
        1   -1    0    0  501    0  0.00000000000E+00  0.00000000000E+00 -0.98075603817E+03  0.98075603818E+03  0.50400001928E-02 0. -1.
    10030    2    1    2    0    0  0.00000000000E+00  0.00000000000E+00  0.59681373134E+01  0.19674802137E+04  0.19674711618E+04 0.  0.
        2    1    3    3  502    0 -0.24821705787E+02 -0.39911480148E+03 -0.89581200640E+03  0.98101370666E+03  0.25500000920E-02 0. -1.
       -2    1    3    3    0  502  0.24821705787E+02  0.39911480148E+03  0.90178014372E+03  0.98646650701E+03  0.25500000920E-02 0.  1.
</event>
<event>
 5   0  0.4174093E-05  0.2098755E+04  0.7818609E-02  0.8561792E-01
       -1   -1    0    0    0  501  0.00000000000E+00  0.00000000000E+00  0.73556148018E+03  0.73556148019E+03  0.50400001928E-02 0.  1.
        1   -1    0    0  501    0  0.00000000000E+00  0.00000000000E+00 -0.14970784254E+04  0.14970784254E+04  0.50400001928E-02 0. -1.
    10030    2    1    2    0    0  0.00000000000E+00  0.00000000000E+00 -0.76151694521E+03  0.22326399056E+04  0.20987550810E+04 0.  0.
        3    1    3    3  502    0 -0.10432343319E+04 -0.63921984995E+02 -0.28113999445E+03  0.10823417197E+04  0.10100000352E+00 0.  1.
       -3    1    3    3    0  502  0.10432343319E+04  0.63921984995E+02 -0.48037695076E+03  0.11502981859E+04  0.10100000352E+00 0. -1.
</event>
<event>
 5   0  0.8872777E-05  0.2136694E+04  0.7818609E-02  0.8545249E-01
       -2   -1    0    0    0  501  0.00000000000E+00  0.00000000000E+00  0.83072403054E+03  0.83072403055E+03  0.25500000920E-02 0. -1.
        2   -1    0    0  501    0  0.00000000000E+00  0.00000000000E+00 -0.13739408527E+04  0.13739408527E+04  0.25500000920E-02 0.  1.
    10030    2    1    2    0    0  0.00000000000E+00  0.00000000000E+00 -0.54321682213E+03  0.22046648832E+04  0.21366943468E+04 0.  0.
        3    1    3    3  502    0  0.95164611843E+03 -0.40832594948E+03 -0.56349095416E+00  0.10355485230E+04  0.10100000352E+00 0. -1.
       -3    1    3    3    0  502 -0.95164611843E+03  0.40832594948E+03 -0.54265333117E+03  0.11691163602E+04  0.10100000352E+00 0.  1.
</event>
<event>
 5   0  0.9086985E-05  0.2117574E+04  0.7818609E-02  0.8553541E-01
       -2   -1    0    0    0  501  0.00000000000E+00  0.00000000000E+00  0.57435792462E+03  0.57435792463E+03  0.25500000920E-02 0.  1.
        2   -1    0    0  501    0  0.00000000000E+00  0.00000000000E+00 -0.19517970887E+04  0.19517970887E+04  0.25500000920E-02 0. -1.
    10030    2    1    2    0    0  0.00000000000E+00  0.00000000000E+00 -0.13774391641E+04  0.25261550133E+04  0.21175742019E+04 0.  0.
        5    1    3    3  502    0  0.39664313821E+03 -0.70081723749E+03  0.13132880496E+03  0.81592887218E+03  0.46999998093E+01 0.  1.
       -5    1    3    3    0  502 -0.39664313821E+03  0.70081723749E+03 -0.15087679690E+04  0.17102261411E+04  0.46999998093E+01 0. -1.
</event>
<event>
 5   0  0.8858590E-05  0.2099769E+04  0.7818609E-02  0.8561345E-01
        2   -1    0    0  501    0  0.00000000000E+00  0.00000000000E+00  0.11129927821E+04  0.11129927821E+04  0.25500000920E-02 0.  1.
       -2   -1    0    0    0  501  0.00000000000E+00  0.00000000000E+00 -0.99035449619E+03  0.99035449620E+03  0.25500000920E-02 0. -1.
    10030    2    1    2    0    0  0.00000000000E+00  0.00000000000E+00  0.12263828594E+03  0.21033472783E+04  0.20997689454E+04 0.  0.
        1    1    3    3  502    0  0.48576276987E+03 -0.88364789188E+03 -0.23151162280E+03  0.10345997762E+04  0.50400001928E-02 0. -1.
       -1    1    3    3    0  502 -0.48576276987E+03  0.88364789188E+03  0.35414990873E+03  0.10687475021E+04  0.50400001928E-02 0.  1.
</event>
<event>
 5   0  0.4200061E-05  0.2112417E+04  0.7818609E-02  0.8555793E-01
       -1   -1    0    0    0  501  0.00000000000E+00  0.00000000000E+00  0.75404862262E+03  0.75404862264E+03  0.50400001928E-02 0. -1.
        1   -1    0    0  501    0  0.00000000000E+00  0.00000000000E+00 -0.14794491693E+04  0.14794491693E+04  0.50400001928E-02 0.  1.
    10030    2    1    2    0    0  0.00000000000E+00  0.00000000000E+00 -0.72540054664E+03  0.22334977919E+04  0.21124172016E+04 0.  0.
        4    1    3    3  502    0  0.49115233393E+01 -0.61546753624E+03  0.54484035535E+03  0.82199576456E+03  0.12699999809E+01 0. -1.
       -4    1    3    3    0  502 -0.49115233393E+01  0.61546753624E+03 -0.12702409020E+04  0.14115020274E+04  0.12699999809E+01 0.  1.
</event>
<event>
 5   0  0.4174093E-05  0.2096621E+04  0.7818609E-02  0.8562733E-01
        1   -1    0    0  501    0  0.00000000000E+00  0.00000000000E+00  0.12079963830E+04  0.12079963830E+04  0.50400001928E-02 0.  1.
       -1   -1    0    0    0  501  0.00000000000E+00  0.00000000000E+00 -0.90973396958E+03  0.90973396960E+03  0.50400001928E-02 0. -1.
    10030    2    1    2    0    0  0.00000000000E+00  0.00000000000E+00  0.29826241338E+03  0.21177303526E+04  0.20966214200E+04 0.  0.
        3    1    3    3  502    0  0.12655209584E+02  0.65370153007E+03  0.97681372945E+03  0.11754364794E+04  0.10100000352E+00 0.  1.
       -3    1    3    3    0  502 -0.12655209584E+02 -0.65370153007E+03 -0.67855131607E+03  0.94229387321E+03  0.10100000352E+00 0. -1.
</event>
<event>
 5   0  0.4182977E-05  0.2104055E+04  0.7818609E-02  0.8559459E-01
        1   -1    0    0  501    0  0.00000000000E+00  0.00000000000E+00  0.14336723547E+04  0.14336723547E+04  0.50400001928E-02 0. -1.
       -1   -1    0    0    0  501  0.00000000000E+00  0.00000000000E+00 -0.77197679240E+03  0.77197679241E+03  0.50400001928E-02 0.  1.
    10030    2    1    2    0    0  0.00000000000E+00  0.00000000000E+00  0.66169556233E+03  0.22056491472E+04  0.21040549287E+04 0.  0.
        1    1    3    3  502    0 -0.84847481628E+03 -0.60876066517E+03  0.19716483492E+03  0.10627196401E+04  0.50400001928E-02 0. -1.
       -1    1    3    3    0  502  0.84847481628E+03  0.60876066517E+03  0.46453072742E+03  0.11429295070E+04  0.50400001928E-02 0.  1.
</event>
<event>
 5   0  0.9012466E-05  0.2101350E+04  0.7818609E-02  0.8560649E-01
       -2   -1    0    0    0  501  0.00000000000E+00  0.00000000000E+00  0.11972307239E+04  0.11972307239E+04  0.25500000920E-02 0. -1.
        2   -1    0    0  501    0  0.00000000000E+00  0.00000000000E+00 -0.92205945246E+03  0.92205945246E+03  0.25500000920E-02 0.  1.
    10030    2    1    2    0    0  0.00000000000E+00  0.00000000000E+00  0.27517127142E+03  0.21192901763E+04  0.21013499525E+04 0.  0.
        2    1    3    3  502    0  0.61213831653E+03  0.77785114303E+03 -0.21777492516E+03  0.10135046311E+04  0.25500000920E-02 0.  1.
       -2    1    3    3    0  502 -0.61213831653E+03 -0.77785114303E+03  0.49294619658E+03  0.11057855452E+04  0.25500000920E-02 0. -1.
</event>
<event>
 5   0  0.4182977E-05  0.2241832E+04  0.7818609E-02  0.8501215E-01
        1   -1    0    0  501    0  0.00000000000E+00  0.00000000000E+00  0.15325646245E+04  0.15325646245E+04  0.50400001928E-02 0. -1.
       -1   -1    0    0    0  501  0.00000000000E+00  0.00000000000E+00 -0.81983703214E+03  0.81983703216E+03  0.50400001928E-02 0.  1.
    10030    2    1    2    0    0  0.00000000000E+00  0.00000000000E+00  0.71272759236E+03  0.23524016567E+04  0.22418324945E+04 0.  0.
        1    1    3    3  502    0  0.93625750490E+03 -0.37042257278E+03 -0.16053963356E+03  0.10195900999E+04  0.50400001928E-02 0.  1.
       -1    1    3    3    0  502 -0.93625750490E+03  0.37042257278E+03  0.87326722592E+03  0.13328115567E+04  0.50400001928E-02 0. -1.
</event>
<event>
 5   0  0.3176125E-05  0.2092559E+04  0.7818609E-02  0.8564528E-01
       -4   -1    0    0    0  501  0.00000000000E+00  0.00000000000E+00  0.68636110841E+03  0.68636228337E+03  0.12699999809E+01 0. -1.
        4   -1    0    0  501    0  0.00000000000E+00  0.00000000000E+00 -0.15949309353E+04  0.15949314409E+04  0.12699999809E+01 0.  1.
    10030    2    1    2    0    0  0.00000000000E+00  0.00000000000E+00 -0.90856982690E+03  0.22812937243E+04  0.20925587032E+04 0.  0.
        1    1    3    3  502    0  0.18934873755E+03 -0.10118760460E+04 -0.65810853356E+03  0.12218236038E+04  0.50400001928E-02 0. -1.
       -1    1    3    3    0  502 -0.18934873755E+03  0.10118760460E+04 -0.25046129334E+03  0.10594701205E+04  0.50400001928E-02 0.  1.
</event>
<event>
 5   0  0.4200061E-05  0.2082420E+04  0.7818609E-02  0.8569027E-01
        1   -1    0    0  501    0  0.00000000000E+00  0.00000000000E+00  0.87510542898E+03  0.87510542900E+03  0.50400001928E-02 0. -1.
       -1   -1    0    0    0  501  0.00000000000E+00  0.00000000000E+00 -0.12388430572E+04  0.12388430572E+04  0.50400001928E-02 0.  1.
    10030    2    1    2    0    0  0.00000000000E+00  0.00000000000E+00 -0.36373762824E+03  0.21139484862E+04  0.20824200201E+04 0.  0.
        4    1    3    3  502    0  0.96975472915E+03 -0.35480601690E+03 -0.46412698455E+02  0.10336669172E+04  0.12699999809E+01 0. -1.
       -4    1    3    3    0  502 -0.96975472915E+03  0.35480601690E+03 -0.31732492979E+03  0.10802815690E+04  0.12699999809E+01 0.  1.
</event>
<event>
 5   0  0.8858590E-05  0.2100293E+04  0.7818609E-02  0.8561114E-01
       -2   -1    0    0    0  501  0.00000000000E+00  0.00000000000E+00  0.10687356042E+04  0.10687356042E+04  0.25500000920E-02 0. -1.
        2   -1    0    0  501    0  0.00000000000E+00  0.00000000000E+00 -0.10318807079E+04  0.10318807080E+04  0.25500000920E-02 0.  1.
    10030    2    1    2    0    0  0.00000000000E+00  0.00000000000E+00  0.36854896293E+02  0.21006163122E+04  0.21002929814E+04 0.  0.
        1    1    3    3  502    0 -0.46444494332E+03 -0.30374552401E+03 -0.87324622834E+03  0.10346639184E+04  0.50400001928E-02 0.  1.
       -1    1    3    3    0  502  0.46444494332E+03  0.30374552401E+03  0.91010112463E+03  0.10659523938E+04  0.50400001928E-02 0. -1.
</event>
<event>
 5   0  0.8872777E-05  0.2149002E+04  0.7818609E-02  0.8539960E-01
        2   -1    0    0  501    0  0.00000000000E+00  0.00000000000E+00  0.13550906357E+04  0.13550906357E+04  0.25500000920E-02 0. -1.
       -2   -1    0    0    0  501  0.00000000000E+00  0.00000000000E+00 -0.85201086018E+03  0.85201086018E+03  0.25500000920E-02 0.  1.
    10030    2    1    2    0    0  0.00000000000E+00  0.00000000000E+00  0.50307977554E+03  0.22071014959E+04  0.21490015711E+04 0.  0.
        3    1    3    3  502    0 -0.79917511088E+03 -0.67192351611E+03 -0.90720514569E+01  0.10441476819E+04  0.10100000352E+00 0.  1.
       -3    1    3    3    0  502  0.79917511088E+03  0.67192351611E+03  0.51215182700E+03  0.11629538140E+04  0.10100000352E+00 0. -1.
</event>
<event>
 5   0  0.4050368E-05  0.2155575E+04  0.7818609E-02  0.8537150E-01
        1   -1    0    0  501    0  0.00000000000E+00  0.00000000000E+00  0.13592414382E+04  0.13592414382E+04  0.50400001928E-02 0.  1.
       -1   -1    0    0    0  501  0.00000000000E+00  0.00000000000E+00 -0.85461363819E+03  0.85461363820E+03  0.50400001928E-02 0. -1.
    10030    2    1    2    0    0  0.00000000000E+00  0.00000000000E+00  0.50462779997E+03  0.22138550764E+04  0.21555753484E+04 0.  0.
        2    1    3    3  502    0  0.45412525701E+03 -0.88874617645E+03 -0.16553578641E+03  0.10116825647E+04  0.25500000920E-02 0. -1.
       -2    1    3    3    0  502 -0.45412525701E+03  0.88874617645E+03  0.67016358637E+03  0.12021725116E+04  0.25500000920E-02 0.  1.
</event>
<event>
 5   0  0.3176125E-05  0.2094876E+04  0.7818609E-02  0.8563504E-01
        3   -1    0    0  501    0  0.00000000000E+00  0.00000000000E+00  0.82406200646E+03  0.82406201265E+03  0.10100000352E+00 0.  1.
       -3   -1    0    0    0  501  0.00000000000E+00  0.00000000000E+00 -0.13313639680E+04  0.13313639719E+04  0.10100000352E+00 0. -1.
    10030    2    1    2    0    0  0.00000000000E+00  0.00000000000E+00 -0.50730196158E+03  0.21554259845E+04  0.20948761048E+04 0.  0.
        5    1    3    3  502    0 -0.40122585593E+01  0.32394259593E+03  0.77120614637E+03  0.83650219000E+03  0.46999998093E+01 0.  1.
       -5    1    3    3    0  502  0.40122585593E+01 -0.32394259593E+03 -0.12785081080E+04  0.13189237945E+04  0.46999998093E+01 0. -1.
</event>
<event>
 5   0  0.4128678E-05  0.2110224E+04  0.7818609E-02  0.8556753E-01
       -1   -1    0    0    0  501  0.00000000000E+00  0.00000000000E+00  0.15544090982E+04  0.15544090982E+04  0.50400001928E-02 0. -1.
        1   -1    0    0  501    0  0.00000000000E+00  0.00000000000E+00 -0.71619551249E+03  0.71619551251E+03  0.50400001928E-02 0.  1.
    10030    2    1    2    0    0  0.00000000000E+00  0.00000000000E+00  0.83821358571E+03  0.22706046107E+04  0.21102235149E+04 0.  0.
        5    1    3    3  502    0  0.10403080441E+04 -0.14240729406E+03  0.53050322559E+03  0.11764252745E+04  0.46999998093E+01 0.  1.
       -5    1    3    3    0  502 -0.10403080441E+04  0.14240729406E+03  0.30771036013E+03  0.10941793362E+04  0.46999998093E+01 0. -1.
</event>
<event>
 5   0  0.9086985E-05  0.2207864E+04  0.7818609E-02  0.8515162E-01
        2   -1    0    0  501    0  0.00000000000E+00  0.00000000000E+00  0.14607234660E+04  0.14607234660E+04  0.25500000920E-02 0. -1.
       -2   -1    0    0    0  501  0.00000000000E+00  0.00000000000E+00 -0.83428949753E+03  0.83428949754E+03  0.25500000920E-02 0.  1.
    10030    2    1    2    0    0  0.00000000000E+00  0.00000000000E+00  0.62643396849E+03  0.22950129636E+04  0.22078643496E+04 0.  0.
        5    1    3    3  502    0  0.10806639621E+04  0.51819161778E+02  0.85185342878E+02  0.10852642338E+04  0.46999998093E+01 0.  1.
       -5    1    3    3    0  502 -0.10806639621E+04 -0.51819161778E+02  0.54124862561E+03  0.12097487298E+04  0.46999998093E+01 0. -1.
</event>
<event>
 5   0  0.8858590E-05  0.2141467E+04  0.7818609E-02  0.8543193E-01
       -2   -1    0    0    0  501  0.00000000000E+00  0.00000000000E+00  0.17284457780E+04  0.17284457780E+04  0.25500000920E-02 0. -1.
        2   -1    0    0  501    0  0.00000000000E+00  0.00000000000E+00 -0.66329572413E+03  0.66329572414E+03  0.25500000920E-02 0.  1.
    10030    2    1    2    0    0  0.00000000000E+00  0.00000000000E+00  0.10651500539E+04  0.23917415022E+04  0.21414674352E+04 0.  0.
        1    1    3    3  502    0  0.10162631431E+04  0.22007905044E+02  0.90834102587E+03  0.13632162496E+04  0.50400001928E-02 0. -1.
       -1    1    3    3    0  502 -0.10162631431E+04 -0.22007905044E+02  0.15680902802E+03  0.10285252526E+04  0.50400001928E-02 0.  1.
</event>
<event>
 5   0  0.4128678E-05  0.2090481E+04  0.7818609E-02  0.8565448E-01
       -1   -1    0    0    0  501  0.00000000000E+00  0.00000000000E+00  0.10763796075E+04  0.10763796075E+04  0.50400001928E-02 0.  1.
        1   -1    0    0  501    0  0.00000000000E+00  0.00000000000E+00 -0.10150018433E+04  0.10150018433E+04  0.50400001928E-02 0. -1.
    10030    2    1    2    0    0  0.00000000000E+00  0.00000000000E+00  0.61377764209E+02  0.20913814509E+04  0.20904806010E+04 0.  0.
        5    1    3    3  502    0  0.72234171172E+03 -0.69020206026E+03 -0.27660592128E+03  0.10366722520E+04  0.46999998093E+01 0.  1.
       -5    1    3    3    0  502 -0.72234171172E+03  0.69020206026E+03  0.33798368549E+03  0.10547091988E+04  0.46999998093E+01 0. -1.
</event>
<event>
 5   0  0.4200061E-05  0.2110209E+04  0.7818609E-02  0.8556760E-01
       -1   -1    0    0    0  501  0.00000000000E+00  0.00000000000E+00  0.18676981816E+04  0.18676981816E+04  0.50400001928E-02 0. -1.
        1   -1    0    0  501    0  0.00000000000E+00  0.00000000000E+00 -0.59605207856E+03  0.59605207858E+03  0.50400001928E-02 0.  1.
    10030    2    1    2    0    0  0.00000000000E+00  0.00000000000E+00  0.12716461031E+04  0.24637502602E+04  0.21102088838E+04 0.  0.
        4    1    3    3  502    0 -0.58944959173E+03 -0.54959549136E+03 -0.15925077898E+03  0.82150377285E+03  0.12699999809E+01 0.  1.
       -4    1    3    3    0  502  0.58944959173E+03  0.54959549136E+03  0.14308968820E+04  0.16422464873E+04  0.12699999809E+01 0. -1.
</event>
<event>
 5   0  0.8547605E-05  0.2096234E+04  0.7818609E-02  0.8562904E-01
        2   -1    0    0  501    0  0.00000000000E+00  0.00000000000E+00  0.93328064531E+03  0.93328064531E+03  0.25500000920E-02 0. -1.
       -2   -1    0    0    0  501  0.00000000000E+00  0.00000000000E+00 -0.11770834535E+04  0.11770834535E+04  0.25500000920E-02 0.  1.
    10030    2    1    2    0    0  0.00000000000E+00  0.00000000000E+00 -0.24380280818E+03  0.21103640988E+04  0.20962339612E+04 0.  0.
        4    1    3    3  502    0 -0.88259547941E+00 -0.78492378124E+03  0.57736063742E+03  0.97439880945E+03  0.12699999809E+01 0. -1.
       -4    1    3    3    0  502  0.88259547941E+00  0.78492378124E+03 -0.82116344560E+03  0.11359652894E+04  0.12699999809E+01 0.  1.
</event>
<event>
 5   0  0.8858590E-05  0.2106249E+04  0.7818609E-02  0.8558496E-01
        2   -1    0    0  501    0  0.00000000000E+00  0.00000000000E+00  0.42959285348E+03  0.42959285349E+03  0.25500000920E-02 0. -1.
       -2   -1    0    0    0  501  0.00000000000E+00  0.00000000000E+00 -0.25816790504E+04  0.25816790504E+04  0.25500000920E-02 0.  1.
    10030    2    1    2    0    0  0.00000000000E+00  0.00000000000E+00 -0.21520861970E+04  0.30112719039E+04  0.21062486748E+04 0.  0.
        1    1    3    3  502    0  0.47836069105E+03  0.36338662544E+03  0.16060712509E+03  0.62183071567E+03  0.50400001928E-02 0. -1.
       -1    1    3    3    0  502 -0.47836069105E+03 -0.36338662544E+03 -0.23126933221E+04  0.23894411883E+04  0.50400001928E-02 0.  1.
</event>
<event>
 5   0  0.9086985E-05  0.2114055E+04  0.7818609E-02  0.8555077E-01
       -2   -1    0    0    0  501  0.00000000000E+00  0.00000000000E+00  0.69768449665E+03  0.69768449666E+03  0.25500000920E-02 0.  1.
        2   -1    0    0  501    0  0.00000000000E+00  0.00000000000E+00 -0.16014502469E+04  0.16014502470E+04  0.25500000920E-02 0. -1.
    10030    2    1    2    0    0  0.00000000000E+00  0.00000000000E+00 -0.90376575030E+03  0.22991347436E+04  0.21140548805E+04 0.  0.
        5    1    3    3  502    0  0.70087765802E+03  0.53543374477E+02  0.40665190679E+03  0.81208635486E+03  0.46999998093E+01 0.  1.
       -5    1    3    3    0  502 -0.70087765802E+03 -0.53543374477E+02 -0.13104176571E+04  0.14870483887E+04  0.46999998093E+01 0. -1.
</event>
<event>
 5   0  0.9086985E-05  0.2077017E+04  0.7818609E-02  0.8571436E-01
        2   -1    0    0  501    0  0.00000000000E+00  0.00000000000E+00  0.11346553107E+04  0.11346553107E+04  0.25500000920E-02 0.  1.
       -2   -1    0    0    0  501  0.00000000000E+00  0.00000000000E+00 -0.95050851781E+03  0.95050851781E+03  0.25500000920E-02 0. -1.
    10030    2    1    2    0    0  0.00000000000E+00  0.00000000000E+00  0.18414679284E+03  0.20851638285E+04  0.20770166466E+04 0.  0.
        5    1    3    3  502    0  0.24654404793E+03  0.72064048563E+03  0.80079633071E+03  0.11051712674E+04  0.46999998093E+01 0.  1.
       -5    1    3    3    0  502 -0.24654404793E+03 -0.72064048563E+03 -0.61664953787E+03  0.97999256102E+03  0.46999998093E+01 0. -1.
</event>
<event>
 5   0  0.9086985E-05  0.2097814E+04  0.7818609E-02  0.8562207E-01
       -2   -1    0    0    0  501  0.00000000000E+00  0.00000000000E+00  0.11230817400E+04  0.11230817400E+04  0.25500000920E-02 0.  1.
        2   -1    0    0  501    0  0.00000000000E+00  0.00000000000E+00 -0.97963109634E+03  0.97963109635E+03  0.25500000920E-02 0. -1.
    10030    2    1    2    0    0  0.00000000000E+00  0.00000000000E+00  0.14345064362E+03  0.21027128363E+04  0.20978139062E+04 0.  0.
        5    1    3    3  502    0 -0.86259425787E+02  0.64008067854E+03  0.90011750630E+03  0.11078707410E+04  0.46999998093E+01 0.  1.
       -5    1    3    3    0  502  0.86259425787E+02 -0.64008067854E+03 -0.75666686268E+03  0.99484209533E+03  0.46999998093E+01 0. -1.
</event>
<event>
 5   0  0.4128678E-05  0.2108715E+04  0.7818609E-02  0.8557414E-01
       -1   -1    0    0    0  501  0.00000000000E+00  0.00000000000E+00  0.57834564833E+03  0.57834564835E+03  0.50400001928E-02 0. -1.
        1   -1    0    0  501    0  0.00000000000E+00  0.00000000000E+00 -0.19221548207E+04  0.19221548207E+04  0.50400001928E-02 0.  1.
    10030    2    1    2    0    0  0.00000000000E+00  0.00000000000E+00 -0.13438091723E+04  0.25005004690E+04  0.21087151311E+04 0.  0.
        5    1    3    3  502    0  0.43449482595E+03  0.75565103207E+03 -0.13752845525E+04  0.16282579422E+04  0.46999998093E+01 0.  1.
       -5    1    3    3    0  502 -0.43449482595E+03 -0.75565103207E+03  0.31475380151E+02  0.87224252682E+03  0.46999998093E+01 0. -1.
</event>
<event>
 5   0  0.8858590E-05  0.2091521E+04  0.7818609E-02  0.8564987E-01
       -2   -1    0    0    0  501  0.00000000000E+00  0.00000000000E+00  0.14418918820E+04  0.14418918820E+04  0.25500000920E-02 0.  1.
        2   -1    0    0  501    0  0.00000000000E+00  0.00000000000E+00 -0.75845868875E+03  0.75845868876E+03  0.25500000920E-02 0. -1.
    10030    2    1    2    0    0  0.00000000000E+00  0.00000000000E+00  0.68343319324E+03  0.22003505708E+04  0.20915213852E+04 0.  0.
        1    1    3    3  502    0 -0.27893354403E+02  0.34089647350E+03  0.13813828083E+04  0.14230976453E+04  0.50400001928E-02 0.  1.
       -1    1    3    3    0  502  0.27893354403E+02 -0.34089647350E+03 -0.69794961510E+03  0.77725292545E+03  0.50400001928E-02 0. -1.
</event>
<event>
 5   0  0.4050368E-05  0.2100004E+04  0.7818609E-02  0.8561242E-01
        1   -1    0    0  501    0  0.00000000000E+00  0.00000000000E+00  0.11485522903E+04  0.11485522904E+04  0.50400001928E-02 0.  1.
       -1   -1    0    0    0  501  0.00000000000E+00  0.00000000000E+00 -0.95990760995E+03  0.95990760997E+03  0.50400001928E-02 0. -1.
    10030    2    1    2    0    0  0.00000000000E+00  0.00000000000E+00  0.18864468039E+03  0.21084599003E+04  0.21000038895E+04 0.  0.
        2    1    3    3  502    0  0.14769601644E+03  0.30242546272E+03 -0.90428240362E+03  0.96488441757E+03  0.25500000920E-02 0. -1.
       -2    1    3    3    0  502 -0.14769601644E+03 -0.30242546272E+03  0.10929270840E+04  0.11435754827E+04  0.25500000920E-02 0.  1.
</event>
<event>
 5   0  0.4050368E-05  0.2108668E+04  0.7818609E-02  0.8557435E-01
        1   -1    0    0  501    0  0.00000000000E+00  0.00000000000E+00  0.16892538963E+04  0.16892538963E+04  0.50400001928E-02 0. -1.
       -1   -1    0    0    0  501  0.00000000000E+00  0.00000000000E+00 -0.65805384467E+03  0.65805384469E+03  0.50400001928E-02 0.  1.
    10030    2    1    2    0    0  0.00000000000E+00  0.00000000000E+00  0.10312000516E+04  0.23473077410E+04  0.21086678459E+04 0.  0.
        2    1    3    3  502    0  0.47336758550E+03  0.86648680054E+03  0.10396185743E+03  0.99281635478E+03  0.25500000920E-02 0.  1.
       -2    1    3    3    0  502 -0.47336758550E+03 -0.86648680054E+03  0.92723819419E+03  0.13544913862E+04  0.25500000920E-02 0. -1.
</event>
<event>
 5   0  0.4174093E-05  0.2115561E+04  0.7818609E-02  0.8554419E-01
        1   -1    0    0  501    0  0.00000000000E+00  0.00000000000E+00  0.14044648158E+04  0.14044648159E+04  0.50400001928E-02 0.  1.
       -1   -1    0    0    0  501  0.00000000000E+00  0.00000000000E+00 -0.79667332843E+03  0.79667332844E+03  0.50400001928E-02 0. -1.
    10030    2    1    2    0    0  0.00000000000E+00  0.00000000000E+00  0.60779148742E+03  0.22011381443E+04  0.21155610693E+04 0.  0.
        3    1    3    3  502    0 -0.98321737048E+03  0.37906099816E+03  0.39979809969E+03  0.11270502068E+04  0.10100000352E+00 0. -1.
       -3    1    3    3    0  502  0.98321737048E+03 -0.37906099816E+03  0.20799338773E+03  0.10740879375E+04  0.10100000352E+00 0.  1.
</event>
<event>
 5   0  0.8858590E-05  0.2160631E+04  0.7818609E-02  0.8534995E-01
        2   -1    0    0  501    0  0.00000000000E+00  0.00000000000E+00  0.12288664619E+04  0.12288664619E+04  0.25500000920E-02 0.  1.
       -2   -1    0    0    0  501  0.00000000000E+00  0.00000000000E+00 -0.94972243301E+03  0.94972243302E+03  0.25500000920E-02 0. -1.
    10030    2    1    2    0    0  0.00000000000E+00  0.00000000000E+00  0.27914402892E+03  0.21785888950E+04  0.21606314319E+04 0.  0.
        1    1    3    3  502    0  0.10643088235E+04 -0.17425239744E+03  0.76081416361E+02  0.10811593554E+04  0.50400001928E-02 0.  1.
       -1    1    3    3    0  502 -0.10643088235E+04  0.17425239744E+03  0.20306261256E+03  0.10974295396E+04  0.50400001928E-02 0. -1.
</event>
<event>
 5   0  0.4200061E-05  0.2199643E+04  0.7818609E-02  0.8518577E-01
        1   -1    0    0  501    0  0.00000000000E+00  0.00000000000E+00  0.32255988116E+04  0.32255988116E+04  0.50400001928E-02 0.  1.
       -1   -1    0    0    0  501  0.00000000000E+00  0.00000000000E+00 -0.37500245897E+03  0.37500245900E+03  0.50400001928E-02 0. -1.
    10030    2    1    2    0    0  0.00000000000E+00  0.00000000000E+00  0.28505963526E+04  0.36006012706E+04  0.21996431402E+04 0.  0.
        4    1    3    3  502    0  0.17153947169E+03 -0.28543339018E+03  0.31410873295E+04  0.31586910635E+04  0.12699999809E+01 0.  1.
       -4    1    3    3    0  502 -0.17153947169E+03  0.28543339018E+03 -0.29049097685E+03  0.44191020706E+03  0.12699999809E+01 0. -1.
</event>
<event>
 5   0  0.4200061E-05  0.2076287E+04  0.7818609E-02  0.8571762E-01
       -1   -1    0    0    0  501  0.00000000000E+00  0.00000000000E+00  0.15186445691E+04  0.15186445691E+04  0.50400001928E-02 0.  1.
        1   -1    0    0  501    0  0.00000000000E+00  0.00000000000E+00 -0.70967381353E+03  0.70967381355E+03  0.50400001928E-02 0. -1.
    10030    2    1    2    0    0  0.00000000000E+00  0.00000000000E+00  0.80897075555E+03  0.22283183826E+04  0.20762873431E+04 0.  0.
        4    1    3    3  502    0  0.15455954951E+03 -0.90744361537E+03 -0.11065931935E+03  0.92714058658E+03  0.12699999809E+01 0. -1.
       -4    1    3    3    0  502 -0.15455954951E+03  0.90744361537E+03  0.91963007490E+03  0.13011777961E+04  0.12699999809E+01 0.  1.
</event>
<event>
 5   0  0.4128678E-05  0.2130925E+04  0.7818609E-02  0.8547742E-01
        1   -1    0    0  501    0  0.00000000000E+00  0.00000000000E+00  0.93149078360E+03  0.93149078361E+03  0.50400001928E-02 0. -1.
       -1   -1    0    0    0  501  0.00000000000E+00  0.00000000000E+00 -0.12187023183E+04  0.12187023183E+04  0.50400001928E-02 0.  1.
    10030    2    1    2    0    0  0.00000000000E+00  0.00000000000E+00 -0.28721153469E+03  0.21501931019E+04  0.21309246608E+04 0.  0.
        5    1    3    3  502    0  0.99985562743E+03  0.20374598202E+03  0.16570180193E+03  0.10337808656E+04  0.46999998093E+01 0. -1.
       -5    1    3    3    0  502 -0.99985562743E+03 -0.20374598202E+03 -0.45291333662E+03  0.11164122363E+04  0.46999998093E+01 0.  1.
</event>
<event>
 5   0  0.9012466E-05  0.2104727E+04  0.7818609E-02  0.8559164E-01
        2   -1    0    0  501    0  0.00000000000E+00  0.00000000000E+00  0.11461339301E+04  0.11461339301E+04  0.25500000920E-02 0. -1.
       -2   -1    0    0    0  501  0.00000000000E+00  0.00000000000E+00 -0.96626498608E+03  0.96626498609E+03  0.25500000920E-02 0.  1.
    10030    2    1    2    0    0  0.00000000000E+00  0.00000000000E+00  0.17986894404E+03  0.21123989162E+04  0.21047271425E+04 0.  0.
        2    1    3    3  502    0  0.51160894445E+03  0.15831844481E+03  0.99913972792E+03  0.11336175007E+04  0.25500000920E-02 0. -1.
       -2    1    3    3    0  502 -0.51160894445E+03 -0.15831844481E+03 -0.81927078388E+03  0.97878141550E+03  0.25500000920E-02 0.  1.
</event>
<event>
 5   0  0.8547605E-05  0.2089752E+04  0.7818609E-02  0.8565771E-01
        2   -1    0    0  501    0  0.00000000000E+00  0.00000000000E+00  0.65476633429E+03  0.65476633429E+03  0.25500000920E-02 0. -1.
       -2   -1    0    0    0  501  0.00000000000E+00  0.00000000000E+00 -0.16674121789E+04  0.16674121789E+04  0.25500000920E-02 0.  1.
    10030    2    1    2    0    0  0.00000000000E+00  0.00000000000E+00 -0.10126458446E+04  0.23221785132E+04  0.20897515260E+04 0.  0.
        4    1    3    3  502    0  0.10035588084E+04  0.27100447561E+03 -0.62387133303E+03  0.12123492734E+04  0.12699999809E+01 0.  1.
       -4    1    3    3    0  502 -0.10035588084E+04 -0.27100447561E+03 -0.38877451160E+03  0.11098292398E+04  0.12699999809E+01 0. -1.
</event>
<event>
 5   0  0.9086985E-05  0.2156582E+04  0.7818609E-02  0.8536720E-01
        2   -1    0    0  501    0  0.00000000000E+00  0.00000000000E+00  0.15641396455E+04  0.15641396455E+04  0.25500000920E-02 0. -1.
       -2   -1    0    0    0  501  0.00000000000E+00  0.00000000000E+00 -0.74335505419E+03  0.74335505420E+03  0.25500000920E-02 0.  1.
    10030    2    1    2    0    0  0.00000000000E+00  0.00000000000E+00  0.82078459132E+03  0.23074946997E+04  0.21565816571E+04 0.  0.
        5    1    3    3  502    0 -0.87614690494E+03 -0.57228203802E+03  0.13230322776E+03  0.10548300167E+04  0.46999998093E+01 0. -1.
       -5    1    3    3    0  502  0.87614690494E+03  0.57228203802E+03  0.68848136356E+03  0.12526646830E+04  0.46999998093E+01 0.  1.
</event>
<event>
 5   0  0.8872777E-05  0.2099224E+04  0.7818609E-02  0.8561585E-01
       -2   -1    0    0    0  501  0.00000000000E+00  0.00000000000E+00  0.99845280998E+03  0.99845280998E+03  0.25500000920E-02 0.  1.
        2   -1    0    0  501    0  0.00000000000E+00  0.00000000000E+00 -0.11033927296E+04  0.11033927296E+04  0.25500000920E-02 0. -1.
    10030    2    1    2    0    0  0.00000000000E+00  0.00000000000E+00 -0.10493991959E+03  0.21018455396E+04  0.20992242104E+04 0.  0.
        3    1    3    3  502    0  0.55388798819E+03 -0.34992300374E+02 -0.94446354986E+03  0.10954577910E+04  0.10100000352E+00 0. -1.
       -3    1    3    3    0  502 -0.55388798819E+03  0.34992300374E+02  0.83952363027E+03  0.10063877486E+04  0.10100000352E+00 0.  1.
</event>
<event>
 5   0  0.9086985E-05  0.2075058E+04  0.7818609E-02  0.8572311E-01
       -2   -1    0    0    0  501  0.00000000000E+00  0.00000000000E+00  0.10890083820E+04  0.10890083820E+04  0.25500000920E-02 0. -1.
        2   -1    0    0  501    0  0.00000000000E+00  0.00000000000E+00 -0.98848348404E+03  0.98848348404E+03  0.25500000920E-02 0.  1.
    10030    2    1    2    0    0  0.00000000000E+00  0.00000000000E+00  0.10052489792E+03  0.20774918660E+04  0.20750583602E+04 0.  0.
        5    1    3    3  502    0 -0.78884657757E+03  0.43523846073E+03 -0.46486332217E+03  0.10138202202E+04  0.46999998093E+01 0.  1.
       -5    1    3    3    0  502  0.78884657757E+03 -0.43523846073E+03  0.56538822008E+03  0.10636716458E+04  0.46999998093E+01 0. -1.
</event>
<event>
 5   0  0.9012466E-05  0.2141977E+04  0.7818609E-02  0.8542974E-01
       -2   -1    0    0    0  501  0.00000000000E+00  0.00000000000E+00  0.89995531011E+03  0.89995531011E+03  0.25500000920E-02 0.  1.
        2   -1    0    0  501    0  0.00000000000E+00  0.00000000000E+00 -0.12745263210E+04  0.12745263210E+04  0.25500000920E-02 0. -1.
    10030    2    1    2    0    0  0.00000000000E+00  0.00000000000E+00 -0.37457101094E+03  0.21744816312E+04  0.21419773393E+04 0.  0.
        2    1    3    3  502    0 -0.14093436524E+03  0.11121416373E+03 -0.12591417815E+04  0.12718762170E+04  0.25500000920E-02 0. -1.
       -2    1    3    3    0  502  0.14093436524E+03 -0.11121416373E+03  0.88457077055E+03  0.90260541414E+03  0.25500000920E-02 0.  1.
</event>
<event>
 5   0  0.4182977E-05  0.1898693E+04  0.7818609E-02  0.8655507E-01
       -1   -1    0    0    0  501  0.00000000000E+00  0.00000000000E+00  0.44902339536E+03  0.44902339539E+03  0.50400001928E-02 0. -1.
        1   -1    0    0  501    0  0.00000000000E+00  0.00000000000E+00 -0.20071535111E+04  0.20071535111E+04  0.50400001928E-02 0.  1.
    10030    2    1    2    0    0  0.00000000000E+00  0.00000000000E+00 -0.15581301157E+04  0.24561769065E+04  0.18986931133E+04 0.  0.
        1    1    3    3  502    0 -0.72005860434E+03  0.46975506768E+03 -0.12999030165E+04  0.15584935257E+04  0.50400001928E-02 0.  1.
       -1    1    3    3    0  502  0.72005860434E+03 -0.46975506768E+03 -0.25822709917E+03  0.89768338075E+03  0.50400001928E-02 0. -1.
</event>
<event>
 5   0  0.4200061E-05  0.2105519E+04  0.7818609E-02  0.8558816E-01
        1   -1    0    0  501    0  0.00000000000E+00  0.00000000000E+00  0.14461752492E+04  0.14461752492E+04  0.50400001928E-02 0. -1.
       -1   -1    0    0    0  501  0.00000000000E+00  0.00000000000E+00 -0.76636775042E+03  0.76636775044E+03  0.50400001928E-02 0.  1.
    10030    2    1    2    0    0  0.00000000000E+00  0.00000000000E+00  0.67980749881E+03  0.22125429997E+04  0.21055185323E+04 0.  0.
        4    1    3    3  502    0  0.30787724379E+02 -0.93462997826E+03  0.84803148741E+03  0.12623945884E+04  0.12699999809E+01 0. -1.
       -4    1    3    3    0  502 -0.30787724379E+02  0.93462997826E+03 -0.16822398860E+03  0.95014841129E+03  0.12699999809E+01 0.  1.
</event>
<event>
 5   0  0.8547605E-05  0.2111995E+04  0.7818609E-02  0.8555978E-01
        2   -1    0    0  501    0  0.00000000000E+00  0.00000000000E+00  0.10419394354E+04  0.10419394354E+04  0.25500000920E-02 0. -1.
       -2   -1    0    0    0  501  0.00000000000E+00  0.00000000000E+00 -0.10702448092E+04  0.10702448092E+04  0.25500000920E-02 0.  1.
    10030    2    1    2    0    0  0.00000000000E+00  0.00000000000E+00 -0.28305373775E+02  0.21121842446E+04  0.21119945760E+04 0.  0.
        4    1    3    3  502    0 -0.21715554788E+01 -0.95758063609E+03  0.43104262192E+03  0.10501260615E+04  0.12699999809E+01 0.  1.
       -4    1    3    3    0  502  0.21715554788E+01  0.95758063609E+03 -0.45934799570E+03  0.10620581831E+04  0.12699999809E+01 0. -1.
</event>
<event>
 5   0  0.8547605E-05  0.2100392E+04  0.7818609E-02  0.8561071E-01
        2   -1    0    0  501    0  0.00000000000E+00  0.00000000000E+00  0.11789750264E+04  0.11789750264E+04  0.25500000920E-02 0. -1.
       -2   -1    0    0    0  501  0.00000000000E+00  0.00000000000E+00 -0.93548376150E+03  0.93548376150E+03  0.25500000920E-02 0.  1.
    10030    2    1    2    0    0  0.00000000000E+00  0.00000000000E+00  0.24349126492E+03  0.21144587879E+04  0.21003923371E+04 0.  0.
        4    1    3    3  502    0  0.41523712050E+03  0.23842981385E+03  0.10626922588E+04  0.11655844424E+04  0.12699999809E+01 0. -1.
       -4    1    3    3    0  502 -0.41523712050E+03 -0.23842981385E+03 -0.81920099391E+03  0.94887434557E+03  0.12699999809E+01 0.  1.
</event>
<event>
 5   0  0.4050368E-05  0.2084049E+04  0.7818609E-02  0.8568303E-01
       -1   -1    0    0    0  501  0.00000000000E+00  0.00000000000E+00  0.86521069505E+03  0.86521069507E+03  0.50400001928E-02 0. -1.
        1   -1    0    0  501    0  0.00000000000E+00  0.00000000000E+00 -0.12549720005E+04  0.12549720005E+04  0.50400001928E-02 0.  1.
    10030    2    1    2    0    0  0.00000000000E+00  0.00000000000E+00 -0.38976130542E+03  0.21201826955E+04  0.20840491326E+04 0.  0.
        2    1    3    3  502    0 -0.83641227894E+03  0.40394932040E+03  0.28559453593E+03  0.97176375358E+03  0.25500000920E-02 0. -1.
       -2    1    3    3    0  502  0.83641227894E+03 -0.40394932040E+03 -0.67535584134E+03  0.11484189420E+04  0.25500000920E-02 0.  1.
</event>
<event>
 5   0  0.4050368E-05  0.2104349E+04  0.7818609E-02  0.8559330E-01
       -1   -1    0    0    0  501  0.00000000000E+00  0.00000000000E+00  0.51663550759E+03  0.51663550762E+03  0.50400001928E-02 0.  1.
        1   -1    0    0  501    0  0.00000000000E+00  0.00000000000E+00 -0.21428472205E+04  0.21428472205E+04  0.50400001928E-02 0. -1.
    10030    2    1    2    0    0  0.00000000000E+00  0.00000000000E+00 -0.16262117129E+04  0.26594827281E+04  0.21043487938E+04 0.  0.
        2    1    3    3  502    0 -0.41409105634E+02  0.69323760676E+03 -0.18120524430E+04  0.19405739228E+04  0.25500000920E-02 0. -1.
       -2    1    3    3    0  502  0.41409105634E+02 -0.69323760676E+03  0.18584073011E+03  0.71890880537E+03  0.25500000920E-02 0.  1.
</event>
<event>
 5   0  0.9012466E-05  0.2078105E+04  0.7818609E-02  0.8570950E-01
       -2   -1    0    0    0  501  0.00000000000E+00  0.00000000000E+00  0.60101247720E+03  0.60101247720E+03  0.25500000920E-02 0. -1.
        2   -1    0    0  501    0  0.00000000000E+00  0.00000000000E+00 -0.17963522205E+04  0.17963522205E+04  0.25500000920E-02 0.  1.
    10030    2    1    2    0    0  0.00000000000E+00  0.00000000000E+00 -0.11953397433E+04  0.23973646977E+04  0.20781050002E+04 0.  0.
        2    1    3    3  502    0  0.79935749174E+03  0.37899425981E+03  0.31054408917E+02  0.88519682833E+03  0.25500000920E-02 0. -1.
       -2    1    3    3    0  502 -0.79935749174E+03 -0.37899425981E+03 -0.12263941522E+04  0.15121678694E+04  0.25500000920E-02 0.  1.
</event>
<event>
 5   0  0.8872777E-05  0.2138033E+04  0.7818609E-02  0.8544672E-01
        2   -1    0    0  501    0  0.00000000000E+00  0.00000000000E+00  0.10441807335E+04  0.10441807335E+04  0.25500000920E-02 0.  1.
       -2   -1    0    0    0  501  0.00000000000E+00  0.00000000000E+00 -0.10944427818E+04  0.10944427818E+04  0.25500000920E-02 0. -1.
    10030    2    1    2    0    0  0.00000000000E+00  0.00000000000E+00 -0.50262048258E+02  0.21386235153E+04  0.21380328030E+04 0.  0.
        3    1    3    3  502    0 -0.64155622796E+03  0.85176169317E+03  0.50412559476E+02  0.10675363282E+04  0.10100000352E+00 0.  1.
       -3    1    3    3    0  502  0.64155622796E+03 -0.85176169317E+03 -0.10067460773E+03  0.10710871871E+04  0.10100000352E+00 0. -1.
</event>
<event>
 5   0  0.9012466E-05  0.2102466E+04  0.7818609E-02  0.8560158E-01
       -2   -1    0    0    0  501  0.00000000000E+00  0.00000000000E+00  0.80302156113E+03  0.80302156113E+03  0.25500000920E-02 0.  1.
        2   -1    0    0  501    0  0.00000000000E+00  0.00000000000E+00 -0.13761653696E+04  0.13761653696E+04  0.25500000920E-02 0. -1.
    10030    2    1    2    0    0  0.00000000000E+00  0.00000000000E+00 -0.57314380844E+03  0.21791869307E+04  0.21024656606E+04 0.  0.
        2    1    3    3  502    0 -0.26474685649E+03 -0.88354272871E+03  0.23616479633E+03  0.95210948032E+03  0.25500000920E-02 0.  1.
       -2    1    3    3    0  502  0.26474685649E+03  0.88354272871E+03 -0.80930860477E+03  0.12270774504E+04  0.25500000920E-02 0. -1.
</event>
<event>
 5   0  0.8858590E-05  0.1891258E+04  0.7818609E-02  0.8659220E-01
        2   -1    0    0  501    0  0.00000000000E+00  0.00000000000E+00  0.14395784680E+04  0.14395784680E+04  0.25500000920E-02 0. -1.
       -2   -1    0    0    0  501  0.00000000000E+00  0.00000000000E+00 -0.62116398231E+03  0.62116398232E+03  0.25500000920E-02 0.  1.
    10030    2    1    2    0    0  0.00000000000E+00  0.00000000000E+00  0.81841448573E+03  0.20607424504E+04  0.18912580935E+04 0.  0.
        1    1    3    3  502    0  0.70271248296E+03  0.58343901601E+03  0.67612585057E+03  0.11363767355E+04  0.50400001928E-02 0. -1.
       -1    1    3    3    0  502 -0.70271248296E+03 -0.58343901601E+03  0.14228863515E+03  0.92436571487E+03  0.50400001928E-02 0.  1.
</event>
<event>
 5   0  0.4174093E-05  0.2067130E+04  0.7818609E-02  0.8575863E-01
       -1   -1    0    0    0  501  0.00000000000E+00  0.00000000000E+00  0.69527926910E+03  0.69527926912E+03  0.50400001928E-02 0.  1.
        1   -1    0    0  501    0  0.00000000000E+00  0.00000000000E+00 -0.15364424321E+04  0.15364424321E+04  0.50400001928E-02 0. -1.
    10030    2    1    2    0    0  0.00000000000E+00  0.00000000000E+00 -0.84116316302E+03  0.22317217012E+04  0.20671299633E+04 0.  0.
        3    1    3    3  502    0 -0.14074789260E+03  0.23964019963E+02  0.68458167656E+03  0.69931132238E+03  0.10100000352E+00 0.  1.
       -3    1    3    3    0  502  0.14074789260E+03 -0.23964019963E+02 -0.15257448396E+04  0.15324103789E+04  0.10100000352E+00 0. -1.
</event>
<event>
 5   0  0.9086985E-05  0.2082525E+04  0.7818609E-02  0.8568980E-01
        2   -1    0    0  501    0  0.00000000000E+00  0.00000000000E+00  0.15300782636E+04  0.15300782636E+04  0.25500000920E-02 0. -1.
       -2   -1    0    0    0  501  0.00000000000E+00  0.00000000000E+00 -0.70860940266E+03  0.70860940267E+03  0.25500000920E-02 0.  1.
    10030    2    1    2    0    0  0.00000000000E+00  0.00000000000E+00  0.82146886089E+03  0.22386876662E+04  0.20825252405E+04 0.  0.
        5    1    3    3  502    0 -0.91221426937E+03 -0.50199713834E+03  0.40175624587E+03  0.11160493588E+04  0.46999998093E+01 0. -1.
       -5    1    3    3    0  502  0.91221426937E+03  0.50199713834E+03  0.41971261502E+03  0.11226383074E+04  0.46999998093E+01 0.  1.
</event>
<event>
 5   0  0.8547605E-05  0.2122029E+04  0.7818609E-02  0.8551601E-01
       -2   -1    0    0    0  501  0.00000000000E+00  0.00000000000E+00  0.19764412771E+04  0.19764412771E+04  0.25500000920E-02 0. -1.
        2   -1    0    0  501    0  0.00000000000E+00  0.00000000000E+00 -0.56958541342E+03  0.56958541342E+03  0.25500000920E-02 0.  1.
    10030    2    1    2    0    0  0.00000000000E+00  0.00000000000E+00  0.14068558637E+04  0.25460266905E+04  0.21220293324E+04 0.  0.
        4    1    3    3  502    0 -0.59667314702E+03  0.84200508653E+03  0.40768305406E+03  0.11095938426E+04  0.12699999809E+01 0. -1.
       -4    1    3    3    0  502  0.59667314702E+03 -0.84200508653E+03  0.99917280960E+03  0.14364328479E+04  0.12699999809E+01 0.  1.
</event>
<event>
 5   0  0.9012466E-05  0.2019969E+04  0.7818609E-02  0.8597341E-01
        2   -1    0    0  501    0  0.00000000000E+00  0.00000000000E+00  0.13201765828E+04  0.13201765828E+04  0.25500000920E-02 0. -1.
       -2   -1    0    0    0  501  0.00000000000E+00  0.00000000000E+00 -0.77267609769E+03  0.77267609769E+03  0.25500000920E-02 0.  1.
    10030    2    1    2    0    0  0.00000000000E+00  0.00000000000E+00  0.54750048507E+03  0.20928526805E+04  0.20199691980E+04 0.  0.
        2    1    3    3  502    0  0.43136255515E+03  0.91303683481E+03  0.29338048806E+03  0.10515617084E+04  0.25500000920E-02 0. -1.
       -2    1    3    3    0  502 -0.43136255515E+03 -0.91303683481E+03  0.25411999702E+03  0.10412909721E+04  0.25500000920E-02 0.  1.
</event>
<event>
 5   0  0.4174093E-05  0.2003994E+04  0.7818609E-02  0.8604756E-01
       -1   -1    0    0    0  501  0.00000000000E+00  0.00000000000E+00  0.36840567887E+03  0.36840567891E+03  0.50400001928E-02 0.  1.
        1   -1    0    0  501    0  0.00000000000E+00  0.00000000000E+00 -0.27252501522E+04  0.27252501522E+04  0.50400001928E-02 0. -1.
    10030    2    1    2    0    0  0.00000000000E+00  0.00000000000E+00 -0.23568444733E+04  0.30936558311E+04  0.20039936452E+04 0.  0.
        3    1    3    3  502    0 -0.99399076048E+03 -0.12737536707E+02 -0.98426751855E+03  0.13989147347E+04  0.10100000352E+00 0.  1.
       -3    1    3    3    0  502  0.99399076048E+03  0.12737536707E+02 -0.13725769547E+04  0.16947410963E+04  0.10100000352E+00 0. -1.
</event>
<event>
 5   0  0.4128678E-05  0.2093549E+04  0.7818609E-02  0.8564091E-01
        1   -1    0    0  501    0  0.00000000000E+00  0.00000000000E+00  0.10143851372E+04  0.10143851372E+04  0.50400001928E-02 0. -1.
       -1   -1    0    0    0  501  0.00000000000E+00  0.00000000000E+00 -0.10801975695E+04  0.10801975695E+04  0.50400001928E-02 0.  1.
    10030    2    1    2    0    0  0.00000000000E+00  0.00000000000E+00 -0.65812432273E+02  0.20945827067E+04  0.20935485279E+04 0.  0.
        5    1    3    3  502    0 -0.95063543941E+03  0.43651387313E+03  0.53509992170E+01  0.10460892999E+04  0.46999998093E+01 0.  1.
       -5    1    3    3    0  502  0.95063543941E+03 -0.43651387313E+03 -0.71163431490E+02  0.10484934068E+04  0.46999998093E+01 0. -1.
</event>
<event>
 5   0  0.8858590E-05  0.2093643E+04  0.7818609E-02  0.8564049E-01
       -2   -1    0    0    0  501  0.00000000000E+00  0.00000000000E+00  0.12043462427E+04  0.12043462427E+04  0.25500000920E-02 0.  1.
        2   -1    0    0  501    0  0.00000000000E+00  0.00000000000E+00 -0.90990053444E+03  0.90990053445E+03  0.25500000920E-02 0. -1.
    10030    2    1    2    0    0  0.00000000000E+00  0.00000000000E+00  0.29444570827E+03  0.21142467772E+04  0.20936430354E+04 0.  0.
        1    1    3    3  502    0  0.24399640008E+02  0.89986027994E+03  0.68679506431E+03  0.11322682219E+04  0.50400001928E-02 0.  1.
       -1    1    3    3    0  502 -0.24399640008E+02 -0.89986027994E+03 -0.39234935604E+03  0.98197855530E+03  0.50400001928E-02 0. -1.
</event>
<event>
 5   0  0.9086985E-05  0.2112085E+04  0.7818609E-02  0.8555939E-01
       -2   -1    0    0    0  501  0.00000000000E+00  0.00000000000E+00  0.11028388341E+04  0.11028388341E+04  0.25500000920E-02 0.  1.
        2   -1    0    0  501    0  0.00000000000E+00  0.00000000000E+00 -0.10112316706E+04  0.10112316706E+04  0.25500000920E-02 0. -1.
    10030    2    1    2    0    0  0.00000000000E+00  0.00000000000E+00  0.91607163513E+02  0.21140705047E+04  0.21120848056E+04 0.  0.
        5    1    3    3  502    0  0.60348048364E+03  0.65449146099E+03 -0.52275835990E+03  0.10323982562E+04  0.46999998093E+01 0. -1.
       -5    1    3    3    0  502 -0.60348048364E+03 -0.65449146099E+03  0.61436552341E+03  0.10816722484E+04  0.46999998093E+01 0.  1.
</event>
<event>
 5   0  0.9086985E-05  0.2089313E+04  0.7818609E-02  0.8565966E-01
        2   -1    0    0  501    0  0.00000000000E+00  0.00000000000E+00  0.19934661457E+04  0.19934661457E+04  0.25500000920E-02 0. -1.
       -2   -1    0    0    0  501  0.00000000000E+00  0.00000000000E+00 -0.54744181651E+03  0.54744181652E+03  0.25500000920E-02 0.  1.
    10030    2    1    2    0    0  0.00000000000E+00  0.00000000000E+00  0.14460243292E+04  0.25409079622E+04  0.20893125453E+04 0.  0.
        5    1    3    3  502    0 -0.91878966567E+03 -0.48874735900E+03  0.83338168542E+03  0.13332649978E+04  0.46999998093E+01 0. -1.
       -5    1    3    3    0  502  0.91878966567E+03  0.48874735900E+03  0.61264264379E+03  0.12076429645E+04  0.46999998093E+01 0.  1.
</event>
<event>
 5   0  0.4200061E-05  0.2071678E+04  0.7818609E-02  0.8573823E-01
        1   -1    0    0  501    0  0.00000000000E+00  0.00000000000E+00  0.77977478836E+03  0.77977478838E+03  0.50400001928E-02 0. -1.
       -1   -1    0    0    0  501  0.00000000000E+00  0.00000000000E+00 -0.13759907980E+04  0.13759907980E+04  0.50400001928E-02 0.  1.
    10030    2    1    2    0    0  0.00000000000E+00  0.00000000000E+00 -0.59621600962E+03  0.21557655864E+04  0.20716784821E+04 0.  0.
        4    1    3    3  502    0 -0.84603837415E+03  0.60512276006E+02  0.32059944774E+03  0.90676804359E+03  0.12699999809E+01 0. -1.
       -4    1    3    3    0  502  0.84603837415E+03 -0.60512276006E+02 -0.91681545736E+03  0.12489975428E+04  0.12699999809E+01 0.  1.
</event>
<event>
 5   0  0.4200061E-05  0.2073927E+04  0.7818609E-02  0.8572817E-01
        1   -1    0    0  501    0  0.00000000000E+00  0.00000000000E+00  0.21256614040E+04  0.21256614040E+04  0.50400001928E-02 0.  1.
       -1   -1    0    0    0  501  0.00000000000E+00  0.00000000000E+00 -0.50586274094E+03  0.50586274097E+03  0.50400001928E-02 0. -1.
    10030    2    1    2    0    0  0.00000000000E+00  0.00000000000E+00  0.16197986631E+04  0.26315241450E+04  0.20739266180E+04 0.  0.
        4    1    3    3  502    0 -0.57397472468E+03 -0.55535346913E+03  0.16491016649E+04  0.18323215805E+04  0.12699999809E+01 0.  1.
       -4    1    3    3    0  502  0.57397472468E+03  0.55535346913E+03 -0.29303001852E+02  0.79920256448E+03  0.12699999809E+01 0. -1.
</event>
<event>
 5   0  0.4050368E-05  0.2095381E+04  0.7818609E-02  0.8563281E-01
        1   -1    0    0  501    0  0.00000000000E+00  0.00000000000E+00  0.78740952305E+03  0.78740952306E+03  0.50400001928E-02 0. -1.
       -1   -1    0    0    0  501  0.00000000000E+00  0.00000000000E+00 -0.13940076032E+04  0.13940076032E+04  0.50400001928E-02 0.  1.
    10030    2    1    2    0    0  0.00000000000E+00  0.00000000000E+00 -0.60659808012E+03  0.21814171262E+04  0.20953805019E+04 0.  0.
        2    1    3    3  502    0 -0.60350897423E+02 -0.17631575995E+03  0.77001598604E+03  0.79224623495E+03  0.25500000920E-02 0. -1.
       -2    1    3    3    0  502  0.60350897423E+02  0.17631575995E+03 -0.13766140662E+04  0.13891708913E+04  0.25500000920E-02 0.  1.
</event>
<event>
 5   0  0.8858590E-05  0.2089331E+04  0.7818609E-02  0.8565958E-01
       -2   -1    0    0    0  501  0.00000000000E+00  0.00000000000E+00  0.74911107001E+03  0.74911107001E+03  0.25500000920E-02 0. -1.
        2   -1    0    0  501    0  0.00000000000E+00  0.00000000000E+00 -0.14568284401E+04  0.14568284401E+04  0.25500000920E-02 0.  1.
    10030    2    1    2    0    0  0.00000000000E+00  0.00000000000E+00 -0.70771737008E+03  0.22059395101E+04  0.20893312917E+04 0.  0.
        1    1    3    3  502    0 -0.68529975009E+03  0.70571327424E+03 -0.72513714191E+03  0.12220846319E+04  0.50400001928E-02 0.  1.
       -1    1    3    3    0  502  0.68529975009E+03 -0.70571327424E+03  0.17419771825E+02  0.98385487821E+03  0.50400001928E-02 0. -1.
</event>
<event>
 5   0  0.9086985E-05  0.2096773E+04  0.7818609E-02  0.8562666E-01
        2   -1    0    0  501    0  0.00000000000E+00  0.00000000000E+00  0.10162312064E+04  0.10162312064E+04  0.25500000920E-02 0.  1.
       -2   -1    0    0    0  501  0.00000000000E+00  0.00000000000E+00 -0.10815591019E+04  0.10815591019E+04  0.25500000920E-02 0. -1.
    10030    2    1    2    0    0  0.00000000000E+00  0.00000000000E+00 -0.65327895564E+02  0.20977903083E+04  0.20967728641E+04 0.  0.
        5    1    3    3  502    0  0.82017565326E+03  0.56724313528E+03 -0.35630065720E+03  0.10589736187E+04  0.46999998093E+01 0. -1.
       -5    1    3    3    0  502 -0.82017565326E+03 -0.56724313528E+03  0.29097276164E+03  0.10388166897E+04  0.46999998093E+01 0.  1.
</event>
<event>
 5   0  0.8872777E-05  0.2109796E+04  0.7818609E-02  0.8556940E-01
        2   -1    0    0  501    0  0.00000000000E+00  0.00000000000E+00  0.14797822829E+04  0.14797822829E+04  0.25500000920E-02 0. -1.
       -2   -1    0    0    0  501  0.00000000000E+00  0.00000000000E+00 -0.75200939530E+03  0.75200939530E+03  0.25500000920E-02 0.  1.
    10030    2    1    2    0    0  0.00000000000E+00  0.00000000000E+00  0.72777288758E+03  0.22317916782E+04  0.21097963691E+04 0.  0.
        3    1    3    3  502    0 -0.28305745561E+03  0.20591265019E+03 -0.68878782898E+03  0.77262554076E+03  0.10100000352E+00 0.  1.
       -3    1    3    3    0  502  0.28305745561E+03 -0.20591265019E+03  0.14165607166E+04  0.14591661374E+04  0.10100000352E+00 0. -1.
</event>
<event>
 5   0  0.4200061E-05  0.2085161E+04  0.7818609E-02  0.8567809E-01
        1   -1    0    0  501    0  0.00000000000E+00  0.00000000000E+00  0.79220386749E+03  0.79220386751E+03  0.50400001928E-02 0. -1.
       -1   -1    0    0    0  501  0.00000000000E+00  0.00000000000E+00 -0.13720883342E+04  0.13720883342E+04  0.50400001928E-02 0.  1.
    10030    2    1    2    0    0  0.00000000000E+00  0.00000000000E+00 -0.57988446672E+03  0.21642922017E+04  0.20851606029E+04 0.  0.
        4    1    3    3  502    0 -0.55107168288E+03 -0.79944354921E+03  0.10418099642E+03  0.97654763374E+03  0.12699999809E+01 0. -1.
       -4    1    3    3    0  502  0.55107168288E+03  0.79944354921E+03 -0.68406546314E+03  0.11877445680E+04  0.12699999809E+01 0.  1.
</event>
<event>
 5   0  0.8858590E-05  0.2092597E+04  0.7818609E-02  0.8564511E-01
       -2   -1    0    0    0  501  0.00000000000E+00  0.00000000000E+00  0.47691496790E+03  0.47691496791E+03  0.25500000920E-02 0.  1.
        2   -1    0    0  501    0  0.00000000000E+00  0.00000000000E+00 -0.22954634383E+04  0.22954634383E+04  0.25500000920E-02 0. -1.
    10030    2    1    2    0    0  0.00000000000E+00  0.00000000000E+00 -0.18185484704E+04  0.27723784062E+04  0.20925973067E+04 0.  0.
        1    1    3    3  502    0  0.59676676525E+03  0.78362141904E+03 -0.13768315180E+04  0.16928845588E+04  0.50400001928E-02 0. -1.
       -1    1    3    3    0  502 -0.59676676525E+03 -0.78362141904E+03 -0.44171695239E+03  0.10794938474E+04  0.50400001928E-02 0.  1.
</event>
<event>
 5   0  0.4200061E-05  0.2096868E+04  0.7818609E-02  0.8562624E-01
        1   -1    0    0  501    0  0.00000000000E+00  0.00000000000E+00  0.15110434582E+04  0.15110434582E+04  0.50400001928E-02 0.  1.
       -1   -1    0    0    0  501  0.00000000000E+00  0.00000000000E+00 -0.72745371529E+03  0.72745371531E+03  0.50400001928E-02 0. -1.
    10030    2    1    2    0    0  0.00000000000E+00  0.00000000000E+00  0.78358974287E+03  0.22384971735E+04  0.20968683103E+04 0.  0.
        4    1    3    3  502    0  0.79498970400E+03 -0.33174680187E+03 -0.24618870970E+03  0.89592134906E+03  0.12699999809E+01 0. -1.
       -4    1    3    3    0  502 -0.79498970400E+03  0.33174680187E+03  0.10297784526E+04  0.13425758244E+04  0.12699999809E+01 0.  1.
</event>
<event>
 5   0  0.8872777E-05  0.2067927E+04  0.7818609E-02  0.8575505E-01
        2   -1    0    0  501    0  0.00000000000E+00  0.00000000000E+00  0.17163320669E+04  0.17163320669E+04  0.25500000920E-02 0. -1.
       -2   -1    0    0    0  501  0.00000000000E+00  0.00000000000E+00 -0.62288649259E+03  0.62288649259E+03  0.25500000920E-02 0.  1.
    10030    2    1    2    0    0  0.00000000000E+00  0.00000000000E+00  0.10934455743E+04  0.23392185595E+04  0.20679265570E+04 0.  0.
        3    1    3    3  502    0 -0.10053184914E+04 -0.22270800406E+03  0.65293383131E+03  0.12192566270E+04  0.10100000352E+00 0. -1.
       -3    1    3    3    0  502  0.10053184914E+04  0.22270800406E+03  0.44051174301E+03  0.11199619325E+04  0.10100000352E+00 0.  1.
</event>
<event>
 5   0  0.8547605E-05  0.1724064E+04  0.7818609E-02  0.8747758E-01
       -2   -1    0    0    0  501  0.00000000000E+00  0.00000000000E+00  0.48522967741E+03  0.48522967742E+03  0.25500000920E-02 0. -1.
        2   -1    0    0  501    0  0.00000000000E+00  0.00000000000E+00 -0.15314376370E+04  0.15314376370E+04  0.25500000920E-02 0.  1.
    10030    2    1    2    0    0  0.00000000000E+00  0.00000000000E+00 -0.10462079596E+04  0.20166673144E+04  0.17240637930E+04 0.  0.
        4    1    3    3  502    0  0.29803468018E+03  0.60311243916E+03 -0.11535893224E+04  0.13354172466E+04  0.12699999809E+01 0.  1.
       -4    1    3    3    0  502 -0.29803468018E+03 -0.60311243916E+03  0.10738136285E+03  0.68125006778E+03  0.12699999809E+01 0. -1.
</event>
<event>
 5   0  0.4182977E-05  0.2117623E+04  0.7818609E-02  0.8553520E-01
       -1   -1    0    0    0  501  0.00000000000E+00  0.00000000000E+00  0.87610562682E+03  0.87610562683E+03  0.50400001928E-02 0. -1.
        1   -1    0    0  501    0  0.00000000000E+00  0.00000000000E+00 -0.12796191743E+04  0.12796191743E+04  0.50400001928E-02 0.  1.
    10030    2    1    2    0    0  0.00000000000E+00  0.00000000000E+00 -0.40351354747E+03  0.21557248011E+04  0.21176227792E+04 0.  0.
        1    1    3    3  502    0  0.31309045308E+03 -0.97036504641E+03  0.88768469711E+02  0.10234812145E+04  0.50400001928E-02 0. -1.
       -1    1    3    3    0  502 -0.31309045308E+03  0.97036504641E+03 -0.49228201718E+03  0.11322435867E+04  0.50400001928E-02 0.  1.
</event>
<event>
 5   0  0.8858590E-05  0.1990418E+04  0.7818609E-02  0.8611114E-01
        2   -1    0    0  501    0  0.00000000000E+00  0.00000000000E+00  0.12560031282E+04  0.12560031282E+04  0.25500000920E-02 0.  1.
       -2   -1    0    0    0  501  0.00000000000E+00  0.00000000000E+00 -0.78856543293E+03  0.78856543294E+03  0.25500000920E-02 0. -1.
    10030    2    1    2    0    0  0.00000000000E+00  0.00000000000E+00  0.46743769529E+03  0.20445685612E+04  0.19904176954E+04 0.  0.
        1    1    3    3  502    0 -0.15459275662E+03 -0.60929358929E+02  0.12416528892E+04  0.12527223174E+04  0.50400001928E-02 0.  1.
       -1    1    3    3    0  502  0.15459275662E+03  0.60929358929E+02 -0.77421519395E+03  0.79184624375E+03  0.50400001928E-02 0. -1.
</event>
<event>
 5   0  0.4128678E-05  0.2116908E+04  0.7818609E-02  0.8553832E-01
        1   -1    0    0  501    0  0.00000000000E+00  0.00000000000E+00  0.12100341366E+04  0.12100341366E+04  0.50400001928E-02 0. -1.
       -1   -1    0    0    0  501  0.00000000000E+00  0.00000000000E+00 -0.92586202630E+03  0.92586202631E+03  0.50400001928E-02 0.  1.
    10030    2    1    2    0    0  0.00000000000E+00  0.00000000000E+00  0.28417211027E+03  0.21358961629E+04  0.21169077992E+04 0.  0.
        5    1    3    3  502    0  0.46400753690E+03  0.80509977995E+03 -0.36922769346E+03  0.99991991159E+03  0.46999998093E+01 0.  1.
       -5    1    3    3    0  502 -0.46400753690E+03 -0.80509977995E+03  0.65339980373E+03  0.11359762513E+04  0.46999998093E+01 0. -1.
</event>
<event>
 5   0  0.4128678E-05  0.2116186E+04  0.7818609E-02  0.8554147E-01
       -1   -1    0    0    0  501  0.00000000000E+00  0.00000000000E+00  0.57340255091E+03  0.57340255093E+03  0.50400001928E-02 0.  1.
        1   -1    0    0  501    0  0.00000000000E+00  0.00000000000E+00 -0.19524859459E+04  0.19524859459E+04  0.50400001928E-02 0. -1.
    10030    2    1    2    0    0  0.00000000000E+00  0.00000000000E+00 -0.13790833950E+04  0.25258884969E+04  0.21161856460E+04 0.  0.
        5    1    3    3  502    0  0.87942088979E+03  0.28656020321E+03 -0.13028737596E+04  0.15978109947E+04  0.46999998093E+01 0. -1.
       -5    1    3    3    0  502 -0.87942088979E+03 -0.28656020321E+03 -0.76209635459E+02  0.92807750215E+03  0.46999998093E+01 0.  1.
</event>
<event>
 5   0  0.4200061E-05  0.2111171E+04  0.7818609E-02  0.8556338E-01
       -1   -1    0    0    0  501  0.00000000000E+00  0.00000000000E+00  0.11458038778E+04  0.11458038778E+04  0.50400001928E-02 0.  1.
        1   -1    0    0  501    0  0.00000000000E+00  0.00000000000E+00 -0.97247097258E+03  0.97247097259E+03  0.50400001928E-02 0. -1.
    10030    2    1    2    0    0  0.00000000000E+00  0.00000000000E+00  0.17333290523E+03  0.21182748504E+04  0.21111712498E+04 0.  0.
        4    1    3    3  502    0  0.31023430795E+03 -0.10082050871E+04  0.12599752038E+03  0.10623557839E+04  0.12699999809E+01 0. -1.
       -4    1    3    3    0  502 -0.31023430795E+03  0.10082050871E+04  0.47335384852E+02  0.10559190665E+04  0.12699999809E+01 0.  1.
</event>
<event>
 5   0  0.4174093E-05  0.2098666E+04  0.7818609E-02  0.8561831E-01
       -1   -1    0    0    0  501  0.00000000000E+00  0.00000000000E+00  0.99061678243E+03  0.99061678245E+03  0.50400001928E-02 0.  1.
        1   -1    0    0  501    0  0.00000000000E+00  0.00000000000E+00 -0.11115299410E+04  0.11115299410E+04  0.50400001928E-02 0. -1.
    10030    2    1    2    0    0  0.00000000000E+00  0.00000000000E+00 -0.12091315860E+03  0.21021467235E+04  0.20986664469E+04 0.  0.
        3    1    3    3  502    0  0.99315742277E+03  0.22047663723E+03 -0.31803782322E+03  0.10658891505E+04  0.10100000352E+00 0.  1.
       -3    1    3    3    0  502 -0.99315742277E+03 -0.22047663723E+03  0.19712466462E+03  0.10362575730E+04  0.10100000352E+00 0. -1.
</event>
<event>
 5   0  0.4174093E-05  0.2102717E+04  0.7818609E-02  0.8560047E-01
       -1   -1    0    0    0  501  0.00000000000E+00  0.00000000000E+00  0.17512366141E+04  0.17512366141E+04  0.50400001928E-02 0.  1.
        1   -1    0    0  501    0  0.00000000000E+00  0.00000000000E+00 -0.63118519665E+03  0.63118519668E+03  0.50400001928E-02 0. -1.
    10030    2    1    2    0    0  0.00000000000E+00  0.00000000000E+00  0.11200514175E+04  0.23824218108E+04  0.21027169345E+04 0.  0.
        3    1    3    3  502    0  0.97321501184E+03  0.21295620627E+03  0.94065458423E+03  0.13701565101E+04  0.10100000352E+00 0.  1.
       -3    1    3    3    0  502 -0.97321501184E+03 -0.21295620627E+03  0.17939683323E+03  0.10122653007E+04  0.10100000352E+00 0. -1.
</event>
<event>
 5   0  0.4200061E-05  0.2100105E+04  0.7818609E-02  0.8561197E-01
       -1   -1    0    0    0  501  0.00000000000E+00  0.00000000000E+00  0.46804691703E+03  0.46804691706E+03  0.50400001928E-02 0. -1.
        1   -1    0    0  501    0  0.00000000000E+00  0.00000000000E+00 -0.23557687179E+04  0.23557687179E+04  0.50400001928E-02 0.  1.
    10030    2    1    2    0    0  0.00000000000E+00  0.00000000000E+00 -0.18877218008E+04  0.28238156349E+04  0.21001050314E+04 0.  0.
        4    1    3    3  502    0 -0.95038678599E+03  0.22206675079E+03 -0.14647290201E+04  0.17601083490E+04  0.12699999809E+01 0. -1.
       -4    1    3    3    0  502  0.95038678599E+03 -0.22206675079E+03 -0.42299278071E+03  0.10637072860E+04  0.12699999809E+01 0.  1.
</event>
<event>
 5   0  0.4174093E-05  0.2090912E+04  0.7818609E-02  0.8565257E-01
       -1   -1    0    0    0  501  0.00000000000E+00  0.00000000000E+00  0.82508989655E+03  0.82508989656E+03  0.50400001928E-02 0.  1.
        1   -1    0    0  501    0  0.00000000000E+00  0.00000000000E+00 -0.13246781979E+04  0.13246781980E+04  0.50400001928E-02 0. -1.
    10030    2    1    2    0    0  0.00000000000E+00  0.00000000000E+00 -0.49958830140E+03  0.21497680945E+04  0.20909123342E+04 0.  0.
        3    1    3    3  502    0  0.10721658744E+03 -0.33192625240E+03  0.76349713035E+03  0.83940354533E+03  0.10100000352E+00 0.  1.
       -3    1    3    3    0  502 -0.10721658744E+03  0.33192625240E+03 -0.12630854318E+04  0.13103645492E+04  0.10100000352E+00 0. -1.
</event>
<event>
 5   0  0.4182977E-05  0.2120518E+04  0.7818609E-02  0.8552259E-01
        1   -1    0    0  501    0  0.00000000000E+00  0.00000000000E+00  0.91141966627E+03  0.91141966629E+03  0.50400001928E-02 0. -1.
       -1   -1    0    0    0  501  0.00000000000E+00  0.00000000000E+00 -0.12334040902E+04  0.12334040902E+04  0.50400001928E-02 0.  1.
    10030    2    1    2    0    0  0.00000000000E+00  0.00000000000E+00 -0.32198442395E+03  0.21448237565E+04  0.21205176201E+04 0.  0.
        1    1    3    3  502    0  0.61718323800E+03  0.62449868750E+03  0.44015602888E+03  0.98216652852E+03  0.50400001928E-02 0. -1.
       -1    1    3    3    0  502 -0.61718323800E+03 -0.62449868750E+03 -0.76214045283E+03  0.11626572280E+04  0.50400001928E-02 0.  1.
</event>
<event>
 5   0  0.4128678E-05  0.2072468E+04  0.7818609E-02  0.8573469E-01
        1   -1    0    0  501    0  0.00000000000E+00  0.00000000000E+00  0.27326338184E+04  0.27326338184E+04  0.50400001928E-02 0.  1.
       -1   -1    0    0    0  501  0.00000000000E+00  0.00000000000E+00 -0.39294717718E+03  0.39294717721E+03  0.50400001928E-02 0. -1.
    10030    2    1    2    0    0  0.00000000000E+00  0.00000000000E+00  0.23396866412E+04  0.31255809956E+04  0.20724678480E+04 0.  0.
        5    1    3    3  502    0 -0.13018300581E+03  0.20351126950E+03  0.26895518320E+04  0.27003843428E+04  0.46999998093E+01 0.  1.
       -5    1    3    3    0  502  0.13018300581E+03 -0.20351126950E+03 -0.34986519080E+03  0.42519665279E+03  0.46999998093E+01 0. -1.
</event>
<event>
 5   0  0.8872777E-05  0.2085143E+04  0.7818609E-02  0.8567816E-01
        2   -1    0    0  501    0  0.00000000000E+00  0.00000000000E+00  0.22172704956E+04  0.22172704956E+04  0.25500000920E-02 0. -1.
       -2   -1    0    0    0  501  0.00000000000E+00  0.00000000000E+00 -0.49022233920E+03  0.49022233921E+03  0.25500000920E-02 0.  1.
    10030    2    1    2    0    0  0.00000000000E+00  0.00000000000E+00  0.17270481564E+04  0.27074928348E+04  0.20851431884E+04 0.  0.
        3    1    3    3  502    0 -0.20503473881E+03  0.27816783118E+03  0.21407439208E+04  0.21684559325E+04  0.10100000352E+00 0. -1.
       -3    1    3    3    0  502  0.20503473881E+03 -0.27816783118E+03 -0.41369576439E+03  0.53903690235E+03  0.10100000352E+00 0.  1.
</event>
<event>
 5   0  0.9012466E-05  0.2269142E+04  0.7818609E-02  0.8490188E-01
       -2   -1    0    0    0  501  0.00000000000E+00  0.00000000000E+00  0.91216705932E+03  0.91216705933E+03  0.25500000920E-02 0. -1.
        2   -1    0    0  501    0  0.00000000000E+00  0.00000000000E+00 -0.14112008627E+04  0.14112008627E+04  0.25500000920E-02 0.  1.
    10030    2    1    2    0    0  0.00000000000E+00  0.00000000000E+00 -0.49903380336E+03  0.23233679220E+04  0.22691416360E+04 0.  0.
        2    1    3    3  502    0 -0.53493708801E+03  0.55865473143E+03  0.60037836443E+03  0.97913583202E+03  0.25500000920E-02 0. -1.
       -2    1    3    3    0  502  0.53493708801E+03 -0.55865473143E+03 -0.10994121678E+04  0.13442320900E+04  0.25500000920E-02 0.  1.
</event>
<event>
 5   0  0.4128678E-05  0.2070194E+04  0.7818609E-02  0.8574488E-01
        1   -1    0    0  501    0  0.00000000000E+00  0.00000000000E+00  0.13631764259E+04  0.13631764259E+04  0.50400001928E-02 0. -1.
       -1   -1    0    0    0  501  0.00000000000E+00  0.00000000000E+00 -0.78597725517E+03  0.78597725519E+03  0.50400001928E-02 0.  1.
    10030    2    1    2    0    0  0.00000000000E+00  0.00000000000E+00  0.57719917075E+03  0.21491536811E+04  0.20701938707E+04 0.  0.
        5    1    3    3  502    0 -0.11822419042E+03 -0.41118022887E+03  0.12670759160E+04  0.13373666688E+04  0.46999998093E+01 0. -1.
       -5    1    3    3    0  502  0.11822419042E+03  0.41118022887E+03 -0.68987674524E+03  0.81178701236E+03  0.46999998093E+01 0.  1.
</event>
<event>
 5   0  0.8872777E-05  0.2096104E+04  0.7818609E-02  0.8562962E-01
        2   -1    0    0  501    0  0.00000000000E+00  0.00000000000E+00  0.13104182323E+04  0.13104182323E+04  0.25500000920E-02 0. -1.
       -2   -1    0    0    0  501  0.00000000000E+00  0.00000000000E+00 -0.83821521069E+03  0.83821521069E+03  0.25500000920E-02 0.  1.
    10030    2    1    2    0    0  0.00000000000E+00  0.00000000000E+00  0.47220302160E+03  0.21486334430E+04  0.20961035229E+04 0.  0.
        3    1    3    3  502    0 -0.40249017457E+02 -0.28006922892E+03 -0.79832330827E+03  0.84698221417E+03  0.10100000352E+00 0.  1.
       -3    1    3    3    0  502  0.40249017457E+02  0.28006922892E+03  0.12705263299E+04  0.13016512288E+04  0.10100000352E+00 0. -1.
</event>
<event>
 5   0  0.8858590E-05  0.2130988E+04  0.7818609E-02  0.8547715E-01
       -2   -1    0    0    0  501  0.00000000000E+00  0.00000000000E+00  0.10863047107E+04  0.10863047107E+04  0.25500000920E-02 0. -1.
        2   -1    0    0  501    0  0.00000000000E+00  0.00000000000E+00 -0.10450816259E+04  0.10450816259E+04  0.25500000920E-02 0.  1.
    10030    2    1    2    0    0  0.00000000000E+00  0.00000000000E+00  0.41223084829E+02  0.21313863367E+04  0.21309876521E+04 0.  0.
        1    1    3    3  502    0 -0.11240822829E+03  0.16391782736E+03  0.10675988785E+04  0.10859429218E+04  0.50400001928E-02 0. -1.
       -1    1    3    3    0  502  0.11240822829E+03 -0.16391782736E+03 -0.10263757937E+04  0.10454434149E+04  0.50400001928E-02 0.  1.
</event>
<event>
 5   0  0.8547605E-05  0.2081636E+04  0.7818609E-02  0.8569376E-01
       -2   -1    0    0    0  501  0.00000000000E+00  0.00000000000E+00  0.69614464188E+03  0.69614464188E+03  0.25500000920E-02 0. -1.
        2   -1    0    0  501    0  0.00000000000E+00  0.00000000000E+00 -0.15561453005E+04  0.15561453005E+04  0.25500000920E-02 0.  1.
    10030    2    1    2    0    0  0.00000000000E+00  0.00000000000E+00 -0.86000065863E+03  0.22522899424E+04  0.20816360997E+04 0.  0.
        4    1    3    3  502    0 -0.25044481912E+03 -0.90809247534E+03  0.48946984621E+02  0.94326664915E+03  0.12699999809E+01 0. -1.
       -4    1    3    3    0  502  0.25044481912E+03  0.90809247534E+03 -0.90894764326E+03  0.13090232932E+04  0.12699999809E+01 0.  1.
</event>
<event>
 5   0  0.9012466E-05  0.2068509E+04  0.7818609E-02  0.8575244E-01
        2   -1    0    0  501    0  0.00000000000E+00  0.00000000000E+00  0.17889972875E+04  0.17889972875E+04  0.25500000920E-02 0.  1.
       -2   -1    0    0    0  501  0.00000000000E+00  0.00000000000E+00 -0.59792277975E+03  0.59792277976E+03  0.25500000920E-02 0. -1.
    10030    2    1    2    0    0  0.00000000000E+00  0.00000000000E+00  0.11910745077E+04  0.23869200672E+04  0.20685088650E+04 0.  0.
        2    1    3    3  502    0  0.11189272962E+03 -0.69090735722E+03 -0.28312721963E+03  0.75500594813E+03  0.25500000920E-02 0. -1.
       -2    1    3    3    0  502 -0.11189272962E+03  0.69090735722E+03  0.14742017273E+04  0.16319141191E+04  0.25500000920E-02 0.  1.
</event>
<event>
 5   0  0.4128678E-05  0.2056932E+04  0.7818609E-02  0.8580456E-01
        1   -1    0    0  501    0  0.00000000000E+00  0.00000000000E+00  0.25444305651E+04  0.25444305651E+04  0.50400001928E-02 0. -1.
       -1   -1    0    0    0  501  0.00000000000E+00  0.00000000000E+00 -0.41570873078E+03  0.41570873081E+03  0.50400001928E-02 0.  1.
    10030    2    1    2    0    0  0.00000000000E+00  0.00000000000E+00  0.21287218343E+04  0.29601392959E+04  0.20569316963E+04 0.  0.
        5    1    3    3  502    0  0.23377663062E+03 -0.33941527156E+03 -0.29165850527E+03  0.50491683799E+03  0.46999998093E+01 0.  1.
       -5    1    3    3    0  502 -0.23377663062E+03  0.33941527156E+03  0.24203803396E+04  0.24552224579E+04  0.46999998093E+01 0. -1.
</event>
<event>
 5   0  0.9012466E-05  0.2122802E+04  0.7818609E-02  0.8551265E-01
        2   -1    0    0  501    0  0.00000000000E+00  0.00000000000E+00  0.16379002445E+04  0.16379002445E+04  0.25500000920E-02 0. -1.
       -2   -1    0    0    0  501  0.00000000000E+00  0.00000000000E+00 -0.68781500355E+03  0.68781500355E+03  0.25500000920E-02 0.  1.
    10030    2    1    2    0    0  0.00000000000E+00  0.00000000000E+00  0.95008524095E+03  0.23257152481E+04  0.21228022635E+04 0.  0.
        2    1    3    3  502    0 -0.36275371074E+03  0.61774043828E+03 -0.38300501679E+03  0.81233388864E+03  0.25500000920E-02 0.  1.
       -2    1    3    3    0  502  0.36275371074E+03 -0.61774043828E+03  0.13330902577E+04  0.15133813594E+04  0.25500000920E-02 0. -1.
</event>
<event>
 5   0  0.4128678E-05  0.2116591E+04  0.7818609E-02  0.8553970E-01
        1   -1    0    0  501    0  0.00000000000E+00  0.00000000000E+00  0.13093077463E+04  0.13093077463E+04  0.50400001928E-02 0.  1.
       -1   -1    0    0    0  501  0.00000000000E+00  0.00000000000E+00 -0.85540591182E+03  0.85540591183E+03  0.50400001928E-02 0. -1.
    10030    2    1    2    0    0  0.00000000000E+00  0.00000000000E+00  0.45390183448E+03  0.21647136581E+04  0.21165912091E+04 0.  0.
        5    1    3    3  502    0 -0.65691989608E+03  0.42133236027E+03  0.95797655106E+03  0.12356398626E+04  0.46999998093E+01 0.  1.
       -5    1    3    3    0  502  0.65691989608E+03 -0.42133236027E+03 -0.50407471657E+03  0.92907379554E+03  0.46999998093E+01 0. -1.
</event>
<event>
 5   0  0.4050368E-05  0.2107274E+04  0.7818609E-02  0.8558046E-01
       -1   -1    0    0    0  501  0.00000000000E+00  0.00000000000E+00  0.14408518301E+04  0.14408518301E+04  0.50400001928E-02 0.  1.
        1   -1    0    0  501    0  0.00000000000E+00  0.00000000000E+00 -0.77048244712E+03  0.77048244713E+03  0.50400001928E-02 0. -1.
    10030    2    1    2    0    0  0.00000000000E+00  0.00000000000E+00  0.67036938294E+03  0.22113342772E+04  0.21072741103E+04 0.  0.
        2    1    3    3  502    0 -0.54322342354E+03 -0.75986804893E+03 -0.17639267900E+03  0.95058167291E+03  0.25500000920E-02 0. -1.
       -2    1    3    3    0  502  0.54322342354E+03  0.75986804893E+03  0.84676206194E+03  0.12607526043E+04  0.25500000920E-02 0.  1.
</event>
<event>
 5   0  0.4050368E-05  0.2058585E+04  0.7818609E-02  0.8579710E-01
        1   -1    0    0  501    0  0.00000000000E+00  0.00000000000E+00  0.19932866063E+04  0.19932866063E+04  0.50400001928E-02 0. -1.
       -1   -1    0    0    0  501  0.00000000000E+00  0.00000000000E+00 -0.53150556524E+03  0.53150556526E+03  0.50400001928E-02 0.  1.
    10030    2    1    2    0    0  0.00000000000E+00  0.00000000000E+00  0.14617810411E+04  0.25247921716E+04  0.20585848775E+04 0.  0.
        2    1    3    3  502    0  0.15863591016E+03  0.23019818743E+03 -0.48404922406E+03  0.55898140292E+03  0.25500000920E-02 0.  1.
       -2    1    3    3    0  502 -0.15863591016E+03 -0.23019818743E+03  0.19458302652E+04  0.19658107687E+04  0.25500000920E-02 0. -1.
</event>
<event>
 5   0  0.4200061E-05  0.2113719E+04  0.7818609E-02  0.8555224E-01
       -1   -1    0    0    0  501  0.00000000000E+00  0.00000000000E+00  0.10475338404E+04  0.10475338405E+04  0.50400001928E-02 0.  1.
        1   -1    0    0  501    0  0.00000000000E+00  0.00000000000E+00 -0.10662682939E+04  0.10662682939E+04  0.50400001928E-02 0. -1.
    10030    2    1    2    0    0  0.00000000000E+00  0.00000000000E+00 -0.18734453476E+02  0.21138021344E+04  0.21137191118E+04 0.  0.
        4    1    3    3  502    0 -0.33283460734E+03 -0.80648321833E+03  0.58710942664E+03  0.10516145440E+04  0.12699999809E+01 0.  1.
       -4    1    3    3    0  502  0.33283460734E+03  0.80648321833E+03 -0.60584388012E+03  0.10621875904E+04  0.12699999809E+01 0. -1.
</event>
<event>
 5   0  0.8858590E-05  0.2107104E+04  0.7818609E-02  0.8558121E-01
       -2   -1    0    0    0  501  0.00000000000E+00  0.00000000000E+00  0.91133440966E+03  0.91133440967E+03  0.25500000920E-02 0.  1.
        2   -1    0    0  501    0  0.00000000000E+00  0.00000000000E+00 -0.12179627211E+04  0.12179627211E+04  0.25500000920E-02 0. -1.
    10030    2    1    2    0    0  0.00000000000E+00  0.00000000000E+00 -0.30662831141E+03  0.21292971307E+04  0.21071035451E+04 0.  0.
        1    1    3    3  502    0  0.46990497192E+03 -0.67667103015E+03 -0.81694799926E+03  0.11602148073E+04  0.50400001928E-02 0. -1.
       -1    1    3    3    0  502 -0.46990497192E+03  0.67667103015E+03  0.51031968785E+03  0.96908232339E+03  0.50400001928E-02 0.  1.
</event>
<event>
 5   0  0.8547605E-05  0.2082917E+04  0.7818609E-02  0.8568806E-01
        2   -1    0    0  501    0  0.00000000000E+00  0.00000000000E+00  0.24917391103E+04  0.24917391104E+04  0.25500000920E-02 0.  1.
       -2   -1    0    0    0  501  0.00000000000E+00  0.00000000000E+00 -0.43529280539E+03  0.43529280540E+03  0.25500000920E-02 0. -1.
    10030    2    1    2    0    0  0.00000000000E+00  0.00000000000E+00  0.20564463050E+04  0.29270319158E+04  0.20829172885E+04 0.  0.
        4    1    3    3  502    0 -0.98255846820E+02  0.50093930447E+03 -0.24742118447E+03  0.56728586587E+03  0.12699999809E+01 0. -1.
       -4    1    3    3    0  502  0.98255846820E+02 -0.50093930447E+03  0.23038674894E+04  0.23597460499E+04  0.12699999809E+01 0.  1.
</event>
<event>
 5   0  0.4174093E-05  0.2016431E+04  0.7818609E-02  0.8598977E-01
       -1   -1    0    0    0  501  0.00000000000E+00  0.00000000000E+00  0.50105816605E+03  0.50105816608E+03  0.50400001928E-02 0. -1.
        1   -1    0    0  501    0  0.00000000000E+00  0.00000000000E+00 -0.20287027623E+04  0.20287027623E+04  0.50400001928E-02 0.  1.
    10030    2    1    2    0    0  0.00000000000E+00  0.00000000000E+00 -0.15276445962E+04  0.25297609283E+04  0.20164305945E+04 0.  0.
        3    1    3    3  502    0  0.31880442955E+03  0.23168458384E+03  0.40042220211E+03  0.56182912067E+03  0.10100000352E+00 0. -1.
       -3    1    3    3    0  502 -0.31880442955E+03 -0.23168458384E+03 -0.19280667983E+04  0.19679318077E+04  0.10100000352E+00 0.  1.
</event>
<event>
 5   0  0.8872777E-05  0.2091379E+04  0.7818609E-02  0.8565051E-01
       -2   -1    0    0    0  501  0.00000000000E+00  0.00000000000E+00  0.88194394624E+03  0.88194394624E+03  0.25500000920E-02 0.  1.
        2   -1    0    0  501    0  0.00000000000E+00  0.00000000000E+00 -0.12398362044E+04  0.12398362044E+04  0.25500000920E-02 0. -1.
    10030    2    1    2    0    0  0.00000000000E+00  0.00000000000E+00 -0.35789225817E+03  0.21217801507E+04  0.20913785261E+04 0.  0.
        3    1    3    3  502    0 -0.22051517478E+03 -0.23771998310E+03  0.82965244921E+03  0.89076423893E+03  0.10100000352E+00 0.  1.
       -3    1    3    3    0  502  0.22051517478E+03  0.23771998310E+03 -0.11875447074E+04  0.12310159117E+04  0.10100000352E+00 0. -1.
</event>
<event>
 5   0  0.4174093E-05  0.2084475E+04  0.7818609E-02  0.8568113E-01
       -1   -1    0    0    0  501  0.00000000000E+00  0.00000000000E+00  0.61623639411E+03  0.61623639413E+03  0.50400001928E-02 0.  1.
        1   -1    0    0  501    0  0.00000000000E+00  0.00000000000E+00 -0.17627303583E+04  0.17627303583E+04  0.50400001928E-02 0. -1.
    10030    2    1    2    0    0  0.00000000000E+00  0.00000000000E+00 -0.11464939642E+04  0.23789667524E+04  0.20844746099E+04 0.  0.
        3    1    3    3  502    0 -0.62967031268E+03  0.11031126672E+03  0.36621706346E+03  0.73672805431E+03  0.10100000352E+00 0.  1.
       -3    1    3    3    0  502  0.62967031268E+03 -0.11031126672E+03 -0.15127110277E+04  0.16422386981E+04  0.10100000352E+00 0. -1.
</event>
<event>
 5   0  0.4050368E-05  0.2011798E+04  0.7818609E-02  0.8601124E-01
       -1   -1    0    0    0  501  0.00000000000E+00  0.00000000000E+00  0.12091489925E+04  0.12091489925E+04  0.50400001928E-02 0.  1.
        1   -1    0    0  501    0  0.00000000000E+00  0.00000000000E+00 -0.83681438092E+03  0.83681438093E+03  0.50400001928E-02 0. -1.
    10030    2    1    2    0    0  0.00000000000E+00  0.00000000000E+00  0.37233461157E+03  0.20459633734E+04  0.20117984647E+04 0.  0.
        2    1    3    3  502    0  0.23426300466E+03 -0.58635090046E+03  0.98250191571E+03  0.11679026279E+04  0.25500000920E-02 0.  1.
       -2    1    3    3    0  502 -0.23426300466E+03  0.58635090046E+03 -0.61016730415E+03  0.87806074555E+03  0.25500000920E-02 0. -1.
</event>
<event>
 5   0  0.9012466E-05  0.2118967E+04  0.7818609E-02  0.8552934E-01
       -2   -1    0    0    0  501  0.00000000000E+00  0.00000000000E+00  0.83232202663E+03  0.83232202664E+03  0.25500000920E-02 0. -1.
        2   -1    0    0  501    0  0.00000000000E+00  0.00000000000E+00 -0.13486434509E+04  0.13486434509E+04  0.25500000920E-02 0.  1.
    10030    2    1    2    0    0  0.00000000000E+00  0.00000000000E+00 -0.51632142430E+03  0.21809654776E+04  0.21189673431E+04 0.  0.
        2    1    3    3  502    0  0.97998346859E+02  0.61605655424E+03 -0.11395909845E+04  0.12991524029E+04  0.25500000920E-02 0.  1.
       -2    1    3    3    0  502 -0.97998346859E+02 -0.61605655424E+03  0.62326956019E+03  0.88181307468E+03  0.25500000920E-02 0. -1.
</event>
<event>
 5   0  0.4128678E-05  0.2095220E+04  0.7818609E-02  0.8563352E-01
        1   -1    0    0  501    0  0.00000000000E+00  0.00000000000E+00  0.16495379549E+04  0.16495379549E+04  0.50400001928E-02 0. -1.
       -1   -1    0    0    0  501  0.00000000000E+00  0.00000000000E+00 -0.66532966282E+03  0.66532966284E+03  0.50400001928E-02 0.  1.
    10030    2    1    2    0    0  0.00000000000E+00  0.00000000000E+00  0.98420829209E+03  0.23148676178E+04  0.20952198275E+04 0.  0.
        5    1    3    3  502    0  0.51153230222E+02  0.93491996411E+03 -0.27017337418E+02  0.93671981871E+03  0.46999998093E+01 0.  1.
       -5    1    3    3    0  502 -0.51153230222E+02 -0.93491996411E+03  0.10112256295E+04  0.13781477990E+04  0.46999998093E+01 0. -1.
</event>
<event>
 5   0  0.4182977E-05  0.2098675E+04  0.7818609E-02  0.8561827E-01
        1   -1    0    0  501    0  0.00000000000E+00  0.00000000000E+00  0.12484048112E+04  0.12484048112E+04  0.50400001928E-02 0.  1.
       -1   -1    0    0    0  501  0.00000000000E+00  0.00000000000E+00 -0.88201301418E+03  0.88201301419E+03  0.50400001928E-02 0. -1.
    10030    2    1    2    0    0  0.00000000000E+00  0.00000000000E+00  0.36639179699E+03  0.21304178254E+04  0.20986750968E+04 0.  0.
        1    1    3    3  502    0 -0.10436973277E+04  0.66268203760E+02  0.27060108201E+03  0.10802409603E+04  0.50400001928E-02 0.  1.
       -1    1    3    3    0  502  0.10436973277E+04 -0.66268203760E+02  0.95790714977E+02  0.10501768650E+04  0.50400001928E-02 0. -1.
</event>
<event>
 5   0  0.8547605E-05  0.2088428E+04  0.7818609E-02  0.8566358E-01
       -2   -1    0    0    0  501  0.00000000000E+00  0.00000000000E+00  0.70465858161E+03  0.70465858162E+03  0.25500000920E-02 0. -1.
        2   -1    0    0  501    0  0.00000000000E+00  0.00000000000E+00 -0.15473920024E+04  0.15473920024E+04  0.25500000920E-02 0.  1.
    10030    2    1    2    0    0  0.00000000000E+00  0.00000000000E+00 -0.84273342076E+03  0.22520505840E+04  0.20884281684E+04 0.  0.
        4    1    3    3  502    0  0.37920118560E+03 -0.13214109195E+03 -0.14607986400E+04  0.15149881474E+04  0.12699999809E+01 0.  1.
       -4    1    3    3    0  502 -0.37920118560E+03  0.13214109195E+03  0.61806521921E+03  0.73706243659E+03  0.12699999809E+01 0. -1.
</event>
<event>
 5   0  0.4182977E-05  0.2120778E+04  0.7818609E-02  0.8552145E-01
        1   -1    0    0  501    0  0.00000000000E+00  0.00000000000E+00  0.18561145796E+04  0.18561145796E+04  0.50400001928E-02 0. -1.
       -1   -1    0    0    0  501  0.00000000000E+00  0.00000000000E+00 -0.60579488630E+03  0.60579488632E+03  0.50400001928E-02 0.  1.
    10030    2    1    2    0    0  0.00000000000E+00  0.00000000000E+00  0.12503196933E+04  0.24619094659E+04  0.21207778957E+04 0.  0.
        1    1    3    3  502    0  0.61238998688E+03 -0.97187969436E+02  0.16237340527E+04  0.17380964505E+04  0.50400001928E-02 0. -1.
       -1    1    3    3    0  502 -0.61238998688E+03  0.97187969436E+02 -0.37341435939E+03  0.72381301540E+03  0.50400001928E-02 0.  1.
</event>
<event>
 5   0  0.8547605E-05  0.2096421E+04  0.7818609E-02  0.8562822E-01
       -2   -1    0    0    0  501  0.00000000000E+00  0.00000000000E+00  0.47070104578E+03  0.47070104579E+03  0.25500000920E-02 0.  1.
        2   -1    0    0  501    0  0.00000000000E+00  0.00000000000E+00 -0.23342743569E+04  0.23342743569E+04  0.25500000920E-02 0. -1.
    10030    2    1    2    0    0  0.00000000000E+00  0.00000000000E+00 -0.18635733112E+04  0.28049754027E+04  0.20964211227E+04 0.  0.
        4    1    3    3  502    0 -0.31191878820E+03  0.31413794743E+03 -0.22030588775E+04  0.22470972412E+04  0.12699999809E+01 0. -1.
       -4    1    3    3    0  502  0.31191878820E+03 -0.31413794743E+03  0.33948556639E+03  0.55787816155E+03  0.12699999809E+01 0.  1.
</event>
<event>
 5   0  0.9086985E-05  0.2109778E+04  0.7818609E-02  0.8556948E-01
        2   -1    0    0  501    0  0.00000000000E+00  0.00000000000E+00  0.12721863843E+04  0.12721863843E+04  0.25500000920E-02 0. -1.
       -2   -1    0    0    0  501  0.00000000000E+00  0.00000000000E+00 -0.87470760234E+03  0.87470760234E+03  0.25500000920E-02 0.  1.
    10030    2    1    2    0    0  0.00000000000E+00  0.00000000000E+00  0.39747878200E+03  0.21468939867E+04  0.21097782841E+04 0.  0.
        5    1    3    3  502    0  0.97221571832E+03 -0.40855706600E+03  0.17286106127E+03  0.10686558453E+04  0.46999998093E+01 0. -1.
       -5    1    3    3    0  502 -0.97221571832E+03  0.40855706600E+03  0.22461772074E+03  0.10782381414E+04  0.46999998093E+01 0.  1.
</event>
<event>
 5   0  0.4200061E-05  0.2164576E+04  0.7818609E-02  0.8533319E-01
       -1   -1    0    0    0  501  0.00000000000E+00  0.00000000000E+00  0.69358779831E+03  0.69358779833E+03  0.50400001928E-02 0. -1.
        1   -1    0    0  501    0  0.00000000000E+00  0.00000000000E+00 -0.16888237094E+04  0.16888237094E+04  0.50400001928E-02 0.  1.
    10030    2    1    2    0    0  0.00000000000E+00  0.00000000000E+00 -0.99523591108E+03  0.23824115077E+04  0.21645761880E+04 0.  0.
        4    1    3    3  502    0  0.52832432319E+03  0.69387277613E+03 -0.12030219485E+04  0.14858833876E+04  0.12699999809E+01 0.  1.
       -4    1    3    3    0  502 -0.52832432319E+03 -0.69387277613E+03  0.20778603747E+03  0.89652812014E+03  0.12699999809E+01 0. -1.
</event>
<event>
 5   0  0.9086985E-05  0.2085469E+04  0.7818609E-02  0.8567672E-01
       -2   -1    0    0    0  501  0.00000000000E+00  0.00000000000E+00  0.97599852494E+03  0.97599852495E+03  0.25500000920E-02 0. -1.
        2   -1    0    0  501    0  0.00000000000E+00  0.00000000000E+00 -0.11140331952E+04  0.11140331952E+04  0.25500000920E-02 0.  1.
    10030    2    1    2    0    0  0.00000000000E+00  0.00000000000E+00 -0.13803467025E+03  0.20900317201E+04  0.20854685375E+04 0.  0.
        5    1    3    3  502    0  0.97198015607E+03  0.34402711010E+03  0.86798222702E+02  0.10347251315E+04  0.46999998093E+01 0.  1.
       -5    1    3    3    0  502 -0.97198015607E+03 -0.34402711010E+03 -0.22483289296E+03  0.10553065886E+04  0.46999998093E+01 0. -1.
</event>
<event>
 5   0  0.4050368E-05  0.2091262E+04  0.7818609E-02  0.8565102E-01
       -1   -1    0    0    0  501  0.00000000000E+00  0.00000000000E+00  0.79754709144E+03  0.79754709145E+03  0.50400001928E-02 0. -1.
        1   -1    0    0  501    0  0.00000000000E+00  0.00000000000E+00 -0.13708834103E+04  0.13708834103E+04  0.50400001928E-02 0.  1.
    10030    2    1    2    0    0  0.00000000000E+00  0.00000000000E+00 -0.57333631887E+03  0.21684305018E+04  0.20912618933E+04 0.  0.
        2    1    3    3  502    0  0.35349377065E+02  0.34789040298E+02  0.79632674599E+03  0.79786975264E+03  0.25500000920E-02 0. -1.
       -2    1    3    3    0  502 -0.35349377065E+02 -0.34789040298E+02 -0.13696630649E+04  0.13705607491E+04  0.25500000920E-02 0.  1.
</event>
<event>
 5   0  0.9012466E-05  0.2104188E+04  0.7818609E-02  0.8559401E-01
        2   -1    0    0  501    0  0.00000000000E+00  0.00000000000E+00  0.10210135040E+04  0.10210135040E+04  0.25500000920E-02 0. -1.
       -2   -1    0    0    0  501  0.00000000000E+00  0.00000000000E+00 -0.10841210655E+04  0.10841210655E+04  0.25500000920E-02 0.  1.
    10030    2    1    2    0    0  0.00000000000E+00  0.00000000000E+00 -0.63107561527E+02  0.21051345695E+04  0.21041884401E+04 0.  0.
        2    1    3    3  502    0  0.81498638802E+03 -0.35234093411E+03 -0.59621459645E+03  0.10694946431E+04  0.25500000920E-02 0.  1.
       -2    1    3    3    0  502 -0.81498638802E+03  0.35234093411E+03  0.53310703492E+03  0.10356399264E+04  0.25500000920E-02 0. -1.
</event>
<event>
 5   0  0.4128678E-05  0.2124036E+04  0.7818609E-02  0.8550729E-01
        1   -1    0    0  501    0  0.00000000000E+00  0.00000000000E+00  0.13821043744E+04  0.13821043744E+04  0.50400001928E-02 0. -1.
       -1   -1    0    0    0  501  0.00000000000E+00  0.00000000000E+00 -0.81606176152E+03  0.81606176153E+03  0.50400001928E-02 0.  1.
    10030    2    1    2    0    0  0.00000000000E+00  0.00000000000E+00  0.56604261292E+03  0.21981661360E+04  0.21240362807E+04 0.  0.
        5    1    3    3  502    0  0.44696742957E+03  0.16816462572E+03  0.12647056626E+04  0.13518734140E+04  0.46999998093E+01 0. -1.
       -5    1    3    3    0  502 -0.44696742957E+03 -0.16816462572E+03 -0.69866304964E+03  0.84629272203E+03  0.46999998093E+01 0.  1.
</event>
</LesHouchesEvents>
