<LesHouchesEvents version="3.0">
<header>
<!--
#*********************************************************************
#                                                                    *
#                        MadGraph5_aMC@NLO                           *
#                                                                    *
#                           Going Beyond                             *
#                                                                    *
#                   http://madgraph.hep.uiuc.edu                     *
#                   http://madgraph.phys.ucl.ac.be                   *
#                   http://amcatnlo.cern.ch                          *
#                                                                    *
#                     The MadGraph5_aMC@NLO team                     *
#                                                                    *
#....................................................................*
#                                                                    *
# This file contains all the information necessary to reproduce      *
# the events generated:                                              *
#                                                                    *
# 1. software version                                                *
# 2. proc_card          : code generation info including model       *
# 3. param_card         : model primary parameters in the LH format  *
# 4. run_card           : running parameters (collider and cuts)     *
# 5. pythia_card        : present only if pythia has been run        *
# 6. pgs_card           : present only if pgs has been run           *
# 7. delphes_cards      : present only if delphes has been run       *
#                                                                    *
#                                                                    *
#*********************************************************************
-->
<MGVersion>
#5.2.2.3
</MGVersion>
<MG5ProcCard>
#************************************************************
#*                     MadGraph5_aMC@NLO                    *
#*                                                          *
#*                *                       *                 *
#*                  *        * *        *                   *
#*                    * * * * 5 * * * *                     *
#*                  *        * *        *                   *
#*                *                       *                 *
#*                                                          *
#*                                                          *
#*         VERSION 2.2.3                 2015-02-10         *
#*                                                          *
#*    The MadGraph5_aMC@NLO Development Team - Find us at   *
#*    https://server06.fynu.ucl.ac.be/projects/madgraph     *
#*                                                          *
#************************************************************
#*                                                          *
#*               Command File for MadGraph5_aMC@NLO         *
#*                                                          *
#*     run as ./bin/mg5_aMC  filename                       *
#*                                                          *
#************************************************************
set group_subprocesses Auto
set ignore_six_quark_processes False
set loop_optimized_output True
set gauge unitary
set complex_mass_scheme False
import model sm
define p = g u c d s u~ c~ d~ s~
define j = g u c d s u~ c~ d~ s~
define l+ = e+ mu+
define l- = e- mu-
define vl = ve vm vt
define vl~ = ve~ vm~ vt~
import model Zprime_UFO
generate p p > zph, zph > j j
add process p p > zph, zph > b b~
output Dijet_signal
</MG5ProcCard>
<MGProcCard>
#*********************************************************************
#                        MadGraph/MadEvent                           *
#                   http://madgraph.hep.uiuc.edu                     *
#                                                                    *
#                          proc_card.dat                             *
#*********************************************************************
#                                                                    *
#            This Files is generated by MADGRAPH 5                   *
#                                                                    *
# WARNING: This Files is generated for MADEVENT (compatibility issue)*
#          This files is NOT a valid MG4 proc_card.dat               *
#          Running this in MG4 will NEVER reproduce the result of MG5*
#                                                                    *
#*********************************************************************
#*********************************************************************
# Process(es) requested : mg2 input                                  *
#*********************************************************************
# Begin PROCESS # This is TAG. Do not modify this line
p p > zph , zph > j j           #Process
# Be carefull the coupling are here in MG5 convention
          
end_coup           # End the couplings input

done               # this tells MG there are no more procs
# End PROCESS  # This is TAG. Do not modify this line
#*********************************************************************
# Model information                                                  *
#*********************************************************************
# Begin MODEL  # This is TAG. Do not modify this line
Zprime_UFO
# End   MODEL  # This is TAG. Do not modify this line
#*********************************************************************
# Start multiparticle definitions                                    *
#*********************************************************************
# Begin MULTIPARTICLES # This is TAG. Do not modify this line

# End  MULTIPARTICLES # This is TAG. Do not modify this line
</MGProcCard>
<MGRunCard>
#*********************************************************************
#                       MadGraph5_aMC@NLO                            *
#                                                                    *
#                     run_card.dat MadEvent                          *
#                                                                    *
#  This file is used to set the parameters of the run.               *
#                                                                    *
#  Some notation/conventions:                                        *
#                                                                    *
#   Lines starting with a '# ' are info or comments                  *
#                                                                    *
#   mind the format:   value    = variable     ! comment             *
#*********************************************************************
#
#*******************                                                 
# Running parameters
#*******************                                                 
#                                                                    
#*********************************************************************
# Tag name for the run (one word)                                    *
#*********************************************************************
  tag_1     = run_tag ! name of the run 
#*********************************************************************
# Run to generate the grid pack                                      *
#*********************************************************************
  .false.     = gridpack  !True = setting up the grid pack
#*********************************************************************
# Number of events and rnd seed                                      *
# Warning: Do not generate more than 1M events in a single run       *
# If you want to run Pythia, avoid more than 50k events in a run.    *
#*********************************************************************
  2000 = nevents ! Number of unweighted events requested 
 2487 = iseed   ! rnd seed (0=assigned automatically=default))
#*********************************************************************
# Collider type and energy                                           *
# lpp: 0=No PDF, 1=proton, -1=antiproton, 2=photon from proton,      *
#                                         3=photon from electron     *
#*********************************************************************
        1     = lpp1    ! beam 1 type 
        1     = lpp2    ! beam 2 type
     4000     = ebeam1  ! beam 1 total energy in GeV
     4000     = ebeam2  ! beam 2 total energy in GeV
#*********************************************************************
# Beam polarization from -100 (left-handed) to 100 (right-handed)    *
#*********************************************************************
        0     = polbeam1 ! beam polarization for beam 1
        0     = polbeam2 ! beam polarization for beam 2
#*********************************************************************
# PDF CHOICE: this automatically fixes also alpha_s and its evol.    *
#*********************************************************************
 'nn23lo1'    = pdlabel     ! PDF set                                     
 230000    = lhaid     ! if pdlabel=lhapdf, this is the lhapdf number
#*********************************************************************
# Renormalization and factorization scales                           *
#*********************************************************************
 F        = fixed_ren_scale  ! if .true. use fixed ren scale
 F        = fixed_fac_scale  ! if .true. use fixed fac scale
 91.1880  = scale            ! fixed ren scale
 91.1880  = dsqrt_q2fact1    ! fixed fact scale for pdf1
 91.1880  = dsqrt_q2fact2    ! fixed fact scale for pdf2
 1        = scalefact        ! scale factor for event-by-event scales
#*********************************************************************
# Matching - Warning! ickkw > 1 is still beta
#*********************************************************************
 0        = ickkw            ! 0 no matching, 1 MLM, 2 CKKW matching
 1        = highestmult      ! for ickkw=2, highest mult group
 1        = ktscheme         ! for ickkw=1, 1 Durham kT, 2 Pythia pTE
 1        = alpsfact         ! scale factor for QCD emission vx
 F        = chcluster        ! cluster only according to channel diag
 T        = pdfwgt           ! for ickkw=1, perform pdf reweighting
 5        = asrwgtflavor     ! highest quark flavor for a_s reweight
 T        = clusinfo         ! include clustering tag in output
 3.0      = lhe_version       ! Change the way clustering information pass to shower.        
#*********************************************************************
#**********************************************************
#
#**********************************************************
# Automatic ptj and mjj cuts if xqcut > 0
# (turn off for VBF and single top processes)
#**********************************************************
   T  = auto_ptj_mjj  ! Automatic setting of ptj and mjj
#**********************************************************
#                                                                    
#**********************************
# BW cutoff (M+/-bwcutoff*Gamma)
#**********************************
  15  = bwcutoff      ! (M+/-bwcutoff*Gamma)
#**********************************************************
# Apply pt/E/eta/dr/mij cuts on decay products or not
# (note that etmiss/ptll/ptheavy/ht/sorted cuts always apply)
#**********************************************************
   T  = cut_decays    ! Cut decay products 
#*************************************************************
# Number of helicities to sum per event (0 = all helicities)
# 0 gives more stable result, but longer run time (needed for
# long decay chains e.g.).
# Use >=2 if most helicities contribute, e.g. pure QCD.
#*************************************************************
   0  = nhel          ! Number of helicities used per event
#*******************                                                 
# Standard Cuts
#*******************                                                 
#                                                                    
#*********************************************************************
# Minimum and maximum pt's (for max, -1 means no cut)                *
#*********************************************************************
 20  = ptj       ! minimum pt for the jets 
  0  = ptb       ! minimum pt for the b 
 10  = pta       ! minimum pt for the photons 
 10  = ptl       ! minimum pt for the charged leptons 
  0  = misset    ! minimum missing Et (sum of neutrino's momenta)
  0  = ptheavy   ! minimum pt for one heavy final state
 1.0 = ptonium   ! minimum pt for the quarkonium states
 -1  = ptjmax    ! maximum pt for the jets
 -1  = ptbmax    ! maximum pt for the b
 -1  = ptamax    ! maximum pt for the photons
 -1  = ptlmax    ! maximum pt for the charged leptons
 -1  = missetmax ! maximum missing Et (sum of neutrino's momenta)
#*********************************************************************
# Minimum and maximum E's (in the center of mass frame)              *
#*********************************************************************
  0  = ej     ! minimum E for the jets 
  0  = eb     ! minimum E for the b 
  0  = ea     ! minimum E for the photons 
  0  = el     ! minimum E for the charged leptons 
 -1   = ejmax ! maximum E for the jets
 -1   = ebmax ! maximum E for the b
 -1   = eamax ! maximum E for the photons
 -1   = elmax ! maximum E for the charged leptons
#*********************************************************************
# Maximum and minimum absolute rapidity (for max, -1 means no cut)   *
#*********************************************************************
   5  = etaj    ! max rap for the jets 
  -1  = etab    ! max rap for the b
 2.5  = etaa    ! max rap for the photons 
 2.5  = etal    ! max rap for the charged leptons 
 0.6  = etaonium ! max rap for the quarkonium states
   0  = etajmin ! min rap for the jets
   0  = etabmin ! min rap for the b
   0  = etaamin ! min rap for the photons
   0  = etalmin ! main rap for the charged leptons
#*********************************************************************
# Minimum and maximum DeltaR distance                                *
#*********************************************************************
 0.4 = drjj    ! min distance between jets 
 0   = drbb    ! min distance between b's 
 0.4 = drll    ! min distance between leptons 
 0.4 = draa    ! min distance between gammas 
 0   = drbj    ! min distance between b and jet 
 0.4 = draj    ! min distance between gamma and jet 
 0.4 = drjl    ! min distance between jet and lepton 
 0   = drab    ! min distance between gamma and b 
 0   = drbl    ! min distance between b and lepton 
 0.4 = dral    ! min distance between gamma and lepton 
 -1  = drjjmax ! max distance between jets
 -1  = drbbmax ! max distance between b's
 -1  = drllmax ! max distance between leptons
 -1  = draamax ! max distance between gammas
 -1  = drbjmax ! max distance between b and jet
 -1  = drajmax ! max distance between gamma and jet
 -1  = drjlmax ! max distance between jet and lepton
 -1  = drabmax ! max distance between gamma and b
 -1  = drblmax ! max distance between b and lepton
 -1  = dralmax ! maxdistance between gamma and lepton
#*********************************************************************
# Minimum and maximum invariant mass for pairs                       *
# WARNING: for four lepton final state mmll cut require to have      *
#          different lepton masses for each flavor!                  *           
#*********************************************************************
 0   = mmjj    ! min invariant mass of a jet pair 
 0   = mmbb    ! min invariant mass of a b pair 
 0   = mmaa    ! min invariant mass of gamma gamma pair
 0   = mmll    ! min invariant mass of l+l- (same flavour) lepton pair
 -1  = mmjjmax ! max invariant mass of a jet pair
 -1  = mmbbmax ! max invariant mass of a b pair
 -1  = mmaamax ! max invariant mass of gamma gamma pair
 -1  = mmllmax ! max invariant mass of l+l- (same flavour) lepton pair
#*********************************************************************
# Minimum and maximum invariant mass for all letpons                 *
#*********************************************************************
 0   = mmnl    ! min invariant mass for all letpons (l+- and vl) 
 -1  = mmnlmax ! max invariant mass for all letpons (l+- and vl) 
#*********************************************************************
# Minimum and maximum pt for 4-momenta sum of leptons                *
#*********************************************************************
 0   = ptllmin  ! Minimum pt for 4-momenta sum of leptons(l and vl)
 -1  = ptllmax  ! Maximum pt for 4-momenta sum of leptons(l and vl)
#*********************************************************************
# Inclusive cuts                                                     *
#*********************************************************************
 0  = xptj ! minimum pt for at least one jet  
 0  = xptb ! minimum pt for at least one b 
 0  = xpta ! minimum pt for at least one photon 
 0  = xptl ! minimum pt for at least one charged lepton 
#*********************************************************************
# Control the pt's of the jets sorted by pt                          *
#*********************************************************************
 0   = ptj1min ! minimum pt for the leading jet in pt
 0   = ptj2min ! minimum pt for the second jet in pt
 0   = ptj3min ! minimum pt for the third jet in pt
 0   = ptj4min ! minimum pt for the fourth jet in pt
 -1  = ptj1max ! maximum pt for the leading jet in pt 
 -1  = ptj2max ! maximum pt for the second jet in pt
 -1  = ptj3max ! maximum pt for the third jet in pt
 -1  = ptj4max ! maximum pt for the fourth jet in pt
 0   = cutuse  ! reject event if fails any (0) / all (1) jet pt cuts
#*********************************************************************
# Control the pt's of leptons sorted by pt                           *
#*********************************************************************
 0   = ptl1min ! minimum pt for the leading lepton in pt
 0   = ptl2min ! minimum pt for the second lepton in pt
 0   = ptl3min ! minimum pt for the third lepton in pt
 0   = ptl4min ! minimum pt for the fourth lepton in pt
 -1  = ptl1max ! maximum pt for the leading lepton in pt 
 -1  = ptl2max ! maximum pt for the second lepton in pt
 -1  = ptl3max ! maximum pt for the third lepton in pt
 -1  = ptl4max ! maximum pt for the fourth lepton in pt
#*********************************************************************
# Control the Ht(k)=Sum of k leading jets                            *
#*********************************************************************
 0   = htjmin ! minimum jet HT=Sum(jet pt)
 -1  = htjmax ! maximum jet HT=Sum(jet pt)
 0   = ihtmin  !inclusive Ht for all partons (including b)
 -1  = ihtmax  !inclusive Ht for all partons (including b)
 0   = ht2min ! minimum Ht for the two leading jets
 0   = ht3min ! minimum Ht for the three leading jets
 0   = ht4min ! minimum Ht for the four leading jets
 -1  = ht2max ! maximum Ht for the two leading jets
 -1  = ht3max ! maximum Ht for the three leading jets
 -1  = ht4max ! maximum Ht for the four leading jets
#***********************************************************************
# Photon-isolation cuts, according to hep-ph/9801442                   *
# When ptgmin=0, all the other parameters are ignored                  *
# When ptgmin>0, pta and draj are not going to be used                 *
#***********************************************************************
   0 = ptgmin ! Min photon transverse momentum
 0.4 = R0gamma ! Radius of isolation code
 1.0 = xn ! n parameter of eq.(3.4) in hep-ph/9801442
 1.0 = epsgamma ! epsilon_gamma parameter of eq.(3.4) in hep-ph/9801442
 .true. = isoEM ! isolate photons from EM energy (photons and leptons)
#*********************************************************************
# WBF cuts                                                           *
#*********************************************************************
 0   = xetamin ! minimum rapidity for two jets in the WBF case  
 0   = deltaeta ! minimum rapidity for two jets in the WBF case 
#*********************************************************************
# KT DURHAM CUT                                                      *
#*********************************************************************
 -1    =  ktdurham        
 0.4  =  dparameter 
#*********************************************************************
# maximal pdg code for quark to be considered as a light jet         *
# (otherwise b cuts are applied)                                     *
#*********************************************************************
 4 = maxjetflavor    ! Maximum jet pdg code
#*********************************************************************
# Jet measure cuts                                                   *
#*********************************************************************
 0   = xqcut   ! minimum kt jet measure between partons
#*********************************************************************
#
#*********************************************************************
# Store info for systematics studies                                 *
# WARNING: If use_syst is T, matched Pythia output is                *
#          meaningful ONLY if plotted taking matchscale              *
#          reweighting into account!                                 *
#*********************************************************************
   F  = use_syst      ! Enable systematics studies
#
#**************************************
# Parameter of the systematics study
#  will be used by SysCalc (if installed)
#**************************************                                  
#
0.5 1 2 = sys_scalefact  # factorization/renormalization scale factor
0.5 1 2 = sys_alpsfact  # \alpha_s emission scale factors
30 50 = sys_matchscale # variation of merging scale
# PDF sets and number of members (0 or none for all members).
CT10nlo.LHgrid = sys_pdf # matching scales
# MSTW2008nlo68cl.LHgrid 1  = sys_pdf
</MGRunCard>
<slha>
######################################################################
## PARAM_CARD AUTOMATICALY GENERATED BY MG5 FOLLOWING UFO MODEL   ####
######################################################################
##                                                                  ##
##  Width set on Auto will be computed following the information    ##
##        present in the decay.py files of the model.               ##
##        See  arXiv:1402.1178 for more details.                    ##
##                                                                  ##
######################################################################

###################################
## INFORMATION FOR CKMBLOCK
###################################
Block ckmblock 
    1 2.277360e-01 # cabi 

###################################
## INFORMATION FOR FRBLOCK
###################################
Block frblock 
    1 1.400000e+00 # gz 

###################################
## INFORMATION FOR MASS
###################################
Block mass 
    1 5.040000e-03 # MD 
    2 2.550000e-03 # MU 
    3 1.010000e-01 # MS 
    4 1.270000e+00 # MC 
    5 4.700000e+00 # MB 
    6 1.720000e+02 # MT 
   11 5.110000e-04 # Me 
   13 1.056600e-01 # MM 
   15 1.777000e+00 # MTA 
   23 9.118760e+01 # MZ 
   25 1.200000e+02 # MH 
  10030 1.000000e+03 # MZph 
  10031 3.000000e+02 # MZpl 
## Dependent parameters, given by model restrictions.
## Those values should be edited following the 
## analytical expression. MG5 ignores those values 
## but they are important for interfacing the output of MG5
## to external program such as Pythia.
  12 0.000000 # ve : 0.0 
  14 0.000000 # vm : 0.0 
  16 0.000000 # vt : 0.0 
  21 0.000000 # g : 0.0 
  22 0.000000 # a : 0.0 
  24 79.824360 # w+ : cmath.sqrt(MZ__exp__2/2. + cmath.sqrt(MZ__exp__4/4. - (aEW*cmath.pi*MZ__exp__2)/(Gf*sqrt__2))) 

###################################
## INFORMATION FOR SMINPUTS
###################################
Block sminputs 
    1 1.279000e+02 # aEWM1 
    2 1.166370e-05 # Gf 
    3 1.184000e-01 # aS 

###################################
## INFORMATION FOR YUKAWA
###################################
Block yukawa 
    1 5.040000e-03 # ymdo 
    2 2.550000e-03 # ymup 
    3 1.010000e-01 # yms 
    4 1.270000e+00 # ymc 
    5 4.700000e+00 # ymb 
    6 1.720000e+02 # ymt 
   11 5.110000e-04 # yme 
   13 1.056600e-01 # ymm 
   15 1.777000e+00 # ymtau 

###################################
## INFORMATION FOR DECAY
###################################
DECAY   6 1.508336e+00 # WT 
DECAY  23 2.495200e+00 # WZ 
DECAY  24 2.085000e+00 # WW 
DECAY  25 5.753088e-03 # WH 
## Dependent parameters, given by model restrictions.
## Those values should be edited following the 
## analytical expression. MG5 ignores those values 
## but they are important for interfacing the output of MG5
## to external program such as Pythia.
DECAY  1 0.000000 # d : 0.0 
DECAY  2 0.000000 # u : 0.0 
DECAY  3 0.000000 # s : 0.0 
DECAY  4 0.000000 # c : 0.0 
DECAY  5 0.000000 # b : 0.0 
DECAY  11 0.000000 # e- : 0.0 
DECAY  12 0.000000 # ve : 0.0 
DECAY  13 0.000000 # mu- : 0.0 
DECAY  14 0.000000 # vm : 0.0 
DECAY  15 0.000000 # ta- : 0.0 
DECAY  16 0.000000 # vt : 0.0 
DECAY  21 0.000000 # g : 0.0 
DECAY  22 0.000000 # a : 0.0 
DECAY  10030 0.308725 # zph : (gz__exp__2*MZph*(5 + cmath.sqrt(1 - (4*MT__exp__2)/MZph__exp__2)))/(144.*cmath.pi) 
DECAY  10031 0.132629 # zpl : (5*gz__exp__2*MZpl)/(144.*cmath.pi) 
#===========================================================
# QUANTUM NUMBERS OF NEW STATE(S) (NON SM PDG CODE)
#===========================================================

Block QNUMBERS 10030  # zph 
        1 0  # 3 times electric charge
        2 3  # number of spin states (2S+1)
        3 1  # colour rep (1: singlet, 3: triplet, 8: octet)
        4 0  # Particle/Antiparticle distinction (0=own anti)
Block QNUMBERS 10031  # zpl 
        1 0  # 3 times electric charge
        2 3  # number of spin states (2S+1)
        3 1  # colour rep (1: singlet, 3: triplet, 8: octet)
        4 0  # Particle/Antiparticle distinction (0=own anti)
</slha>
## END BANNER##
<MGGenerationInfo>
#  Number of Events        :         4065
#  Integrated weight (pb)  :  0.38257E+01
#  Max wgt                 :  0.12458E-02
#  Average wgt             :  0.94113E-03
</MGGenerationInfo>
</header>
<init>
     2212     2212  0.40000000000E+04  0.40000000000E+04 0 0  247000  247000 2   1
  0.38246126114E+01  0.83969126453E-02  0.12458500000E-02   0
</init>
<event>
 5   0  0.1240503E-02  0.9892944E+03  0.7818609E-02  0.9320365E-01
        2   -1    0    0  501    0  0.00000000000E+00  0.00000000000E+00  0.67913955685E+03  0.67913955685E+03  0.25500000920E-02 0. -1.
       -2   -1    0    0    0  501  0.00000000000E+00  0.00000000000E+00 -0.36027328325E+03  0.36027328326E+03  0.25500000920E-02 0.  1.
    10030    2    1    2    0    0  0.00000000000E+00  0.00000000000E+00  0.31886627360E+03  0.10394128401E+04  0.98929437062E+03 0.  0.
        1    1    3    3  502    0 -0.26484211023E+03 -0.40945703023E+03  0.24657742440E+03  0.54644014238E+03  0.50400001928E-02 0.  1.
       -1    1    3    3    0  502  0.26484211023E+03  0.40945703023E+03  0.72288849201E+02  0.49297269773E+03  0.50400001928E-02 0. -1.
</event>
<event>
 5   0  0.1240503E-02  0.9152290E+03  0.7818609E-02  0.9406742E-01
        2   -1    0    0  501    0  0.00000000000E+00  0.00000000000E+00  0.17173711964E+04  0.17173711964E+04  0.25500000920E-02 0.  1.
       -2   -1    0    0    0  501  0.00000000000E+00  0.00000000000E+00 -0.12193696893E+03  0.12193696896E+03  0.25500000920E-02 0. -1.
    10030    2    1    2    0    0  0.00000000000E+00  0.00000000000E+00  0.15954342275E+04  0.18393081654E+04  0.91522901668E+03 0.  0.
        1    1    3    3  502    0 -0.27051167675E+03  0.22460585090E+03  0.13863366272E+04  0.14302285130E+04  0.50400001928E-02 0.  1.
       -1    1    3    3    0  502  0.27051167675E+03 -0.22460585090E+03  0.20909760033E+03  0.40907965240E+03  0.50400001928E-02 0. -1.
</event>
<event>
 5   0  0.1245850E-02  0.9785067E+03  0.7818609E-02  0.9332438E-01
        2   -1    0    0  501    0  0.00000000000E+00  0.00000000000E+00  0.18498245324E+04  0.18498245324E+04  0.25500000920E-02 0.  1.
       -2   -1    0    0    0  501  0.00000000000E+00  0.00000000000E+00 -0.12940083146E+03  0.12940083149E+03  0.25500000920E-02 0. -1.
    10030    2    1    2    0    0  0.00000000000E+00  0.00000000000E+00  0.17204237010E+04  0.19792253639E+04  0.97850668383E+03 0.  0.
        3    1    3    3  502    0 -0.31868344542E+03  0.22620583836E+03  0.26483467195E+03  0.47208646809E+03  0.10100000352E+00 0. -1.
       -3    1    3    3    0  502  0.31868344542E+03 -0.22620583836E+03  0.14555890290E+04  0.15071388958E+04  0.10100000352E+00 0.  1.
</event>
<event>
 5   0  0.1240503E-02  0.1001977E+04  0.7818609E-02  0.9306379E-01
        2   -1    0    0  501    0  0.00000000000E+00  0.00000000000E+00  0.95052615035E+03  0.95052615035E+03  0.25500000920E-02 0.  1.
       -2   -1    0    0    0  501  0.00000000000E+00  0.00000000000E+00 -0.26405328752E+03  0.26405328753E+03  0.25500000920E-02 0. -1.
    10030    2    1    2    0    0  0.00000000000E+00  0.00000000000E+00  0.68647286282E+03  0.12145794379E+04  0.10019771552E+04 0.  0.
        1    1    3    3  502    0 -0.47710710218E+03  0.10012804599E+03  0.48320413824E+03  0.68639860998E+03  0.50400001928E-02 0.  1.
       -1    1    3    3    0  502  0.47710710218E+03 -0.10012804599E+03  0.20326872458E+03  0.52818082790E+03  0.50400001928E-02 0. -1.
</event>
<event>
 5   0  0.1245850E-02  0.9576092E+03  0.7818609E-02  0.9356301E-01
        2   -1    0    0  501    0  0.00000000000E+00  0.00000000000E+00  0.77672336286E+03  0.77672336286E+03  0.25500000920E-02 0. -1.
       -2   -1    0    0    0  501  0.00000000000E+00  0.00000000000E+00 -0.29515505834E+03  0.29515505835E+03  0.25500000920E-02 0.  1.
    10030    2    1    2    0    0  0.00000000000E+00  0.00000000000E+00  0.48156830452E+03  0.10718784212E+04  0.95760916763E+03 0.  0.
        3    1    3    3  502    0  0.31551049897E+03 -0.25179870714E+03  0.52900690483E+03  0.66543052187E+03  0.10100000352E+00 0. -1.
       -3    1    3    3    0  502 -0.31551049897E+03  0.25179870714E+03 -0.47438600309E+02  0.40644789934E+03  0.10100000352E+00 0.  1.
</event>
<event>
 5   0  0.7073004E-03  0.9917664E+03  0.7818609E-02  0.9317622E-01
        1   -1    0    0  501    0  0.00000000000E+00  0.00000000000E+00  0.69384838089E+03  0.69384838091E+03  0.50400001928E-02 0.  1.
       -1   -1    0    0    0  501  0.00000000000E+00  0.00000000000E+00 -0.35440040623E+03  0.35440040627E+03  0.50400001928E-02 0. -1.
    10030    2    1    2    0    0  0.00000000000E+00  0.00000000000E+00  0.33944797465E+03  0.10482487872E+04  0.99176640007E+03 0.  0.
        1    1    3    3  502    0  0.13174280706E+03 -0.43085457722E+03 -0.49216309985E+02  0.45322630012E+03  0.50400001928E-02 0. -1.
       -1    1    3    3    0  502 -0.13174280706E+03  0.43085457722E+03  0.38866428464E+03  0.59502248706E+03  0.50400001928E-02 0.  1.
</event>
<event>
 5   0  0.7224879E-03  0.1016269E+04  0.7818609E-02  0.9290879E-01
       -1   -1    0    0    0  501  0.00000000000E+00  0.00000000000E+00  0.39850048483E+03  0.39850048486E+03  0.50400001928E-02 0. -1.
        1   -1    0    0  501    0  0.00000000000E+00  0.00000000000E+00 -0.64793048672E+03  0.64793048674E+03  0.50400001928E-02 0.  1.
    10030    2    1    2    0    0  0.00000000000E+00  0.00000000000E+00 -0.24943000189E+03  0.10464309716E+04  0.10162688879E+04 0.  0.
        3    1    3    3  502    0  0.38358521327E+02 -0.45919436517E+03  0.95813739563E+02  0.47064968294E+03  0.10100000352E+00 0. -1.
       -3    1    3    3    0  502 -0.38358521327E+02  0.45919436517E+03 -0.34524374145E+03  0.57578128866E+03  0.10100000352E+00 0.  1.
</event>
<event>
 5   0  0.1240503E-02  0.1007622E+04  0.7818609E-02  0.9300224E-01
       -2   -1    0    0    0  501  0.00000000000E+00  0.00000000000E+00  0.11594678303E+03  0.11594678306E+03  0.25500000920E-02 0.  1.
        2   -1    0    0  501    0  0.00000000000E+00  0.00000000000E+00 -0.21891551536E+04  0.21891551536E+04  0.25500000920E-02 0. -1.
    10030    2    1    2    0    0  0.00000000000E+00  0.00000000000E+00 -0.20732083706E+04  0.23051019367E+04  0.10076219483E+04 0.  0.
        1    1    3    3  502    0  0.11366895393E+03  0.34205308252E+03 -0.18418642348E+04  0.18768017481E+04  0.50400001928E-02 0. -1.
       -1    1    3    3    0  502 -0.11366895393E+03 -0.34205308252E+03 -0.23134413585E+03  0.42830018861E+03  0.50400001928E-02 0.  1.
</event>
<event>
 5   0  0.4782125E-03  0.1080417E+04  0.7818609E-02  0.9224492E-01
        4   -1    0    0  501    0  0.00000000000E+00  0.00000000000E+00  0.75288634069E+03  0.75288741183E+03  0.12699999809E+01 0.  1.
       -4   -1    0    0    0  501  0.00000000000E+00  0.00000000000E+00 -0.38760600873E+03  0.38760808932E+03  0.12699999809E+01 0. -1.
    10030    2    1    2    0    0  0.00000000000E+00  0.00000000000E+00  0.36528033196E+03  0.11404955012E+04  0.10804167100E+04 0.  0.
        5    1    3    3  502    0  0.26235418564E+03  0.44766328869E+03  0.34123028546E+03  0.62104133234E+03  0.46999998093E+01 0. -1.
       -5    1    3    3    0  502 -0.26235418564E+03 -0.44766328869E+03  0.24050046502E+02  0.51945416881E+03  0.46999998093E+01 0.  1.
</event>
<event>
 5   0  0.1240503E-02  0.9908445E+03  0.7818609E-02  0.9318644E-01
       -2   -1    0    0    0  501  0.00000000000E+00  0.00000000000E+00  0.24487553344E+03  0.24487553346E+03  0.25500000920E-02 0. -1.
        2   -1    0    0  501    0  0.00000000000E+00  0.00000000000E+00 -0.10023181625E+04  0.10023181625E+04  0.25500000920E-02 0.  1.
    10030    2    1    2    0    0  0.00000000000E+00  0.00000000000E+00 -0.75744262903E+03  0.12471936959E+04  0.99084447766E+03 0.  0.
        1    1    3    3  502    0 -0.73832068230E+02 -0.61068270445E+02  0.23310194436E+03  0.25202584082E+03  0.50400001928E-02 0. -1.
       -1    1    3    3    0  502  0.73832068230E+02  0.61068270445E+02 -0.99054457339E+03  0.99516785511E+03  0.50400001928E-02 0.  1.
</event>
<event>
 5   0  0.4782125E-03  0.8832364E+03  0.7818609E-02  0.9446783E-01
        4   -1    0    0  501    0  0.00000000000E+00  0.00000000000E+00  0.14576293653E+03  0.14576846904E+03  0.12699999809E+01 0. -1.
       -4   -1    0    0    0  501  0.00000000000E+00  0.00000000000E+00 -0.13379400502E+04  0.13379406529E+04  0.12699999809E+01 0.  1.
    10030    2    1    2    0    0  0.00000000000E+00  0.00000000000E+00 -0.11921771136E+04  0.14837091219E+04  0.88323637170E+03 0.  0.
        4    1    3    3  502    0 -0.11801104227E+03 -0.42037565401E+03 -0.48487869079E+03  0.65249617184E+03  0.12699999809E+01 0. -1.
       -4    1    3    3    0  502  0.11801104227E+03  0.42037565401E+03 -0.70729842284E+03  0.83121295011E+03  0.12699999809E+01 0.  1.
</event>
<event>
 5   0  0.1221315E-02  0.1003445E+04  0.7818609E-02  0.9304774E-01
       -2   -1    0    0    0  501  0.00000000000E+00  0.00000000000E+00  0.28637853173E+03  0.28637853174E+03  0.25500000920E-02 0. -1.
        2   -1    0    0  501    0  0.00000000000E+00  0.00000000000E+00 -0.87899560500E+03  0.87899560501E+03  0.25500000920E-02 0.  1.
    10030    2    1    2    0    0  0.00000000000E+00  0.00000000000E+00 -0.59261707328E+03  0.11653741367E+04  0.10034450075E+04 0.  0.
        5    1    3    3  502    0  0.31113212415E+03 -0.16297528139E+03 -0.71236428825E+03  0.79426010236E+03  0.46999998093E+01 0.  1.
       -5    1    3    3    0  502 -0.31113212415E+03  0.16297528139E+03  0.11974721498E+03  0.37111403438E+03  0.46999998093E+01 0. -1.
</event>
<event>
 5   0  0.6967681E-03  0.1014057E+04  0.7818609E-02  0.9293260E-01
       -1   -1    0    0    0  501  0.00000000000E+00  0.00000000000E+00  0.18540077541E+03  0.18540077548E+03  0.50400001928E-02 0. -1.
        1   -1    0    0  501    0  0.00000000000E+00  0.00000000000E+00 -0.13866067208E+04  0.13866067208E+04  0.50400001928E-02 0.  1.
    10030    2    1    2    0    0  0.00000000000E+00  0.00000000000E+00 -0.12012059454E+04  0.15720074963E+04  0.10140571212E+04 0.  0.
        5    1    3    3  502    0  0.42488688044E+03  0.13893792473E+03 -0.22976986261E+03  0.50264190819E+03  0.46999998093E+01 0. -1.
       -5    1    3    3    0  502 -0.42488688044E+03 -0.13893792473E+03 -0.97143608277E+03  0.10693655881E+04  0.46999998093E+01 0.  1.
</event>
<event>
 5   0  0.4782125E-03  0.9923556E+03  0.7818609E-02  0.9316969E-01
       -3   -1    0    0    0  501  0.00000000000E+00  0.00000000000E+00  0.86338228771E+03  0.86338229362E+03  0.10100000352E+00 0. -1.
        3   -1    0    0  501    0  0.00000000000E+00  0.00000000000E+00 -0.28514879334E+03  0.28514881122E+03  0.10100000352E+00 0.  1.
    10030    2    1    2    0    0  0.00000000000E+00  0.00000000000E+00  0.57823349438E+03  0.11485311048E+04  0.99235564430E+03 0.  0.
        4    1    3    3  502    0  0.39399372298E+03  0.22390262556E+03  0.55259320578E+02  0.45652890915E+03  0.12699999809E+01 0.  1.
       -4    1    3    3    0  502 -0.39399372298E+03 -0.22390262556E+03  0.52297417380E+03  0.69200219569E+03  0.12699999809E+01 0. -1.
</event>
<event>
 5   0  0.7073004E-03  0.1022251E+04  0.7818609E-02  0.9284472E-01
       -1   -1    0    0    0  501  0.00000000000E+00  0.00000000000E+00  0.62796550703E+03  0.62796550705E+03  0.50400001928E-02 0. -1.
        1   -1    0    0  501    0  0.00000000000E+00  0.00000000000E+00 -0.41602448888E+03  0.41602448891E+03  0.50400001928E-02 0.  1.
    10030    2    1    2    0    0  0.00000000000E+00  0.00000000000E+00  0.21194101815E+03  0.10439899960E+04  0.10222505155E+04 0.  0.
        1    1    3    3  502    0  0.11705209010E+03  0.47017126681E+03 -0.60238241830E+02  0.48825286250E+03  0.50400001928E-02 0. -1.
       -1    1    3    3    0  502 -0.11705209010E+03 -0.47017126681E+03  0.27217925998E+03  0.55573713347E+03  0.50400001928E-02 0.  1.
</event>
<event>
 5   0  0.7224879E-03  0.1015481E+04  0.7818609E-02  0.9291726E-01
       -1   -1    0    0    0  501  0.00000000000E+00  0.00000000000E+00  0.15068334768E+04  0.15068334768E+04  0.50400001928E-02 0.  1.
        1   -1    0    0  501    0  0.00000000000E+00  0.00000000000E+00 -0.17108758838E+03  0.17108758846E+03  0.50400001928E-02 0. -1.
    10030    2    1    2    0    0  0.00000000000E+00  0.00000000000E+00  0.13357458884E+04  0.16779210653E+04  0.10154811780E+04 0.  0.
        3    1    3    3  502    0 -0.16923397950E+03  0.35619556075E+03  0.11963252400E+04  0.12596465804E+04  0.10100000352E+00 0.  1.
       -3    1    3    3    0  502  0.16923397950E+03 -0.35619556075E+03  0.13942064839E+03  0.41827448489E+03  0.10100000352E+00 0. -1.
</event>
<event>
 5   0  0.7224879E-03  0.1005913E+04  0.7818609E-02  0.9302083E-01
        1   -1    0    0  501    0  0.00000000000E+00  0.00000000000E+00  0.12714541905E+04  0.12714541905E+04  0.50400001928E-02 0. -1.
       -1   -1    0    0    0  501  0.00000000000E+00  0.00000000000E+00 -0.19895733925E+03  0.19895733931E+03  0.50400001928E-02 0.  1.
    10030    2    1    2    0    0  0.00000000000E+00  0.00000000000E+00  0.10724968513E+04  0.14704115298E+04  0.10059128049E+04 0.  0.
        3    1    3    3  502    0  0.49823232038E+02  0.15043496779E+03  0.12340068350E+04  0.12441406324E+04  0.10100000352E+00 0. -1.
       -3    1    3    3    0  502 -0.49823232038E+02 -0.15043496779E+03 -0.16150998377E+03  0.22627089747E+03  0.10100000352E+00 0.  1.
</event>
<event>
 5   0  0.1240503E-02  0.1023447E+04  0.7818609E-02  0.9283196E-01
       -2   -1    0    0    0  501  0.00000000000E+00  0.00000000000E+00  0.20995112681E+03  0.20995112682E+03  0.25500000920E-02 0. -1.
        2   -1    0    0  501    0  0.00000000000E+00  0.00000000000E+00 -0.12472478934E+04  0.12472478934E+04  0.25500000920E-02 0.  1.
    10030    2    1    2    0    0  0.00000000000E+00  0.00000000000E+00 -0.10372967666E+04  0.14571990203E+04  0.10234473131E+04 0.  0.
        1    1    3    3  502    0  0.45289559414E+03 -0.27018272864E+02 -0.85563458525E+03  0.96848074310E+03  0.50400001928E-02 0.  1.
       -1    1    3    3    0  502 -0.45289559414E+03  0.27018272864E+02 -0.18166218138E+03  0.48871827716E+03  0.50400001928E-02 0. -1.
</event>
<event>
 5   0  0.7241200E-03  0.1339581E+04  0.7818609E-02  0.8998753E-01
       -1   -1    0    0    0  501  0.00000000000E+00  0.00000000000E+00  0.60577586263E+03  0.60577586266E+03  0.50400001928E-02 0. -1.
        1   -1    0    0  501    0  0.00000000000E+00  0.00000000000E+00 -0.74057020259E+03  0.74057020261E+03  0.50400001928E-02 0.  1.
    10030    2    1    2    0    0  0.00000000000E+00  0.00000000000E+00 -0.13479433996E+03  0.13463460653E+04  0.13395813575E+04 0.  0.
        4    1    3    3  502    0  0.28904928473E+03 -0.28676474332E+03  0.46711026553E+03  0.61965887396E+03  0.12699999809E+01 0. -1.
       -4    1    3    3    0  502 -0.28904928473E+03  0.28676474332E+03 -0.60190460549E+03  0.72668719131E+03  0.12699999809E+01 0.  1.
</event>
<event>
 5   0  0.7073004E-03  0.1005189E+04  0.7818609E-02  0.9302872E-01
        1   -1    0    0  501    0  0.00000000000E+00  0.00000000000E+00  0.19628791242E+04  0.19628791242E+04  0.50400001928E-02 0.  1.
       -1   -1    0    0    0  501  0.00000000000E+00  0.00000000000E+00 -0.12868909489E+03  0.12868909499E+03  0.50400001928E-02 0. -1.
    10030    2    1    2    0    0  0.00000000000E+00  0.00000000000E+00  0.18341900293E+04  0.20915682192E+04  0.10051888141E+04 0.  0.
        1    1    3    3  502    0 -0.26689351054E+03  0.18022904150E+03  0.11421245341E+03  0.34170036276E+03  0.50400001928E-02 0. -1.
       -1    1    3    3    0  502  0.26689351054E+03 -0.18022904150E+03  0.17199775759E+04  0.17498678564E+04  0.50400001928E-02 0.  1.
</event>
<event>
 5   0  0.1216322E-02  0.1021821E+04  0.7818609E-02  0.9284931E-01
       -2   -1    0    0    0  501  0.00000000000E+00  0.00000000000E+00  0.13315939331E+03  0.13315939333E+03  0.25500000920E-02 0.  1.
        2   -1    0    0  501    0  0.00000000000E+00  0.00000000000E+00 -0.19602780338E+04  0.19602780338E+04  0.25500000920E-02 0. -1.
    10030    2    1    2    0    0  0.00000000000E+00  0.00000000000E+00 -0.18271186405E+04  0.20934374271E+04  0.10218207939E+04 0.  0.
        2    1    3    3  502    0  0.14886077486E+03 -0.19665109451E+03  0.31156792743E+01  0.24665946308E+03  0.25500000920E-02 0.  1.
       -2    1    3    3    0  502 -0.14886077486E+03  0.19665109451E+03 -0.18302343197E+04  0.18467779640E+04  0.25500000920E-02 0. -1.
</event>
<event>
 5   0  0.7224879E-03  0.1004837E+04  0.7818609E-02  0.9303255E-01
       -1   -1    0    0    0  501  0.00000000000E+00  0.00000000000E+00  0.43185000065E+03  0.43185000068E+03  0.50400001928E-02 0. -1.
        1   -1    0    0  501    0  0.00000000000E+00  0.00000000000E+00 -0.58451864946E+03  0.58451864949E+03  0.50400001928E-02 0.  1.
    10030    2    1    2    0    0  0.00000000000E+00  0.00000000000E+00 -0.15266864881E+03  0.10163686502E+04  0.10048370598E+04 0.  0.
        3    1    3    3  502    0  0.40457734553E+03 -0.10041543134E+03  0.20734510450E+03  0.46557286211E+03  0.10100000352E+00 0. -1.
       -3    1    3    3    0  502 -0.40457734553E+03  0.10041543134E+03 -0.36001375331E+03  0.55079578806E+03  0.10100000352E+00 0.  1.
</event>
<event>
 5   0  0.4782125E-03  0.1080124E+04  0.7818609E-02  0.9224783E-01
        3   -1    0    0  501    0  0.00000000000E+00  0.00000000000E+00  0.63890947775E+03  0.63890948574E+03  0.10100000352E+00 0.  1.
       -3   -1    0    0    0  501  0.00000000000E+00  0.00000000000E+00 -0.45650783820E+03  0.45650784937E+03  0.10100000352E+00 0. -1.
    10030    2    1    2    0    0  0.00000000000E+00  0.00000000000E+00  0.18240163955E+03  0.10954173351E+04  0.10801244280E+04 0.  0.
        1    1    3    3  502    0 -0.44699142481E+02 -0.50002522129E+03 -0.11072615287E+03  0.51408512546E+03  0.50400001928E-02 0.  1.
       -1    1    3    3    0  502  0.44699142481E+02  0.50002522129E+03  0.29312779243E+03  0.58133220965E+03  0.50400001928E-02 0. -1.
</event>
<event>
 5   0  0.1245850E-02  0.9493652E+03  0.7818609E-02  0.9365893E-01
        2   -1    0    0  501    0  0.00000000000E+00  0.00000000000E+00  0.66324143891E+03  0.66324143891E+03  0.25500000920E-02 0.  1.
       -2   -1    0    0    0  501  0.00000000000E+00  0.00000000000E+00 -0.33973083715E+03  0.33973083716E+03  0.25500000920E-02 0. -1.
    10030    2    1    2    0    0  0.00000000000E+00  0.00000000000E+00  0.32351060176E+03  0.10029722761E+04  0.94936519692E+03 0.  0.
        3    1    3    3  502    0 -0.99892974375E+02 -0.45148151923E+03  0.48415672237E+02  0.46492822678E+03  0.10100000352E+00 0. -1.
       -3    1    3    3    0  502  0.99892974375E+02  0.45148151923E+03  0.27509492952E+03  0.53804404930E+03  0.10100000352E+00 0.  1.
</event>
<event>
 5   0  0.7073004E-03  0.9964945E+03  0.7818609E-02  0.9312398E-01
       -1   -1    0    0    0  501  0.00000000000E+00  0.00000000000E+00  0.76145420231E+03  0.76145420232E+03  0.50400001928E-02 0. -1.
        1   -1    0    0  501    0  0.00000000000E+00  0.00000000000E+00 -0.32602136161E+03  0.32602136165E+03  0.50400001928E-02 0.  1.
    10030    2    1    2    0    0  0.00000000000E+00  0.00000000000E+00  0.43543284070E+03  0.10874755640E+04  0.99649452757E+03 0.  0.
        1    1    3    3  502    0 -0.80315218239E+02  0.38967875712E+03  0.54501628015E+03  0.67479094073E+03  0.50400001928E-02 0. -1.
       -1    1    3    3    0  502  0.80315218239E+02 -0.38967875712E+03 -0.10958343946E+03  0.41268462324E+03  0.50400001928E-02 0.  1.
</event>
<event>
 5   0  0.1216322E-02  0.9177597E+03  0.7818609E-02  0.9403649E-01
        2   -1    0    0  501    0  0.00000000000E+00  0.00000000000E+00  0.14616845837E+04  0.14616845837E+04  0.25500000920E-02 0. -1.
       -2   -1    0    0    0  501  0.00000000000E+00  0.00000000000E+00 -0.14406030494E+03  0.14406030496E+03  0.25500000920E-02 0.  1.
    10030    2    1    2    0    0  0.00000000000E+00  0.00000000000E+00  0.13176242788E+04  0.16057448887E+04  0.91775972210E+03 0.  0.
        2    1    3    3  502    0  0.29867867503E+03 -0.19368952779E+02  0.12673901074E+04  0.13022525836E+04  0.25500000920E-02 0. -1.
       -2    1    3    3    0  502 -0.29867867503E+03  0.19368952779E+02  0.50234171393E+02  0.30349230506E+03  0.25500000920E-02 0.  1.
</event>
<event>
 5   0  0.7461157E-03  0.9923942E+03  0.7818609E-02  0.9316926E-01
        1   -1    0    0  501    0  0.00000000000E+00  0.00000000000E+00  0.59368873103E+03  0.59368873105E+03  0.50400001928E-02 0.  1.
       -1   -1    0    0    0  501  0.00000000000E+00  0.00000000000E+00 -0.41471485751E+03  0.41471485754E+03  0.50400001928E-02 0. -1.
    10030    2    1    2    0    0  0.00000000000E+00  0.00000000000E+00  0.17897387352E+03  0.10084035886E+04  0.99239415056E+03 0.  0.
        2    1    3    3  502    0  0.48776460375E+03  0.89993024585E+02  0.10380266142E+03  0.50674258324E+03  0.25500000920E-02 0.  1.
       -2    1    3    3    0  502 -0.48776460375E+03 -0.89993024585E+02  0.75171212100E+02  0.50166100534E+03  0.25500000920E-02 0. -1.
</event>
<event>
 5   0  0.1245850E-02  0.9915365E+03  0.7818609E-02  0.9317876E-01
       -2   -1    0    0    0  501  0.00000000000E+00  0.00000000000E+00  0.64029471996E+03  0.64029471996E+03  0.25500000920E-02 0.  1.
        2   -1    0    0  501    0  0.00000000000E+00  0.00000000000E+00 -0.38386412504E+03  0.38386412505E+03  0.25500000920E-02 0. -1.
    10030    2    1    2    0    0  0.00000000000E+00  0.00000000000E+00  0.25643059492E+03  0.10241588450E+04  0.99153652974E+03 0.  0.
        3    1    3    3  502    0  0.32232165528E+03 -0.27776583048E+03  0.39102929451E+03  0.57788322818E+03  0.10100000352E+00 0.  1.
       -3    1    3    3    0  502 -0.32232165528E+03  0.27776583048E+03 -0.13459869959E+03  0.44627561683E+03  0.10100000352E+00 0. -1.
</event>
<event>
 5   0  0.1221315E-02  0.9916420E+03  0.7818609E-02  0.9317760E-01
       -2   -1    0    0    0  501  0.00000000000E+00  0.00000000000E+00  0.90105261965E+03  0.90105261965E+03  0.25500000920E-02 0. -1.
        2   -1    0    0  501    0  0.00000000000E+00  0.00000000000E+00 -0.27283473796E+03  0.27283473797E+03  0.25500000920E-02 0.  1.
    10030    2    1    2    0    0  0.00000000000E+00  0.00000000000E+00  0.62821788169E+03  0.11738873576E+04  0.99164198252E+03 0.  0.
        5    1    3    3  502    0  0.22103070452E+03  0.26532942468E+03  0.73524588213E+03  0.81231944033E+03  0.46999998093E+01 0. -1.
       -5    1    3    3    0  502 -0.22103070452E+03 -0.26532942468E+03 -0.10702800044E+03  0.36156791729E+03  0.46999998093E+01 0.  1.
</event>
<event>
 5   0  0.7461157E-03  0.1004755E+04  0.7818609E-02  0.9303344E-01
       -1   -1    0    0    0  501  0.00000000000E+00  0.00000000000E+00  0.30592511620E+03  0.30592511624E+03  0.50400001928E-02 0.  1.
        1   -1    0    0  501    0  0.00000000000E+00  0.00000000000E+00 -0.82498419410E+03  0.82498419411E+03  0.50400001928E-02 0. -1.
    10030    2    1    2    0    0  0.00000000000E+00  0.00000000000E+00 -0.51905907789E+03  0.11309093104E+04  0.10047554637E+04 0.  0.
        2    1    3    3  502    0 -0.89249483204E+02 -0.49040995192E+03 -0.32996452405E+03  0.59778255105E+03  0.25500000920E-02 0.  1.
       -2    1    3    3    0  502  0.89249483204E+02  0.49040995192E+03 -0.18909455384E+03  0.53312675931E+03  0.25500000920E-02 0. -1.
</event>
<event>
 5   0  0.1245850E-02  0.1042035E+04  0.7818609E-02  0.9263606E-01
       -2   -1    0    0    0  501  0.00000000000E+00  0.00000000000E+00  0.19229036952E+04  0.19229036952E+04  0.25500000920E-02 0.  1.
        2   -1    0    0  501    0  0.00000000000E+00  0.00000000000E+00 -0.14117161890E+03  0.14117161893E+03  0.25500000920E-02 0. -1.
    10030    2    1    2    0    0  0.00000000000E+00  0.00000000000E+00  0.17817320763E+04  0.20640753141E+04  0.10420353692E+04 0.  0.
        3    1    3    3  502    0 -0.17350817470E+03  0.38438734225E+03  0.28485207293E+03  0.50891986522E+03  0.10100000352E+00 0. -1.
       -3    1    3    3    0  502  0.17350817470E+03 -0.38438734225E+03  0.14968800034E+04  0.15551554489E+04  0.10100000352E+00 0.  1.
</event>
<event>
 5   0  0.1240503E-02  0.1030236E+04  0.7818609E-02  0.9275990E-01
        2   -1    0    0  501    0  0.00000000000E+00  0.00000000000E+00  0.13041535990E+04  0.13041535990E+04  0.25500000920E-02 0.  1.
       -2   -1    0    0    0  501  0.00000000000E+00  0.00000000000E+00 -0.20346279165E+03  0.20346279166E+03  0.25500000920E-02 0. -1.
    10030    2    1    2    0    0  0.00000000000E+00  0.00000000000E+00  0.11006908074E+04  0.15076163907E+04  0.10302363457E+04 0.  0.
        1    1    3    3  502    0 -0.54890182990E+02 -0.46412207647E+03  0.86734141705E+03  0.98524279637E+03  0.50400001928E-02 0.  1.
       -1    1    3    3    0  502  0.54890182990E+02  0.46412207647E+03  0.23334939034E+03  0.52237359433E+03  0.50400001928E-02 0. -1.
</event>
<event>
 5   0  0.7224879E-03  0.8816962E+03  0.7818609E-02  0.9448756E-01
       -1   -1    0    0    0  501  0.00000000000E+00  0.00000000000E+00  0.30787925658E+03  0.30787925662E+03  0.50400001928E-02 0.  1.
        1   -1    0    0  501    0  0.00000000000E+00  0.00000000000E+00 -0.63124433215E+03  0.63124433217E+03  0.50400001928E-02 0. -1.
    10030    2    1    2    0    0  0.00000000000E+00  0.00000000000E+00 -0.32336507557E+03  0.93912358879E+03  0.88169617381E+03 0.  0.
        3    1    3    3  502    0  0.20331291599E+03 -0.12229557216E+03  0.23407514527E+03  0.33329196302E+03  0.10100000352E+00 0.  1.
       -3    1    3    3    0  502 -0.20331291599E+03  0.12229557216E+03 -0.55744022083E+03  0.60583162577E+03  0.10100000352E+00 0. -1.
</event>
<event>
 5   0  0.1245850E-02  0.1027750E+04  0.7818609E-02  0.9278622E-01
       -2   -1    0    0    0  501  0.00000000000E+00  0.00000000000E+00  0.28677273526E+03  0.28677273528E+03  0.25500000920E-02 0. -1.
        2   -1    0    0  501    0  0.00000000000E+00  0.00000000000E+00 -0.92082571174E+03  0.92082571174E+03  0.25500000920E-02 0.  1.
    10030    2    1    2    0    0  0.00000000000E+00  0.00000000000E+00 -0.63405297647E+03  0.12075984470E+04  0.10277503745E+04 0.  0.
        3    1    3    3  502    0  0.18156268374E+03 -0.47879300802E+03 -0.36770046385E+03  0.63040573758E+03  0.10100000352E+00 0.  1.
       -3    1    3    3    0  502 -0.18156268374E+03  0.47879300802E+03 -0.26635251262E+03  0.57719270944E+03  0.10100000352E+00 0. -1.
</event>
<event>
 5   0  0.7241200E-03  0.1004313E+04  0.7818609E-02  0.9303827E-01
       -1   -1    0    0    0  501  0.00000000000E+00  0.00000000000E+00  0.19044040839E+03  0.19044040845E+03  0.50400001928E-02 0.  1.
        1   -1    0    0  501    0  0.00000000000E+00  0.00000000000E+00 -0.13240949064E+04  0.13240949064E+04  0.50400001928E-02 0. -1.
    10030    2    1    2    0    0  0.00000000000E+00  0.00000000000E+00 -0.11336544980E+04  0.15145353148E+04  0.10043130483E+04 0.  0.
        4    1    3    3  502    0 -0.33935853083E+03 -0.32277658606E+03 -0.29366696839E+03  0.55280271181E+03  0.12699999809E+01 0.  1.
       -4    1    3    3    0  502  0.33935853083E+03  0.32277658606E+03 -0.83998752959E+03  0.96173260302E+03  0.12699999809E+01 0. -1.
</event>
<event>
 5   0  0.7073004E-03  0.8430720E+03  0.7818609E-02  0.9499683E-01
       -1   -1    0    0    0  501  0.00000000000E+00  0.00000000000E+00  0.60278762550E+03  0.60278762552E+03  0.50400001928E-02 0.  1.
        1   -1    0    0  501    0  0.00000000000E+00  0.00000000000E+00 -0.29478472939E+03  0.29478472944E+03  0.50400001928E-02 0. -1.
    10030    2    1    2    0    0  0.00000000000E+00  0.00000000000E+00  0.30800289611E+03  0.89757235496E+03  0.84307197105E+03 0.  0.
        1    1    3    3  502    0  0.26853997459E+03 -0.19214445035E+03  0.43296968231E+03  0.54451442000E+03  0.50400001928E-02 0.  1.
       -1    1    3    3    0  502 -0.26853997459E+03  0.19214445035E+03 -0.12496678621E+03  0.35305793496E+03  0.50400001928E-02 0. -1.
</event>
<event>
 5   0  0.7224879E-03  0.9726898E+03  0.7818609E-02  0.9339016E-01
        1   -1    0    0  501    0  0.00000000000E+00  0.00000000000E+00  0.86004272800E+03  0.86004272802E+03  0.50400001928E-02 0. -1.
       -1   -1    0    0    0  501  0.00000000000E+00  0.00000000000E+00 -0.27502277565E+03  0.27502277570E+03  0.50400001928E-02 0.  1.
    10030    2    1    2    0    0  0.00000000000E+00  0.00000000000E+00  0.58501995235E+03  0.11350655037E+04  0.97268975170E+03 0.  0.
        3    1    3    3  502    0  0.37150474222E+03 -0.50035739065E+02 -0.69074100168E+02  0.38117002792E+03  0.10100000352E+00 0.  1.
       -3    1    3    3    0  502 -0.37150474222E+03  0.50035739065E+02  0.65409405252E+03  0.75389547579E+03  0.10100000352E+00 0. -1.
</event>
<event>
 5   0  0.1191822E-02  0.9388157E+03  0.7818609E-02  0.9378320E-01
       -2   -1    0    0    0  501  0.00000000000E+00  0.00000000000E+00  0.23972989464E+03  0.23972989465E+03  0.25500000920E-02 0. -1.
        2   -1    0    0  501    0  0.00000000000E+00  0.00000000000E+00 -0.91913329768E+03  0.91913329768E+03  0.25500000920E-02 0.  1.
    10030    2    1    2    0    0  0.00000000000E+00  0.00000000000E+00 -0.67940340304E+03  0.11588631923E+04  0.93881569782E+03 0.  0.
        4    1    3    3  502    0 -0.12959465304E+03 -0.99302048393E+02  0.20355043136E+03  0.26094072491E+03  0.12699999809E+01 0. -1.
       -4    1    3    3    0  502  0.12959465304E+03  0.99302048393E+02 -0.88295383440E+03  0.89792246742E+03  0.12699999809E+01 0.  1.
</event>
<event>
 5   0  0.1191822E-02  0.8292633E+03  0.7818609E-02  0.9518600E-01
       -2   -1    0    0    0  501  0.00000000000E+00  0.00000000000E+00  0.15688262140E+03  0.15688262142E+03  0.25500000920E-02 0. -1.
        2   -1    0    0  501    0  0.00000000000E+00  0.00000000000E+00 -0.10958474805E+04  0.10958474805E+04  0.25500000920E-02 0.  1.
    10030    2    1    2    0    0  0.00000000000E+00  0.00000000000E+00 -0.93896485912E+03  0.12527301020E+04  0.82926334881E+03 0.  0.
        4    1    3    3  502    0 -0.31926210114E+03 -0.41448028646E+01 -0.69879877606E+02  0.32684901531E+03  0.12699999809E+01 0. -1.
       -4    1    3    3    0  502  0.31926210114E+03  0.41448028646E+01 -0.86908498152E+03  0.92588108665E+03  0.12699999809E+01 0.  1.
</event>
<event>
 5   0  0.4782125E-03  0.1006710E+04  0.7818609E-02  0.9301216E-01
       -4   -1    0    0    0  501  0.00000000000E+00  0.00000000000E+00  0.37333626220E+03  0.37333842232E+03  0.12699999809E+01 0.  1.
        4   -1    0    0  501    0  0.00000000000E+00  0.00000000000E+00 -0.67864915806E+03  0.67865034638E+03  0.12699999809E+01 0. -1.
    10030    2    1    2    0    0  0.00000000000E+00  0.00000000000E+00 -0.30531289586E+03  0.10519887687E+04  0.10067096926E+04 0.  0.
        1    1    3    3  502    0  0.10176907780E+03  0.38546785541E+03  0.16844874857E+03  0.43280179491E+03  0.50400001928E-02 0.  1.
       -1    1    3    3    0  502 -0.10176907780E+03 -0.38546785541E+03 -0.47376164443E+03  0.61918697379E+03  0.50400001928E-02 0. -1.
</event>
<event>
 5   0  0.7224879E-03  0.1014392E+04  0.7818609E-02  0.9292899E-01
       -1   -1    0    0    0  501  0.00000000000E+00  0.00000000000E+00  0.37931846507E+03  0.37931846511E+03  0.50400001928E-02 0. -1.
        1   -1    0    0  501    0  0.00000000000E+00  0.00000000000E+00 -0.67818468435E+03  0.67818468437E+03  0.50400001928E-02 0.  1.
    10030    2    1    2    0    0  0.00000000000E+00  0.00000000000E+00 -0.29886621928E+03  0.10575031495E+04  0.10143923768E+04 0.  0.
        3    1    3    3  502    0 -0.31647208138E+03  0.30999608658E+03  0.10803633658E+03  0.45598685530E+03  0.10100000352E+00 0. -1.
       -3    1    3    3    0  502  0.31647208138E+03 -0.30999608658E+03 -0.40690255585E+03  0.60151629417E+03  0.10100000352E+00 0.  1.
</event>
<event>
 5   0  0.6967681E-03  0.9984528E+03  0.7818609E-02  0.9310243E-01
       -1   -1    0    0    0  501  0.00000000000E+00  0.00000000000E+00  0.67643628595E+03  0.67643628597E+03  0.50400001928E-02 0. -1.
        1   -1    0    0  501    0  0.00000000000E+00  0.00000000000E+00 -0.36844122199E+03  0.36844122203E+03  0.50400001928E-02 0.  1.
    10030    2    1    2    0    0  0.00000000000E+00  0.00000000000E+00  0.30799506396E+03  0.10448775080E+04  0.99845282677E+03 0.  0.
        5    1    3    3  502    0  0.72030691811E+02 -0.40667023064E+03 -0.13946188670E+03  0.43593669827E+03  0.46999998093E+01 0.  1.
       -5    1    3    3    0  502 -0.72030691811E+02  0.40667023064E+03  0.44745695066E+03  0.60894080972E+03  0.46999998093E+01 0. -1.
</event>
<event>
 5   0  0.1216322E-02  0.8266877E+03  0.7818609E-02  0.9522171E-01
       -2   -1    0    0    0  501  0.00000000000E+00  0.00000000000E+00  0.16640949760E+03  0.16640949762E+03  0.25500000920E-02 0.  1.
        2   -1    0    0  501    0  0.00000000000E+00  0.00000000000E+00 -0.10267029379E+04  0.10267029379E+04  0.25500000920E-02 0. -1.
    10030    2    1    2    0    0  0.00000000000E+00  0.00000000000E+00 -0.86029344032E+03  0.11931124355E+04  0.82668765587E+03 0.  0.
        2    1    3    3  502    0  0.26468693551E+02 -0.21337727385E+03  0.79346536949E+02  0.22918622486E+03  0.25500000920E-02 0.  1.
       -2    1    3    3    0  502 -0.26468693551E+02  0.21337727385E+03 -0.93963997726E+03  0.96392621067E+03  0.25500000920E-02 0. -1.
</event>
<event>
 5   0  0.1245850E-02  0.9878719E+03  0.7818609E-02  0.9321948E-01
        2   -1    0    0  501    0  0.00000000000E+00  0.00000000000E+00  0.99436638340E+03  0.99436638341E+03  0.25500000920E-02 0.  1.
       -2   -1    0    0    0  501  0.00000000000E+00  0.00000000000E+00 -0.24535497436E+03  0.24535497438E+03  0.25500000920E-02 0. -1.
    10030    2    1    2    0    0  0.00000000000E+00  0.00000000000E+00  0.74901140904E+03  0.12397213578E+04  0.98787193202E+03 0.  0.
        3    1    3    3  502    0  0.10849893344E+02  0.23775471964E+03  0.91766152668E+03  0.94802305597E+03  0.10100000352E+00 0.  1.
       -3    1    3    3    0  502 -0.10849893344E+02 -0.23775471964E+03 -0.16865011764E+03  0.29169830181E+03  0.10100000352E+00 0. -1.
</event>
<event>
 5   0  0.1240503E-02  0.9824031E+03  0.7818609E-02  0.9328058E-01
        2   -1    0    0  501    0  0.00000000000E+00  0.00000000000E+00  0.29821087506E+04  0.29821087506E+04  0.25500000920E-02 0.  1.
       -2   -1    0    0    0  501  0.00000000000E+00  0.00000000000E+00 -0.80908846172E+02  0.80908846212E+02  0.25500000920E-02 0. -1.
    10030    2    1    2    0    0  0.00000000000E+00  0.00000000000E+00  0.29011999045E+04  0.30630175969E+04  0.98240313158E+03 0.  0.
        1    1    3    3  502    0 -0.30258403684E+03  0.11845833079E+03  0.25991049227E+04  0.26193388240E+04  0.50400001928E-02 0.  1.
       -1    1    3    3    0  502  0.30258403684E+03 -0.11845833079E+03  0.30209498179E+03  0.44367877291E+03  0.50400001928E-02 0. -1.
</event>
<event>
 5   0  0.1216322E-02  0.9227488E+03  0.7818609E-02  0.9397583E-01
       -2   -1    0    0    0  501  0.00000000000E+00  0.00000000000E+00  0.91214301411E+03  0.91214301412E+03  0.25500000920E-02 0.  1.
        2   -1    0    0  501    0  0.00000000000E+00  0.00000000000E+00 -0.23336946729E+03  0.23336946730E+03  0.25500000920E-02 0. -1.
    10030    2    1    2    0    0  0.00000000000E+00  0.00000000000E+00  0.67877354683E+03  0.11455124814E+04  0.92274878337E+03 0.  0.
        2    1    3    3  502    0  0.42300284052E+01  0.40990969932E+03  0.76563234356E+02  0.41702012374E+03  0.25500000920E-02 0. -1.
       -2    1    3    3    0  502 -0.42300284052E+01 -0.40990969932E+03  0.60221031247E+03  0.72849235768E+03  0.25500000920E-02 0.  1.
</event>
<event>
 5   0  0.1245850E-02  0.9819485E+03  0.7818609E-02  0.9328568E-01
       -2   -1    0    0    0  501  0.00000000000E+00  0.00000000000E+00  0.15388782795E+03  0.15388782797E+03  0.25500000920E-02 0.  1.
        2   -1    0    0  501    0  0.00000000000E+00  0.00000000000E+00 -0.15664378235E+04  0.15664378235E+04  0.25500000920E-02 0. -1.
    10030    2    1    2    0    0  0.00000000000E+00  0.00000000000E+00 -0.14125499955E+04  0.17203256515E+04  0.98194850027E+03 0.  0.
        3    1    3    3  502    0 -0.24570023977E+03 -0.26344626048E+03 -0.12183936524E+03  0.38028592021E+03  0.10100000352E+00 0.  1.
       -3    1    3    3    0  502  0.24570023977E+03  0.26344626048E+03 -0.12907106303E+04  0.13400397312E+04  0.10100000352E+00 0. -1.
</event>
<event>
 5   0  0.7224879E-03  0.9880486E+03  0.7818609E-02  0.9321751E-01
        1   -1    0    0  501    0  0.00000000000E+00  0.00000000000E+00  0.10656576216E+04  0.10656576216E+04  0.50400001928E-02 0. -1.
       -1   -1    0    0    0  501  0.00000000000E+00  0.00000000000E+00 -0.22902289783E+03  0.22902289788E+03  0.50400001928E-02 0.  1.
    10030    2    1    2    0    0  0.00000000000E+00  0.00000000000E+00  0.83663472372E+03  0.12946805194E+04  0.98804857497E+03 0.  0.
        3    1    3    3  502    0  0.47162999130E+03  0.14704970264E+03  0.41993428246E+03  0.64838512902E+03  0.10100000352E+00 0. -1.
       -3    1    3    3    0  502 -0.47162999130E+03 -0.14704970264E+03  0.41670044126E+03  0.64629539043E+03  0.10100000352E+00 0.  1.
</event>
<event>
 5   0  0.1221315E-02  0.1010651E+04  0.7818609E-02  0.9296939E-01
        2   -1    0    0  501    0  0.00000000000E+00  0.00000000000E+00  0.35551550867E+03  0.35551550868E+03  0.25500000920E-02 0.  1.
       -2   -1    0    0    0  501  0.00000000000E+00  0.00000000000E+00 -0.71826430690E+03  0.71826430690E+03  0.25500000920E-02 0. -1.
    10030    2    1    2    0    0  0.00000000000E+00  0.00000000000E+00 -0.36274879822E+03  0.10737798156E+04  0.10106514739E+04 0.  0.
        5    1    3    3  502    0 -0.75028554281E+02 -0.15141892364E+03  0.32458007962E+03  0.36596624500E+03  0.46999998093E+01 0.  1.
       -5    1    3    3    0  502  0.75028554281E+02  0.15141892364E+03 -0.68732887784E+03  0.70781357059E+03  0.46999998093E+01 0. -1.
</event>
<event>
 5   0  0.6967681E-03  0.9952285E+03  0.7818609E-02  0.9313794E-01
        1   -1    0    0  501    0  0.00000000000E+00  0.00000000000E+00  0.41546546247E+03  0.41546546250E+03  0.50400001928E-02 0.  1.
       -1   -1    0    0    0  501  0.00000000000E+00  0.00000000000E+00 -0.59600611638E+03  0.59600611640E+03  0.50400001928E-02 0. -1.
    10030    2    1    2    0    0  0.00000000000E+00  0.00000000000E+00 -0.18054065391E+03  0.10114715789E+04  0.99522853014E+03 0.  0.
        5    1    3    3  502    0  0.29509709272E+03  0.15134383212E+03 -0.46728377177E+03  0.57303007164E+03  0.46999998093E+01 0. -1.
       -5    1    3    3    0  502 -0.29509709272E+03 -0.15134383212E+03  0.28674311786E+03  0.43844150726E+03  0.46999998093E+01 0.  1.
</event>
<event>
 5   0  0.7224879E-03  0.9930331E+03  0.7818609E-02  0.9316219E-01
        1   -1    0    0  501    0  0.00000000000E+00  0.00000000000E+00  0.15106393270E+04  0.15106393270E+04  0.50400001928E-02 0.  1.
       -1   -1    0    0    0  501  0.00000000000E+00  0.00000000000E+00 -0.16319492709E+03  0.16319492717E+03  0.50400001928E-02 0. -1.
    10030    2    1    2    0    0  0.00000000000E+00  0.00000000000E+00  0.13474443999E+04  0.16738342541E+04  0.99303308082E+03 0.  0.
        3    1    3    3  502    0 -0.15973077344E+03 -0.32562669628E+03  0.12452846155E+04  0.12970275437E+04  0.10100000352E+00 0.  1.
       -3    1    3    3    0  502  0.15973077344E+03  0.32562669628E+03  0.10215978441E+03  0.37680671048E+03  0.10100000352E+00 0. -1.
</event>
<event>
 5   0  0.1245850E-02  0.9676608E+03  0.7818609E-02  0.9344743E-01
        2   -1    0    0  501    0  0.00000000000E+00  0.00000000000E+00  0.14613446542E+04  0.14613446542E+04  0.25500000920E-02 0.  1.
       -2   -1    0    0    0  501  0.00000000000E+00  0.00000000000E+00 -0.16018934046E+03  0.16018934048E+03  0.25500000920E-02 0. -1.
    10030    2    1    2    0    0  0.00000000000E+00  0.00000000000E+00  0.13011553137E+04  0.16215339947E+04  0.96766075950E+03 0.  0.
        3    1    3    3  502    0  0.27470668063E+03  0.35552829235E+03  0.95140518708E+03  0.10521577673E+04  0.10100000352E+00 0.  1.
       -3    1    3    3    0  502 -0.27470668063E+03 -0.35552829235E+03  0.34975012666E+03  0.56937622742E+03  0.10100000352E+00 0. -1.
</event>
<event>
 5   0  0.7073004E-03  0.9658918E+03  0.7818609E-02  0.9346766E-01
        1   -1    0    0  501    0  0.00000000000E+00  0.00000000000E+00  0.37442945893E+03  0.37442945896E+03  0.50400001928E-02 0. -1.
       -1   -1    0    0    0  501  0.00000000000E+00  0.00000000000E+00 -0.62291231201E+03  0.62291231203E+03  0.50400001928E-02 0.  1.
    10030    2    1    2    0    0  0.00000000000E+00  0.00000000000E+00 -0.24848285308E+03  0.99734177099E+03  0.96589175372E+03 0.  0.
        1    1    3    3  502    0  0.21190952631E+03  0.22032180490E+03  0.26181664044E+03  0.40248639516E+03  0.50400001928E-02 0. -1.
       -1    1    3    3    0  502 -0.21190952631E+03 -0.22032180490E+03 -0.51029949352E+03  0.59485537584E+03  0.50400001928E-02 0.  1.
</event>
<event>
 5   0  0.7224879E-03  0.1002459E+04  0.7818609E-02  0.9305852E-01
       -1   -1    0    0    0  501  0.00000000000E+00  0.00000000000E+00  0.14931536909E+03  0.14931536918E+03  0.50400001928E-02 0.  1.
        1   -1    0    0  501    0  0.00000000000E+00  0.00000000000E+00 -0.16825541670E+04  0.16825541670E+04  0.50400001928E-02 0. -1.
    10030    2    1    2    0    0  0.00000000000E+00  0.00000000000E+00 -0.15332387979E+04  0.18318695362E+04  0.10024593689E+04 0.  0.
        3    1    3    3  502    0 -0.23013946486E+03  0.39974329722E+03 -0.40819143130E+03  0.61593760377E+03  0.10100000352E+00 0.  1.
       -3    1    3    3    0  502  0.23013946486E+03 -0.39974329722E+03 -0.11250473666E+04  0.12159319324E+04  0.10100000352E+00 0. -1.
</event>
<event>
 5   0  0.7461157E-03  0.9891906E+03  0.7818609E-02  0.9320480E-01
        1   -1    0    0  501    0  0.00000000000E+00  0.00000000000E+00  0.81692249136E+03  0.81692249138E+03  0.50400001928E-02 0. -1.
       -1   -1    0    0    0  501  0.00000000000E+00  0.00000000000E+00 -0.29944643144E+03  0.29944643148E+03  0.50400001928E-02 0.  1.
    10030    2    1    2    0    0  0.00000000000E+00  0.00000000000E+00  0.51747605992E+03  0.11163689229E+04  0.98919062840E+03 0.  0.
        2    1    3    3  502    0 -0.30524555839E+03  0.14621786888E+03  0.66575857331E+03  0.74685272581E+03  0.25500000920E-02 0. -1.
       -2    1    3    3    0  502  0.30524555839E+03 -0.14621786888E+03 -0.14828251339E+03  0.36951619705E+03  0.25500000920E-02 0.  1.
</event>
<event>
 5   0  0.6967681E-03  0.9771383E+03  0.7818609E-02  0.9333981E-01
       -1   -1    0    0    0  501  0.00000000000E+00  0.00000000000E+00  0.21507633008E+03  0.21507633014E+03  0.50400001928E-02 0.  1.
        1   -1    0    0  501    0  0.00000000000E+00  0.00000000000E+00 -0.11098377014E+04  0.11098377014E+04  0.50400001928E-02 0. -1.
    10030    2    1    2    0    0  0.00000000000E+00  0.00000000000E+00 -0.89476137135E+03  0.13249140316E+04  0.97713831129E+03 0.  0.
        5    1    3    3  502    0 -0.25302084269E+03 -0.38253846386E+03 -0.67557115533E+03  0.81656212200E+03  0.46999998093E+01 0. -1.
       -5    1    3    3    0  502  0.25302084269E+03  0.38253846386E+03 -0.21919021601E+03  0.50835190957E+03  0.46999998093E+01 0.  1.
</event>
<event>
 5   0  0.1191822E-02  0.1015192E+04  0.7818609E-02  0.9292037E-01
       -2   -1    0    0    0  501  0.00000000000E+00  0.00000000000E+00  0.11900150905E+04  0.11900150905E+04  0.25500000920E-02 0. -1.
        2   -1    0    0  501    0  0.00000000000E+00  0.00000000000E+00 -0.21651314651E+03  0.21651314653E+03  0.25500000920E-02 0.  1.
    10030    2    1    2    0    0  0.00000000000E+00  0.00000000000E+00  0.97350194402E+03  0.14065282371E+04  0.10151924185E+04 0.  0.
        4    1    3    3  502    0  0.17842234815E+03  0.12254074558E+03 -0.14936597956E+03  0.26298778944E+03  0.12699999809E+01 0.  1.
       -4    1    3    3    0  502 -0.17842234815E+03 -0.12254074558E+03  0.11228679236E+04  0.11435404476E+04  0.12699999809E+01 0. -1.
</event>
<event>
 5   0  0.1240503E-02  0.9950735E+03  0.7818609E-02  0.9313965E-01
        2   -1    0    0  501    0  0.00000000000E+00  0.00000000000E+00  0.10218044524E+04  0.10218044524E+04  0.25500000920E-02 0. -1.
       -2   -1    0    0    0  501  0.00000000000E+00  0.00000000000E+00 -0.24226044387E+03  0.24226044389E+03  0.25500000920E-02 0.  1.
    10030    2    1    2    0    0  0.00000000000E+00  0.00000000000E+00  0.77954400850E+03  0.12640648963E+04  0.99507346501E+03 0.  0.
        1    1    3    3  502    0  0.70437459158E+02  0.47505051846E+03  0.22458910307E+03  0.53016478192E+03  0.50400001928E-02 0. -1.
       -1    1    3    3    0  502 -0.70437459158E+02 -0.47505051846E+03  0.55495490543E+03  0.73390011434E+03  0.50400001928E-02 0.  1.
</event>
<event>
 5   0  0.7241200E-03  0.9891963E+03  0.7818609E-02  0.9320474E-01
        1   -1    0    0  501    0  0.00000000000E+00  0.00000000000E+00  0.46322702602E+03  0.46322702605E+03  0.50400001928E-02 0. -1.
       -1   -1    0    0    0  501  0.00000000000E+00  0.00000000000E+00 -0.52809379771E+03  0.52809379774E+03  0.50400001928E-02 0.  1.
    10030    2    1    2    0    0  0.00000000000E+00  0.00000000000E+00 -0.64866771694E+02  0.99132082378E+03  0.98919627860E+03 0.  0.
        4    1    3    3  502    0 -0.95502027673E+01  0.44189714079E+02  0.46115034334E+03  0.46336291313E+03  0.12699999809E+01 0. -1.
       -4    1    3    3    0  502  0.95502027673E+01 -0.44189714079E+02 -0.52601711504E+03  0.52795791065E+03  0.12699999809E+01 0.  1.
</event>
<event>
 5   0  0.1216322E-02  0.9291008E+03  0.7818609E-02  0.9389918E-01
        2   -1    0    0  501    0  0.00000000000E+00  0.00000000000E+00  0.10396322429E+04  0.10396322429E+04  0.25500000920E-02 0.  1.
       -2   -1    0    0    0  501  0.00000000000E+00  0.00000000000E+00 -0.20758022493E+03  0.20758022494E+03  0.25500000920E-02 0. -1.
    10030    2    1    2    0    0  0.00000000000E+00  0.00000000000E+00  0.83205201799E+03  0.12472124679E+04  0.92910084456E+03 0.  0.
        2    1    3    3  502    0 -0.15647751495E+03 -0.22294972328E+03 -0.89138326456E+02  0.28659628931E+03  0.25500000920E-02 0. -1.
       -2    1    3    3    0  502  0.15647751495E+03  0.22294972328E+03  0.92119034445E+03  0.96061617856E+03  0.25500000920E-02 0.  1.
</event>
<event>
 5   0  0.6967681E-03  0.9906349E+03  0.7818609E-02  0.9318876E-01
       -1   -1    0    0    0  501  0.00000000000E+00  0.00000000000E+00  0.40233739068E+03  0.40233739072E+03  0.50400001928E-02 0. -1.
        1   -1    0    0  501    0  0.00000000000E+00  0.00000000000E+00 -0.60978514365E+03  0.60978514367E+03  0.50400001928E-02 0.  1.
    10030    2    1    2    0    0  0.00000000000E+00  0.00000000000E+00 -0.20744775296E+03  0.10121225344E+04  0.99063487441E+03 0.  0.
        5    1    3    3  502    0  0.19275990879E+03  0.30639133642E+02 -0.56881446685E+03  0.60138766752E+03  0.46999998093E+01 0.  1.
       -5    1    3    3    0  502 -0.19275990879E+03 -0.30639133642E+02  0.36136671389E+03  0.41073486686E+03  0.46999998093E+01 0. -1.
</event>
<event>
 5   0  0.1216322E-02  0.9761103E+03  0.7818609E-02  0.9335142E-01
        2   -1    0    0  501    0  0.00000000000E+00  0.00000000000E+00  0.57215679021E+03  0.57215679022E+03  0.25500000920E-02 0.  1.
       -2   -1    0    0    0  501  0.00000000000E+00  0.00000000000E+00 -0.41631564138E+03  0.41631564139E+03  0.25500000920E-02 0. -1.
    10030    2    1    2    0    0  0.00000000000E+00  0.00000000000E+00  0.15584114883E+03  0.98847243161E+03  0.97611028290E+03 0.  0.
        2    1    3    3  502    0 -0.46261121053E+03 -0.13251486380E+03  0.16036727851E+03  0.50723464517E+03  0.25500000920E-02 0. -1.
       -2    1    3    3    0  502  0.46261121053E+03  0.13251486380E+03 -0.45261296773E+01  0.48123778644E+03  0.25500000920E-02 0.  1.
</event>
<event>
 5   0  0.7241200E-03  0.9830752E+03  0.7818609E-02  0.9327305E-01
       -1   -1    0    0    0  501  0.00000000000E+00  0.00000000000E+00  0.17325211810E+03  0.17325211817E+03  0.50400001928E-02 0.  1.
        1   -1    0    0  501    0  0.00000000000E+00  0.00000000000E+00 -0.13945527429E+04  0.13945527429E+04  0.50400001928E-02 0. -1.
    10030    2    1    2    0    0  0.00000000000E+00  0.00000000000E+00 -0.12213006248E+04  0.15678048611E+04  0.98307520886E+03 0.  0.
        4    1    3    3  502    0  0.30359765534E+03  0.37518630840E+03 -0.46214314941E+03  0.66821718460E+03  0.12699999809E+01 0.  1.
       -4    1    3    3    0  502 -0.30359765534E+03 -0.37518630840E+03 -0.75915747539E+03  0.89958767648E+03  0.12699999809E+01 0. -1.
</event>
<event>
 5   0  0.7461157E-03  0.1026902E+04  0.7818609E-02  0.9279521E-01
       -1   -1    0    0    0  501  0.00000000000E+00  0.00000000000E+00  0.52569270870E+03  0.52569270872E+03  0.50400001928E-02 0. -1.
        1   -1    0    0  501    0  0.00000000000E+00  0.00000000000E+00 -0.50149457172E+03  0.50149457174E+03  0.50400001928E-02 0.  1.
    10030    2    1    2    0    0  0.00000000000E+00  0.00000000000E+00  0.24198136981E+02  0.10271872805E+04  0.10269022151E+04 0.  0.
        2    1    3    3  502    0  0.36469058111E+03 -0.70473302140E+02 -0.34249381432E+03  0.50524025881E+03  0.25500000920E-02 0.  1.
       -2    1    3    3    0  502 -0.36469058111E+03  0.70473302140E+02  0.36669195130E+03  0.52194702166E+03  0.25500000920E-02 0. -1.
</event>
<event>
 5   0  0.7461157E-03  0.1009517E+04  0.7818609E-02  0.9298168E-01
        1   -1    0    0  501    0  0.00000000000E+00  0.00000000000E+00  0.16462056340E+04  0.16462056340E+04  0.50400001928E-02 0.  1.
       -1   -1    0    0    0  501  0.00000000000E+00  0.00000000000E+00 -0.15476871688E+03  0.15476871696E+03  0.50400001928E-02 0. -1.
    10030    2    1    2    0    0  0.00000000000E+00  0.00000000000E+00  0.14914369171E+04  0.18009743509E+04  0.10095169811E+04 0.  0.
        2    1    3    3  502    0 -0.35832538946E+03  0.85659418648E+02  0.13018418671E+03  0.39074613653E+03  0.25500000920E-02 0. -1.
       -2    1    3    3    0  502  0.35832538946E+03 -0.85659418648E+02  0.13612527304E+04  0.14102282144E+04  0.25500000920E-02 0.  1.
</event>
<event>
 5   0  0.1216322E-02  0.9739806E+03  0.7818609E-02  0.9337552E-01
       -2   -1    0    0    0  501  0.00000000000E+00  0.00000000000E+00  0.25293553557E+03  0.25293553559E+03  0.25500000920E-02 0.  1.
        2   -1    0    0  501    0  0.00000000000E+00  0.00000000000E+00 -0.93762848004E+03  0.93762848005E+03  0.25500000920E-02 0. -1.
    10030    2    1    2    0    0  0.00000000000E+00  0.00000000000E+00 -0.68469294447E+03  0.11905640156E+04  0.97398061947E+03 0.  0.
        2    1    3    3  502    0 -0.19688330931E+03 -0.21789661352E+03 -0.81721388494E+03  0.86837808897E+03  0.25500000920E-02 0. -1.
       -2    1    3    3    0  502  0.19688330931E+03  0.21789661352E+03  0.13252094047E+03  0.32218592666E+03  0.25500000920E-02 0.  1.
</event>
<event>
 5   0  0.6967681E-03  0.9998653E+03  0.7818609E-02  0.9308693E-01
       -1   -1    0    0    0  501  0.00000000000E+00  0.00000000000E+00  0.26297542744E+03  0.26297542749E+03  0.50400001928E-02 0. -1.
        1   -1    0    0  501    0  0.00000000000E+00  0.00000000000E+00 -0.95040307361E+03  0.95040307362E+03  0.50400001928E-02 0.  1.
    10030    2    1    2    0    0  0.00000000000E+00  0.00000000000E+00 -0.68742764617E+03  0.12133785011E+04  0.99986530005E+03 0.  0.
        5    1    3    3  502    0 -0.22836405576E+03 -0.22815482149E+03 -0.80694013404E+03  0.86912555736E+03  0.46999998093E+01 0.  1.
       -5    1    3    3    0  502  0.22836405576E+03  0.22815482149E+03  0.11951248787E+03  0.34425294375E+03  0.46999998093E+01 0. -1.
</event>
<event>
 5   0  0.1221315E-02  0.9769766E+03  0.7818609E-02  0.9334163E-01
       -2   -1    0    0    0  501  0.00000000000E+00  0.00000000000E+00  0.12361039345E+04  0.12361039345E+04  0.25500000920E-02 0.  1.
        2   -1    0    0  501    0  0.00000000000E+00  0.00000000000E+00 -0.19304269923E+03  0.19304269925E+03  0.25500000920E-02 0. -1.
    10030    2    1    2    0    0  0.00000000000E+00  0.00000000000E+00  0.10430612352E+04  0.14291466337E+04  0.97697664263E+03 0.  0.
        5    1    3    3  502    0  0.25576098287E+03 -0.40027925803E+02 -0.84409252254E+02  0.27232871142E+03  0.46999998093E+01 0. -1.
       -5    1    3    3    0  502 -0.25576098287E+03  0.40027925803E+02  0.11274704875E+04  0.11568179223E+04  0.46999998093E+01 0.  1.
</event>
<event>
 5   0  0.1221315E-02  0.1044031E+04  0.7818609E-02  0.9261528E-01
        2   -1    0    0  501    0  0.00000000000E+00  0.00000000000E+00  0.32743611564E+03  0.32743611565E+03  0.25500000920E-02 0.  1.
       -2   -1    0    0    0  501  0.00000000000E+00  0.00000000000E+00 -0.83222467185E+03  0.83222467185E+03  0.25500000920E-02 0. -1.
    10030    2    1    2    0    0  0.00000000000E+00  0.00000000000E+00 -0.50478855621E+03  0.11596607875E+04  0.10440314438E+04 0.  0.
        5    1    3    3  502    0  0.87838433112E+02 -0.30706223293E+03  0.20622087876E+03  0.38019987646E+03  0.46999998093E+01 0.  1.
       -5    1    3    3    0  502 -0.87838433112E+02  0.30706223293E+03 -0.71100943497E+03  0.77946091104E+03  0.46999998093E+01 0. -1.
</event>
<event>
 5   0  0.1191822E-02  0.7199566E+03  0.7818609E-02  0.9683700E-01
       -2   -1    0    0    0  501  0.00000000000E+00  0.00000000000E+00  0.24264630150E+03  0.24264630151E+03  0.25500000920E-02 0.  1.
        2   -1    0    0  501    0  0.00000000000E+00  0.00000000000E+00 -0.53404638374E+03  0.53404638375E+03  0.25500000920E-02 0. -1.
    10030    2    1    2    0    0  0.00000000000E+00  0.00000000000E+00 -0.29140008224E+03  0.77669268526E+03  0.71995660939E+03 0.  0.
        4    1    3    3  502    0  0.78706352420E+02 -0.28954882558E+03 -0.36024271588E+03  0.46883860715E+03  0.12699999809E+01 0. -1.
       -4    1    3    3    0  502 -0.78706352420E+02  0.28954882558E+03  0.68842633643E+02  0.30785407811E+03  0.12699999809E+01 0.  1.
</event>
<event>
 5   0  0.7241200E-03  0.1032787E+04  0.7818609E-02  0.9273298E-01
        1   -1    0    0  501    0  0.00000000000E+00  0.00000000000E+00  0.46646399919E+03  0.46646399922E+03  0.50400001928E-02 0.  1.
       -1   -1    0    0    0  501  0.00000000000E+00  0.00000000000E+00 -0.57166726105E+03  0.57166726107E+03  0.50400001928E-02 0. -1.
    10030    2    1    2    0    0  0.00000000000E+00  0.00000000000E+00 -0.10520326186E+03  0.10381312603E+04  0.10327869031E+04 0.  0.
        4    1    3    3  502    0 -0.37792796824E+03 -0.53790945276E+02  0.29695871780E+03  0.48364150768E+03  0.12699999809E+01 0.  1.
       -4    1    3    3    0  502  0.37792796824E+03  0.53790945276E+02 -0.40216197966E+03  0.55448975262E+03  0.12699999809E+01 0. -1.
</event>
<event>
 5   0  0.7461157E-03  0.9434800E+03  0.7818609E-02  0.9372804E-01
        1   -1    0    0  501    0  0.00000000000E+00  0.00000000000E+00  0.48309450481E+03  0.48309450484E+03  0.50400001928E-02 0.  1.
       -1   -1    0    0    0  501  0.00000000000E+00  0.00000000000E+00 -0.46065234634E+03  0.46065234637E+03  0.50400001928E-02 0. -1.
    10030    2    1    2    0    0  0.00000000000E+00  0.00000000000E+00  0.22442158474E+02  0.94374685121E+03  0.94347997789E+03 0.  0.
        2    1    3    3  502    0  0.26334776736E+03 -0.17075745012E+03 -0.34105528852E+03  0.46349634645E+03  0.25500000920E-02 0. -1.
       -2    1    3    3    0  502 -0.26334776736E+03  0.17075745012E+03  0.36349744699E+03  0.48025050476E+03  0.25500000920E-02 0.  1.
</event>
<event>
 5   0  0.4782125E-03  0.9842568E+03  0.7818609E-02  0.9325982E-01
       -3   -1    0    0    0  501  0.00000000000E+00  0.00000000000E+00  0.99087429010E+03  0.99087429525E+03  0.10100000352E+00 0.  1.
        3   -1    0    0  501    0  0.00000000000E+00  0.00000000000E+00 -0.24442087963E+03  0.24442090050E+03  0.10100000352E+00 0. -1.
    10030    2    1    2    0    0  0.00000000000E+00  0.00000000000E+00  0.74645341047E+03  0.12352951957E+04  0.98425683977E+03 0.  0.
        3    1    3    3  502    0 -0.14310849934E+03  0.39431664174E+03  0.69620427298E+03  0.81281366650E+03  0.10100000352E+00 0.  1.
       -3    1    3    3    0  502  0.14310849934E+03 -0.39431664174E+03  0.50249137490E+02  0.42248152925E+03  0.10100000352E+00 0. -1.
</event>
<event>
 5   0  0.1216322E-02  0.1000633E+04  0.7818609E-02  0.9307851E-01
        2   -1    0    0  501    0  0.00000000000E+00  0.00000000000E+00  0.10955732216E+04  0.10955732216E+04  0.25500000920E-02 0. -1.
       -2   -1    0    0    0  501  0.00000000000E+00  0.00000000000E+00 -0.22847982384E+03  0.22847982385E+03  0.25500000920E-02 0.  1.
    10030    2    1    2    0    0  0.00000000000E+00  0.00000000000E+00  0.86709339777E+03  0.13240530455E+04  0.10006325533E+04 0.  0.
        2    1    3    3  502    0  0.36568431578E+03  0.57707627463E+02 -0.11772390743E+02  0.37039678490E+03  0.25500000920E-02 0.  1.
       -2    1    3    3    0  502 -0.36568431578E+03 -0.57707627463E+02  0.87886578851E+03  0.95365626056E+03  0.25500000920E-02 0. -1.
</event>
<event>
 5   0  0.7461157E-03  0.1010858E+04  0.7818609E-02  0.9296715E-01
       -1   -1    0    0    0  501  0.00000000000E+00  0.00000000000E+00  0.50761691756E+03  0.50761691758E+03  0.50400001928E-02 0. -1.
        1   -1    0    0  501    0  0.00000000000E+00  0.00000000000E+00 -0.50325096880E+03  0.50325096883E+03  0.50400001928E-02 0.  1.
    10030    2    1    2    0    0  0.00000000000E+00  0.00000000000E+00  0.43659487554E+01  0.10108678864E+04  0.10108584581E+04 0.  0.
        2    1    3    3  502    0 -0.17037599964E+03  0.36923439920E+03 -0.29798091991E+03  0.50413753227E+03  0.25500000920E-02 0.  1.
       -2    1    3    3    0  502  0.17037599964E+03 -0.36923439920E+03  0.30234686867E+03  0.50673035414E+03  0.25500000920E-02 0. -1.
</event>
<event>
 5   0  0.1245850E-02  0.1071199E+04  0.7818609E-02  0.9233727E-01
       -2   -1    0    0    0  501  0.00000000000E+00  0.00000000000E+00  0.19054281918E+03  0.19054281919E+03  0.25500000920E-02 0. -1.
        2   -1    0    0  501    0  0.00000000000E+00  0.00000000000E+00 -0.15055250076E+04  0.15055250076E+04  0.25500000920E-02 0.  1.
    10030    2    1    2    0    0  0.00000000000E+00  0.00000000000E+00 -0.13149821884E+04  0.16960678268E+04  0.10711992892E+04 0.  0.
        3    1    3    3  502    0  0.74112219606E+02 -0.22268021930E+03 -0.14197777030E+04  0.14390440706E+04  0.10100000352E+00 0.  1.
       -3    1    3    3    0  502 -0.74112219606E+02  0.22268021930E+03  0.10479551455E+03  0.25702375617E+03  0.10100000352E+00 0. -1.
</event>
<event>
 5   0  0.1221315E-02  0.1007356E+04  0.7818609E-02  0.9300513E-01
       -2   -1    0    0    0  501  0.00000000000E+00  0.00000000000E+00  0.22412287158E+03  0.22412287159E+03  0.25500000920E-02 0. -1.
        2   -1    0    0  501    0  0.00000000000E+00  0.00000000000E+00 -0.11319314888E+04  0.11319314888E+04  0.25500000920E-02 0.  1.
    10030    2    1    2    0    0  0.00000000000E+00  0.00000000000E+00 -0.90780861724E+03  0.13560543604E+04  0.10073564130E+04 0.  0.
        5    1    3    3  502    0 -0.18384274392E+03 -0.73160155799E+02  0.16958198365E+03  0.26063518961E+03  0.46999998093E+01 0. -1.
       -5    1    3    3    0  502  0.18384274392E+03  0.73160155799E+02 -0.10773906009E+04  0.10954191708E+04  0.46999998093E+01 0.  1.
</event>
<event>
 5   0  0.6967681E-03  0.9944764E+03  0.7818609E-02  0.9314624E-01
       -1   -1    0    0    0  501  0.00000000000E+00  0.00000000000E+00  0.44972394328E+03  0.44972394331E+03  0.50400001928E-02 0. -1.
        1   -1    0    0  501    0  0.00000000000E+00  0.00000000000E+00 -0.54977244425E+03  0.54977244428E+03  0.50400001928E-02 0.  1.
    10030    2    1    2    0    0  0.00000000000E+00  0.00000000000E+00 -0.10004850097E+03  0.99949638759E+03  0.99447640809E+03 0.  0.
        5    1    3    3  502    0 -0.12411584191E+03  0.95698188735E+02  0.42422721456E+03  0.45227613812E+03  0.46999998093E+01 0. -1.
       -5    1    3    3    0  502  0.12411584191E+03 -0.95698188735E+02 -0.52427571553E+03  0.54722024947E+03  0.46999998093E+01 0.  1.
</event>
<event>
 5   0  0.7224879E-03  0.9957581E+03  0.7818609E-02  0.9313210E-01
        1   -1    0    0  501    0  0.00000000000E+00  0.00000000000E+00  0.12066766103E+04  0.12066766103E+04  0.50400001928E-02 0.  1.
       -1   -1    0    0    0  501  0.00000000000E+00  0.00000000000E+00 -0.20542665183E+03  0.20542665189E+03  0.50400001928E-02 0. -1.
    10030    2    1    2    0    0  0.00000000000E+00  0.00000000000E+00  0.10012499585E+04  0.14121032622E+04  0.99575807493E+03 0.  0.
        3    1    3    3  502    0 -0.18541335202E+03  0.32238429972E+03  0.31200279394E+02  0.37320666586E+03  0.10100000352E+00 0. -1.
       -3    1    3    3    0  502  0.18541335202E+03 -0.32238429972E+03  0.97004967907E+03  0.10388965963E+04  0.10100000352E+00 0.  1.
</event>
<event>
 5   0  0.1245850E-02  0.9919344E+03  0.7818609E-02  0.9317435E-01
        2   -1    0    0  501    0  0.00000000000E+00  0.00000000000E+00  0.16346466661E+04  0.16346466661E+04  0.25500000920E-02 0. -1.
       -2   -1    0    0    0  501  0.00000000000E+00  0.00000000000E+00 -0.15048112428E+03  0.15048112430E+03  0.25500000920E-02 0.  1.
    10030    2    1    2    0    0  0.00000000000E+00  0.00000000000E+00  0.14841655418E+04  0.17851277904E+04  0.99193440937E+03 0.  0.
        3    1    3    3  502    0  0.19509337208E+03 -0.72632340267E+02 -0.68049610663E+02  0.21901516019E+03  0.10100000352E+00 0.  1.
       -3    1    3    3    0  502 -0.19509337208E+03  0.72632340267E+02  0.15522151525E+04  0.15661126302E+04  0.10100000352E+00 0. -1.
</event>
<event>
 5   0  0.1240503E-02  0.1088337E+04  0.7818609E-02  0.9216634E-01
       -2   -1    0    0    0  501  0.00000000000E+00  0.00000000000E+00  0.20397169113E+03  0.20397169115E+03  0.25500000920E-02 0.  1.
        2   -1    0    0  501    0  0.00000000000E+00  0.00000000000E+00 -0.14517675698E+04  0.14517675698E+04  0.25500000920E-02 0. -1.
    10030    2    1    2    0    0  0.00000000000E+00  0.00000000000E+00 -0.12477958787E+04  0.16557392610E+04  0.10883372388E+04 0.  0.
        1    1    3    3  502    0 -0.14779536512E+03 -0.12604939760E+03  0.14943100045E+03  0.24507456928E+03  0.50400001928E-02 0.  1.
       -1    1    3    3    0  502  0.14779536512E+03  0.12604939760E+03 -0.13972268791E+04  0.14106646917E+04  0.50400001928E-02 0. -1.
</event>
<event>
 5   0  0.1240503E-02  0.9230948E+03  0.7818609E-02  0.9397164E-01
        2   -1    0    0  501    0  0.00000000000E+00  0.00000000000E+00  0.57806121670E+03  0.57806121671E+03  0.25500000920E-02 0. -1.
       -2   -1    0    0    0  501  0.00000000000E+00  0.00000000000E+00 -0.36851802800E+03  0.36851802801E+03  0.25500000920E-02 0.  1.
    10030    2    1    2    0    0  0.00000000000E+00  0.00000000000E+00  0.20954318870E+03  0.94657924472E+03  0.92309475061E+03 0.  0.
        1    1    3    3  502    0  0.28232439586E+03 -0.20758416832E+03 -0.20324967599E+03  0.40510329825E+03  0.50400001928E-02 0.  1.
       -1    1    3    3    0  502 -0.28232439586E+03  0.20758416832E+03  0.41279286469E+03  0.54147594647E+03  0.50400001928E-02 0. -1.
</event>
<event>
 5   0  0.1216322E-02  0.9071333E+03  0.7818609E-02  0.9416708E-01
        2   -1    0    0  501    0  0.00000000000E+00  0.00000000000E+00  0.91608405977E+03  0.91608405978E+03  0.25500000920E-02 0. -1.
       -2   -1    0    0    0  501  0.00000000000E+00  0.00000000000E+00 -0.22456750322E+03  0.22456750324E+03  0.25500000920E-02 0.  1.
    10030    2    1    2    0    0  0.00000000000E+00  0.00000000000E+00  0.69151655655E+03  0.11406515630E+04  0.90713330896E+03 0.  0.
        2    1    3    3  502    0  0.30285863580E+03 -0.28507006491E+03  0.11825682411E+03  0.43240371372E+03  0.25500000920E-02 0.  1.
       -2    1    3    3    0  502 -0.30285863580E+03  0.28507006491E+03  0.57325973244E+03  0.70824784929E+03  0.25500000920E-02 0. -1.
</event>
<event>
 5   0  0.7073004E-03  0.9903951E+03  0.7818609E-02  0.9319142E-01
        1   -1    0    0  501    0  0.00000000000E+00  0.00000000000E+00  0.34619050063E+04  0.34619050063E+04  0.50400001928E-02 0. -1.
       -1   -1    0    0    0  501  0.00000000000E+00  0.00000000000E+00 -0.70834012822E+02  0.70834013001E+02  0.50400001928E-02 0.  1.
    10030    2    1    2    0    0  0.00000000000E+00  0.00000000000E+00  0.33910709935E+04  0.35327390193E+04  0.99039512100E+03 0.  0.
        1    1    3    3  502    0  0.36831173826E+03  0.10118284507E+03  0.57134125826E+03  0.68725711207E+03  0.50400001928E-02 0.  1.
       -1    1    3    3    0  502 -0.36831173826E+03 -0.10118284507E+03  0.28197297352E+04  0.28454819072E+04  0.50400001928E-02 0. -1.
</event>
<event>
 5   0  0.1240503E-02  0.9903781E+03  0.7818609E-02  0.9319161E-01
       -2   -1    0    0    0  501  0.00000000000E+00  0.00000000000E+00  0.16418475411E+03  0.16418475413E+03  0.25500000920E-02 0. -1.
        2   -1    0    0  501    0  0.00000000000E+00  0.00000000000E+00 -0.14935138730E+04  0.14935138730E+04  0.25500000920E-02 0.  1.
    10030    2    1    2    0    0  0.00000000000E+00  0.00000000000E+00 -0.13293291189E+04  0.16576986271E+04  0.99037812580E+03 0.  0.
        1    1    3    3  502    0  0.20019754664E+03 -0.22606366030E+02 -0.14218126118E+04  0.14360157411E+04  0.50400001928E-02 0.  1.
       -1    1    3    3    0  502 -0.20019754664E+03  0.22606366030E+02  0.92483492948E+02  0.22168288603E+03  0.50400001928E-02 0. -1.
</event>
<event>
 5   0  0.1191822E-02  0.1006193E+04  0.7818609E-02  0.9301778E-01
        2   -1    0    0  501    0  0.00000000000E+00  0.00000000000E+00  0.91978311647E+03  0.91978311647E+03  0.25500000920E-02 0. -1.
       -2   -1    0    0    0  501  0.00000000000E+00  0.00000000000E+00 -0.27518013401E+03  0.27518013402E+03  0.25500000920E-02 0.  1.
    10030    2    1    2    0    0  0.00000000000E+00  0.00000000000E+00  0.64460298246E+03  0.11949632505E+04  0.10061929065E+04 0.  0.
        4    1    3    3  502    0  0.25790703190E+03  0.20242105224E+01 -0.19069080078E+03  0.32075649477E+03  0.12699999809E+01 0.  1.
       -4    1    3    3    0  502 -0.25790703190E+03 -0.20242105224E+01  0.83529378325E+03  0.87420675573E+03  0.12699999809E+01 0. -1.
</event>
<event>
 5   0  0.1245850E-02  0.1001051E+04  0.7818609E-02  0.9307393E-01
       -2   -1    0    0    0  501  0.00000000000E+00  0.00000000000E+00  0.97648019170E+02  0.97648019203E+02  0.25500000920E-02 0. -1.
        2   -1    0    0  501    0  0.00000000000E+00  0.00000000000E+00 -0.25655984696E+04  0.25655984696E+04  0.25500000920E-02 0.  1.
    10030    2    1    2    0    0  0.00000000000E+00  0.00000000000E+00 -0.24679504504E+04  0.26632464888E+04  0.10010506652E+04 0.  0.
        3    1    3    3  502    0 -0.18501535560E+03  0.36556930428E+03 -0.19988445492E+04  0.20404046511E+04  0.10100000352E+00 0.  1.
       -3    1    3    3    0  502  0.18501535560E+03 -0.36556930428E+03 -0.46910590116E+03  0.62284183767E+03  0.10100000352E+00 0. -1.
</event>
<event>
 5   0  0.7224879E-03  0.9987069E+03  0.7818609E-02  0.9309964E-01
        1   -1    0    0  501    0  0.00000000000E+00  0.00000000000E+00  0.89554521187E+03  0.89554521188E+03  0.50400001928E-02 0.  1.
       -1   -1    0    0    0  501  0.00000000000E+00  0.00000000000E+00 -0.27843808013E+03  0.27843808018E+03  0.50400001928E-02 0. -1.
    10030    2    1    2    0    0  0.00000000000E+00  0.00000000000E+00  0.61710713173E+03  0.11739832921E+04  0.99870694300E+03 0.  0.
        3    1    3    3  502    0 -0.30969166483E+03  0.29561464419E+03  0.64310769858E+01  0.42818023550E+03  0.10100000352E+00 0. -1.
       -3    1    3    3    0  502  0.30969166483E+03 -0.29561464419E+03  0.61067605475E+03  0.74580305655E+03  0.10100000352E+00 0.  1.
</event>
<event>
 5   0  0.4782125E-03  0.1006776E+04  0.7818609E-02  0.9301144E-01
       -4   -1    0    0    0  501  0.00000000000E+00  0.00000000000E+00  0.25981386396E+03  0.25981696790E+03  0.12699999809E+01 0. -1.
        4   -1    0    0  501    0  0.00000000000E+00  0.00000000000E+00 -0.97530168168E+03  0.97530250855E+03  0.12699999809E+01 0.  1.
    10030    2    1    2    0    0  0.00000000000E+00  0.00000000000E+00 -0.71548781772E+03  0.12351194764E+04  0.10067756969E+04 0.  0.
        3    1    3    3  502    0  0.70658634458E+02 -0.42753183997E+03 -0.43472447257E+02  0.43550657938E+03  0.10100000352E+00 0. -1.
       -3    1    3    3    0  502 -0.70658634458E+02  0.42753183997E+03 -0.67201537046E+03  0.79961289706E+03  0.10100000352E+00 0.  1.
</event>
<event>
 5   0  0.1240503E-02  0.1009695E+04  0.7818609E-02  0.9297975E-01
       -2   -1    0    0    0  501  0.00000000000E+00  0.00000000000E+00  0.36541627164E+03  0.36541627165E+03  0.25500000920E-02 0.  1.
        2   -1    0    0  501    0  0.00000000000E+00  0.00000000000E+00 -0.69748146231E+03  0.69748146231E+03  0.25500000920E-02 0. -1.
    10030    2    1    2    0    0  0.00000000000E+00  0.00000000000E+00 -0.33206519067E+03  0.10628977340E+04  0.10096951530E+04 0.  0.
        1    1    3    3  502    0  0.45049953034E+03 -0.21050692216E+03 -0.25785292962E+03  0.56013491630E+03  0.50400001928E-02 0.  1.
       -1    1    3    3    0  502 -0.45049953034E+03  0.21050692216E+03 -0.74212261043E+02  0.50276281767E+03  0.50400001928E-02 0. -1.
</event>
<event>
 5   0  0.1191822E-02  0.1004026E+04  0.7818609E-02  0.9304141E-01
        2   -1    0    0  501    0  0.00000000000E+00  0.00000000000E+00  0.14936729249E+04  0.14936729249E+04  0.25500000920E-02 0. -1.
       -2   -1    0    0    0  501  0.00000000000E+00  0.00000000000E+00 -0.16872290190E+03  0.16872290192E+03  0.25500000920E-02 0.  1.
    10030    2    1    2    0    0  0.00000000000E+00  0.00000000000E+00  0.13249500230E+04  0.16623958269E+04  0.10040255583E+04 0.  0.
        4    1    3    3  502    0 -0.45474821387E+03  0.21160348157E+03  0.69733378657E+03  0.85898078804E+03  0.12699999809E+01 0.  1.
       -4    1    3    3    0  502  0.45474821387E+03 -0.21160348157E+03  0.62761623647E+03  0.80341503883E+03  0.12699999809E+01 0. -1.
</event>
<event>
 5   0  0.1245850E-02  0.9980018E+03  0.7818609E-02  0.9310739E-01
       -2   -1    0    0    0  501  0.00000000000E+00  0.00000000000E+00  0.30897909001E+03  0.30897909002E+03  0.25500000920E-02 0.  1.
        2   -1    0    0  501    0  0.00000000000E+00  0.00000000000E+00 -0.80588584350E+03  0.80588584350E+03  0.25500000920E-02 0. -1.
    10030    2    1    2    0    0  0.00000000000E+00  0.00000000000E+00 -0.49690675349E+03  0.11148649335E+04  0.99800175267E+03 0.  0.
        3    1    3    3  502    0 -0.50246674384E+02  0.48005825815E+03 -0.10705691608E+03  0.49441061172E+03  0.10100000352E+00 0. -1.
       -3    1    3    3    0  502  0.50246674384E+02 -0.48005825815E+03 -0.38984983741E+03  0.62045432179E+03  0.10100000352E+00 0.  1.
</event>
<event>
 5   0  0.7073004E-03  0.9968242E+03  0.7818609E-02  0.9312035E-01
       -1   -1    0    0    0  501  0.00000000000E+00  0.00000000000E+00  0.56085393590E+03  0.56085393592E+03  0.50400001928E-02 0.  1.
        1   -1    0    0  501    0  0.00000000000E+00  0.00000000000E+00 -0.44292211490E+03  0.44292211493E+03  0.50400001928E-02 0. -1.
    10030    2    1    2    0    0  0.00000000000E+00  0.00000000000E+00  0.11793182100E+03  0.10037760508E+04  0.99682418001E+03 0.  0.
        1    1    3    3  502    0  0.11962786736E+03 -0.47469884607E+03 -0.35307459297E+02  0.49081201881E+03  0.50400001928E-02 0. -1.
       -1    1    3    3    0  502 -0.11962786736E+03  0.47469884607E+03  0.15323928030E+03  0.51296403203E+03  0.50400001928E-02 0.  1.
</event>
<event>
 5   0  0.1216322E-02  0.9824852E+03  0.7818609E-02  0.9327966E-01
        2   -1    0    0  501    0  0.00000000000E+00  0.00000000000E+00  0.42677243637E+03  0.42677243638E+03  0.25500000920E-02 0. -1.
       -2   -1    0    0    0  501  0.00000000000E+00  0.00000000000E+00 -0.56545193440E+03  0.56545193441E+03  0.25500000920E-02 0.  1.
    10030    2    1    2    0    0  0.00000000000E+00  0.00000000000E+00 -0.13867949803E+03  0.99222437078E+03  0.98248521556E+03 0.  0.
        2    1    3    3  502    0 -0.36814675569E+03 -0.91332265676E+02  0.24591756313E+03  0.45204984719E+03  0.25500000920E-02 0. -1.
       -2    1    3    3    0  502  0.36814675569E+03  0.91332265676E+02 -0.38459706117E+03  0.54017452360E+03  0.25500000920E-02 0.  1.
</event>
<event>
 5   0  0.7073004E-03  0.9510186E+03  0.7818609E-02  0.9363961E-01
        1   -1    0    0  501    0  0.00000000000E+00  0.00000000000E+00  0.87992047961E+03  0.87992047962E+03  0.50400001928E-02 0.  1.
       -1   -1    0    0    0  501  0.00000000000E+00  0.00000000000E+00 -0.25696539768E+03  0.25696539773E+03  0.50400001928E-02 0. -1.
    10030    2    1    2    0    0  0.00000000000E+00  0.00000000000E+00  0.62295508193E+03  0.11368858774E+04  0.95101864546E+03 0.  0.
        1    1    3    3  502    0 -0.33996157458E+03  0.28466063772E+03  0.10614154507E+03  0.45592935689E+03  0.50400001928E-02 0. -1.
       -1    1    3    3    0  502  0.33996157458E+03 -0.28466063772E+03  0.51681353686E+03  0.68095652046E+03  0.50400001928E-02 0.  1.
</event>
<event>
 5   0  0.7461157E-03  0.1019310E+04  0.7818609E-02  0.9287615E-01
        1   -1    0    0  501    0  0.00000000000E+00  0.00000000000E+00  0.21896573153E+04  0.21896573153E+04  0.50400001928E-02 0. -1.
       -1   -1    0    0    0  501  0.00000000000E+00  0.00000000000E+00 -0.11862514695E+03  0.11862514705E+03  0.50400001928E-02 0.  1.
    10030    2    1    2    0    0  0.00000000000E+00  0.00000000000E+00  0.20710321684E+04  0.23082824624E+04  0.10193103961E+04 0.  0.
        2    1    3    3  502    0  0.92208429906E+02 -0.73892691728E+02 -0.87176819830E+02  0.14684114668E+03  0.25500000920E-02 0.  1.
       -2    1    3    3    0  502 -0.92208429906E+02  0.73892691728E+02  0.21582089882E+04  0.21614413157E+04  0.25500000920E-02 0. -1.
</event>
<event>
 5   0  0.1221315E-02  0.1079183E+04  0.7818609E-02  0.9225723E-01
       -2   -1    0    0    0  501  0.00000000000E+00  0.00000000000E+00  0.24025638348E+03  0.24025638349E+03  0.25500000920E-02 0.  1.
        2   -1    0    0  501    0  0.00000000000E+00  0.00000000000E+00 -0.12118674038E+04  0.12118674038E+04  0.25500000920E-02 0. -1.
    10030    2    1    2    0    0  0.00000000000E+00  0.00000000000E+00 -0.97161102034E+03  0.14521237873E+04  0.10791828014E+04 0.  0.
        5    1    3    3  502    0 -0.45630466612E+03 -0.14882067464E+03 -0.81752576834E+03  0.94801477490E+03  0.46999998093E+01 0. -1.
       -5    1    3    3    0  502  0.45630466612E+03  0.14882067464E+03 -0.15408525200E+03  0.50410901242E+03  0.46999998093E+01 0.  1.
</event>
<event>
 5   0  0.7073004E-03  0.1005002E+04  0.7818609E-02  0.9303075E-01
        1   -1    0    0  501    0  0.00000000000E+00  0.00000000000E+00  0.42838418150E+03  0.42838418153E+03  0.50400001928E-02 0. -1.
       -1   -1    0    0    0  501  0.00000000000E+00  0.00000000000E+00 -0.58944150050E+03  0.58944150053E+03  0.50400001928E-02 0.  1.
    10030    2    1    2    0    0  0.00000000000E+00  0.00000000000E+00 -0.16105731900E+03  0.10178256821E+04  0.10050023179E+04 0.  0.
        1    1    3    3  502    0  0.14382880662E+01  0.83947099347E+02 -0.58228762482E+03  0.58830949525E+03  0.50400001928E-02 0.  1.
       -1    1    3    3    0  502 -0.14382880662E+01 -0.83947099347E+02  0.42123030582E+03  0.42951618681E+03  0.50400001928E-02 0. -1.
</event>
<event>
 5   0  0.1191822E-02  0.8909633E+03  0.7818609E-02  0.9436949E-01
       -2   -1    0    0    0  501  0.00000000000E+00  0.00000000000E+00  0.46238375971E+03  0.46238375971E+03  0.25500000920E-02 0. -1.
        2   -1    0    0  501    0  0.00000000000E+00  0.00000000000E+00 -0.42919741140E+03  0.42919741141E+03  0.25500000920E-02 0.  1.
    10030    2    1    2    0    0  0.00000000000E+00  0.00000000000E+00  0.33186348303E+02  0.89158117112E+03  0.89096332752E+03 0.  0.
        4    1    3    3  502    0 -0.21869661450E+03 -0.12026335764E+03 -0.35266246078E+03  0.43204618795E+03  0.12699999809E+01 0.  1.
       -4    1    3    3    0  502  0.21869661450E+03  0.12026335764E+03  0.38584880908E+03  0.45953498317E+03  0.12699999809E+01 0. -1.
</event>
<event>
 5   0  0.6967681E-03  0.1008056E+04  0.7818609E-02  0.9299753E-01
        1   -1    0    0  501    0  0.00000000000E+00  0.00000000000E+00  0.50698001619E+03  0.50698001622E+03  0.50400001928E-02 0.  1.
       -1   -1    0    0    0  501  0.00000000000E+00  0.00000000000E+00 -0.50109310292E+03  0.50109310295E+03  0.50400001928E-02 0. -1.
    10030    2    1    2    0    0  0.00000000000E+00  0.00000000000E+00  0.58869132687E+01  0.10080731192E+04  0.10080559299E+04 0.  0.
        5    1    3    3  502    0 -0.46930891118E+03 -0.23880084652E+02 -0.17927103014E+03  0.50297246923E+03  0.46999998093E+01 0. -1.
       -5    1    3    3    0  502  0.46930891118E+03  0.23880084652E+02  0.18515794341E+03  0.50510064994E+03  0.46999998093E+01 0.  1.
</event>
<event>
 5   0  0.1245850E-02  0.9943117E+03  0.7818609E-02  0.9314806E-01
        2   -1    0    0  501    0  0.00000000000E+00  0.00000000000E+00  0.75161556634E+03  0.75161556635E+03  0.25500000920E-02 0. -1.
       -2   -1    0    0    0  501  0.00000000000E+00  0.00000000000E+00 -0.32884355563E+03  0.32884355564E+03  0.25500000920E-02 0.  1.
    10030    2    1    2    0    0  0.00000000000E+00  0.00000000000E+00  0.42277201071E+03  0.10804591220E+04  0.99431169220E+03 0.  0.
        3    1    3    3  502    0  0.66762887503E+02  0.14538001827E+03 -0.30011034517E+03  0.34008655125E+03  0.10100000352E+00 0.  1.
       -3    1    3    3    0  502 -0.66762887503E+02 -0.14538001827E+03  0.72288235588E+03  0.74037257074E+03  0.10100000352E+00 0. -1.
</event>
<event>
 5   0  0.1245850E-02  0.9951904E+03  0.7818609E-02  0.9313836E-01
       -2   -1    0    0    0  501  0.00000000000E+00  0.00000000000E+00  0.90344936609E+03  0.90344936609E+03  0.25500000920E-02 0.  1.
        2   -1    0    0  501    0  0.00000000000E+00  0.00000000000E+00 -0.27406180942E+03  0.27406180944E+03  0.25500000920E-02 0. -1.
    10030    2    1    2    0    0  0.00000000000E+00  0.00000000000E+00  0.62938755667E+03  0.11775111755E+04  0.99519036973E+03 0.  0.
        3    1    3    3  502    0 -0.33144665337E+03  0.54591089600E+02  0.74904959007E+03  0.82092165867E+03  0.10100000352E+00 0.  1.
       -3    1    3    3    0  502  0.33144665337E+03 -0.54591089600E+02 -0.11966203340E+03  0.35658951686E+03  0.10100000352E+00 0. -1.
</event>
<event>
 5   0  0.7224879E-03  0.1243288E+04  0.7818609E-02  0.9075788E-01
        1   -1    0    0  501    0  0.00000000000E+00  0.00000000000E+00  0.30510484490E+03  0.30510484495E+03  0.50400001928E-02 0.  1.
       -1   -1    0    0    0  501  0.00000000000E+00  0.00000000000E+00 -0.12665859007E+04  0.12665859007E+04  0.50400001928E-02 0. -1.
    10030    2    1    2    0    0  0.00000000000E+00  0.00000000000E+00 -0.96148105581E+03  0.15716907457E+04  0.12432883734E+04 0.  0.
        3    1    3    3  502    0 -0.58355860779E+03  0.45019023278E+02 -0.74552922954E+03  0.94782973338E+03  0.10100000352E+00 0. -1.
       -3    1    3    3    0  502  0.58355860779E+03 -0.45019023278E+02 -0.21595182627E+03  0.62386101229E+03  0.10100000352E+00 0.  1.
</event>
<event>
 5   0  0.1216322E-02  0.9244930E+03  0.7818609E-02  0.9395472E-01
        2   -1    0    0  501    0  0.00000000000E+00  0.00000000000E+00  0.17991861545E+04  0.17991861545E+04  0.25500000920E-02 0. -1.
       -2   -1    0    0    0  501  0.00000000000E+00  0.00000000000E+00 -0.11876025709E+03  0.11876025712E+03  0.25500000920E-02 0.  1.
    10030    2    1    2    0    0  0.00000000000E+00  0.00000000000E+00  0.16804258975E+04  0.19179464117E+04  0.92449296438E+03 0.  0.
        2    1    3    3  502    0  0.57165452071E+02  0.44125844782E+03  0.11001164826E+04  0.11866900109E+04  0.25500000920E-02 0.  1.
       -2    1    3    3    0  502 -0.57165452071E+02 -0.44125844782E+03  0.58030941486E+03  0.73125640077E+03  0.25500000920E-02 0. -1.
</event>
<event>
 5   0  0.1191822E-02  0.1037086E+04  0.7818609E-02  0.9268780E-01
       -2   -1    0    0    0  501  0.00000000000E+00  0.00000000000E+00  0.24573819274E+03  0.24573819276E+03  0.25500000920E-02 0.  1.
        2   -1    0    0  501    0  0.00000000000E+00  0.00000000000E+00 -0.10941998632E+04  0.10941998632E+04  0.25500000920E-02 0. -1.
    10030    2    1    2    0    0  0.00000000000E+00  0.00000000000E+00 -0.84846167047E+03  0.13399380560E+04  0.10370857185E+04 0.  0.
        4    1    3    3  502    0 -0.34225874642E+03 -0.34322119613E+03 -0.18619258586E+03  0.51924091798E+03  0.12699999809E+01 0.  1.
       -4    1    3    3    0  502  0.34225874642E+03  0.34322119613E+03 -0.66226908461E+03  0.82069713799E+03  0.12699999809E+01 0. -1.
</event>
<event>
 5   0  0.1191822E-02  0.1017648E+04  0.7818609E-02  0.9289398E-01
       -2   -1    0    0    0  501  0.00000000000E+00  0.00000000000E+00  0.28751616343E+03  0.28751616344E+03  0.25500000920E-02 0. -1.
        2   -1    0    0  501    0  0.00000000000E+00  0.00000000000E+00 -0.90047731708E+03  0.90047731708E+03  0.25500000920E-02 0.  1.
    10030    2    1    2    0    0  0.00000000000E+00  0.00000000000E+00 -0.61296115365E+03  0.11879934805E+04  0.10176478438E+04 0.  0.
        4    1    3    3  502    0 -0.37235458523E+02  0.10691157987E+03  0.27262517842E+03  0.29519936668E+03  0.12699999809E+01 0. -1.
       -4    1    3    3    0  502  0.37235458523E+02 -0.10691157987E+03 -0.88558633207E+03  0.89279411385E+03  0.12699999809E+01 0.  1.
</event>
<event>
 5   0  0.7241200E-03  0.9865896E+03  0.7818609E-02  0.9323377E-01
       -1   -1    0    0    0  501  0.00000000000E+00  0.00000000000E+00  0.48293324816E+03  0.48293324819E+03  0.50400001928E-02 0. -1.
        1   -1    0    0  501    0  0.00000000000E+00  0.00000000000E+00 -0.50387865019E+03  0.50387865022E+03  0.50400001928E-02 0.  1.
    10030    2    1    2    0    0  0.00000000000E+00  0.00000000000E+00 -0.20945402029E+02  0.98681189840E+03  0.98658958689E+03 0.  0.
        4    1    3    3  502    0 -0.73906709704E+02 -0.36567513134E+03  0.31233464491E+03  0.48655425877E+03  0.12699999809E+01 0. -1.
       -4    1    3    3    0  502  0.73906709704E+02  0.36567513134E+03 -0.33328004694E+03  0.50025763963E+03  0.12699999809E+01 0.  1.
</event>
<event>
 5   0  0.7224879E-03  0.1042747E+04  0.7818609E-02  0.9262865E-01
       -1   -1    0    0    0  501  0.00000000000E+00  0.00000000000E+00  0.31233064300E+03  0.31233064304E+03  0.50400001928E-02 0. -1.
        1   -1    0    0  501    0  0.00000000000E+00  0.00000000000E+00 -0.87032789884E+03  0.87032789886E+03  0.50400001928E-02 0.  1.
    10030    2    1    2    0    0  0.00000000000E+00  0.00000000000E+00 -0.55799725584E+03  0.11826585419E+04  0.10427465124E+04 0.  0.
        3    1    3    3  502    0 -0.36512988172E+03  0.18528193863E+03  0.87080141962E+02  0.41860743977E+03  0.10100000352E+00 0. -1.
       -3    1    3    3    0  502  0.36512988172E+03 -0.18528193863E+03 -0.64507739780E+03  0.76405110213E+03  0.10100000352E+00 0.  1.
</event>
<event>
 5   0  0.7073004E-03  0.1027796E+04  0.7818609E-02  0.9278573E-01
       -1   -1    0    0    0  501  0.00000000000E+00  0.00000000000E+00  0.30481323243E+03  0.30481323247E+03  0.50400001928E-02 0.  1.
        1   -1    0    0  501    0  0.00000000000E+00  0.00000000000E+00 -0.86640326028E+03  0.86640326030E+03  0.50400001928E-02 0. -1.
    10030    2    1    2    0    0  0.00000000000E+00  0.00000000000E+00 -0.56159002785E+03  0.11712164928E+04  0.10277960467E+04 0.  0.
        1    1    3    3  502    0  0.56692252278E+02 -0.44550163189E+03 -0.56546490877E+03  0.72210544836E+03  0.50400001928E-02 0.  1.
       -1    1    3    3    0  502 -0.56692252278E+02  0.44550163189E+03  0.38748809163E+01  0.44911104441E+03  0.50400001928E-02 0. -1.
</event>
<event>
 5   0  0.7461157E-03  0.1002131E+04  0.7818609E-02  0.9306210E-01
        1   -1    0    0  501    0  0.00000000000E+00  0.00000000000E+00  0.38306687340E+03  0.38306687344E+03  0.50400001928E-02 0.  1.
       -1   -1    0    0    0  501  0.00000000000E+00  0.00000000000E+00 -0.65541234956E+03  0.65541234958E+03  0.50400001928E-02 0. -1.
    10030    2    1    2    0    0  0.00000000000E+00  0.00000000000E+00 -0.27234547615E+03  0.10384792230E+04  0.10021312480E+04 0.  0.
        2    1    3    3  502    0 -0.10227937909E+03 -0.38478114844E+03  0.17908041494E+03  0.43656316679E+03  0.25500000920E-02 0.  1.
       -2    1    3    3    0  502  0.10227937909E+03  0.38478114844E+03 -0.45142589109E+03  0.60191605622E+03  0.25500000920E-02 0. -1.
</event>
<event>
 5   0  0.7073004E-03  0.1000029E+04  0.7818609E-02  0.9308513E-01
        1   -1    0    0  501    0  0.00000000000E+00  0.00000000000E+00  0.28765258028E+03  0.28765258032E+03  0.50400001928E-02 0. -1.
       -1   -1    0    0    0  501  0.00000000000E+00  0.00000000000E+00 -0.86915398711E+03  0.86915398713E+03  0.50400001928E-02 0.  1.
    10030    2    1    2    0    0  0.00000000000E+00  0.00000000000E+00 -0.58150140683E+03  0.11568065674E+04  0.10000287738E+04 0.  0.
        1    1    3    3  502    0  0.48722348121E+03  0.93588445675E+02 -0.36270227362E+03  0.61457176726E+03  0.50400001928E-02 0. -1.
       -1    1    3    3    0  502 -0.48722348121E+03 -0.93588445675E+02 -0.21879913322E+03  0.54223480018E+03  0.50400001928E-02 0.  1.
</event>
<event>
 5   0  0.1216322E-02  0.1112300E+04  0.7818609E-02  0.9193285E-01
        2   -1    0    0  501    0  0.00000000000E+00  0.00000000000E+00  0.79693703127E+03  0.79693703127E+03  0.25500000920E-02 0. -1.
       -2   -1    0    0    0  501  0.00000000000E+00  0.00000000000E+00 -0.38811466730E+03  0.38811466731E+03  0.25500000920E-02 0.  1.
    10030    2    1    2    0    0  0.00000000000E+00  0.00000000000E+00  0.40882236397E+03  0.11850516986E+04  0.11123002306E+04 0.  0.
        2    1    3    3  502    0  0.16295430966E+03  0.32374549608E+03 -0.24500556628E+03  0.43748483492E+03  0.25500000920E-02 0.  1.
       -2    1    3    3    0  502 -0.16295430966E+03 -0.32374549608E+03  0.65382793025E+03  0.74756686366E+03  0.25500000920E-02 0. -1.
</event>
<event>
 5   0  0.7241200E-03  0.1005580E+04  0.7818609E-02  0.9302446E-01
        1   -1    0    0  501    0  0.00000000000E+00  0.00000000000E+00  0.11102866083E+04  0.11102866083E+04  0.50400001928E-02 0. -1.
       -1   -1    0    0    0  501  0.00000000000E+00  0.00000000000E+00 -0.22768707966E+03  0.22768707971E+03  0.50400001928E-02 0.  1.
    10030    2    1    2    0    0  0.00000000000E+00  0.00000000000E+00  0.88259952863E+03  0.13379736880E+04  0.10055802613E+04 0.  0.
        4    1    3    3  502    0 -0.31280310175E+03 -0.18762974142E+03 -0.19127061779E+02  0.36526450378E+03  0.12699999809E+01 0.  1.
       -4    1    3    3    0  502  0.31280310175E+03  0.18762974142E+03  0.90172659041E+03  0.97270918423E+03  0.12699999809E+01 0. -1.
</event>
<event>
 5   0  0.1216322E-02  0.9947240E+03  0.7818609E-02  0.9314350E-01
       -2   -1    0    0    0  501  0.00000000000E+00  0.00000000000E+00  0.22511704060E+03  0.22511704061E+03  0.25500000920E-02 0.  1.
        2   -1    0    0  501    0  0.00000000000E+00  0.00000000000E+00 -0.10988459124E+04  0.10988459124E+04  0.25500000920E-02 0. -1.
    10030    2    1    2    0    0  0.00000000000E+00  0.00000000000E+00 -0.87372887175E+03  0.13239629530E+04  0.99472396146E+03 0.  0.
        2    1    3    3  502    0 -0.43201737380E+03 -0.13545361023E+03 -0.71087370098E+03  0.84280965262E+03  0.25500000920E-02 0. -1.
       -2    1    3    3    0  502  0.43201737380E+03  0.13545361023E+03 -0.16285517077E+03  0.48115330035E+03  0.25500000920E-02 0.  1.
</event>
<event>
 5   0  0.7073004E-03  0.1008637E+04  0.7818609E-02  0.9299122E-01
       -1   -1    0    0    0  501  0.00000000000E+00  0.00000000000E+00  0.50856072231E+03  0.50856072233E+03  0.50400001928E-02 0. -1.
        1   -1    0    0  501    0  0.00000000000E+00  0.00000000000E+00 -0.50011182618E+03  0.50011182620E+03  0.50400001928E-02 0.  1.
    10030    2    1    2    0    0  0.00000000000E+00  0.00000000000E+00  0.84488961294E+01  0.10086725485E+04  0.10086371629E+04 0.  0.
        1    1    3    3  502    0  0.38042756594E+03 -0.17119790192E+03  0.28761289457E+03  0.50671000750E+03  0.50400001928E-02 0. -1.
       -1    1    3    3    0  502 -0.38042756594E+03  0.17119790192E+03 -0.27916399844E+03  0.50196254103E+03  0.50400001928E-02 0.  1.
</event>
<event>
 5   0  0.7224879E-03  0.9724405E+03  0.7818609E-02  0.9339299E-01
       -1   -1    0    0    0  501  0.00000000000E+00  0.00000000000E+00  0.24560840717E+03  0.24560840722E+03  0.50400001928E-02 0.  1.
        1   -1    0    0  501    0  0.00000000000E+00  0.00000000000E+00 -0.96254908847E+03  0.96254908849E+03  0.50400001928E-02 0. -1.
    10030    2    1    2    0    0  0.00000000000E+00  0.00000000000E+00 -0.71694068131E+03  0.12081574957E+04  0.97244053490E+03 0.  0.
        3    1    3    3  502    0 -0.17330385586E+03 -0.11199660443E+03 -0.90545354479E+03  0.92866764659E+03  0.10100000352E+00 0. -1.
       -3    1    3    3    0  502  0.17330385586E+03  0.11199660443E+03  0.18851286348E+03  0.27948984912E+03  0.10100000352E+00 0.  1.
</event>
<event>
 5   0  0.1216322E-02  0.9944649E+03  0.7818609E-02  0.9314636E-01
        2   -1    0    0  501    0  0.00000000000E+00  0.00000000000E+00  0.31908474714E+03  0.31908474715E+03  0.25500000920E-02 0.  1.
       -2   -1    0    0    0  501  0.00000000000E+00  0.00000000000E+00 -0.77484158451E+03  0.77484158451E+03  0.25500000920E-02 0. -1.
    10030    2    1    2    0    0  0.00000000000E+00  0.00000000000E+00 -0.45575683737E+03  0.10939263317E+04  0.99446494372E+03 0.  0.
        2    1    3    3  502    0 -0.87400062870E+02 -0.28189895496E+03 -0.66806908952E+03  0.73035751532E+03  0.25500000920E-02 0. -1.
       -2    1    3    3    0  502  0.87400062870E+02  0.28189895496E+03  0.21231225216E+03  0.36356881634E+03  0.25500000920E-02 0.  1.
</event>
<event>
 5   0  0.1240503E-02  0.9955672E+03  0.7818609E-02  0.9313420E-01
        2   -1    0    0  501    0  0.00000000000E+00  0.00000000000E+00  0.18303827808E+04  0.18303827808E+04  0.25500000920E-02 0. -1.
       -2   -1    0    0    0  501  0.00000000000E+00  0.00000000000E+00 -0.13537524537E+03  0.13537524539E+03  0.25500000920E-02 0.  1.
    10030    2    1    2    0    0  0.00000000000E+00  0.00000000000E+00  0.16950075354E+04  0.19657580262E+04  0.99556721136E+03 0.  0.
        1    1    3    3  502    0 -0.10586228631E+03 -0.11865194603E+03  0.17788856990E+04  0.17859785660E+04  0.50400001928E-02 0. -1.
       -1    1    3    3    0  502  0.10586228631E+03  0.11865194603E+03 -0.83878163583E+02  0.17977946021E+03  0.50400001928E-02 0.  1.
</event>
<event>
 5   0  0.1221315E-02  0.9919006E+03  0.7818609E-02  0.9317473E-01
       -2   -1    0    0    0  501  0.00000000000E+00  0.00000000000E+00  0.21566011807E+03  0.21566011809E+03  0.25500000920E-02 0. -1.
        2   -1    0    0  501    0  0.00000000000E+00  0.00000000000E+00 -0.11405294750E+04  0.11405294750E+04  0.25500000920E-02 0.  1.
    10030    2    1    2    0    0  0.00000000000E+00  0.00000000000E+00 -0.92486935692E+03  0.13561895931E+04  0.99190064272E+03 0.  0.
        5    1    3    3  502    0  0.24045219753E+03 -0.43340986243E+03 -0.43942305560E+03  0.66240175116E+03  0.46999998093E+01 0. -1.
       -5    1    3    3    0  502 -0.24045219753E+03  0.43340986243E+03 -0.48544630133E+03  0.69378784194E+03  0.46999998093E+01 0.  1.
</event>
<event>
 5   0  0.7241200E-03  0.9855799E+03  0.7818609E-02  0.9324503E-01
        1   -1    0    0  501    0  0.00000000000E+00  0.00000000000E+00  0.46635601680E+03  0.46635601683E+03  0.50400001928E-02 0.  1.
       -1   -1    0    0    0  501  0.00000000000E+00  0.00000000000E+00 -0.52072216719E+03  0.52072216722E+03  0.50400001928E-02 0. -1.
    10030    2    1    2    0    0  0.00000000000E+00  0.00000000000E+00 -0.54366150386E+02  0.98707818405E+03  0.98557986136E+03 0.  0.
        4    1    3    3  502    0 -0.94500425428E+01 -0.35327475212E+03  0.31677454023E+03  0.47459464391E+03  0.12699999809E+01 0.  1.
       -4    1    3    3    0  502  0.94500425428E+01  0.35327475212E+03 -0.37114069061E+03  0.51248354014E+03  0.12699999809E+01 0. -1.
</event>
<event>
 5   0  0.7073004E-03  0.1038923E+04  0.7818609E-02  0.9266855E-01
        1   -1    0    0  501    0  0.00000000000E+00  0.00000000000E+00  0.46453577294E+03  0.46453577297E+03  0.50400001928E-02 0.  1.
       -1   -1    0    0    0  501  0.00000000000E+00  0.00000000000E+00 -0.58088196344E+03  0.58088196346E+03  0.50400001928E-02 0. -1.
    10030    2    1    2    0    0  0.00000000000E+00  0.00000000000E+00 -0.11634619049E+03  0.10454177364E+04  0.10389233887E+04 0.  0.
        1    1    3    3  502    0 -0.10322198902E+03  0.13967708565E+02  0.45391929396E+03  0.46571729768E+03  0.50400001928E-02 0.  1.
       -1    1    3    3    0  502  0.10322198902E+03 -0.13967708565E+02 -0.57026548445E+03  0.57970043875E+03  0.50400001928E-02 0. -1.
</event>
<event>
 5   0  0.7224879E-03  0.9912527E+03  0.7818609E-02  0.9318191E-01
       -1   -1    0    0    0  501  0.00000000000E+00  0.00000000000E+00  0.21632477731E+03  0.21632477737E+03  0.50400001928E-02 0.  1.
        1   -1    0    0  501    0  0.00000000000E+00  0.00000000000E+00 -0.11355402428E+04  0.11355402428E+04  0.50400001928E-02 0. -1.
    10030    2    1    2    0    0  0.00000000000E+00  0.00000000000E+00 -0.91921546549E+03  0.13518650202E+04  0.99125272296E+03 0.  0.
        3    1    3    3  502    0 -0.25224802213E+02  0.49325801893E+03 -0.51593287697E+03  0.71423141042E+03  0.10100000352E+00 0.  1.
       -3    1    3    3    0  502  0.25224802213E+02 -0.49325801893E+03 -0.40328258852E+03  0.63763360976E+03  0.10100000352E+00 0. -1.
</event>
<event>
 5   0  0.1245850E-02  0.1002858E+04  0.7818609E-02  0.9305415E-01
        2   -1    0    0  501    0  0.00000000000E+00  0.00000000000E+00  0.27475897183E+03  0.27475897184E+03  0.25500000920E-02 0. -1.
       -2   -1    0    0    0  501  0.00000000000E+00  0.00000000000E+00 -0.91509761529E+03  0.91509761529E+03  0.25500000920E-02 0.  1.
    10030    2    1    2    0    0  0.00000000000E+00  0.00000000000E+00 -0.64033864346E+03  0.11898565871E+04  0.10028584744E+04 0.  0.
        3    1    3    3  502    0  0.39786893850E+03  0.17502671893E+03 -0.23559629590E+02  0.43530346991E+03  0.10100000352E+00 0. -1.
       -3    1    3    3    0  502 -0.39786893850E+03 -0.17502671893E+03 -0.61677901387E+03  0.75455311723E+03  0.10100000352E+00 0.  1.
</event>
<event>
 5   0  0.1216322E-02  0.9891186E+03  0.7818609E-02  0.9320561E-01
       -2   -1    0    0    0  501  0.00000000000E+00  0.00000000000E+00  0.33921765983E+03  0.33921765984E+03  0.25500000920E-02 0. -1.
        2   -1    0    0  501    0  0.00000000000E+00  0.00000000000E+00 -0.72103820315E+03  0.72103820316E+03  0.25500000920E-02 0.  1.
    10030    2    1    2    0    0  0.00000000000E+00  0.00000000000E+00 -0.38182054332E+03  0.10602558630E+04  0.98911858123E+03 0.  0.
        2    1    3    3  502    0 -0.67115686294E+02  0.34398691786E+03  0.18312276563E+03  0.39543073010E+03  0.25500000920E-02 0. -1.
       -2    1    3    3    0  502  0.67115686294E+02 -0.34398691786E+03 -0.56494330895E+03  0.66482513290E+03  0.25500000920E-02 0.  1.
</event>
<event>
 5   0  0.4782125E-03  0.8252710E+03  0.7818609E-02  0.9524142E-01
        4   -1    0    0  501    0  0.00000000000E+00  0.00000000000E+00  0.31227250788E+03  0.31227509038E+03  0.12699999809E+01 0. -1.
       -4   -1    0    0    0  501  0.00000000000E+00  0.00000000000E+00 -0.54524916141E+03  0.54525064046E+03  0.12699999809E+01 0.  1.
    10030    2    1    2    0    0  0.00000000000E+00  0.00000000000E+00 -0.23297665354E+03  0.85752573085E+03  0.82527102092E+03 0.  0.
        3    1    3    3  502    0  0.20898511288E+03 -0.24374004505E+03 -0.38581769433E+03  0.50193554409E+03  0.10100000352E+00 0.  1.
       -3    1    3    3    0  502 -0.20898511288E+03  0.24374004505E+03  0.15284104079E+03  0.35559018675E+03  0.10100000352E+00 0. -1.
</event>
<event>
 5   0  0.7461157E-03  0.1006772E+04  0.7818609E-02  0.9301148E-01
        1   -1    0    0  501    0  0.00000000000E+00  0.00000000000E+00  0.39433531210E+03  0.39433531213E+03  0.50400001928E-02 0. -1.
       -1   -1    0    0    0  501  0.00000000000E+00  0.00000000000E+00 -0.64259434030E+03  0.64259434032E+03  0.50400001928E-02 0.  1.
    10030    2    1    2    0    0  0.00000000000E+00  0.00000000000E+00 -0.24825902821E+03  0.10369296525E+04  0.10067723472E+04 0.  0.
        2    1    3    3  502    0 -0.35653490963E+03  0.23352020000E+03  0.15175376503E+03  0.45241356169E+03  0.25500000920E-02 0. -1.
       -2    1    3    3    0  502  0.35653490963E+03 -0.23352020000E+03 -0.40001279324E+03  0.58451609076E+03  0.25500000920E-02 0.  1.
</event>
<event>
 5   0  0.1191822E-02  0.1021167E+04  0.7818609E-02  0.9285629E-01
       -2   -1    0    0    0  501  0.00000000000E+00  0.00000000000E+00  0.89332593404E+03  0.89332593405E+03  0.25500000920E-02 0.  1.
        2   -1    0    0  501    0  0.00000000000E+00  0.00000000000E+00 -0.29182558312E+03  0.29182558313E+03  0.25500000920E-02 0. -1.
    10030    2    1    2    0    0  0.00000000000E+00  0.00000000000E+00  0.60150035092E+03  0.11851515172E+04  0.10211667085E+04 0.  0.
        4    1    3    3  502    0  0.36836470969E+03  0.18493268761E+03  0.65047202063E+03  0.77007020512E+03  0.12699999809E+01 0.  1.
       -4    1    3    3    0  502 -0.36836470969E+03 -0.18493268761E+03 -0.48971669711E+02  0.41508131206E+03  0.12699999809E+01 0. -1.
</event>
<event>
 5   0  0.7224879E-03  0.9890497E+03  0.7818609E-02  0.9320637E-01
        1   -1    0    0  501    0  0.00000000000E+00  0.00000000000E+00  0.32999301618E+03  0.32999301622E+03  0.50400001928E-02 0. -1.
       -1   -1    0    0    0  501  0.00000000000E+00  0.00000000000E+00 -0.74109089440E+03  0.74109089442E+03  0.50400001928E-02 0.  1.
    10030    2    1    2    0    0  0.00000000000E+00  0.00000000000E+00 -0.41109787822E+03  0.10710839106E+04  0.98904968438E+03 0.  0.
        3    1    3    3  502    0 -0.38791395228E+03  0.10086308831E+03  0.10813860159E+03  0.41514402840E+03  0.10100000352E+00 0. -1.
       -3    1    3    3    0  502  0.38791395228E+03 -0.10086308831E+03 -0.51923647981E+03  0.65593988225E+03  0.10100000352E+00 0.  1.
</event>
<event>
 5   0  0.1240503E-02  0.9799258E+03  0.7818609E-02  0.9330840E-01
       -2   -1    0    0    0  501  0.00000000000E+00  0.00000000000E+00  0.23458909100E+03  0.23458909101E+03  0.25500000920E-02 0.  1.
        2   -1    0    0  501    0  0.00000000000E+00  0.00000000000E+00 -0.10233367259E+04  0.10233367259E+04  0.25500000920E-02 0. -1.
    10030    2    1    2    0    0  0.00000000000E+00  0.00000000000E+00 -0.78874763487E+03  0.12579258169E+04  0.97992577743E+03 0.  0.
        1    1    3    3  502    0 -0.28552206049E+03 -0.35673723890E+02  0.11470176387E+03  0.30976112775E+03  0.50400001928E-02 0.  1.
       -1    1    3    3    0  502  0.28552206049E+03  0.35673723890E+02 -0.90344939875E+03  0.94816468914E+03  0.50400001928E-02 0. -1.
</event>
<event>
 5   0  0.4782125E-03  0.9694989E+03  0.7818609E-02  0.9342645E-01
        4   -1    0    0  501    0  0.00000000000E+00  0.00000000000E+00  0.11202947295E+04  0.11202954494E+04  0.12699999809E+01 0. -1.
       -4   -1    0    0    0  501  0.00000000000E+00  0.00000000000E+00 -0.20974747611E+03  0.20975132094E+03  0.12699999809E+01 0.  1.
    10030    2    1    2    0    0  0.00000000000E+00  0.00000000000E+00  0.91054725342E+03  0.13300467703E+04  0.96949889662E+03 0.  0.
        5    1    3    3  502    0 -0.43774121615E+03  0.19333387772E+03  0.34932156300E+03  0.59248882265E+03  0.46999998093E+01 0.  1.
       -5    1    3    3    0  502  0.43774121615E+03 -0.19333387772E+03  0.56122569043E+03  0.73755794768E+03  0.46999998093E+01 0. -1.
</event>
<event>
 5   0  0.7241200E-03  0.1073124E+04  0.7818609E-02  0.9231790E-01
       -1   -1    0    0    0  501  0.00000000000E+00  0.00000000000E+00  0.24450797136E+03  0.24450797141E+03  0.50400001928E-02 0. -1.
        1   -1    0    0  501    0  0.00000000000E+00  0.00000000000E+00 -0.11774626110E+04  0.11774626110E+04  0.50400001928E-02 0.  1.
    10030    2    1    2    0    0  0.00000000000E+00  0.00000000000E+00 -0.93295463960E+03  0.14219705824E+04  0.10731243999E+04 0.  0.
        4    1    3    3  502    0  0.59224195708E+02  0.29471049653E+03  0.12245207225E+03  0.32458882455E+03  0.12699999809E+01 0. -1.
       -4    1    3    3    0  502 -0.59224195708E+02 -0.29471049653E+03 -0.10554067118E+04  0.10973817578E+04  0.12699999809E+01 0.  1.
</event>
<event>
 5   0  0.1191822E-02  0.9757244E+03  0.7818609E-02  0.9335578E-01
       -2   -1    0    0    0  501  0.00000000000E+00  0.00000000000E+00  0.15571114152E+03  0.15571114154E+03  0.25500000920E-02 0. -1.
        2   -1    0    0  501    0  0.00000000000E+00  0.00000000000E+00 -0.15285323190E+04  0.15285323190E+04  0.25500000920E-02 0.  1.
    10030    2    1    2    0    0  0.00000000000E+00  0.00000000000E+00 -0.13728211775E+04  0.16842434606E+04  0.97572437147E+03 0.  0.
        4    1    3    3  502    0  0.22488678077E+02 -0.42825674747E+03 -0.10878958383E+04  0.11693710062E+04  0.12699999809E+01 0.  1.
       -4    1    3    3    0  502 -0.22488678077E+02  0.42825674747E+03 -0.28492533923E+03  0.51487245433E+03  0.12699999809E+01 0. -1.
</event>
<event>
 5   0  0.1216322E-02  0.9991778E+03  0.7818609E-02  0.9309447E-01
        2   -1    0    0  501    0  0.00000000000E+00  0.00000000000E+00  0.12303880426E+04  0.12303880426E+04  0.25500000920E-02 0.  1.
       -2   -1    0    0    0  501  0.00000000000E+00  0.00000000000E+00 -0.20285394089E+03  0.20285394091E+03  0.25500000920E-02 0. -1.
    10030    2    1    2    0    0  0.00000000000E+00  0.00000000000E+00  0.10275341017E+04  0.14332419835E+04  0.99917778855E+03 0.  0.
        2    1    3    3  502    0 -0.28996234757E+02 -0.86310428422E+02  0.12183860085E+04  0.12217834249E+04  0.25500000920E-02 0.  1.
       -2    1    3    3    0  502  0.28996234757E+02  0.86310428422E+02 -0.19085190678E+03  0.21145855861E+03  0.25500000920E-02 0. -1.
</event>
<event>
 5   0  0.6967681E-03  0.1002344E+04  0.7818609E-02  0.9305977E-01
       -1   -1    0    0    0  501  0.00000000000E+00  0.00000000000E+00  0.41114661220E+03  0.41114661223E+03  0.50400001928E-02 0. -1.
        1   -1    0    0  501    0  0.00000000000E+00  0.00000000000E+00 -0.61091009332E+03  0.61091009334E+03  0.50400001928E-02 0.  1.
    10030    2    1    2    0    0  0.00000000000E+00  0.00000000000E+00 -0.19976348111E+03  0.10220567056E+04  0.10023444822E+04 0.  0.
        5    1    3    3  502    0  0.39351769090E+03  0.15455905136E+03 -0.37425881469E+03  0.56465602253E+03  0.46999998093E+01 0. -1.
       -5    1    3    3    0  502 -0.39351769090E+03 -0.15455905136E+03  0.17449533358E+03  0.45740068304E+03  0.46999998093E+01 0.  1.
</event>
<event>
 5   0  0.1221315E-02  0.1010560E+04  0.7818609E-02  0.9297038E-01
        2   -1    0    0  501    0  0.00000000000E+00  0.00000000000E+00  0.90385951408E+03  0.90385951409E+03  0.25500000920E-02 0. -1.
       -2   -1    0    0    0  501  0.00000000000E+00  0.00000000000E+00 -0.28246411123E+03  0.28246411124E+03  0.25500000920E-02 0.  1.
    10030    2    1    2    0    0  0.00000000000E+00  0.00000000000E+00  0.62139540285E+03  0.11863236253E+04  0.10105599920E+04 0.  0.
        5    1    3    3  502    0 -0.32758556323E+01  0.73639506117E+02  0.89748774191E+03  0.90052198472E+03  0.46999998093E+01 0. -1.
       -5    1    3    3    0  502  0.32758556323E+01 -0.73639506117E+02 -0.27609233906E+03  0.28580164061E+03  0.46999998093E+01 0.  1.
</event>
<event>
 5   0  0.1216322E-02  0.9908773E+03  0.7818609E-02  0.9318607E-01
       -2   -1    0    0    0  501  0.00000000000E+00  0.00000000000E+00  0.28109906193E+03  0.28109906194E+03  0.25500000920E-02 0. -1.
        2   -1    0    0  501    0  0.00000000000E+00  0.00000000000E+00 -0.87321337622E+03  0.87321337622E+03  0.25500000920E-02 0.  1.
    10030    2    1    2    0    0  0.00000000000E+00  0.00000000000E+00 -0.59211431429E+03  0.11543124382E+04  0.99087731011E+03 0.  0.
        2    1    3    3  502    0  0.27865577884E+03 -0.32754408162E+03 -0.58265435501E+03  0.72416867228E+03  0.25500000920E-02 0.  1.
       -2    1    3    3    0  502 -0.27865577884E+03  0.32754408162E+03 -0.94599592763E+01  0.43014376588E+03  0.25500000920E-02 0. -1.
</event>
<event>
 5   0  0.4782125E-03  0.1001937E+04  0.7818609E-02  0.9306423E-01
       -4   -1    0    0    0  501  0.00000000000E+00  0.00000000000E+00  0.12333164929E+04  0.12333171468E+04  0.12699999809E+01 0. -1.
        4   -1    0    0  501    0  0.00000000000E+00  0.00000000000E+00 -0.20348863458E+03  0.20349259766E+03  0.12699999809E+01 0.  1.
    10030    2    1    2    0    0  0.00000000000E+00  0.00000000000E+00  0.10298278583E+04  0.14368097445E+04  0.10019365369E+04 0.  0.
        2    1    3    3  502    0  0.46554088280E+03 -0.11345850362E+03  0.30528964048E+03  0.56815746953E+03  0.25500000920E-02 0.  1.
       -2    1    3    3    0  502 -0.46554088280E+03  0.11345850362E+03  0.72453821787E+03  0.86865227494E+03  0.25500000920E-02 0. -1.
</event>
<event>
 5   0  0.7224879E-03  0.1010013E+04  0.7818609E-02  0.9297630E-01
       -1   -1    0    0    0  501  0.00000000000E+00  0.00000000000E+00  0.10728029098E+04  0.10728029098E+04  0.50400001928E-02 0.  1.
        1   -1    0    0  501    0  0.00000000000E+00  0.00000000000E+00 -0.23772458137E+03  0.23772458142E+03  0.50400001928E-02 0. -1.
    10030    2    1    2    0    0  0.00000000000E+00  0.00000000000E+00  0.83507832845E+03  0.13105274913E+04  0.10100131141E+04 0.  0.
        3    1    3    3  502    0  0.88360146814E+02 -0.26353315864E+03 -0.12954443891E+03  0.30665781109E+03  0.10100000352E+00 0. -1.
       -3    1    3    3    0  502 -0.88360146814E+02  0.26353315864E+03  0.96462276735E+03  0.10038696802E+04  0.10100000352E+00 0.  1.
</event>
<event>
 5   0  0.1240503E-02  0.1005384E+04  0.7818609E-02  0.9302659E-01
       -2   -1    0    0    0  501  0.00000000000E+00  0.00000000000E+00  0.18746807800E+03  0.18746807802E+03  0.25500000920E-02 0. -1.
        2   -1    0    0  501    0  0.00000000000E+00  0.00000000000E+00 -0.13479599509E+04  0.13479599509E+04  0.25500000920E-02 0.  1.
    10030    2    1    2    0    0  0.00000000000E+00  0.00000000000E+00 -0.11604918729E+04  0.15354280289E+04  0.10053844264E+04 0.  0.
        1    1    3    3  502    0  0.15423396207E+02 -0.24508407329E+03  0.89630385179E+02  0.26141478555E+03  0.50400001928E-02 0. -1.
       -1    1    3    3    0  502 -0.15423396207E+02  0.24508407329E+03 -0.12501222581E+04  0.12740132433E+04  0.50400001928E-02 0.  1.
</event>
<event>
 5   0  0.7224879E-03  0.8980026E+03  0.7818609E-02  0.9428082E-01
       -1   -1    0    0    0  501  0.00000000000E+00  0.00000000000E+00  0.24809455899E+03  0.24809455904E+03  0.50400001928E-02 0.  1.
        1   -1    0    0  501    0  0.00000000000E+00  0.00000000000E+00 -0.81260209827E+03  0.81260209828E+03  0.50400001928E-02 0. -1.
    10030    2    1    2    0    0  0.00000000000E+00  0.00000000000E+00 -0.56450753928E+03  0.10606966573E+04  0.89800258181E+03 0.  0.
        3    1    3    3  502    0  0.41766237868E+03 -0.16389579602E+03 -0.30265952586E+03  0.54120836405E+03  0.10100000352E+00 0. -1.
       -3    1    3    3    0  502 -0.41766237868E+03  0.16389579602E+03 -0.26184801342E+03  0.51948829328E+03  0.10100000352E+00 0.  1.
</event>
<event>
 5   0  0.1216322E-02  0.1090821E+04  0.7818609E-02  0.9214185E-01
       -2   -1    0    0    0  501  0.00000000000E+00  0.00000000000E+00  0.29066987112E+03  0.29066987113E+03  0.25500000920E-02 0. -1.
        2   -1    0    0  501    0  0.00000000000E+00  0.00000000000E+00 -0.10234033457E+04  0.10234033457E+04  0.25500000920E-02 0.  1.
    10030    2    1    2    0    0  0.00000000000E+00  0.00000000000E+00 -0.73273347457E+03  0.13140732168E+04  0.10908208260E+04 0.  0.
        2    1    3    3  502    0 -0.23827743246E+03 -0.30460990127E+03  0.96934782471E+02  0.39869747783E+03  0.25500000920E-02 0. -1.
       -2    1    3    3    0  502  0.23827743246E+03  0.30460990127E+03 -0.82966825704E+03  0.91537573898E+03  0.25500000920E-02 0.  1.
</event>
<event>
 5   0  0.1245850E-02  0.9936499E+03  0.7818609E-02  0.9315537E-01
        2   -1    0    0  501    0  0.00000000000E+00  0.00000000000E+00  0.74384343251E+03  0.74384343251E+03  0.25500000920E-02 0. -1.
       -2   -1    0    0    0  501  0.00000000000E+00  0.00000000000E+00 -0.33183731812E+03  0.33183731813E+03  0.25500000920E-02 0.  1.
    10030    2    1    2    0    0  0.00000000000E+00  0.00000000000E+00  0.41200611438E+03  0.10756807506E+04  0.99364985735E+03 0.  0.
        3    1    3    3  502    0  0.41150860987E+03 -0.11656484247E+03  0.47967398126E+03  0.64266152600E+03  0.10100000352E+00 0. -1.
       -3    1    3    3    0  502 -0.41150860987E+03  0.11656484247E+03 -0.67667866879E+02  0.43301922464E+03  0.10100000352E+00 0.  1.
</event>
<event>
 5   0  0.1240503E-02  0.1000514E+04  0.7818609E-02  0.9307981E-01
        2   -1    0    0  501    0  0.00000000000E+00  0.00000000000E+00  0.22400235741E+04  0.22400235741E+04  0.25500000920E-02 0. -1.
       -2   -1    0    0    0  501  0.00000000000E+00  0.00000000000E+00 -0.11172071896E+03  0.11172071899E+03  0.25500000920E-02 0.  1.
    10030    2    1    2    0    0  0.00000000000E+00  0.00000000000E+00  0.21283028552E+04  0.23517442931E+04  0.10005139564E+04 0.  0.
        1    1    3    3  502    0 -0.36738145148E+03 -0.31894387577E+03  0.79041014084E+03  0.92813927702E+03  0.50400001928E-02 0. -1.
       -1    1    3    3    0  502  0.36738145148E+03  0.31894387577E+03  0.13378927143E+04  0.14236050161E+04  0.50400001928E-02 0.  1.
</event>
<event>
 5   0  0.1221315E-02  0.7977438E+03  0.7818609E-02  0.9563289E-01
       -2   -1    0    0    0  501  0.00000000000E+00  0.00000000000E+00  0.15427223174E+03  0.15427223176E+03  0.25500000920E-02 0. -1.
        2   -1    0    0  501    0  0.00000000000E+00  0.00000000000E+00 -0.10312858987E+04  0.10312858987E+04  0.25500000920E-02 0.  1.
    10030    2    1    2    0    0  0.00000000000E+00  0.00000000000E+00 -0.87701366698E+03  0.11855581305E+04  0.79774376129E+03 0.  0.
        5    1    3    3  502    0  0.17559715584E+03  0.13352624682E+02  0.93323402790E+02  0.19935897580E+03  0.46999998093E+01 0. -1.
       -5    1    3    3    0  502 -0.17559715584E+03 -0.13352624682E+02 -0.97033706977E+03  0.98619915468E+03  0.46999998093E+01 0.  1.
</event>
<event>
 5   0  0.7241200E-03  0.9585867E+03  0.7818609E-02  0.9355170E-01
       -1   -1    0    0    0  501  0.00000000000E+00  0.00000000000E+00  0.51945638724E+03  0.51945638727E+03  0.50400001928E-02 0. -1.
        1   -1    0    0  501    0  0.00000000000E+00  0.00000000000E+00 -0.44223564889E+03  0.44223564892E+03  0.50400001928E-02 0.  1.
    10030    2    1    2    0    0  0.00000000000E+00  0.00000000000E+00  0.77220738350E+02  0.96169203619E+03  0.95858673580E+03 0.  0.
        4    1    3    3  502    0  0.20152289439E+03 -0.29541494364E+03  0.35876646997E+03  0.50655351027E+03  0.12699999809E+01 0. -1.
       -4    1    3    3    0  502 -0.20152289439E+03  0.29541494364E+03 -0.28154573162E+03  0.45513852593E+03  0.12699999809E+01 0.  1.
</event>
<event>
 5   0  0.6967681E-03  0.1023831E+04  0.7818609E-02  0.9282786E-01
       -1   -1    0    0    0  501  0.00000000000E+00  0.00000000000E+00  0.85528956966E+03  0.85528956967E+03  0.50400001928E-02 0.  1.
        1   -1    0    0  501    0  0.00000000000E+00  0.00000000000E+00 -0.30639636157E+03  0.30639636161E+03  0.50400001928E-02 0. -1.
    10030    2    1    2    0    0  0.00000000000E+00  0.00000000000E+00  0.54889320809E+03  0.11616859313E+04  0.10238312600E+04 0.  0.
        5    1    3    3  502    0  0.11382757058E+03 -0.37307956164E+02  0.83913892659E+03  0.84765843802E+03  0.46999998093E+01 0.  1.
       -5    1    3    3    0  502 -0.11382757058E+03  0.37307956164E+02 -0.29024571851E+03  0.31402749327E+03  0.46999998093E+01 0. -1.
</event>
<event>
 5   0  0.4782125E-03  0.1011040E+04  0.7818609E-02  0.9296519E-01
        3   -1    0    0  501    0  0.00000000000E+00  0.00000000000E+00  0.15088880533E+03  0.15088883914E+03  0.10100000352E+00 0. -1.
       -3   -1    0    0    0  501  0.00000000000E+00  0.00000000000E+00 -0.16936328658E+04  0.16936328688E+04  0.10100000352E+00 0.  1.
    10030    2    1    2    0    0  0.00000000000E+00  0.00000000000E+00 -0.15427440605E+04  0.18445217080E+04  0.10110396110E+04 0.  0.
        1    1    3    3  502    0 -0.34545504066E+03  0.81129311210E+02 -0.14282230705E+04  0.14716461155E+04  0.50400001928E-02 0.  1.
       -1    1    3    3    0  502  0.34545504066E+03 -0.81129311210E+02 -0.11452098998E+03  0.37287559242E+03  0.50400001928E-02 0. -1.
</event>
<event>
 5   0  0.1191822E-02  0.9976311E+03  0.7818609E-02  0.9311147E-01
        2   -1    0    0  501    0  0.00000000000E+00  0.00000000000E+00  0.88916889381E+03  0.88916889381E+03  0.25500000920E-02 0. -1.
       -2   -1    0    0    0  501  0.00000000000E+00  0.00000000000E+00 -0.27983093934E+03  0.27983093935E+03  0.25500000920E-02 0.  1.
    10030    2    1    2    0    0  0.00000000000E+00  0.00000000000E+00  0.60933795447E+03  0.11689998332E+04  0.99763112781E+03 0.  0.
        4    1    3    3  502    0 -0.12313873833E+03 -0.19350274292E+03 -0.21437457696E+03  0.31394988858E+03  0.12699999809E+01 0.  1.
       -4    1    3    3    0  502  0.12313873833E+03  0.19350274292E+03  0.82371253143E+03  0.85504994458E+03  0.12699999809E+01 0. -1.
</event>
<event>
 5   0  0.7241200E-03  0.9907287E+03  0.7818609E-02  0.9318772E-01
        1   -1    0    0  501    0  0.00000000000E+00  0.00000000000E+00  0.79376834946E+03  0.79376834948E+03  0.50400001928E-02 0. -1.
       -1   -1    0    0    0  501  0.00000000000E+00  0.00000000000E+00 -0.30914033824E+03  0.30914033829E+03  0.50400001928E-02 0.  1.
    10030    2    1    2    0    0  0.00000000000E+00  0.00000000000E+00  0.48462801122E+03  0.11029086878E+04  0.99072865321E+03 0.  0.
        4    1    3    3  502    0 -0.49390558678E+03  0.37908762437E+02  0.23997880913E+03  0.55042823752E+03  0.12699999809E+01 0. -1.
       -4    1    3    3    0  502  0.49390558678E+03 -0.37908762437E+02  0.24464920209E+03  0.55248045025E+03  0.12699999809E+01 0.  1.
</event>
<event>
 5   0  0.4782125E-03  0.1014006E+04  0.7818609E-02  0.9293316E-01
       -3   -1    0    0    0  501  0.00000000000E+00  0.00000000000E+00  0.19217617920E+03  0.19217620574E+03  0.10100000352E+00 0.  1.
        3   -1    0    0  501    0  0.00000000000E+00  0.00000000000E+00 -0.13375845524E+04  0.13375845562E+04  0.10100000352E+00 0. -1.
    10030    2    1    2    0    0  0.00000000000E+00  0.00000000000E+00 -0.11454083732E+04  0.15297607619E+04  0.10140057433E+04 0.  0.
        3    1    3    3  502    0  0.19218834881E+03 -0.31428243658E+03 -0.47184683348E+02  0.37139765199E+03  0.10100000352E+00 0.  1.
       -3    1    3    3    0  502 -0.19218834881E+03  0.31428243658E+03 -0.10982236899E+04  0.11583631100E+04  0.10100000352E+00 0. -1.
</event>
<event>
 5   0  0.7073004E-03  0.9977502E+03  0.7818609E-02  0.9311016E-01
       -1   -1    0    0    0  501  0.00000000000E+00  0.00000000000E+00  0.23079327783E+03  0.23079327789E+03  0.50400001928E-02 0.  1.
        1   -1    0    0  501    0  0.00000000000E+00  0.00000000000E+00 -0.10783517985E+04  0.10783517985E+04  0.50400001928E-02 0. -1.
    10030    2    1    2    0    0  0.00000000000E+00  0.00000000000E+00 -0.84755852064E+03  0.13091450764E+04  0.99775016166E+03 0.  0.
        1    1    3    3  502    0  0.17209076562E+03 -0.28149461876E+03 -0.91475942155E+03  0.97243984459E+03  0.50400001928E-02 0. -1.
       -1    1    3    3    0  502 -0.17209076562E+03  0.28149461876E+03  0.67200900914E+02  0.33670523178E+03  0.50400001928E-02 0.  1.
</event>
<event>
 5   0  0.1240503E-02  0.1016671E+04  0.7818609E-02  0.9290447E-01
       -2   -1    0    0    0  501  0.00000000000E+00  0.00000000000E+00  0.44740292716E+03  0.44740292717E+03  0.25500000920E-02 0.  1.
        2   -1    0    0  501    0  0.00000000000E+00  0.00000000000E+00 -0.57756683581E+03  0.57756683582E+03  0.25500000920E-02 0. -1.
    10030    2    1    2    0    0  0.00000000000E+00  0.00000000000E+00 -0.13016390865E+03  0.10249697630E+04  0.10166712212E+04 0.  0.
        1    1    3    3  502    0  0.40374139242E+03  0.27398917855E+03  0.78657800337E+02  0.49423094955E+03  0.50400001928E-02 0.  1.
       -1    1    3    3    0  502 -0.40374139242E+03 -0.27398917855E+03 -0.20882170899E+03  0.53073881343E+03  0.50400001928E-02 0. -1.
</event>
<event>
 5   0  0.6967681E-03  0.7177129E+03  0.7818609E-02  0.9687411E-01
       -1   -1    0    0    0  501  0.00000000000E+00  0.00000000000E+00  0.69835431382E+03  0.69835431384E+03  0.50400001928E-02 0.  1.
        1   -1    0    0  501    0  0.00000000000E+00  0.00000000000E+00 -0.18440204265E+03  0.18440204272E+03  0.50400001928E-02 0. -1.
    10030    2    1    2    0    0  0.00000000000E+00  0.00000000000E+00  0.51395227117E+03  0.88275635656E+03  0.71771292868E+03 0.  0.
        5    1    3    3  502    0 -0.16885685581E+03 -0.29978285634E+03  0.13170466362E+03  0.36844349245E+03  0.46999998093E+01 0.  1.
       -5    1    3    3    0  502  0.16885685581E+03  0.29978285634E+03  0.38224760755E+03  0.51431286411E+03  0.46999998093E+01 0. -1.
</event>
<event>
 5   0  0.1191822E-02  0.1118871E+04  0.7818609E-02  0.9186992E-01
        2   -1    0    0  501    0  0.00000000000E+00  0.00000000000E+00  0.91416450865E+03  0.91416450866E+03  0.25500000920E-02 0. -1.
       -2   -1    0    0    0  501  0.00000000000E+00  0.00000000000E+00 -0.34235411575E+03  0.34235411576E+03  0.25500000920E-02 0.  1.
    10030    2    1    2    0    0  0.00000000000E+00  0.00000000000E+00  0.57181039290E+03  0.12565186244E+04  0.11188708273E+04 0.  0.
        4    1    3    3  502    0 -0.16639762300E+03  0.46882960953E+03 -0.14594634384E+01  0.49748679847E+03  0.12699999809E+01 0.  1.
       -4    1    3    3    0  502  0.16639762300E+03 -0.46882960953E+03  0.57326985634E+03  0.75903182595E+03  0.12699999809E+01 0. -1.
</event>
<event>
 5   0  0.1240503E-02  0.9692922E+03  0.7818609E-02  0.9342881E-01
       -2   -1    0    0    0  501  0.00000000000E+00  0.00000000000E+00  0.11563732578E+03  0.11563732581E+03  0.25500000920E-02 0. -1.
        2   -1    0    0  501    0  0.00000000000E+00  0.00000000000E+00 -0.20311939107E+04  0.20311939107E+04  0.25500000920E-02 0.  1.
    10030    2    1    2    0    0  0.00000000000E+00  0.00000000000E+00 -0.19155565849E+04  0.21468312365E+04  0.96929217889E+03 0.  0.
        1    1    3    3  502    0 -0.43093777245E+03 -0.35149146614E+02 -0.14427179579E+04  0.15061135191E+04  0.50400001928E-02 0.  1.
       -1    1    3    3    0  502  0.43093777245E+03  0.35149146614E+02 -0.47283862700E+03  0.64071771744E+03  0.50400001928E-02 0. -1.
</event>
<event>
 5   0  0.1245850E-02  0.9872308E+03  0.7818609E-02  0.9322662E-01
        2   -1    0    0  501    0  0.00000000000E+00  0.00000000000E+00  0.68521666897E+03  0.68521666897E+03  0.25500000920E-02 0. -1.
       -2   -1    0    0    0  501  0.00000000000E+00  0.00000000000E+00 -0.35558998217E+03  0.35558998218E+03  0.25500000920E-02 0.  1.
    10030    2    1    2    0    0  0.00000000000E+00  0.00000000000E+00  0.32962668680E+03  0.10408066512E+04  0.98723084050E+03 0.  0.
        3    1    3    3  502    0 -0.36682004772E+03 -0.22109521884E+03  0.42352009574E+03  0.60233655451E+03  0.10100000352E+00 0. -1.
       -3    1    3    3    0  502  0.36682004772E+03  0.22109521884E+03 -0.93893408938E+02  0.43847009664E+03  0.10100000352E+00 0.  1.
</event>
<event>
 5   0  0.1216322E-02  0.1047614E+04  0.7818609E-02  0.9257811E-01
        2   -1    0    0  501    0  0.00000000000E+00  0.00000000000E+00  0.30004788446E+03  0.30004788447E+03  0.25500000920E-02 0. -1.
       -2   -1    0    0    0  501  0.00000000000E+00  0.00000000000E+00 -0.91443313094E+03  0.91443313094E+03  0.25500000920E-02 0.  1.
    10030    2    1    2    0    0  0.00000000000E+00  0.00000000000E+00 -0.61438524648E+03  0.12144810154E+04  0.10476139106E+04 0.  0.
        2    1    3    3  502    0  0.34313331404E+03  0.29273197353E+03  0.15800676691E+01  0.45103766600E+03  0.25500000920E-02 0. -1.
       -2    1    3    3    0  502 -0.34313331404E+03 -0.29273197353E+03 -0.61596531415E+03  0.76344334942E+03  0.25500000920E-02 0.  1.
</event>
<event>
 5   0  0.1240503E-02  0.9982654E+03  0.7818609E-02  0.9310449E-01
        2   -1    0    0  501    0  0.00000000000E+00  0.00000000000E+00  0.54356145141E+03  0.54356145141E+03  0.25500000920E-02 0.  1.
       -2   -1    0    0    0  501  0.00000000000E+00  0.00000000000E+00 -0.45833539466E+03  0.45833539467E+03  0.25500000920E-02 0. -1.
    10030    2    1    2    0    0  0.00000000000E+00  0.00000000000E+00  0.85226056746E+02  0.10018968461E+04  0.99826540030E+03 0.  0.
        1    1    3    3  502    0 -0.19367443102E+03 -0.38260011979E+03 -0.21373895447E+03  0.47914191799E+03  0.50400001928E-02 0. -1.
       -1    1    3    3    0  502  0.19367443102E+03  0.38260011979E+03  0.29896501121E+03  0.52275492809E+03  0.50400001928E-02 0.  1.
</event>
<event>
 5   0  0.1221315E-02  0.1004444E+04  0.7818609E-02  0.9303684E-01
        2   -1    0    0  501    0  0.00000000000E+00  0.00000000000E+00  0.10643772398E+04  0.10643772398E+04  0.25500000920E-02 0. -1.
       -2   -1    0    0    0  501  0.00000000000E+00  0.00000000000E+00 -0.23697151362E+03  0.23697151364E+03  0.25500000920E-02 0.  1.
    10030    2    1    2    0    0  0.00000000000E+00  0.00000000000E+00  0.82740572616E+03  0.13013487534E+04  0.10044442953E+04 0.  0.
        5    1    3    3  502    0 -0.45282407696E+03  0.97392473024E+02  0.66516116774E+03  0.81055314911E+03  0.46999998093E+01 0. -1.
       -5    1    3    3    0  502  0.45282407696E+03 -0.97392473024E+02  0.16224455843E+03  0.49079560431E+03  0.46999998093E+01 0.  1.
</event>
<event>
 5   0  0.1216322E-02  0.9906365E+03  0.7818609E-02  0.9318875E-01
       -2   -1    0    0    0  501  0.00000000000E+00  0.00000000000E+00  0.18063079153E+03  0.18063079155E+03  0.25500000920E-02 0. -1.
        2   -1    0    0  501    0  0.00000000000E+00  0.00000000000E+00 -0.13582410740E+04  0.13582410741E+04  0.25500000920E-02 0.  1.
    10030    2    1    2    0    0  0.00000000000E+00  0.00000000000E+00 -0.11776102825E+04  0.15388718656E+04  0.99063648289E+03 0.  0.
        2    1    3    3  502    0  0.52768418580E+02 -0.46616336784E+03 -0.34197612996E+03  0.58055186244E+03  0.25500000920E-02 0.  1.
       -2    1    3    3    0  502 -0.52768418580E+02  0.46616336784E+03 -0.83563415256E+03  0.95832000316E+03  0.25500000920E-02 0. -1.
</event>
<event>
 5   0  0.7224879E-03  0.9975265E+03  0.7818609E-02  0.9311262E-01
        1   -1    0    0  501    0  0.00000000000E+00  0.00000000000E+00  0.17312006184E+04  0.17312006184E+04  0.50400001928E-02 0.  1.
       -1   -1    0    0    0  501  0.00000000000E+00  0.00000000000E+00 -0.14369495590E+03  0.14369495599E+03  0.50400001928E-02 0. -1.
    10030    2    1    2    0    0  0.00000000000E+00  0.00000000000E+00  0.15875056625E+04  0.18748955744E+04  0.99752653421E+03 0.  0.
        3    1    3    3  502    0 -0.47107716222E+03  0.11197084943E+03  0.10186207017E+04  0.11278472007E+04  0.10100000352E+00 0. -1.
       -3    1    3    3    0  502  0.47107716222E+03 -0.11197084943E+03  0.56888496075E+03  0.74704837371E+03  0.10100000352E+00 0.  1.
</event>
<event>
 5   0  0.7073004E-03  0.9921899E+03  0.7818609E-02  0.9317153E-01
        1   -1    0    0  501    0  0.00000000000E+00  0.00000000000E+00  0.60797632725E+03  0.60797632727E+03  0.50400001928E-02 0.  1.
       -1   -1    0    0    0  501  0.00000000000E+00  0.00000000000E+00 -0.40480225872E+03  0.40480225875E+03  0.50400001928E-02 0. -1.
    10030    2    1    2    0    0  0.00000000000E+00  0.00000000000E+00  0.20317406853E+03  0.10127785860E+04  0.99218988212E+03 0.  0.
        1    1    3    3  502    0 -0.42651983747E+03  0.92598154485E+02 -0.13913837633E+03  0.45809723614E+03  0.50400001928E-02 0. -1.
       -1    1    3    3    0  502  0.42651983747E+03 -0.92598154485E+02  0.34231244486E+03  0.55468134988E+03  0.50400001928E-02 0.  1.
</event>
<event>
 5   0  0.1216322E-02  0.1042949E+04  0.7818609E-02  0.9262654E-01
       -2   -1    0    0    0  501  0.00000000000E+00  0.00000000000E+00  0.56396957428E+03  0.56396957429E+03  0.25500000920E-02 0. -1.
        2   -1    0    0  501    0  0.00000000000E+00  0.00000000000E+00 -0.48218123238E+03  0.48218123239E+03  0.25500000920E-02 0.  1.
    10030    2    1    2    0    0  0.00000000000E+00  0.00000000000E+00  0.81788341904E+02  0.10461508067E+04  0.10429487895E+04 0.  0.
        2    1    3    3  502    0 -0.17209343420E+03  0.14747274328E+03  0.51198613644E+03  0.55990549561E+03  0.25500000920E-02 0. -1.
       -2    1    3    3    0  502  0.17209343420E+03 -0.14747274328E+03 -0.43019779453E+03  0.48624531106E+03  0.25500000920E-02 0.  1.
</event>
<event>
 5   0  0.1221315E-02  0.9815377E+03  0.7818609E-02  0.9329029E-01
        2   -1    0    0  501    0  0.00000000000E+00  0.00000000000E+00  0.10785793553E+04  0.10785793553E+04  0.25500000920E-02 0.  1.
       -2   -1    0    0    0  501  0.00000000000E+00  0.00000000000E+00 -0.22330676139E+03  0.22330676140E+03  0.25500000920E-02 0. -1.
    10030    2    1    2    0    0  0.00000000000E+00  0.00000000000E+00  0.85527259386E+03  0.13018861167E+04  0.98153769716E+03 0.  0.
        5    1    3    3  502    0  0.32707169327E+03 -0.67032118606E+02  0.90469373755E+03  0.96434539778E+03  0.46999998093E+01 0.  1.
       -5    1    3    3    0  502 -0.32707169327E+03  0.67032118606E+02 -0.49421143683E+02  0.33754071888E+03  0.46999998093E+01 0. -1.
</event>
<event>
 5   0  0.1221315E-02  0.9696849E+03  0.7818609E-02  0.9342433E-01
        2   -1    0    0  501    0  0.00000000000E+00  0.00000000000E+00  0.57948087692E+03  0.57948087693E+03  0.25500000920E-02 0. -1.
       -2   -1    0    0    0  501  0.00000000000E+00  0.00000000000E+00 -0.40566000625E+03  0.40566000626E+03  0.25500000920E-02 0.  1.
    10030    2    1    2    0    0  0.00000000000E+00  0.00000000000E+00  0.17382087067E+03  0.98514088319E+03  0.96968493061E+03 0.  0.
        5    1    3    3  502    0  0.82013533939E+02  0.16032096908E+03 -0.37039885396E+03  0.41188157751E+03  0.46999998093E+01 0.  1.
       -5    1    3    3    0  502 -0.82013533939E+02 -0.16032096908E+03  0.54421972463E+03  0.57325930568E+03  0.46999998093E+01 0. -1.
</event>
<event>
 5   0  0.7241200E-03  0.9883943E+03  0.7818609E-02  0.9321366E-01
        1   -1    0    0  501    0  0.00000000000E+00  0.00000000000E+00  0.56406868946E+03  0.56406868948E+03  0.50400001928E-02 0. -1.
       -1   -1    0    0    0  501  0.00000000000E+00  0.00000000000E+00 -0.43298068478E+03  0.43298068481E+03  0.50400001928E-02 0.  1.
    10030    2    1    2    0    0  0.00000000000E+00  0.00000000000E+00  0.13108800468E+03  0.99704937430E+03  0.98839434934E+03 0.  0.
        4    1    3    3  502    0 -0.78396517629E+02 -0.37285939574E+03  0.38303658373E+03  0.54026732304E+03  0.12699999809E+01 0. -1.
       -4    1    3    3    0  502  0.78396517629E+02  0.37285939574E+03 -0.25194857905E+03  0.45678205126E+03  0.12699999809E+01 0.  1.
</event>
<event>
 5   0  0.6967681E-03  0.9956102E+03  0.7818609E-02  0.9313373E-01
       -1   -1    0    0    0  501  0.00000000000E+00  0.00000000000E+00  0.41489602890E+03  0.41489602893E+03  0.50400001928E-02 0. -1.
        1   -1    0    0  501    0  0.00000000000E+00  0.00000000000E+00 -0.59728197235E+03  0.59728197237E+03  0.50400001928E-02 0.  1.
    10030    2    1    2    0    0  0.00000000000E+00  0.00000000000E+00 -0.18238594345E+03  0.10121780013E+04  0.99561020181E+03 0.  0.
        5    1    3    3  502    0  0.36597598037E+03 -0.21533225391E+03 -0.35528767857E+03  0.55367664058E+03  0.46999998093E+01 0.  1.
       -5    1    3    3    0  502 -0.36597598037E+03  0.21533225391E+03  0.17290173512E+03  0.45850136073E+03  0.46999998093E+01 0. -1.
</event>
<event>
 5   0  0.1240503E-02  0.1000191E+04  0.7818609E-02  0.9308336E-01
       -2   -1    0    0    0  501  0.00000000000E+00  0.00000000000E+00  0.18965498542E+03  0.18965498544E+03  0.25500000920E-02 0. -1.
        2   -1    0    0  501    0  0.00000000000E+00  0.00000000000E+00 -0.13186857867E+04  0.13186857867E+04  0.25500000920E-02 0.  1.
    10030    2    1    2    0    0  0.00000000000E+00  0.00000000000E+00 -0.11290308012E+04  0.15083407721E+04  0.10001906491E+04 0.  0.
        1    1    3    3  502    0 -0.29970218119E+03 -0.32917945123E+03 -0.22090810345E+03  0.49697172829E+03  0.50400001928E-02 0. -1.
       -1    1    3    3    0  502  0.29970218119E+03  0.32917945123E+03 -0.90812269779E+03  0.10113690438E+04  0.50400001928E-02 0.  1.
</event>
<event>
 5   0  0.1191822E-02  0.7407581E+03  0.7818609E-02  0.9649962E-01
       -2   -1    0    0    0  501  0.00000000000E+00  0.00000000000E+00  0.14218334374E+03  0.14218334376E+03  0.25500000920E-02 0. -1.
        2   -1    0    0  501    0  0.00000000000E+00  0.00000000000E+00 -0.96481513940E+03  0.96481513940E+03  0.25500000920E-02 0.  1.
    10030    2    1    2    0    0  0.00000000000E+00  0.00000000000E+00 -0.82263179566E+03  0.11069984832E+04  0.74075810525E+03 0.  0.
        4    1    3    3  502    0 -0.75055330965E+02  0.28749146631E+03 -0.74176159589E+03  0.79905977495E+03  0.12699999809E+01 0.  1.
       -4    1    3    3    0  502  0.75055330965E+02 -0.28749146631E+03 -0.80870199766E+02  0.30793870821E+03  0.12699999809E+01 0. -1.
</event>
<event>
 5   0  0.1216322E-02  0.9847816E+03  0.7818609E-02  0.9325395E-01
        2   -1    0    0  501    0  0.00000000000E+00  0.00000000000E+00  0.16374534979E+03  0.16374534981E+03  0.25500000920E-02 0. -1.
       -2   -1    0    0    0  501  0.00000000000E+00  0.00000000000E+00 -0.14806448501E+04  0.14806448501E+04  0.25500000920E-02 0.  1.
    10030    2    1    2    0    0  0.00000000000E+00  0.00000000000E+00 -0.13168995004E+04  0.16443902000E+04  0.98478161828E+03 0.  0.
        2    1    3    3  502    0  0.21572926640E+03  0.14590305426E+03  0.39323457935E+02  0.26338783566E+03  0.25500000920E-02 0. -1.
       -2    1    3    3    0  502 -0.21572926640E+03 -0.14590305426E+03 -0.13562229583E+04  0.13810023643E+04  0.25500000920E-02 0.  1.
</event>
<event>
 5   0  0.1216322E-02  0.9905082E+03  0.7818609E-02  0.9319017E-01
       -2   -1    0    0    0  501  0.00000000000E+00  0.00000000000E+00  0.34926619018E+03  0.34926619019E+03  0.25500000920E-02 0.  1.
        2   -1    0    0  501    0  0.00000000000E+00  0.00000000000E+00 -0.70226265525E+03  0.70226265526E+03  0.25500000920E-02 0. -1.
    10030    2    1    2    0    0  0.00000000000E+00  0.00000000000E+00 -0.35299646508E+03  0.10515288454E+04  0.99050815668E+03 0.  0.
        2    1    3    3  502    0  0.41942088420E+03 -0.12176525094E+02 -0.45579219022E+03  0.61952293463E+03  0.25500000920E-02 0. -1.
       -2    1    3    3    0  502 -0.41942088420E+03  0.12176525094E+02  0.10279572514E+03  0.43200591081E+03  0.25500000920E-02 0.  1.
</event>
<event>
 5   0  0.4782125E-03  0.9694737E+03  0.7818609E-02  0.9342674E-01
       -4   -1    0    0    0  501  0.00000000000E+00  0.00000000000E+00  0.14537015581E+03  0.14537570327E+03  0.12699999809E+01 0.  1.
        4   -1    0    0  501    0  0.00000000000E+00  0.00000000000E+00 -0.16163186795E+04  0.16163191785E+04  0.12699999809E+01 0. -1.
    10030    2    1    2    0    0  0.00000000000E+00  0.00000000000E+00 -0.14709485237E+04  0.17616948817E+04  0.96947372163E+03 0.  0.
        1    1    3    3  502    0  0.21456178410E+03  0.43466381635E+03 -0.73428021781E+03  0.87985045930E+03  0.50400001928E-02 0. -1.
       -1    1    3    3    0  502 -0.21456178410E+03 -0.43466381635E+03 -0.73666830591E+03  0.88184442244E+03  0.50400001928E-02 0.  1.
</event>
<event>
 5   0  0.7073004E-03  0.1004126E+04  0.7818609E-02  0.9304031E-01
        1   -1    0    0  501    0  0.00000000000E+00  0.00000000000E+00  0.12675434879E+04  0.12675434879E+04  0.50400001928E-02 0.  1.
       -1   -1    0    0    0  501  0.00000000000E+00  0.00000000000E+00 -0.19886290811E+03  0.19886290818E+03  0.50400001928E-02 0. -1.
    10030    2    1    2    0    0  0.00000000000E+00  0.00000000000E+00  0.10686805798E+04  0.14664063961E+04  0.10041262555E+04 0.  0.
        1    1    3    3  502    0  0.42800295090E+03 -0.24661215696E+03  0.40320412050E+03  0.63763441309E+03  0.50400001928E-02 0. -1.
       -1    1    3    3    0  502 -0.42800295090E+03  0.24661215696E+03  0.66547645931E+03  0.82877198303E+03  0.50400001928E-02 0.  1.
</event>
<event>
 5   0  0.1221315E-02  0.1032781E+04  0.7818609E-02  0.9273304E-01
        2   -1    0    0  501    0  0.00000000000E+00  0.00000000000E+00  0.90490879785E+03  0.90490879785E+03  0.25500000920E-02 0.  1.
       -2   -1    0    0    0  501  0.00000000000E+00  0.00000000000E+00 -0.29468072951E+03  0.29468072952E+03  0.25500000920E-02 0. -1.
    10030    2    1    2    0    0  0.00000000000E+00  0.00000000000E+00  0.61022806834E+03  0.11995895274E+04  0.10327810701E+04 0.  0.
        5    1    3    3  502    0 -0.20573620896E+03 -0.46505570545E+03  0.20101168767E+03  0.54683817115E+03  0.46999998093E+01 0. -1.
       -5    1    3    3    0  502  0.20573620896E+03  0.46505570545E+03  0.40921638067E+03  0.65275135622E+03  0.46999998093E+01 0.  1.
</event>
<event>
 5   0  0.1240503E-02  0.1024150E+04  0.7818609E-02  0.9282447E-01
        2   -1    0    0  501    0  0.00000000000E+00  0.00000000000E+00  0.12422631694E+04  0.12422631694E+04  0.25500000920E-02 0. -1.
       -2   -1    0    0    0  501  0.00000000000E+00  0.00000000000E+00 -0.21108320303E+03  0.21108320304E+03  0.25500000920E-02 0.  1.
    10030    2    1    2    0    0  0.00000000000E+00  0.00000000000E+00  0.10311799663E+04  0.14533463724E+04  0.10241501624E+04 0.  0.
        1    1    3    3  502    0  0.31078511543E+03 -0.40317553340E+02 -0.59105790526E+02  0.31891438911E+03  0.50400001928E-02 0.  1.
       -1    1    3    3    0  502 -0.31078511543E+03  0.40317553340E+02  0.10902857569E+04  0.11344319833E+04  0.50400001928E-02 0. -1.
</event>
<event>
 5   0  0.7241200E-03  0.9928148E+03  0.7818609E-02  0.9316461E-01
        1   -1    0    0  501    0  0.00000000000E+00  0.00000000000E+00  0.60371613189E+03  0.60371613191E+03  0.50400001928E-02 0.  1.
       -1   -1    0    0    0  501  0.00000000000E+00  0.00000000000E+00 -0.40817244956E+03  0.40817244960E+03  0.50400001928E-02 0. -1.
    10030    2    1    2    0    0  0.00000000000E+00  0.00000000000E+00  0.19554368232E+03  0.10118885815E+04  0.99281477108E+03 0.  0.
        4    1    3    3  502    0 -0.10934998492E+03  0.31447193963E+03  0.47304207352E+03  0.57846385906E+03  0.12699999809E+01 0.  1.
       -4    1    3    3    0  502  0.10934998492E+03 -0.31447193963E+03 -0.27749839119E+03  0.43342472245E+03  0.12699999809E+01 0. -1.
</event>
<event>
 5   0  0.7224879E-03  0.1010651E+04  0.7818609E-02  0.9296940E-01
        1   -1    0    0  501    0  0.00000000000E+00  0.00000000000E+00  0.72648342730E+03  0.72648342732E+03  0.50400001928E-02 0. -1.
       -1   -1    0    0    0  501  0.00000000000E+00  0.00000000000E+00 -0.35149299129E+03  0.35149299133E+03  0.50400001928E-02 0.  1.
    10030    2    1    2    0    0  0.00000000000E+00  0.00000000000E+00  0.37499043601E+03  0.10779764186E+04  0.10106509447E+04 0.  0.
        3    1    3    3  502    0 -0.40654229799E+03 -0.13215144266E+03  0.47491443332E+03  0.63897133976E+03  0.10100000352E+00 0. -1.
       -3    1    3    3    0  502  0.40654229799E+03  0.13215144266E+03 -0.99923997318E+02  0.43900507889E+03  0.10100000352E+00 0.  1.
</event>
<event>
 5   0  0.1221315E-02  0.9972137E+03  0.7818609E-02  0.9311606E-01
        2   -1    0    0  501    0  0.00000000000E+00  0.00000000000E+00  0.65149509534E+03  0.65149509535E+03  0.25500000920E-02 0. -1.
       -2   -1    0    0    0  501  0.00000000000E+00  0.00000000000E+00 -0.38159733960E+03  0.38159733960E+03  0.25500000920E-02 0.  1.
    10030    2    1    2    0    0  0.00000000000E+00  0.00000000000E+00  0.26989775575E+03  0.10330924350E+04  0.99721370859E+03 0.  0.
        5    1    3    3  502    0  0.16356597115E+03 -0.22989412710E+03 -0.29091480918E+03  0.40528835758E+03  0.46999998093E+01 0.  1.
       -5    1    3    3    0  502 -0.16356597115E+03  0.22989412710E+03  0.56081256492E+03  0.62780407737E+03  0.46999998093E+01 0. -1.
</event>
<event>
 5   0  0.1221315E-02  0.9917414E+03  0.7818609E-02  0.9317649E-01
       -2   -1    0    0    0  501  0.00000000000E+00  0.00000000000E+00  0.39209791843E+03  0.39209791844E+03  0.25500000920E-02 0.  1.
        2   -1    0    0  501    0  0.00000000000E+00  0.00000000000E+00 -0.62710807836E+03  0.62710807836E+03  0.25500000920E-02 0. -1.
    10030    2    1    2    0    0  0.00000000000E+00  0.00000000000E+00 -0.23501015993E+03  0.10192059968E+04  0.99174144244E+03 0.  0.
        5    1    3    3  502    0  0.17994919781E+03  0.18073888427E+02 -0.59198038845E+03  0.61900827906E+03  0.46999998093E+01 0. -1.
       -5    1    3    3    0  502 -0.17994919781E+03 -0.18073888427E+02  0.35697022852E+03  0.40019771774E+03  0.46999998093E+01 0.  1.
</event>
<event>
 5   0  0.1216322E-02  0.1034656E+04  0.7818609E-02  0.9271331E-01
        2   -1    0    0  501    0  0.00000000000E+00  0.00000000000E+00  0.57681021320E+03  0.57681021321E+03  0.25500000920E-02 0.  1.
       -2   -1    0    0    0  501  0.00000000000E+00  0.00000000000E+00 -0.46397946433E+03  0.46397946433E+03  0.25500000920E-02 0. -1.
    10030    2    1    2    0    0  0.00000000000E+00  0.00000000000E+00  0.11283074888E+03  0.10407896775E+04  0.10346556794E+04 0.  0.
        2    1    3    3  502    0  0.47314710973E+03 -0.15325575214E+03 -0.86810555102E+02  0.50486788915E+03  0.25500000920E-02 0. -1.
       -2    1    3    3    0  502 -0.47314710973E+03  0.15325575214E+03  0.19964130398E+03  0.53592178839E+03  0.25500000920E-02 0.  1.
</event>
<event>
 5   0  0.1191822E-02  0.9985847E+03  0.7818609E-02  0.9310098E-01
        2   -1    0    0  501    0  0.00000000000E+00  0.00000000000E+00  0.25404285064E+03  0.25404285065E+03  0.25500000920E-02 0.  1.
       -2   -1    0    0    0  501  0.00000000000E+00  0.00000000000E+00 -0.98130230134E+03  0.98130230134E+03  0.25500000920E-02 0. -1.
    10030    2    1    2    0    0  0.00000000000E+00  0.00000000000E+00 -0.72725945070E+03  0.12353451520E+04  0.99858466637E+03 0.  0.
        4    1    3    3  502    0 -0.70629645758E+02  0.48912737601E+03 -0.27565589183E+03  0.56588154275E+03  0.12699999809E+01 0. -1.
       -4    1    3    3    0  502  0.70629645758E+02 -0.48912737601E+03 -0.45160355887E+03  0.66946360924E+03  0.12699999809E+01 0.  1.
</event>
<event>
 5   0  0.7073004E-03  0.1021794E+04  0.7818609E-02  0.9284959E-01
        1   -1    0    0  501    0  0.00000000000E+00  0.00000000000E+00  0.48188381784E+03  0.48188381786E+03  0.50400001928E-02 0. -1.
       -1   -1    0    0    0  501  0.00000000000E+00  0.00000000000E+00 -0.54165747903E+03  0.54165747905E+03  0.50400001928E-02 0.  1.
    10030    2    1    2    0    0  0.00000000000E+00  0.00000000000E+00 -0.59773661191E+02  0.10235412969E+04  0.10217944490E+04 0.  0.
        1    1    3    3  502    0  0.40294871388E+03 -0.28950259790E+03  0.92126799433E+02  0.50464518962E+03  0.50400001928E-02 0. -1.
       -1    1    3    3    0  502 -0.40294871388E+03  0.28950259790E+03 -0.15190046062E+03  0.51889610730E+03  0.50400001928E-02 0.  1.
</event>
<event>
 5   0  0.7073004E-03  0.9912194E+03  0.7818609E-02  0.9318228E-01
       -1   -1    0    0    0  501  0.00000000000E+00  0.00000000000E+00  0.13557457353E+03  0.13557457363E+03  0.50400001928E-02 0. -1.
        1   -1    0    0  501    0  0.00000000000E+00  0.00000000000E+00 -0.18117627706E+04  0.18117627707E+04  0.50400001928E-02 0.  1.
    10030    2    1    2    0    0  0.00000000000E+00  0.00000000000E+00 -0.16761881971E+04  0.19473373443E+04  0.99121938051E+03 0.  0.
        1    1    3    3  502    0 -0.10482043125E+03 -0.35022560632E+02 -0.17872462721E+04  0.17906599732E+04  0.50400001928E-02 0.  1.
       -1    1    3    3    0  502  0.10482043125E+03  0.35022560632E+02  0.11105807498E+03  0.15667737106E+03  0.50400001928E-02 0. -1.
</event>
<event>
 5   0  0.7224879E-03  0.9939455E+03  0.7818609E-02  0.9315210E-01
       -1   -1    0    0    0  501  0.00000000000E+00  0.00000000000E+00  0.39441022149E+03  0.39441022152E+03  0.50400001928E-02 0.  1.
        1   -1    0    0  501    0  0.00000000000E+00  0.00000000000E+00 -0.62620562035E+03  0.62620562037E+03  0.50400001928E-02 0. -1.
    10030    2    1    2    0    0  0.00000000000E+00  0.00000000000E+00 -0.23179539886E+03  0.10206158419E+04  0.99394546621E+03 0.  0.
        3    1    3    3  502    0  0.31975538724E+03 -0.37565278608E+03 -0.17770726965E+03  0.52434569441E+03  0.10100000352E+00 0.  1.
       -3    1    3    3    0  502 -0.31975538724E+03  0.37565278608E+03 -0.54088129205E+02  0.49627014748E+03  0.10100000352E+00 0. -1.
</event>
<event>
 5   0  0.1240503E-02  0.9767292E+03  0.7818609E-02  0.9334443E-01
       -2   -1    0    0    0  501  0.00000000000E+00  0.00000000000E+00  0.12840845885E+03  0.12840845888E+03  0.25500000920E-02 0.  1.
        2   -1    0    0  501    0  0.00000000000E+00  0.00000000000E+00 -0.18573542725E+04  0.18573542725E+04  0.25500000920E-02 0. -1.
    10030    2    1    2    0    0  0.00000000000E+00  0.00000000000E+00 -0.17289458136E+04  0.19857627313E+04  0.97672923514E+03 0.  0.
        1    1    3    3  502    0 -0.32150554625E+01 -0.34028383043E+03 -0.15232632598E+03  0.37283606511E+03  0.50400001928E-02 0.  1.
       -1    1    3    3    0  502  0.32150554625E+01  0.34028383043E+03 -0.15766194876E+04  0.16129266662E+04  0.50400001928E-02 0. -1.
</event>
<event>
 5   0  0.4782125E-03  0.9942525E+03  0.7818609E-02  0.9314871E-01
        3   -1    0    0  501    0  0.00000000000E+00  0.00000000000E+00  0.75161671279E+03  0.75161671958E+03  0.10100000352E+00 0.  1.
       -3   -1    0    0    0  501  0.00000000000E+00  0.00000000000E+00 -0.32880385503E+03  0.32880387055E+03  0.10100000352E+00 0. -1.
    10030    2    1    2    0    0  0.00000000000E+00  0.00000000000E+00  0.42281285776E+03  0.10804205901E+04  0.99425245229E+03 0.  0.
        4    1    3    3  502    0 -0.15877625070E+03 -0.40800959305E+03  0.46729532713E+03  0.64035010851E+03  0.12699999809E+01 0.  1.
       -4    1    3    3    0  502  0.15877625070E+03  0.40800959305E+03 -0.44482469374E+02  0.44007048161E+03  0.12699999809E+01 0. -1.
</event>
<event>
 5   0  0.1191822E-02  0.1007323E+04  0.7818609E-02  0.9300550E-01
       -2   -1    0    0    0  501  0.00000000000E+00  0.00000000000E+00  0.12101571963E+04  0.12101571963E+04  0.25500000920E-02 0.  1.
        2   -1    0    0  501    0  0.00000000000E+00  0.00000000000E+00 -0.20962132017E+03  0.20962132019E+03  0.25500000920E-02 0. -1.
    10030    2    1    2    0    0  0.00000000000E+00  0.00000000000E+00  0.10005358761E+04  0.14197785165E+04  0.10073226873E+04 0.  0.
        4    1    3    3  502    0  0.54377679202E+02  0.43368985039E+03  0.14753921533E+03  0.46131686646E+03  0.12699999809E+01 0. -1.
       -4    1    3    3    0  502 -0.54377679202E+02 -0.43368985039E+03  0.85299666077E+03  0.95846164999E+03  0.12699999809E+01 0.  1.
</event>
<event>
 5   0  0.7241200E-03  0.1018769E+04  0.7818609E-02  0.9288195E-01
        1   -1    0    0  501    0  0.00000000000E+00  0.00000000000E+00  0.75827815077E+03  0.75827815079E+03  0.50400001928E-02 0.  1.
       -1   -1    0    0    0  501  0.00000000000E+00  0.00000000000E+00 -0.34218665726E+03  0.34218665729E+03  0.50400001928E-02 0. -1.
    10030    2    1    2    0    0  0.00000000000E+00  0.00000000000E+00  0.41609149351E+03  0.11004648081E+04  0.10187691902E+04 0.  0.
        4    1    3    3  502    0 -0.49025963958E+03  0.13616800322E+03  0.18214788916E+03  0.54044028877E+03  0.12699999809E+01 0.  1.
       -4    1    3    3    0  502  0.49025963958E+03 -0.13616800322E+03  0.23394360435E+03  0.56002451931E+03  0.12699999809E+01 0. -1.
</event>
<event>
 5   0  0.6967681E-03  0.9458027E+03  0.7818609E-02  0.9370070E-01
        1   -1    0    0  501    0  0.00000000000E+00  0.00000000000E+00  0.24827658900E+03  0.24827658905E+03  0.50400001928E-02 0.  1.
       -1   -1    0    0    0  501  0.00000000000E+00  0.00000000000E+00 -0.90075220463E+03  0.90075220464E+03  0.50400001928E-02 0. -1.
    10030    2    1    2    0    0  0.00000000000E+00  0.00000000000E+00 -0.65247561563E+03  0.11490287937E+04  0.94580269599E+03 0.  0.
        5    1    3    3  502    0  0.56430628709E+02 -0.36280178624E+03 -0.68826961935E+03  0.78009403976E+03  0.46999998093E+01 0. -1.
       -5    1    3    3    0  502 -0.56430628709E+02  0.36280178624E+03  0.35794003721E+02  0.36893475393E+03  0.46999998093E+01 0.  1.
</event>
<event>
 5   0  0.1240503E-02  0.1002847E+04  0.7818609E-02  0.9305428E-01
        2   -1    0    0  501    0  0.00000000000E+00  0.00000000000E+00  0.15323227015E+04  0.15323227015E+04  0.25500000920E-02 0.  1.
       -2   -1    0    0    0  501  0.00000000000E+00  0.00000000000E+00 -0.16408137763E+03  0.16408137765E+03  0.25500000920E-02 0. -1.
    10030    2    1    2    0    0  0.00000000000E+00  0.00000000000E+00  0.13682413239E+04  0.16964040792E+04  0.10028471865E+04 0.  0.
        1    1    3    3  502    0 -0.41251632575E+03 -0.73262107300E+02  0.21812409578E+03  0.47235069235E+03  0.50400001928E-02 0. -1.
       -1    1    3    3    0  502  0.41251632575E+03  0.73262107300E+02  0.11501172281E+04  0.12240533868E+04  0.50400001928E-02 0.  1.
</event>
<event>
 5   0  0.7224879E-03  0.1038820E+04  0.7818609E-02  0.9266964E-01
        1   -1    0    0  501    0  0.00000000000E+00  0.00000000000E+00  0.12362188358E+04  0.12362188358E+04  0.50400001928E-02 0. -1.
       -1   -1    0    0    0  501  0.00000000000E+00  0.00000000000E+00 -0.21823534650E+03  0.21823534656E+03  0.50400001928E-02 0.  1.
    10030    2    1    2    0    0  0.00000000000E+00  0.00000000000E+00  0.10179834893E+04  0.14544541823E+04  0.10388198035E+04 0.  0.
        3    1    3    3  502    0 -0.14936548445E+03 -0.43779416696E+03  0.83976237805E+03  0.95873596072E+03  0.10100000352E+00 0. -1.
       -3    1    3    3    0  502  0.14936548445E+03  0.43779416696E+03  0.17822111123E+03  0.49571822163E+03  0.10100000352E+00 0.  1.
</event>
<event>
 5   0  0.1216322E-02  0.9722874E+03  0.7818609E-02  0.9339473E-01
        2   -1    0    0  501    0  0.00000000000E+00  0.00000000000E+00  0.12082575539E+04  0.12082575539E+04  0.25500000920E-02 0. -1.
       -2   -1    0    0    0  501  0.00000000000E+00  0.00000000000E+00 -0.19560043198E+03  0.19560043200E+03  0.25500000920E-02 0.  1.
    10030    2    1    2    0    0  0.00000000000E+00  0.00000000000E+00  0.10126571219E+04  0.14038579859E+04  0.97228740505E+03 0.  0.
        2    1    3    3  502    0 -0.12445730432E+03  0.37203499122E+03  0.92088826786E+03  0.10009669611E+04  0.25500000920E-02 0. -1.
       -2    1    3    3    0  502  0.12445730432E+03 -0.37203499122E+03  0.91768854039E+02  0.40289102481E+03  0.25500000920E-02 0.  1.
</event>
<event>
 5   0  0.1216322E-02  0.9831159E+03  0.7818609E-02  0.9327259E-01
        2   -1    0    0  501    0  0.00000000000E+00  0.00000000000E+00  0.82863758351E+03  0.82863758352E+03  0.25500000920E-02 0.  1.
       -2   -1    0    0    0  501  0.00000000000E+00  0.00000000000E+00 -0.29159821051E+03  0.29159821052E+03  0.25500000920E-02 0. -1.
    10030    2    1    2    0    0  0.00000000000E+00  0.00000000000E+00  0.53703937300E+03  0.11202357940E+04  0.98311593726E+03 0.  0.
        2    1    3    3  502    0 -0.10699702432E+03  0.45056762167E+03  0.80697425974E+02  0.47007618476E+03  0.25500000920E-02 0. -1.
       -2    1    3    3    0  502  0.10699702432E+03 -0.45056762167E+03  0.45634194703E+03  0.65015960928E+03  0.25500000920E-02 0.  1.
</event>
<event>
 5   0  0.1191822E-02  0.1013864E+04  0.7818609E-02  0.9293468E-01
       -2   -1    0    0    0  501  0.00000000000E+00  0.00000000000E+00  0.20525981896E+03  0.20525981897E+03  0.25500000920E-02 0. -1.
        2   -1    0    0  501    0  0.00000000000E+00  0.00000000000E+00 -0.12519754930E+04  0.12519754930E+04  0.25500000920E-02 0.  1.
    10030    2    1    2    0    0  0.00000000000E+00  0.00000000000E+00 -0.10467156741E+04  0.14572353120E+04  0.10138644151E+04 0.  0.
        4    1    3    3  502    0  0.42833383158E+03 -0.23615960558E+03 -0.71478123706E+03  0.86611492329E+03  0.12699999809E+01 0.  1.
       -4    1    3    3    0  502 -0.42833383158E+03  0.23615960558E+03 -0.33193443701E+03  0.59112038872E+03  0.12699999809E+01 0. -1.
</event>
<event>
 5   0  0.1245850E-02  0.9872212E+03  0.7818609E-02  0.9322672E-01
       -2   -1    0    0    0  501  0.00000000000E+00  0.00000000000E+00  0.28927839312E+03  0.28927839313E+03  0.25500000920E-02 0. -1.
        2   -1    0    0  501    0  0.00000000000E+00  0.00000000000E+00 -0.84227319970E+03  0.84227319970E+03  0.25500000920E-02 0.  1.
    10030    2    1    2    0    0  0.00000000000E+00  0.00000000000E+00 -0.55299480658E+03  0.11315515928E+04  0.98722122705E+03 0.  0.
        3    1    3    3  502    0  0.32598492617E+03 -0.16884326949E+03  0.10170854834E+03  0.38094469513E+03  0.10100000352E+00 0. -1.
       -3    1    3    3    0  502 -0.32598492617E+03  0.16884326949E+03 -0.65470335492E+03  0.75060689770E+03  0.10100000352E+00 0.  1.
</event>
<event>
 5   0  0.1240503E-02  0.9979024E+03  0.7818609E-02  0.9310848E-01
        2   -1    0    0  501    0  0.00000000000E+00  0.00000000000E+00  0.93599583169E+03  0.93599583170E+03  0.25500000920E-02 0.  1.
       -2   -1    0    0    0  501  0.00000000000E+00  0.00000000000E+00 -0.26597584212E+03  0.26597584213E+03  0.25500000920E-02 0. -1.
    10030    2    1    2    0    0  0.00000000000E+00  0.00000000000E+00  0.67001998958E+03  0.12019716738E+04  0.99790235908E+03 0.  0.
        1    1    3    3  502    0  0.26846169404E+03 -0.14643924135E+03  0.80988815292E+03  0.86569911218E+03  0.50400001928E-02 0.  1.
       -1    1    3    3    0  502 -0.26846169404E+03  0.14643924135E+03 -0.13986816334E+03  0.33627256164E+03  0.50400001928E-02 0. -1.
</event>
<event>
 5   0  0.1221315E-02  0.1044992E+04  0.7818609E-02  0.9260530E-01
        2   -1    0    0  501    0  0.00000000000E+00  0.00000000000E+00  0.17033553196E+04  0.17033553196E+04  0.25500000920E-02 0. -1.
       -2   -1    0    0    0  501  0.00000000000E+00  0.00000000000E+00 -0.16027304325E+03  0.16027304327E+03  0.25500000920E-02 0.  1.
    10030    2    1    2    0    0  0.00000000000E+00  0.00000000000E+00  0.15430822764E+04  0.18636283629E+04  0.10449917528E+04 0.  0.
        5    1    3    3  502    0 -0.27945720131E+03 -0.37377995817E+03  0.35264527316E+03  0.58496885659E+03  0.46999998093E+01 0.  1.
       -5    1    3    3    0  502  0.27945720131E+03  0.37377995817E+03  0.11904370032E+04  0.12786595063E+04  0.46999998093E+01 0. -1.
</event>
<event>
 5   0  0.7241200E-03  0.1002927E+04  0.7818609E-02  0.9305340E-01
       -1   -1    0    0    0  501  0.00000000000E+00  0.00000000000E+00  0.17420142001E+03  0.17420142009E+03  0.50400001928E-02 0.  1.
        1   -1    0    0  501    0  0.00000000000E+00  0.00000000000E+00 -0.14435344947E+04  0.14435344947E+04  0.50400001928E-02 0. -1.
    10030    2    1    2    0    0  0.00000000000E+00  0.00000000000E+00 -0.12693330747E+04  0.16177359148E+04  0.10029272334E+04 0.  0.
        4    1    3    3  502    0  0.40365089161E+03  0.18427039196E+03 -0.10114858825E+04  0.11045338035E+04  0.12699999809E+01 0. -1.
       -4    1    3    3    0  502 -0.40365089161E+03 -0.18427039196E+03 -0.25784719224E+03  0.51320211135E+03  0.12699999809E+01 0.  1.
</event>
<event>
 5   0  0.6967681E-03  0.1019062E+04  0.7818609E-02  0.9287881E-01
        1   -1    0    0  501    0  0.00000000000E+00  0.00000000000E+00  0.50332412590E+03  0.50332412593E+03  0.50400001928E-02 0. -1.
       -1   -1    0    0    0  501  0.00000000000E+00  0.00000000000E+00 -0.51581457679E+03  0.51581457681E+03  0.50400001928E-02 0.  1.
    10030    2    1    2    0    0  0.00000000000E+00  0.00000000000E+00 -0.12490450882E+02  0.10191387027E+04  0.10190621591E+04 0.  0.
        5    1    3    3  502    0  0.24647838497E+03  0.44424273012E+03 -0.44934478844E+02  0.51004352257E+03  0.46999998093E+01 0.  1.
       -5    1    3    3    0  502 -0.24647838497E+03 -0.44424273012E+03  0.32444027962E+02  0.50909518017E+03  0.46999998093E+01 0. -1.
</event>
<event>
 5   0  0.1191822E-02  0.1005431E+04  0.7818609E-02  0.9302608E-01
        2   -1    0    0  501    0  0.00000000000E+00  0.00000000000E+00  0.10280870398E+04  0.10280870398E+04  0.25500000920E-02 0. -1.
       -2   -1    0    0    0  501  0.00000000000E+00  0.00000000000E+00 -0.24581846672E+03  0.24581846673E+03  0.25500000920E-02 0.  1.
    10030    2    1    2    0    0  0.00000000000E+00  0.00000000000E+00  0.78226857304E+03  0.12739055065E+04  0.10054308127E+04 0.  0.
        4    1    3    3  502    0  0.37110810792E+03 -0.24251176030E+02  0.81970300710E+03  0.90012442476E+03  0.12699999809E+01 0. -1.
       -4    1    3    3    0  502 -0.37110810792E+03  0.24251176030E+02 -0.37434434061E+02  0.37378108173E+03  0.12699999809E+01 0.  1.
</event>
<event>
 5   0  0.1216322E-02  0.1005679E+04  0.7818609E-02  0.9302339E-01
       -2   -1    0    0    0  501  0.00000000000E+00  0.00000000000E+00  0.14142272660E+03  0.14142272662E+03  0.25500000920E-02 0.  1.
        2   -1    0    0  501    0  0.00000000000E+00  0.00000000000E+00 -0.17878833000E+04  0.17878833000E+04  0.25500000920E-02 0. -1.
    10030    2    1    2    0    0  0.00000000000E+00  0.00000000000E+00 -0.16464605734E+04  0.19293060266E+04  0.10056785394E+04 0.  0.
        2    1    3    3  502    0  0.32799505738E+03 -0.33944308605E+03 -0.11557579558E+04  0.12484305422E+04  0.25500000920E-02 0. -1.
       -2    1    3    3    0  502 -0.32799505738E+03  0.33944308605E+03 -0.49070261760E+03  0.68087548440E+03  0.25500000920E-02 0.  1.
</event>
<event>
 5   0  0.6967681E-03  0.1006063E+04  0.7818609E-02  0.9301920E-01
        1   -1    0    0  501    0  0.00000000000E+00  0.00000000000E+00  0.76986592778E+03  0.76986592780E+03  0.50400001928E-02 0. -1.
       -1   -1    0    0    0  501  0.00000000000E+00  0.00000000000E+00 -0.32868130004E+03  0.32868130008E+03  0.50400001928E-02 0.  1.
    10030    2    1    2    0    0  0.00000000000E+00  0.00000000000E+00  0.44118462774E+03  0.10985472279E+04  0.10060626900E+04 0.  0.
        5    1    3    3  502    0  0.13987938587E+03 -0.39034821287E+03  0.53151458330E+03  0.67414227885E+03  0.46999998093E+01 0.  1.
       -5    1    3    3    0  502 -0.13987938587E+03  0.39034821287E+03 -0.90329955553E+02  0.42440494902E+03  0.46999998093E+01 0. -1.
</event>
<event>
 5   0  0.7461157E-03  0.9981450E+03  0.7818609E-02  0.9310582E-01
        1   -1    0    0  501    0  0.00000000000E+00  0.00000000000E+00  0.11794299846E+04  0.11794299846E+04  0.50400001928E-02 0. -1.
       -1   -1    0    0    0  501  0.00000000000E+00  0.00000000000E+00 -0.21118112559E+03  0.21118112565E+03  0.50400001928E-02 0.  1.
    10030    2    1    2    0    0  0.00000000000E+00  0.00000000000E+00  0.96824885896E+03  0.13906111102E+04  0.99814498294E+03 0.  0.
        2    1    3    3  502    0 -0.60112317047E+02 -0.38059059480E+03  0.92603467041E+03  0.10029969603E+04  0.25500000920E-02 0. -1.
       -2    1    3    3    0  502  0.60112317047E+02  0.38059059480E+03  0.42214188558E+02  0.38761414994E+03  0.25500000920E-02 0.  1.
</event>
<event>
 5   0  0.1221315E-02  0.6605428E+03  0.7818609E-02  0.9787195E-01
       -2   -1    0    0    0  501  0.00000000000E+00  0.00000000000E+00  0.10134954223E+03  0.10134954226E+03  0.25500000920E-02 0. -1.
        2   -1    0    0  501    0  0.00000000000E+00  0.00000000000E+00 -0.10762671757E+04  0.10762671758E+04  0.25500000920E-02 0.  1.
    10030    2    1    2    0    0  0.00000000000E+00  0.00000000000E+00 -0.97491763352E+03  0.11776167180E+04  0.66054276348E+03 0.  0.
        5    1    3    3  502    0  0.29138676936E+03  0.70292834882E+02 -0.73455386012E+03  0.79337178889E+03  0.46999998093E+01 0.  1.
       -5    1    3    3    0  502 -0.29138676936E+03 -0.70292834882E+02 -0.24036377340E+03  0.38424492912E+03  0.46999998093E+01 0. -1.
</event>
<event>
 5   0  0.7461157E-03  0.9872005E+03  0.7818609E-02  0.9322696E-01
       -1   -1    0    0    0  501  0.00000000000E+00  0.00000000000E+00  0.52054998613E+03  0.52054998615E+03  0.50400001928E-02 0. -1.
        1   -1    0    0  501    0  0.00000000000E+00  0.00000000000E+00 -0.46804575195E+03  0.46804575197E+03  0.50400001928E-02 0.  1.
    10030    2    1    2    0    0  0.00000000000E+00  0.00000000000E+00  0.52504234184E+02  0.98859573813E+03  0.98720050589E+03 0.  0.
        2    1    3    3  502    0  0.43120273847E+03 -0.14044400839E+03  0.22141441587E+03  0.50466292188E+03  0.25500000920E-02 0. -1.
       -2    1    3    3    0  502 -0.43120273847E+03  0.14044400839E+03 -0.16891018169E+03  0.48393281625E+03  0.25500000920E-02 0.  1.
</event>
<event>
 5   0  0.7224879E-03  0.9811306E+03  0.7818609E-02  0.9329486E-01
       -1   -1    0    0    0  501  0.00000000000E+00  0.00000000000E+00  0.49019012760E+03  0.49019012762E+03  0.50400001928E-02 0. -1.
        1   -1    0    0  501    0  0.00000000000E+00  0.00000000000E+00 -0.49094078707E+03  0.49094078710E+03  0.50400001928E-02 0.  1.
    10030    2    1    2    0    0  0.00000000000E+00  0.00000000000E+00 -0.75065947456E+00  0.98113091472E+03  0.98113062755E+03 0.  0.
        3    1    3    3  502    0  0.24264240657E+03 -0.31752532402E+03  0.28415357109E+03  0.49034776540E+03  0.10100000352E+00 0. -1.
       -3    1    3    3    0  502 -0.24264240657E+03  0.31752532402E+03 -0.28490423057E+03  0.49078314932E+03  0.10100000352E+00 0.  1.
</event>
<event>
 5   0  0.7073004E-03  0.1020689E+04  0.7818609E-02  0.9286141E-01
       -1   -1    0    0    0  501  0.00000000000E+00  0.00000000000E+00  0.83378011496E+03  0.83378011498E+03  0.50400001928E-02 0. -1.
        1   -1    0    0  501    0  0.00000000000E+00  0.00000000000E+00 -0.31237406866E+03  0.31237406871E+03  0.50400001928E-02 0.  1.
    10030    2    1    2    0    0  0.00000000000E+00  0.00000000000E+00  0.52140604630E+03  0.11461541837E+04  0.10206885655E+04 0.  0.
        1    1    3    3  502    0 -0.97431141608E+02 -0.23867338948E+03  0.75529077054E+03  0.79807390779E+03  0.50400001928E-02 0. -1.
       -1    1    3    3    0  502  0.97431141608E+02  0.23867338948E+03 -0.23388472425E+03  0.34808027589E+03  0.50400001928E-02 0.  1.
</event>
<event>
 5   0  0.1240503E-02  0.9960927E+03  0.7818609E-02  0.9312841E-01
       -2   -1    0    0    0  501  0.00000000000E+00  0.00000000000E+00  0.56675046310E+03  0.56675046311E+03  0.25500000920E-02 0. -1.
        2   -1    0    0  501    0  0.00000000000E+00  0.00000000000E+00 -0.43767086328E+03  0.43767086328E+03  0.25500000920E-02 0.  1.
    10030    2    1    2    0    0  0.00000000000E+00  0.00000000000E+00  0.12907959982E+03  0.10044213264E+04  0.99609269539E+03 0.  0.
        1    1    3    3  502    0 -0.34210626808E+03 -0.16365411626E+03  0.39008717444E+03  0.54404721497E+03  0.50400001928E-02 0. -1.
       -1    1    3    3    0  502  0.34210626808E+03  0.16365411626E+03 -0.26100757462E+03  0.46037411142E+03  0.50400001928E-02 0.  1.
</event>
<event>
 5   0  0.4782125E-03  0.9899232E+03  0.7818609E-02  0.9319666E-01
       -3   -1    0    0    0  501  0.00000000000E+00  0.00000000000E+00  0.65311202913E+03  0.65311203693E+03  0.10100000352E+00 0.  1.
        3   -1    0    0  501    0  0.00000000000E+00  0.00000000000E+00 -0.37510715277E+03  0.37510716637E+03  0.10100000352E+00 0. -1.
    10030    2    1    2    0    0  0.00000000000E+00  0.00000000000E+00  0.27800487635E+03  0.10282192033E+04  0.98992323883E+03 0.  0.
        4    1    3    3  502    0  0.38547763362E+03 -0.27768029679E+03  0.28324907833E+03  0.55311030231E+03  0.12699999809E+01 0.  1.
       -4    1    3    3    0  502 -0.38547763362E+03  0.27768029679E+03 -0.52442019810E+01  0.47510890099E+03  0.12699999809E+01 0. -1.
</event>
<event>
 5   0  0.1245850E-02  0.9657776E+03  0.7818609E-02  0.9346897E-01
        2   -1    0    0  501    0  0.00000000000E+00  0.00000000000E+00  0.13226616793E+04  0.13226616793E+04  0.25500000920E-02 0. -1.
       -2   -1    0    0    0  501  0.00000000000E+00  0.00000000000E+00 -0.17629724062E+03  0.17629724064E+03  0.25500000920E-02 0.  1.
    10030    2    1    2    0    0  0.00000000000E+00  0.00000000000E+00  0.11463644386E+04  0.14989589199E+04  0.96577762316E+03 0.  0.
        3    1    3    3  502    0 -0.34833799797E+03 -0.15078781377E+03  0.10364843355E+04  0.11038007580E+04  0.10100000352E+00 0. -1.
       -3    1    3    3    0  502  0.34833799797E+03  0.15078781377E+03  0.10988010318E+03  0.39515816186E+03  0.10100000352E+00 0.  1.
</event>
<event>
 5   0  0.1221315E-02  0.9706263E+03  0.7818609E-02  0.9341361E-01
        2   -1    0    0  501    0  0.00000000000E+00  0.00000000000E+00  0.16447355755E+04  0.16447355755E+04  0.25500000920E-02 0. -1.
       -2   -1    0    0    0  501  0.00000000000E+00  0.00000000000E+00 -0.14320164514E+03  0.14320164516E+03  0.25500000920E-02 0.  1.
    10030    2    1    2    0    0  0.00000000000E+00  0.00000000000E+00  0.15015339304E+04  0.17879372207E+04  0.97062627257E+03 0.  0.
        5    1    3    3  502    0  0.33357372538E+03 -0.29669339829E+03  0.11012803242E+04  0.11883344838E+04  0.46999998093E+01 0.  1.
       -5    1    3    3    0  502 -0.33357372538E+03  0.29669339829E+03  0.40025360619E+03  0.59960273692E+03  0.46999998093E+01 0. -1.
</event>
<event>
 5   0  0.1191822E-02  0.1006904E+04  0.7818609E-02  0.9301005E-01
       -2   -1    0    0    0  501  0.00000000000E+00  0.00000000000E+00  0.10717007634E+03  0.10717007637E+03  0.25500000920E-02 0.  1.
        2   -1    0    0  501    0  0.00000000000E+00  0.00000000000E+00 -0.23650633445E+04  0.23650633445E+04  0.25500000920E-02 0. -1.
    10030    2    1    2    0    0  0.00000000000E+00  0.00000000000E+00 -0.22578932682E+04  0.24722334209E+04  0.10069042044E+04 0.  0.
        4    1    3    3  502    0  0.10589555009E+03 -0.36589143683E+03 -0.19372229504E+04  0.19743162825E+04  0.12699999809E+01 0. -1.
       -4    1    3    3    0  502 -0.10589555009E+03  0.36589143683E+03 -0.32067031785E+03  0.49791713841E+03  0.12699999809E+01 0.  1.
</event>
<event>
 5   0  0.1240503E-02  0.1009190E+04  0.7818609E-02  0.9298522E-01
        2   -1    0    0  501    0  0.00000000000E+00  0.00000000000E+00  0.52465342988E+03  0.52465342989E+03  0.25500000920E-02 0.  1.
       -2   -1    0    0    0  501  0.00000000000E+00  0.00000000000E+00 -0.48530346481E+03  0.48530346482E+03  0.25500000920E-02 0. -1.
    10030    2    1    2    0    0  0.00000000000E+00  0.00000000000E+00  0.39349965074E+02  0.10099568947E+04  0.10091900264E+04 0.  0.
        1    1    3    3  502    0  0.38757909443E+03 -0.27373983675E+03  0.19145935846E+03  0.51167151438E+03  0.50400001928E-02 0. -1.
       -1    1    3    3    0  502 -0.38757909443E+03  0.27373983675E+03 -0.15210939339E+03  0.49828538032E+03  0.50400001928E-02 0.  1.
</event>
<event>
 5   0  0.7461157E-03  0.9810770E+03  0.7818609E-02  0.9329546E-01
       -1   -1    0    0    0  501  0.00000000000E+00  0.00000000000E+00  0.12664975263E+03  0.12664975273E+03  0.50400001928E-02 0.  1.
        1   -1    0    0  501    0  0.00000000000E+00  0.00000000000E+00 -0.18999487482E+04  0.18999487483E+04  0.50400001928E-02 0. -1.
    10030    2    1    2    0    0  0.00000000000E+00  0.00000000000E+00 -0.17732989956E+04  0.20265985010E+04  0.98107703895E+03 0.  0.
        2    1    3    3  502    0 -0.21235951643E+03 -0.22868989880E+03 -0.16684307431E+04  0.16973676026E+04  0.25500000920E-02 0. -1.
       -2    1    3    3    0  502  0.21235951643E+03  0.22868989880E+03 -0.10486825253E+03  0.32923089835E+03  0.25500000920E-02 0.  1.
</event>
<event>
 5   0  0.7224879E-03  0.1002925E+04  0.7818609E-02  0.9305342E-01
       -1   -1    0    0    0  501  0.00000000000E+00  0.00000000000E+00  0.25366397071E+03  0.25366397076E+03  0.50400001928E-02 0.  1.
        1   -1    0    0  501    0  0.00000000000E+00  0.00000000000E+00 -0.99133026529E+03  0.99133026530E+03  0.50400001928E-02 0. -1.
    10030    2    1    2    0    0  0.00000000000E+00  0.00000000000E+00 -0.73766629457E+03  0.12449942361E+04  0.10029252643E+04 0.  0.
        3    1    3    3  502    0 -0.51866163177E+02  0.48479292926E+03 -0.51439838307E+03  0.70874536320E+03  0.10100000352E+00 0.  1.
       -3    1    3    3    0  502  0.51866163177E+02 -0.48479292926E+03 -0.22326791150E+03  0.53624887287E+03  0.10100000352E+00 0. -1.
</event>
<event>
 5   0  0.4782125E-03  0.9578290E+03  0.7818609E-02  0.9356046E-01
        3   -1    0    0  501    0  0.00000000000E+00  0.00000000000E+00  0.67433754762E+03  0.67433755519E+03  0.10100000352E+00 0.  1.
       -3   -1    0    0    0  501  0.00000000000E+00  0.00000000000E+00 -0.34012503930E+03  0.34012505429E+03  0.10100000352E+00 0. -1.
    10030    2    1    2    0    0  0.00000000000E+00  0.00000000000E+00  0.33421250833E+03  0.10144626095E+04  0.95782899586E+03 0.  0.
        3    1    3    3  502    0  0.13064843015E+03 -0.16357603714E+03  0.62330973450E+03  0.65752655273E+03  0.10100000352E+00 0.  1.
       -3    1    3    3    0  502 -0.13064843015E+03  0.16357603714E+03 -0.28909722617E+03  0.35693605675E+03  0.10100000352E+00 0. -1.
</event>
<event>
 5   0  0.1245850E-02  0.1005060E+04  0.7818609E-02  0.9303012E-01
       -2   -1    0    0    0  501  0.00000000000E+00  0.00000000000E+00  0.57345331473E+03  0.57345331473E+03  0.25500000920E-02 0. -1.
        2   -1    0    0  501    0  0.00000000000E+00  0.00000000000E+00 -0.44037871093E+03  0.44037871094E+03  0.25500000920E-02 0.  1.
    10030    2    1    2    0    0  0.00000000000E+00  0.00000000000E+00  0.13307460380E+03  0.10138320257E+04  0.10050604589E+04 0.  0.
        3    1    3    3  502    0  0.24681008563E+03 -0.38581113846E+03  0.27515414816E+03  0.53429885680E+03  0.10100000352E+00 0. -1.
       -3    1    3    3    0  502 -0.24681008563E+03  0.38581113846E+03 -0.14207954436E+03  0.47953316888E+03  0.10100000352E+00 0.  1.
</event>
<event>
 5   0  0.1245850E-02  0.9786854E+03  0.7818609E-02  0.9332236E-01
        2   -1    0    0  501    0  0.00000000000E+00  0.00000000000E+00  0.19599808332E+04  0.19599808332E+04  0.25500000920E-02 0. -1.
       -2   -1    0    0    0  501  0.00000000000E+00  0.00000000000E+00 -0.12217277389E+03  0.12217277391E+03  0.25500000920E-02 0.  1.
    10030    2    1    2    0    0  0.00000000000E+00  0.00000000000E+00  0.18378080593E+04  0.20821536071E+04  0.97868543502E+03 0.  0.
        3    1    3    3  502    0  0.46815629509E+03 -0.33146935916E+02  0.62420683866E+03  0.78096301041E+03  0.10100000352E+00 0.  1.
       -3    1    3    3    0  502 -0.46815629509E+03  0.33146935916E+02  0.12136012206E+04  0.13011905967E+04  0.10100000352E+00 0. -1.
</event>
<event>
 5   0  0.7461157E-03  0.9927505E+03  0.7818609E-02  0.9316532E-01
        1   -1    0    0  501    0  0.00000000000E+00  0.00000000000E+00  0.81782133774E+03  0.81782133775E+03  0.50400001928E-02 0. -1.
       -1   -1    0    0    0  501  0.00000000000E+00  0.00000000000E+00 -0.30127408472E+03  0.30127408476E+03  0.50400001928E-02 0.  1.
    10030    2    1    2    0    0  0.00000000000E+00  0.00000000000E+00  0.51654725301E+03  0.11190954225E+04  0.99275047222E+03 0.  0.
        2    1    3    3  502    0 -0.41168554072E+03 -0.71129070013E+02  0.56042349396E+03  0.69901274783E+03  0.25500000920E-02 0. -1.
       -2    1    3    3    0  502  0.41168554072E+03  0.71129070013E+02 -0.43876240949E+02  0.42008267468E+03  0.25500000920E-02 0.  1.
</event>
<event>
 5   0  0.7073004E-03  0.1001399E+04  0.7818609E-02  0.9307011E-01
       -1   -1    0    0    0  501  0.00000000000E+00  0.00000000000E+00  0.17759777193E+03  0.17759777200E+03  0.50400001928E-02 0.  1.
        1   -1    0    0  501    0  0.00000000000E+00  0.00000000000E+00 -0.14116176071E+04  0.14116176071E+04  0.50400001928E-02 0. -1.
    10030    2    1    2    0    0  0.00000000000E+00  0.00000000000E+00 -0.12340198352E+04  0.15892153791E+04  0.10013993048E+04 0.  0.
        1    1    3    3  502    0 -0.22625137060E+03  0.10569685594E+03  0.71714025892E+02  0.25981610726E+03  0.50400001928E-02 0.  1.
       -1    1    3    3    0  502  0.22625137060E+03 -0.10569685594E+03 -0.13057338611E+04  0.13293992719E+04  0.50400001928E-02 0. -1.
</event>
<event>
 5   0  0.1221315E-02  0.9976996E+03  0.7818609E-02  0.9311071E-01
       -2   -1    0    0    0  501  0.00000000000E+00  0.00000000000E+00  0.26329609583E+03  0.26329609584E+03  0.25500000920E-02 0. -1.
        2   -1    0    0  501    0  0.00000000000E+00  0.00000000000E+00 -0.94513791978E+03  0.94513791978E+03  0.25500000920E-02 0.  1.
    10030    2    1    2    0    0  0.00000000000E+00  0.00000000000E+00 -0.68184182395E+03  0.12084340156E+04  0.99769960270E+03 0.  0.
        5    1    3    3  502    0  0.35814888941E+03  0.10478984375E+03 -0.74186501297E+03  0.83044405338E+03  0.46999998093E+01 0.  1.
       -5    1    3    3    0  502 -0.35814888941E+03 -0.10478984375E+03  0.60023189019E+02  0.37798996224E+03  0.46999998093E+01 0. -1.
</event>
<event>
 5   0  0.7241200E-03  0.9467877E+03  0.7818609E-02  0.9368913E-01
       -1   -1    0    0    0  501  0.00000000000E+00  0.00000000000E+00  0.17718948041E+03  0.17718948049E+03  0.50400001928E-02 0. -1.
        1   -1    0    0  501    0  0.00000000000E+00  0.00000000000E+00 -0.12647574512E+04  0.12647574512E+04  0.50400001928E-02 0.  1.
    10030    2    1    2    0    0  0.00000000000E+00  0.00000000000E+00 -0.10875679708E+04  0.14419469317E+04  0.94678765451E+03 0.  0.
        4    1    3    3  502    0 -0.11298169633E+03 -0.93098168470E+02  0.14184512681E+03  0.20384745664E+03  0.12699999809E+01 0. -1.
       -4    1    3    3    0  502  0.11298169633E+03  0.93098168470E+02 -0.12294130976E+04  0.12380994750E+04  0.12699999809E+01 0.  1.
</event>
<event>
 5   0  0.7073004E-03  0.7957867E+03  0.7818609E-02  0.9566136E-01
        1   -1    0    0  501    0  0.00000000000E+00  0.00000000000E+00  0.25355138327E+03  0.25355138332E+03  0.50400001928E-02 0.  1.
       -1   -1    0    0    0  501  0.00000000000E+00  0.00000000000E+00 -0.62440652217E+03  0.62440652219E+03  0.50400001928E-02 0. -1.
    10030    2    1    2    0    0  0.00000000000E+00  0.00000000000E+00 -0.37085513890E+03  0.87795790551E+03  0.79578674895E+03 0.  0.
        1    1    3    3  502    0  0.22154958636E+03  0.18064874096E+03 -0.49077485958E+03  0.56795963735E+03  0.50400001928E-02 0. -1.
       -1    1    3    3    0  502 -0.22154958636E+03 -0.18064874096E+03  0.11991972068E+03  0.30999826816E+03  0.50400001928E-02 0.  1.
</event>
<event>
 5   0  0.1191822E-02  0.9994097E+03  0.7818609E-02  0.9309192E-01
       -2   -1    0    0    0  501  0.00000000000E+00  0.00000000000E+00  0.24869534476E+03  0.24869534478E+03  0.25500000920E-02 0.  1.
        2   -1    0    0  501    0  0.00000000000E+00  0.00000000000E+00 -0.10040596058E+04  0.10040596058E+04  0.25500000920E-02 0. -1.
    10030    2    1    2    0    0  0.00000000000E+00  0.00000000000E+00 -0.75536426104E+03  0.12527549506E+04  0.99940972547E+03 0.  0.
        4    1    3    3  502    0 -0.43609380113E+03 -0.15930817249E+03 -0.14605188331E+03  0.48671312159E+03  0.12699999809E+01 0.  1.
       -4    1    3    3    0  502  0.43609380113E+03  0.15930817249E+03 -0.60931237774E+03  0.76604182900E+03  0.12699999809E+01 0. -1.
</event>
<event>
 5   0  0.7073004E-03  0.9401468E+03  0.7818609E-02  0.9376742E-01
        1   -1    0    0  501    0  0.00000000000E+00  0.00000000000E+00  0.51308682950E+03  0.51308682953E+03  0.50400001928E-02 0.  1.
       -1   -1    0    0    0  501  0.00000000000E+00  0.00000000000E+00 -0.43066593779E+03  0.43066593782E+03  0.50400001928E-02 0. -1.
    10030    2    1    2    0    0  0.00000000000E+00  0.00000000000E+00  0.82420891712E+02  0.94375276735E+03  0.94014684092E+03 0.  0.
        1    1    3    3  502    0 -0.42408822216E+03 -0.38231188893E+02  0.24111383511E+03  0.48933457418E+03  0.50400001928E-02 0.  1.
       -1    1    3    3    0  502  0.42408822216E+03  0.38231188893E+02 -0.15869294340E+03  0.45441819317E+03  0.50400001928E-02 0. -1.
</event>
<event>
 5   0  0.7073004E-03  0.9971176E+03  0.7818609E-02  0.9311712E-01
       -1   -1    0    0    0  501  0.00000000000E+00  0.00000000000E+00  0.34608413351E+03  0.34608413354E+03  0.50400001928E-02 0. -1.
        1   -1    0    0  501    0  0.00000000000E+00  0.00000000000E+00 -0.71820937277E+03  0.71820937279E+03  0.50400001928E-02 0.  1.
    10030    2    1    2    0    0  0.00000000000E+00  0.00000000000E+00 -0.37212523926E+03  0.10642935063E+04  0.99711758280E+03 0.  0.
        1    1    3    3  502    0  0.35368767249E+02 -0.49544283404E+03 -0.23192622232E+03  0.54818274702E+03  0.50400001928E-02 0.  1.
       -1    1    3    3    0  502 -0.35368767249E+02  0.49544283404E+03 -0.14019901694E+03  0.51611075931E+03  0.50400001928E-02 0. -1.
</event>
<event>
 5   0  0.7073004E-03  0.1056792E+04  0.7818609E-02  0.9248359E-01
       -1   -1    0    0    0  501  0.00000000000E+00  0.00000000000E+00  0.79344706490E+03  0.79344706492E+03  0.50400001928E-02 0. -1.
        1   -1    0    0  501    0  0.00000000000E+00  0.00000000000E+00 -0.35188558498E+03  0.35188558501E+03  0.50400001928E-02 0.  1.
    10030    2    1    2    0    0  0.00000000000E+00  0.00000000000E+00  0.44156147993E+03  0.11453326499E+04  0.10567924765E+04 0.  0.
        1    1    3    3  502    0 -0.10234558942E+03  0.16585106410E+02  0.78231463717E+03  0.78915516661E+03  0.50400001928E-02 0. -1.
       -1    1    3    3    0  502  0.10234558942E+03 -0.16585106410E+02 -0.34075315724E+03  0.35617748332E+03  0.50400001928E-02 0.  1.
</event>
<event>
 5   0  0.6967681E-03  0.1007686E+04  0.7818609E-02  0.9300155E-01
        1   -1    0    0  501    0  0.00000000000E+00  0.00000000000E+00  0.14408612786E+04  0.14408612786E+04  0.50400001928E-02 0. -1.
       -1   -1    0    0    0  501  0.00000000000E+00  0.00000000000E+00 -0.17618482733E+03  0.17618482741E+03  0.50400001928E-02 0.  1.
    10030    2    1    2    0    0  0.00000000000E+00  0.00000000000E+00  0.12646764513E+04  0.16170461060E+04  0.10076862521E+04 0.  0.
        5    1    3    3  502    0  0.23321116023E+03 -0.63663897995E+02 -0.77001186909E+02  0.25375541363E+03  0.46999998093E+01 0.  1.
       -5    1    3    3    0  502 -0.23321116023E+03  0.63663897995E+02  0.13416776382E+04  0.13632906924E+04  0.46999998093E+01 0. -1.
</event>
<event>
 5   0  0.6967681E-03  0.1006947E+04  0.7818609E-02  0.9300958E-01
        1   -1    0    0  501    0  0.00000000000E+00  0.00000000000E+00  0.70443602568E+03  0.70443602570E+03  0.50400001928E-02 0.  1.
       -1   -1    0    0    0  501  0.00000000000E+00  0.00000000000E+00 -0.35984166904E+03  0.35984166908E+03  0.50400001928E-02 0. -1.
    10030    2    1    2    0    0  0.00000000000E+00  0.00000000000E+00  0.34459435664E+03  0.10642776948E+04  0.10069467419E+04 0.  0.
        5    1    3    3  502    0 -0.21367241814E+03  0.31419390299E+03  0.52138942413E+03  0.64516876283E+03  0.46999998093E+01 0.  1.
       -5    1    3    3    0  502  0.21367241814E+03 -0.31419390299E+03 -0.17679506748E+03  0.41910893194E+03  0.46999998093E+01 0. -1.
</event>
<event>
 5   0  0.7461157E-03  0.9863938E+03  0.7818609E-02  0.9323595E-01
        1   -1    0    0  501    0  0.00000000000E+00  0.00000000000E+00  0.10471440452E+04  0.10471440452E+04  0.50400001928E-02 0. -1.
       -1   -1    0    0    0  501  0.00000000000E+00  0.00000000000E+00 -0.23229198667E+03  0.23229198672E+03  0.50400001928E-02 0.  1.
    10030    2    1    2    0    0  0.00000000000E+00  0.00000000000E+00  0.81485205849E+03  0.12794360319E+04  0.98639377657E+03 0.  0.
        2    1    3    3  502    0  0.47291254827E+03  0.12989536090E+03  0.33972757049E+03  0.59660196551E+03  0.25500000920E-02 0.  1.
       -2    1    3    3    0  502 -0.47291254827E+03 -0.12989536090E+03  0.47512448800E+03  0.68283406637E+03  0.25500000920E-02 0. -1.
</event>
<event>
 5   0  0.7461157E-03  0.1018649E+04  0.7818609E-02  0.9288325E-01
       -1   -1    0    0    0  501  0.00000000000E+00  0.00000000000E+00  0.19650107265E+03  0.19650107272E+03  0.50400001928E-02 0. -1.
        1   -1    0    0  501    0  0.00000000000E+00  0.00000000000E+00 -0.13201519414E+04  0.13201519414E+04  0.50400001928E-02 0.  1.
    10030    2    1    2    0    0  0.00000000000E+00  0.00000000000E+00 -0.11236508688E+04  0.15166530141E+04  0.10186486590E+04 0.  0.
        2    1    3    3  502    0 -0.31783098433E+03 -0.39412914508E+03 -0.47950524939E+03  0.69733750924E+03  0.25500000920E-02 0.  1.
       -2    1    3    3    0  502  0.31783098433E+03  0.39412914508E+03 -0.64414561938E+03  0.81931550490E+03  0.25500000920E-02 0. -1.
</event>
<event>
 5   0  0.7461157E-03  0.9716085E+03  0.7818609E-02  0.9340244E-01
       -1   -1    0    0    0  501  0.00000000000E+00  0.00000000000E+00  0.19101878605E+03  0.19101878612E+03  0.50400001928E-02 0.  1.
        1   -1    0    0  501    0  0.00000000000E+00  0.00000000000E+00 -0.12355108839E+04  0.12355108840E+04  0.50400001928E-02 0. -1.
    10030    2    1    2    0    0  0.00000000000E+00  0.00000000000E+00 -0.10444920979E+04  0.14265296701E+04  0.97160854105E+03 0.  0.
        2    1    3    3  502    0  0.71151870330E+02  0.10998661015E+03  0.16459926032E+03  0.21036292346E+03  0.25500000920E-02 0.  1.
       -2    1    3    3    0  502 -0.71151870330E+02 -0.10998661015E+03 -0.12090913582E+04  0.12161667466E+04  0.25500000920E-02 0. -1.
</event>
<event>
 5   0  0.1221315E-02  0.9940274E+03  0.7818609E-02  0.9315120E-01
        2   -1    0    0  501    0  0.00000000000E+00  0.00000000000E+00  0.78047742886E+03  0.78047742887E+03  0.25500000920E-02 0.  1.
       -2   -1    0    0    0  501  0.00000000000E+00  0.00000000000E+00 -0.31650190822E+03  0.31650190823E+03  0.25500000920E-02 0. -1.
    10030    2    1    2    0    0  0.00000000000E+00  0.00000000000E+00  0.46397552064E+03  0.10969793371E+04  0.99402735489E+03 0.  0.
        5    1    3    3  502    0  0.25888901829E+03  0.26986362668E+03 -0.12925356296E+03  0.39569998020E+03  0.46999998093E+01 0. -1.
       -5    1    3    3    0  502 -0.25888901829E+03 -0.26986362668E+03  0.59322908360E+03  0.70127935690E+03  0.46999998093E+01 0.  1.
</event>
<event>
 5   0  0.7073004E-03  0.9551352E+03  0.7818609E-02  0.9359168E-01
       -1   -1    0    0    0  501  0.00000000000E+00  0.00000000000E+00  0.34109002678E+03  0.34109002682E+03  0.50400001928E-02 0. -1.
        1   -1    0    0  501    0  0.00000000000E+00  0.00000000000E+00 -0.66865279888E+03  0.66865279889E+03  0.50400001928E-02 0.  1.
    10030    2    1    2    0    0  0.00000000000E+00  0.00000000000E+00 -0.32756277210E+03  0.10097428257E+04  0.95513517599E+03 0.  0.
        1    1    3    3  502    0  0.41262681536E+02  0.24944926601E+03 -0.59209064054E+03  0.64381586796E+03  0.50400001928E-02 0.  1.
       -1    1    3    3    0  502 -0.41262681536E+02 -0.24944926601E+03  0.26452786844E+03  0.36592695775E+03  0.50400001928E-02 0. -1.
</event>
<event>
 5   0  0.6967681E-03  0.1008292E+04  0.7818609E-02  0.9299497E-01
       -1   -1    0    0    0  501  0.00000000000E+00  0.00000000000E+00  0.15279060989E+03  0.15279060997E+03  0.50400001928E-02 0. -1.
        1   -1    0    0  501    0  0.00000000000E+00  0.00000000000E+00 -0.16634733658E+04  0.16634733659E+04  0.50400001928E-02 0.  1.
    10030    2    1    2    0    0  0.00000000000E+00  0.00000000000E+00 -0.15106827560E+04  0.18162639758E+04  0.10082918430E+04 0.  0.
        5    1    3    3  502    0 -0.18608231560E+03 -0.46715254648E+03 -0.81986035590E+03  0.96179583230E+03  0.46999998093E+01 0.  1.
       -5    1    3    3    0  502  0.18608231560E+03  0.46715254648E+03 -0.69082240006E+03  0.85446814352E+03  0.46999998093E+01 0. -1.
</event>
<event>
 5   0  0.1245850E-02  0.9929199E+03  0.7818609E-02  0.9316344E-01
       -2   -1    0    0    0  501  0.00000000000E+00  0.00000000000E+00  0.35863182211E+03  0.35863182212E+03  0.25500000920E-02 0.  1.
        2   -1    0    0  501    0  0.00000000000E+00  0.00000000000E+00 -0.68725765593E+03  0.68725765593E+03  0.25500000920E-02 0. -1.
    10030    2    1    2    0    0  0.00000000000E+00  0.00000000000E+00 -0.32862583382E+03  0.10458894781E+04  0.99291986668E+03 0.  0.
        3    1    3    3  502    0  0.20676681805E+03  0.82692941940E+02  0.30307168068E+03  0.37608920953E+03  0.10100000352E+00 0.  1.
       -3    1    3    3    0  502 -0.20676681805E+03 -0.82692941940E+02 -0.63169751450E+03  0.66980026853E+03  0.10100000352E+00 0. -1.
</event>
<event>
 5   0  0.7241200E-03  0.1012193E+04  0.7818609E-02  0.9295272E-01
        1   -1    0    0  501    0  0.00000000000E+00  0.00000000000E+00  0.50176211759E+03  0.50176211762E+03  0.50400001928E-02 0.  1.
       -1   -1    0    0    0  501  0.00000000000E+00  0.00000000000E+00 -0.51046860917E+03  0.51046860919E+03  0.50400001928E-02 0. -1.
    10030    2    1    2    0    0  0.00000000000E+00  0.00000000000E+00 -0.87064915737E+01  0.10122307268E+04  0.10121932826E+04 0.  0.
        4    1    3    3  502    0  0.24508898953E+03 -0.40815756313E+03 -0.17603075970E+03  0.50759201175E+03  0.12699999809E+01 0.  1.
       -4    1    3    3    0  502 -0.24508898953E+03  0.40815756313E+03  0.16732426813E+03  0.50463871506E+03  0.12699999809E+01 0. -1.
</event>
<event>
 5   0  0.1191822E-02  0.1007952E+04  0.7818609E-02  0.9299865E-01
        2   -1    0    0  501    0  0.00000000000E+00  0.00000000000E+00  0.41998917642E+03  0.41998917642E+03  0.25500000920E-02 0. -1.
       -2   -1    0    0    0  501  0.00000000000E+00  0.00000000000E+00 -0.60475850531E+03  0.60475850531E+03  0.25500000920E-02 0.  1.
    10030    2    1    2    0    0  0.00000000000E+00  0.00000000000E+00 -0.18476932889E+03  0.10247476817E+04  0.10079524326E+04 0.  0.
        4    1    3    3  502    0 -0.46037381636E+03 -0.19619909860E+03 -0.15297875817E+03  0.52329938891E+03  0.12699999809E+01 0.  1.
       -4    1    3    3    0  502  0.46037381636E+03  0.19619909860E+03 -0.31790570718E+02  0.50144829282E+03  0.12699999809E+01 0. -1.
</event>
<event>
 5   0  0.1240503E-02  0.6406773E+03  0.7818609E-02  0.9824431E-01
       -2   -1    0    0    0  501  0.00000000000E+00  0.00000000000E+00  0.12857898683E+03  0.12857898685E+03  0.25500000920E-02 0. -1.
        2   -1    0    0  501    0  0.00000000000E+00  0.00000000000E+00 -0.79808425514E+03  0.79808425515E+03  0.25500000920E-02 0.  1.
    10030    2    1    2    0    0  0.00000000000E+00  0.00000000000E+00 -0.66950526832E+03  0.92666324200E+03  0.64067734451E+03 0.  0.
        1    1    3    3  502    0 -0.21989980081E+03  0.19227888579E+03 -0.52493804980E+03  0.60073875226E+03  0.50400001928E-02 0.  1.
       -1    1    3    3    0  502  0.21989980081E+03 -0.19227888579E+03 -0.14456721852E+03  0.32592448974E+03  0.50400001928E-02 0. -1.
</event>
<event>
 5   0  0.7224879E-03  0.1006104E+04  0.7818609E-02  0.9301875E-01
        1   -1    0    0  501    0  0.00000000000E+00  0.00000000000E+00  0.14935372130E+04  0.14935372130E+04  0.50400001928E-02 0.  1.
       -1   -1    0    0    0  501  0.00000000000E+00  0.00000000000E+00 -0.16943763726E+03  0.16943763734E+03  0.50400001928E-02 0. -1.
    10030    2    1    2    0    0  0.00000000000E+00  0.00000000000E+00  0.13240995757E+04  0.16629748503E+04  0.10061042026E+04 0.  0.
        3    1    3    3  502    0 -0.18854266247E+02 -0.11736846074E+03 -0.14588921782E+03  0.18818744116E+03  0.10100000352E+00 0. -1.
       -3    1    3    3    0  502  0.18854266247E+02  0.11736846074E+03  0.14699887935E+04  0.14747874091E+04  0.10100000352E+00 0.  1.
</event>
<event>
 5   0  0.1245850E-02  0.9840571E+03  0.7818609E-02  0.9326206E-01
       -2   -1    0    0    0  501  0.00000000000E+00  0.00000000000E+00  0.17764777113E+03  0.17764777114E+03  0.25500000920E-02 0. -1.
        2   -1    0    0  501    0  0.00000000000E+00  0.00000000000E+00 -0.13627646391E+04  0.13627646391E+04  0.25500000920E-02 0.  1.
    10030    2    1    2    0    0  0.00000000000E+00  0.00000000000E+00 -0.11851168680E+04  0.15404124102E+04  0.98405711362E+03 0.  0.
        3    1    3    3  502    0  0.18274059806E+03  0.93249909389E+02 -0.12926169251E+04  0.13087964689E+04  0.10100000352E+00 0.  1.
       -3    1    3    3    0  502 -0.18274059806E+03 -0.93249909389E+02  0.10750005715E+03  0.23161594131E+03  0.10100000352E+00 0. -1.
</event>
<event>
 5   0  0.7241200E-03  0.1001116E+04  0.7818609E-02  0.9307322E-01
        1   -1    0    0  501    0  0.00000000000E+00  0.00000000000E+00  0.20585800701E+03  0.20585800707E+03  0.50400001928E-02 0. -1.
       -1   -1    0    0    0  501  0.00000000000E+00  0.00000000000E+00 -0.12171417068E+04  0.12171417068E+04  0.50400001928E-02 0.  1.
    10030    2    1    2    0    0  0.00000000000E+00  0.00000000000E+00 -0.10112836998E+04  0.14229997139E+04  0.10011161093E+04 0.  0.
        4    1    3    3  502    0  0.33758980603E+03  0.99814397773E+02 -0.10114472443E+04  0.10709607519E+04  0.12699999809E+01 0.  1.
       -4    1    3    3    0  502 -0.33758980603E+03 -0.99814397773E+02  0.16354450341E+00  0.35203896203E+03  0.12699999809E+01 0. -1.
</event>
<event>
 5   0  0.1216322E-02  0.1008251E+04  0.7818609E-02  0.9299541E-01
       -2   -1    0    0    0  501  0.00000000000E+00  0.00000000000E+00  0.10347018327E+04  0.10347018327E+04  0.25500000920E-02 0. -1.
        2   -1    0    0  501    0  0.00000000000E+00  0.00000000000E+00 -0.24561929257E+03  0.24561929259E+03  0.25500000920E-02 0.  1.
    10030    2    1    2    0    0  0.00000000000E+00  0.00000000000E+00  0.78908254012E+03  0.12803211253E+04  0.10082514214E+04 0.  0.
        2    1    3    3  502    0  0.10994728749E+02  0.15608261259E+03 -0.21400388801E+03  0.26510437586E+03  0.25500000920E-02 0.  1.
       -2    1    3    3    0  502 -0.10994728749E+02 -0.15608261259E+03  0.10030864281E+04  0.10152167494E+04  0.25500000920E-02 0. -1.
</event>
<event>
 5   0  0.7241200E-03  0.1008380E+04  0.7818609E-02  0.9299401E-01
        1   -1    0    0  501    0  0.00000000000E+00  0.00000000000E+00  0.13762525107E+04  0.13762525108E+04  0.50400001928E-02 0.  1.
       -1   -1    0    0    0  501  0.00000000000E+00  0.00000000000E+00 -0.18470993721E+03  0.18470993728E+03  0.50400001928E-02 0. -1.
    10030    2    1    2    0    0  0.00000000000E+00  0.00000000000E+00  0.11915425735E+04  0.15609624480E+04  0.10083799183E+04 0.  0.
        4    1    3    3  502    0 -0.40879247105E+03  0.28613418691E+03  0.70763268487E+03  0.86586932438E+03  0.12699999809E+01 0.  1.
       -4    1    3    3    0  502  0.40879247105E+03 -0.28613418691E+03  0.48390988867E+03  0.69509312366E+03  0.12699999809E+01 0. -1.
</event>
<event>
 5   0  0.7241200E-03  0.9778041E+03  0.7818609E-02  0.9333229E-01
        1   -1    0    0  501    0  0.00000000000E+00  0.00000000000E+00  0.14060204357E+04  0.14060204357E+04  0.50400001928E-02 0. -1.
       -1   -1    0    0    0  501  0.00000000000E+00  0.00000000000E+00 -0.17000125083E+03  0.17000125091E+03  0.50400001928E-02 0.  1.
    10030    2    1    2    0    0  0.00000000000E+00  0.00000000000E+00  0.12360191849E+04  0.15760216866E+04  0.97780413750E+03 0.  0.
        4    1    3    3  502    0  0.29589275522E+03  0.25069589149E+03  0.13818475241E+03  0.41170085171E+03  0.12699999809E+01 0.  1.
       -4    1    3    3    0  502 -0.29589275522E+03 -0.25069589149E+03  0.10978344324E+04  0.11643208349E+04  0.12699999809E+01 0. -1.
</event>
<event>
 5   0  0.7461157E-03  0.1067177E+04  0.7818609E-02  0.9237787E-01
        1   -1    0    0  501    0  0.00000000000E+00  0.00000000000E+00  0.10336170470E+04  0.10336170470E+04  0.50400001928E-02 0. -1.
       -1   -1    0    0    0  501  0.00000000000E+00  0.00000000000E+00 -0.27545673621E+03  0.27545673626E+03  0.50400001928E-02 0.  1.
    10030    2    1    2    0    0  0.00000000000E+00  0.00000000000E+00  0.75816031082E+03  0.13090737833E+04  0.10671771705E+04 0.  0.
        2    1    3    3  502    0  0.32083488404E+03 -0.25707014635E+03 -0.38161900296E+02  0.41288789472E+03  0.25500000920E-02 0.  1.
       -2    1    3    3    0  502 -0.32083488404E+03  0.25707014635E+03  0.79632221112E+03  0.89618588858E+03  0.25500000920E-02 0. -1.
</event>
<event>
 5   0  0.1216322E-02  0.9958527E+03  0.7818609E-02  0.9313105E-01
        2   -1    0    0  501    0  0.00000000000E+00  0.00000000000E+00  0.75019391554E+03  0.75019391554E+03  0.25500000920E-02 0.  1.
       -2   -1    0    0    0  501  0.00000000000E+00  0.00000000000E+00 -0.33048877508E+03  0.33048877509E+03  0.25500000920E-02 0. -1.
    10030    2    1    2    0    0  0.00000000000E+00  0.00000000000E+00  0.41970514046E+03  0.10806826906E+04  0.99585273655E+03 0.  0.
        2    1    3    3  502    0  0.29382991174E+03 -0.19389944910E+03 -0.17227626449E+03  0.39193382695E+03  0.25500000920E-02 0. -1.
       -2    1    3    3    0  502 -0.29382991174E+03  0.19389944910E+03  0.59198140495E+03  0.68874886367E+03  0.25500000920E-02 0.  1.
</event>
<event>
 5   0  0.1240503E-02  0.9918031E+03  0.7818609E-02  0.9317581E-01
        2   -1    0    0  501    0  0.00000000000E+00  0.00000000000E+00  0.22239056030E+04  0.22239056030E+04  0.25500000920E-02 0. -1.
       -2   -1    0    0    0  501  0.00000000000E+00  0.00000000000E+00 -0.11057949793E+03  0.11057949796E+03  0.25500000920E-02 0.  1.
    10030    2    1    2    0    0  0.00000000000E+00  0.00000000000E+00  0.21133261051E+04  0.23344851010E+04  0.99180313581E+03 0.  0.
        1    1    3    3  502    0  0.33722541415E+03  0.16918594035E+03  0.18141758273E+04  0.18529918496E+04  0.50400001928E-02 0. -1.
       -1    1    3    3    0  502 -0.33722541415E+03 -0.16918594035E+03  0.29915027775E+03  0.48149325132E+03  0.50400001928E-02 0.  1.
</event>
<event>
 5   0  0.1221315E-02  0.9222104E+03  0.7818609E-02  0.9398235E-01
        2   -1    0    0  501    0  0.00000000000E+00  0.00000000000E+00  0.15000123171E+04  0.15000123171E+04  0.25500000920E-02 0. -1.
       -2   -1    0    0    0  501  0.00000000000E+00  0.00000000000E+00 -0.14174417849E+03  0.14174417851E+03  0.25500000920E-02 0.  1.
    10030    2    1    2    0    0  0.00000000000E+00  0.00000000000E+00  0.13582681386E+04  0.16417564956E+04  0.92221041770E+03 0.  0.
        5    1    3    3  502    0  0.25357775106E+03 -0.29587453128E+03  0.11179282209E+04  0.11839041393E+04  0.46999998093E+01 0. -1.
       -5    1    3    3    0  502 -0.25357775106E+03  0.29587453128E+03  0.24033991770E+03  0.45785235626E+03  0.46999998093E+01 0.  1.
</event>
<event>
 5   0  0.1240503E-02  0.1005639E+04  0.7818609E-02  0.9302382E-01
       -2   -1    0    0    0  501  0.00000000000E+00  0.00000000000E+00  0.30099791770E+03  0.30099791771E+03  0.25500000920E-02 0. -1.
        2   -1    0    0  501    0  0.00000000000E+00  0.00000000000E+00 -0.83996370392E+03  0.83996370392E+03  0.25500000920E-02 0.  1.
    10030    2    1    2    0    0  0.00000000000E+00  0.00000000000E+00 -0.53896578622E+03  0.11409616216E+04  0.10056387539E+04 0.  0.
        1    1    3    3  502    0 -0.14873561049E+03 -0.46820985647E+03 -0.14789607714E+03  0.51304580808E+03  0.50400001928E-02 0. -1.
       -1    1    3    3    0  502  0.14873561049E+03  0.46820985647E+03 -0.39106970908E+03  0.62791581355E+03  0.50400001928E-02 0.  1.
</event>
<event>
 5   0  0.7073004E-03  0.9243938E+03  0.7818609E-02  0.9395591E-01
        1   -1    0    0  501    0  0.00000000000E+00  0.00000000000E+00  0.41842258729E+03  0.41842258732E+03  0.50400001928E-02 0.  1.
       -1   -1    0    0    0  501  0.00000000000E+00  0.00000000000E+00 -0.51055073257E+03  0.51055073260E+03  0.50400001928E-02 0. -1.
    10030    2    1    2    0    0  0.00000000000E+00  0.00000000000E+00 -0.92128145286E+02  0.92897331991E+03  0.92439376564E+03 0.  0.
        1    1    3    3  502    0  0.18930388204E+02 -0.33583724763E+03  0.27249360919E+03  0.43289465644E+03  0.50400001928E-02 0.  1.
       -1    1    3    3    0  502 -0.18930388204E+02  0.33583724763E+03 -0.36462175448E+03  0.49607866348E+03  0.50400001928E-02 0. -1.
</event>
<event>
 5   0  0.1221315E-02  0.1055561E+04  0.7818609E-02  0.9249621E-01
       -2   -1    0    0    0  501  0.00000000000E+00  0.00000000000E+00  0.25060418992E+03  0.25060418994E+03  0.25500000920E-02 0.  1.
        2   -1    0    0  501    0  0.00000000000E+00  0.00000000000E+00 -0.11115235408E+04  0.11115235408E+04  0.25500000920E-02 0. -1.
    10030    2    1    2    0    0  0.00000000000E+00  0.00000000000E+00 -0.86091935087E+03  0.13621277307E+04  0.10555613796E+04 0.  0.
        5    1    3    3  502    0 -0.31793630554E+03 -0.26106643055E+03 -0.85706563864E+03  0.95069594218E+03  0.46999998093E+01 0. -1.
       -5    1    3    3    0  502  0.31793630554E+03  0.26106643055E+03 -0.38537122344E+01  0.41143178856E+03  0.46999998093E+01 0.  1.
</event>
<event>
 5   0  0.4782125E-03  0.9904711E+03  0.7818609E-02  0.9319058E-01
       -3   -1    0    0    0  501  0.00000000000E+00  0.00000000000E+00  0.70301701661E+03  0.70301702387E+03  0.10100000352E+00 0. -1.
        3   -1    0    0  501    0  0.00000000000E+00  0.00000000000E+00 -0.34886531305E+03  0.34886532767E+03  0.10100000352E+00 0.  1.
    10030    2    1    2    0    0  0.00000000000E+00  0.00000000000E+00  0.35415170356E+03  0.10518823515E+04  0.99047112646E+03 0.  0.
        2    1    3    3  502    0  0.17395222880E+03  0.46111387000E+02  0.66706364040E+03  0.69091210604E+03  0.25500000920E-02 0. -1.
       -2    1    3    3    0  502 -0.17395222880E+03 -0.46111387000E+02 -0.31291193684E+03  0.36097024551E+03  0.25500000920E-02 0.  1.
</event>
<event>
 5   0  0.1191822E-02  0.9840577E+03  0.7818609E-02  0.9326205E-01
       -2   -1    0    0    0  501  0.00000000000E+00  0.00000000000E+00  0.38874920509E+03  0.38874920509E+03  0.25500000920E-02 0. -1.
        2   -1    0    0  501    0  0.00000000000E+00  0.00000000000E+00 -0.62274696201E+03  0.62274696201E+03  0.25500000920E-02 0.  1.
    10030    2    1    2    0    0  0.00000000000E+00  0.00000000000E+00 -0.23399775692E+03  0.10114961671E+04  0.98405769436E+03 0.  0.
        4    1    3    3  502    0 -0.71575637454E+02  0.45852940420E+03  0.51016723410E+02  0.46687964762E+03  0.12699999809E+01 0. -1.
       -4    1    3    3    0  502  0.71575637454E+02 -0.45852940420E+03 -0.28501448033E+03  0.54461651949E+03  0.12699999809E+01 0.  1.
</event>
<event>
 5   0  0.1191822E-02  0.9995359E+03  0.7818609E-02  0.9309054E-01
        2   -1    0    0  501    0  0.00000000000E+00  0.00000000000E+00  0.13502238548E+04  0.13502238548E+04  0.25500000920E-02 0.  1.
       -2   -1    0    0    0  501  0.00000000000E+00  0.00000000000E+00 -0.18498268035E+03  0.18498268036E+03  0.25500000920E-02 0. -1.
    10030    2    1    2    0    0  0.00000000000E+00  0.00000000000E+00  0.11652411745E+04  0.15352065352E+04  0.99953594783E+03 0.  0.
        4    1    3    3  502    0 -0.43987703106E+03  0.19966790299E+03  0.38588293090E+03  0.61827689848E+03  0.12699999809E+01 0. -1.
       -4    1    3    3    0  502  0.43987703106E+03 -0.19966790299E+03  0.77935824359E+03  0.91692963672E+03  0.12699999809E+01 0.  1.
</event>
<event>
 5   0  0.7461157E-03  0.1010294E+04  0.7818609E-02  0.9297326E-01
        1   -1    0    0  501    0  0.00000000000E+00  0.00000000000E+00  0.67348416320E+03  0.67348416321E+03  0.50400001928E-02 0. -1.
       -1   -1    0    0    0  501  0.00000000000E+00  0.00000000000E+00 -0.37888563144E+03  0.37888563147E+03  0.50400001928E-02 0.  1.
    10030    2    1    2    0    0  0.00000000000E+00  0.00000000000E+00  0.29459853176E+03  0.10523697947E+04  0.10102939621E+04 0.  0.
        2    1    3    3  502    0  0.74446801921E+02 -0.38938388325E+03  0.47340525506E+03  0.61747442893E+03  0.25500000920E-02 0. -1.
       -2    1    3    3    0  502 -0.74446801921E+02  0.38938388325E+03 -0.17880672330E+03  0.43489536576E+03  0.25500000920E-02 0.  1.
</event>
<event>
 5   0  0.7073004E-03  0.1013296E+04  0.7818609E-02  0.9294081E-01
        1   -1    0    0  501    0  0.00000000000E+00  0.00000000000E+00  0.22012785778E+03  0.22012785784E+03  0.50400001928E-02 0.  1.
       -1   -1    0    0    0  501  0.00000000000E+00  0.00000000000E+00 -0.11661054576E+04  0.11661054576E+04  0.50400001928E-02 0. -1.
    10030    2    1    2    0    0  0.00000000000E+00  0.00000000000E+00 -0.94597759984E+03  0.13862333155E+04  0.10132961983E+04 0.  0.
        1    1    3    3  502    0  0.47201520487E+03 -0.99895383034E+02 -0.26142868397E+03  0.54874620546E+03  0.50400001928E-02 0.  1.
       -1    1    3    3    0  502 -0.47201520487E+03  0.99895383034E+02 -0.68454891587E+03  0.83748711001E+03  0.50400001928E-02 0. -1.
</event>
<event>
 5   0  0.6967681E-03  0.9581623E+03  0.7818609E-02  0.9355661E-01
       -1   -1    0    0    0  501  0.00000000000E+00  0.00000000000E+00  0.57221373947E+03  0.57221373949E+03  0.50400001928E-02 0.  1.
        1   -1    0    0  501    0  0.00000000000E+00  0.00000000000E+00 -0.40110667076E+03  0.40110667079E+03  0.50400001928E-02 0. -1.
    10030    2    1    2    0    0  0.00000000000E+00  0.00000000000E+00  0.17110706871E+03  0.97332041028E+03  0.95816229946E+03 0.  0.
        5    1    3    3  502    0 -0.32948150079E+03 -0.15865178632E+02 -0.26734252461E+03  0.42462204220E+03  0.46999998093E+01 0. -1.
       -5    1    3    3    0  502  0.32948150079E+03  0.15865178632E+02  0.43844959332E+03  0.54869836808E+03  0.46999998093E+01 0.  1.
</event>
<event>
 5   0  0.1191822E-02  0.9874374E+03  0.7818609E-02  0.9322432E-01
        2   -1    0    0  501    0  0.00000000000E+00  0.00000000000E+00  0.70228269613E+03  0.70228269614E+03  0.25500000920E-02 0.  1.
       -2   -1    0    0    0  501  0.00000000000E+00  0.00000000000E+00 -0.34709404362E+03  0.34709404363E+03  0.25500000920E-02 0. -1.
    10030    2    1    2    0    0  0.00000000000E+00  0.00000000000E+00  0.35518865251E+03  0.10493767398E+04  0.98743737174E+03 0.  0.
        4    1    3    3  502    0 -0.21185618396E+02 -0.27269296235E+03  0.61440792096E+03  0.67253920955E+03  0.12699999809E+01 0.  1.
       -4    1    3    3    0  502  0.21185618396E+02  0.27269296235E+03 -0.25921926845E+03  0.37683753022E+03  0.12699999809E+01 0. -1.
</event>
<event>
 5   0  0.1221315E-02  0.1013477E+04  0.7818609E-02  0.9293886E-01
       -2   -1    0    0    0  501  0.00000000000E+00  0.00000000000E+00  0.43289259453E+03  0.43289259454E+03  0.25500000920E-02 0. -1.
        2   -1    0    0  501    0  0.00000000000E+00  0.00000000000E+00 -0.59318177888E+03  0.59318177888E+03  0.25500000920E-02 0.  1.
    10030    2    1    2    0    0  0.00000000000E+00  0.00000000000E+00 -0.16028918435E+03  0.10260743734E+04  0.10134771814E+04 0.  0.
        5    1    3    3  502    0 -0.11962056493E+03 -0.27520515196E+03  0.33323796240E+03  0.44846023770E+03  0.46999998093E+01 0. -1.
       -5    1    3    3    0  502  0.11962056493E+03  0.27520515196E+03 -0.49352714674E+03  0.57761413572E+03  0.46999998093E+01 0.  1.
</event>
<event>
 5   0  0.1240503E-02  0.9970263E+03  0.7818609E-02  0.9311812E-01
       -2   -1    0    0    0  501  0.00000000000E+00  0.00000000000E+00  0.21610829432E+03  0.21610829434E+03  0.25500000920E-02 0.  1.
        2   -1    0    0  501    0  0.00000000000E+00  0.00000000000E+00 -0.11499575613E+04  0.11499575613E+04  0.25500000920E-02 0. -1.
    10030    2    1    2    0    0  0.00000000000E+00  0.00000000000E+00 -0.93384926701E+03  0.13660658557E+04  0.99702631286E+03 0.  0.
        1    1    3    3  502    0 -0.39000495655E+02  0.36022337254E+03  0.22027563757E+01  0.36233516107E+03  0.50400001928E-02 0.  1.
       -1    1    3    3    0  502  0.39000495655E+02 -0.36022337254E+03 -0.93605202338E+03  0.10037306946E+04  0.50400001928E-02 0. -1.
</event>
<event>
 5   0  0.1240503E-02  0.1006852E+04  0.7818609E-02  0.9301061E-01
       -2   -1    0    0    0  501  0.00000000000E+00  0.00000000000E+00  0.69867032251E+03  0.69867032252E+03  0.25500000920E-02 0. -1.
        2   -1    0    0  501    0  0.00000000000E+00  0.00000000000E+00 -0.36274311303E+03  0.36274311304E+03  0.25500000920E-02 0.  1.
    10030    2    1    2    0    0  0.00000000000E+00  0.00000000000E+00  0.33592720949E+03  0.10614134356E+04  0.10068522191E+04 0.  0.
        1    1    3    3  502    0 -0.27568527945E+03 -0.98822568101E+02  0.59962775324E+03  0.66732429580E+03  0.50400001928E-02 0. -1.
       -1    1    3    3    0  502  0.27568527945E+03  0.98822568101E+02 -0.26370054376E+03  0.39408913976E+03  0.50400001928E-02 0.  1.
</event>
<event>
 5   0  0.6967681E-03  0.9987301E+03  0.7818609E-02  0.9309939E-01
        1   -1    0    0  501    0  0.00000000000E+00  0.00000000000E+00  0.66621354713E+03  0.66621354714E+03  0.50400001928E-02 0. -1.
       -1   -1    0    0    0  501  0.00000000000E+00  0.00000000000E+00 -0.37430257357E+03  0.37430257360E+03  0.50400001928E-02 0.  1.
    10030    2    1    2    0    0  0.00000000000E+00  0.00000000000E+00  0.29191097356E+03  0.10405161207E+04  0.99873008418E+03 0.  0.
        5    1    3    3  502    0  0.68828217033E+02  0.48949286848E+03  0.72265976913E+02  0.49958488085E+03  0.46999998093E+01 0. -1.
       -5    1    3    3    0  502 -0.68828217033E+02 -0.48949286848E+03  0.21964499664E+03  0.54093123990E+03  0.46999998093E+01 0.  1.
</event>
<event>
 5   0  0.6967681E-03  0.1146589E+04  0.7818609E-02  0.9160936E-01
        1   -1    0    0  501    0  0.00000000000E+00  0.00000000000E+00  0.17525394269E+04  0.17525394269E+04  0.50400001928E-02 0.  1.
       -1   -1    0    0    0  501  0.00000000000E+00  0.00000000000E+00 -0.18753726648E+03  0.18753726654E+03  0.50400001928E-02 0. -1.
    10030    2    1    2    0    0  0.00000000000E+00  0.00000000000E+00  0.15650021604E+04  0.19400766934E+04  0.11465887730E+04 0.  0.
        5    1    3    3  502    0 -0.45128603529E+03 -0.19995819789E+03  0.28918442527E+03  0.57209447504E+03  0.46999998093E+01 0. -1.
       -5    1    3    3    0  502  0.45128603529E+03  0.19995819789E+03  0.12758177351E+04  0.13679822184E+04  0.46999998093E+01 0.  1.
</event>
<event>
 5   0  0.1191822E-02  0.9953797E+03  0.7818609E-02  0.9313627E-01
        2   -1    0    0  501    0  0.00000000000E+00  0.00000000000E+00  0.20476192649E+04  0.20476192649E+04  0.25500000920E-02 0. -1.
       -2   -1    0    0    0  501  0.00000000000E+00  0.00000000000E+00 -0.12096739592E+03  0.12096739595E+03  0.25500000920E-02 0.  1.
    10030    2    1    2    0    0  0.00000000000E+00  0.00000000000E+00  0.19266518690E+04  0.21685866609E+04  0.99537966697E+03 0.  0.
        4    1    3    3  502    0 -0.32118888185E+03  0.19058410430E+03  0.24665527267E+03  0.44757684824E+03  0.12699999809E+01 0.  1.
       -4    1    3    3    0  502  0.32118888185E+03 -0.19058410430E+03  0.16799965963E+04  0.17210098127E+04  0.12699999809E+01 0. -1.
</event>
<event>
 5   0  0.7241200E-03  0.9333462E+03  0.7818609E-02  0.9384831E-01
        1   -1    0    0  501    0  0.00000000000E+00  0.00000000000E+00  0.60254776597E+03  0.60254776599E+03  0.50400001928E-02 0. -1.
       -1   -1    0    0    0  501  0.00000000000E+00  0.00000000000E+00 -0.36143818896E+03  0.36143818900E+03  0.50400001928E-02 0.  1.
    10030    2    1    2    0    0  0.00000000000E+00  0.00000000000E+00  0.24110957701E+03  0.96398595498E+03  0.93334618083E+03 0.  0.
        4    1    3    3  502    0  0.48872017921E+01 -0.11801389497E+03 -0.34574268812E+03  0.36536390549E+03  0.12699999809E+01 0.  1.
       -4    1    3    3    0  502 -0.48872017921E+01  0.11801389497E+03  0.58685226513E+03  0.59862204949E+03  0.12699999809E+01 0. -1.
</event>
<event>
 5   0  0.1191822E-02  0.1003018E+04  0.7818609E-02  0.9305241E-01
        2   -1    0    0  501    0  0.00000000000E+00  0.00000000000E+00  0.57918153163E+03  0.57918153163E+03  0.25500000920E-02 0. -1.
       -2   -1    0    0    0  501  0.00000000000E+00  0.00000000000E+00 -0.43425271162E+03  0.43425271163E+03  0.25500000920E-02 0.  1.
    10030    2    1    2    0    0  0.00000000000E+00  0.00000000000E+00  0.14492882000E+03  0.10134342433E+04  0.10030177479E+04 0.  0.
        4    1    3    3  502    0 -0.37387219508E+02 -0.32908933275E+03  0.45295451167E+03  0.56113010582E+03  0.12699999809E+01 0. -1.
       -4    1    3    3    0  502  0.37387219508E+02  0.32908933275E+03 -0.30802569167E+03  0.45230413744E+03  0.12699999809E+01 0.  1.
</event>
<event>
 5   0  0.7224879E-03  0.9770900E+03  0.7818609E-02  0.9334035E-01
       -1   -1    0    0    0  501  0.00000000000E+00  0.00000000000E+00  0.24657071211E+03  0.24657071216E+03  0.50400001928E-02 0.  1.
        1   -1    0    0  501    0  0.00000000000E+00  0.00000000000E+00 -0.96798281708E+03  0.96798281710E+03  0.50400001928E-02 0. -1.
    10030    2    1    2    0    0  0.00000000000E+00  0.00000000000E+00 -0.72141210498E+03  0.12145535293E+04  0.97708999085E+03 0.  0.
        3    1    3    3  502    0  0.11700680560E+03 -0.75988654832E+02  0.22128136916E+03  0.26159190117E+03  0.10100000352E+00 0.  1.
       -3    1    3    3    0  502 -0.11700680560E+03  0.75988654832E+02 -0.94269347414E+03  0.95296162808E+03  0.10100000352E+00 0. -1.
</event>
<event>
 5   0  0.7241200E-03  0.9039865E+03  0.7818609E-02  0.9420612E-01
       -1   -1    0    0    0  501  0.00000000000E+00  0.00000000000E+00  0.66472110038E+03  0.66472110040E+03  0.50400001928E-02 0. -1.
        1   -1    0    0  501    0  0.00000000000E+00  0.00000000000E+00 -0.30734375123E+03  0.30734375127E+03  0.50400001928E-02 0.  1.
    10030    2    1    2    0    0  0.00000000000E+00  0.00000000000E+00  0.35737734915E+03  0.97206485168E+03  0.90398645243E+03 0.  0.
        4    1    3    3  502    0 -0.13851614546E+03  0.11038776234E+03 -0.26846938072E+03  0.32163582187E+03  0.12699999809E+01 0.  1.
       -4    1    3    3    0  502  0.13851614546E+03 -0.11038776234E+03  0.62584672987E+03  0.65042902981E+03  0.12699999809E+01 0. -1.
</event>
<event>
 5   0  0.7461157E-03  0.9922646E+03  0.7818609E-02  0.9317070E-01
        1   -1    0    0  501    0  0.00000000000E+00  0.00000000000E+00  0.52177470078E+03  0.52177470081E+03  0.50400001928E-02 0. -1.
       -1   -1    0    0    0  501  0.00000000000E+00  0.00000000000E+00 -0.47175005038E+03  0.47175005041E+03  0.50400001928E-02 0.  1.
    10030    2    1    2    0    0  0.00000000000E+00  0.00000000000E+00  0.50024650399E+02  0.99352475122E+03  0.99226456433E+03 0.  0.
        2    1    3    3  502    0  0.34362050147E+03  0.13308900213E+03  0.35763824641E+03  0.51351031813E+03  0.25500000920E-02 0. -1.
       -2    1    3    3    0  502 -0.34362050147E+03 -0.13308900213E+03 -0.30761359601E+03  0.48001443309E+03  0.25500000920E-02 0.  1.
</event>
<event>
 5   0  0.1240503E-02  0.8278907E+03  0.7818609E-02  0.9520501E-01
        2   -1    0    0  501    0  0.00000000000E+00  0.00000000000E+00  0.57547522472E+03  0.57547522473E+03  0.25500000920E-02 0. -1.
       -2   -1    0    0    0  501  0.00000000000E+00  0.00000000000E+00 -0.29775522357E+03  0.29775522358E+03  0.25500000920E-02 0.  1.
    10030    2    1    2    0    0  0.00000000000E+00  0.00000000000E+00  0.27772000115E+03  0.87323044831E+03  0.82789070343E+03 0.  0.
        1    1    3    3  502    0  0.50305372983E+02 -0.40836707039E+03  0.18669171413E+03  0.45182750125E+03  0.50400001928E-02 0.  1.
       -1    1    3    3    0  502 -0.50305372983E+02  0.40836707039E+03  0.91028287012E+02  0.42140294706E+03  0.50400001928E-02 0. -1.
</event>
<event>
 5   0  0.7073004E-03  0.9854332E+03  0.7818609E-02  0.9324667E-01
        1   -1    0    0  501    0  0.00000000000E+00  0.00000000000E+00  0.58881759565E+03  0.58881759567E+03  0.50400001928E-02 0.  1.
       -1   -1    0    0    0  501  0.00000000000E+00  0.00000000000E+00 -0.41230023355E+03  0.41230023358E+03  0.50400001928E-02 0. -1.
    10030    2    1    2    0    0  0.00000000000E+00  0.00000000000E+00  0.17651736210E+03  0.10011178293E+04  0.98543316817E+03 0.  0.
        1    1    3    3  502    0 -0.59227690775E+02  0.44676937068E+03  0.29057365905E+03  0.53623114539E+03  0.50400001928E-02 0.  1.
       -1    1    3    3    0  502  0.59227690775E+02 -0.44676937068E+03 -0.11405629696E+03  0.46488668386E+03  0.50400001928E-02 0. -1.
</event>
<event>
 5   0  0.1240503E-02  0.7888557E+03  0.7818609E-02  0.9576290E-01
       -2   -1    0    0    0  501  0.00000000000E+00  0.00000000000E+00  0.16754877366E+03  0.16754877368E+03  0.25500000920E-02 0.  1.
        2   -1    0    0  501    0  0.00000000000E+00  0.00000000000E+00 -0.92852566894E+03  0.92852566894E+03  0.25500000920E-02 0. -1.
    10030    2    1    2    0    0  0.00000000000E+00  0.00000000000E+00 -0.76097689528E+03  0.10960744426E+04  0.78885572105E+03 0.  0.
        1    1    3    3  502    0  0.23238595772E+03  0.45275276772E+02  0.57838536869E+02  0.24371782948E+03  0.50400001928E-02 0.  1.
       -1    1    3    3    0  502 -0.23238595772E+03 -0.45275276772E+02 -0.81881543215E+03  0.85235661315E+03  0.50400001928E-02 0. -1.
</event>
<event>
 5   0  0.1216322E-02  0.1001648E+04  0.7818609E-02  0.9306739E-01
       -2   -1    0    0    0  501  0.00000000000E+00  0.00000000000E+00  0.32948642777E+03  0.32948642778E+03  0.25500000920E-02 0.  1.
        2   -1    0    0  501    0  0.00000000000E+00  0.00000000000E+00 -0.76126023692E+03  0.76126023692E+03  0.25500000920E-02 0. -1.
    10030    2    1    2    0    0  0.00000000000E+00  0.00000000000E+00 -0.43177380915E+03  0.10907466647E+04  0.10016484734E+04 0.  0.
        2    1    3    3  502    0 -0.19611324242E+03  0.11419246372E+03 -0.70205785305E+03  0.73782487872E+03  0.25500000920E-02 0. -1.
       -2    1    3    3    0  502  0.19611324242E+03 -0.11419246372E+03  0.27028404390E+03  0.35292178598E+03  0.25500000920E-02 0.  1.
</event>
<event>
 5   0  0.1191822E-02  0.1091708E+04  0.7818609E-02  0.9213312E-01
        2   -1    0    0  501    0  0.00000000000E+00  0.00000000000E+00  0.31269719594E+03  0.31269719595E+03  0.25500000920E-02 0. -1.
       -2   -1    0    0    0  501  0.00000000000E+00  0.00000000000E+00 -0.95285986089E+03  0.95285986089E+03  0.25500000920E-02 0.  1.
    10030    2    1    2    0    0  0.00000000000E+00  0.00000000000E+00 -0.64016266494E+03  0.12655570568E+04  0.10917080317E+04 0.  0.
        4    1    3    3  502    0  0.38251444446E+03  0.25077448562E+03 -0.66543099852E+03  0.80746837062E+03  0.12699999809E+01 0.  1.
       -4    1    3    3    0  502 -0.38251444446E+03 -0.25077448562E+03  0.25268333578E+02  0.45808868622E+03  0.12699999809E+01 0. -1.
</event>
<event>
 5   0  0.7461157E-03  0.1009579E+04  0.7818609E-02  0.9298101E-01
        1   -1    0    0  501    0  0.00000000000E+00  0.00000000000E+00  0.42901212182E+03  0.42901212185E+03  0.50400001928E-02 0. -1.
       -1   -1    0    0    0  501  0.00000000000E+00  0.00000000000E+00 -0.59395131751E+03  0.59395131753E+03  0.50400001928E-02 0.  1.
    10030    2    1    2    0    0  0.00000000000E+00  0.00000000000E+00 -0.16493919569E+03  0.10229634394E+04  0.10095787538E+04 0.  0.
        2    1    3    3  502    0  0.10739934473E+03  0.32961342446E+03  0.28931822853E+03  0.45153589691E+03  0.25500000920E-02 0. -1.
       -2    1    3    3    0  502 -0.10739934473E+03 -0.32961342446E+03 -0.45425742422E+03  0.57142754247E+03  0.25500000920E-02 0.  1.
</event>
<event>
 5   0  0.7073004E-03  0.9998937E+03  0.7818609E-02  0.9308661E-01
       -1   -1    0    0    0  501  0.00000000000E+00  0.00000000000E+00  0.99688000639E+03  0.99688000641E+03  0.50400001928E-02 0. -1.
        1   -1    0    0  501    0  0.00000000000E+00  0.00000000000E+00 -0.25072912713E+03  0.25072912718E+03  0.50400001928E-02 0.  1.
    10030    2    1    2    0    0  0.00000000000E+00  0.00000000000E+00  0.74615087926E+03  0.12476091336E+04  0.99989370214E+03 0.  0.
        1    1    3    3  502    0  0.21437845474E+03  0.42992231337E+03  0.20038357759E+03  0.52052367438E+03  0.50400001928E-02 0. -1.
       -1    1    3    3    0  502 -0.21437845474E+03 -0.42992231337E+03  0.54576730167E+03  0.72708545921E+03  0.50400001928E-02 0.  1.
</event>
<event>
 5   0  0.1191822E-02  0.9760314E+03  0.7818609E-02  0.9335231E-01
       -2   -1    0    0    0  501  0.00000000000E+00  0.00000000000E+00  0.58399419161E+03  0.58399419162E+03  0.25500000920E-02 0.  1.
        2   -1    0    0  501    0  0.00000000000E+00  0.00000000000E+00 -0.40781112238E+03  0.40781112239E+03  0.25500000920E-02 0. -1.
    10030    2    1    2    0    0  0.00000000000E+00  0.00000000000E+00  0.17618306923E+03  0.99180531401E+03  0.97603140677E+03 0.  0.
        4    1    3    3  502    0  0.34634039337E+03  0.30657511852E+03 -0.70043998345E+02  0.46781165652E+03  0.12699999809E+01 0. -1.
       -4    1    3    3    0  502 -0.34634039337E+03 -0.30657511852E+03  0.24622706757E+03  0.52399365748E+03  0.12699999809E+01 0.  1.
</event>
<event>
 5   0  0.1221315E-02  0.1005015E+04  0.7818609E-02  0.9303062E-01
        2   -1    0    0  501    0  0.00000000000E+00  0.00000000000E+00  0.69082658598E+03  0.69082658598E+03  0.25500000920E-02 0.  1.
       -2   -1    0    0    0  501  0.00000000000E+00  0.00000000000E+00 -0.36552380219E+03  0.36552380220E+03  0.25500000920E-02 0. -1.
    10030    2    1    2    0    0  0.00000000000E+00  0.00000000000E+00  0.32530278379E+03  0.10563503882E+04  0.10050145479E+04 0.  0.
        5    1    3    3  502    0  0.13371162450E+03 -0.31564714065E+03  0.54881348784E+03  0.64709369520E+03  0.46999998093E+01 0.  1.
       -5    1    3    3    0  502 -0.13371162450E+03  0.31564714065E+03 -0.22351070405E+03  0.40925669298E+03  0.46999998093E+01 0. -1.
</event>
<event>
 5   0  0.7461157E-03  0.9536530E+03  0.7818609E-02  0.9360891E-01
        1   -1    0    0  501    0  0.00000000000E+00  0.00000000000E+00  0.15587461149E+04  0.15587461149E+04  0.50400001928E-02 0.  1.
       -1   -1    0    0    0  501  0.00000000000E+00  0.00000000000E+00 -0.14586306993E+03  0.14586307002E+03  0.50400001928E-02 0. -1.
    10030    2    1    2    0    0  0.00000000000E+00  0.00000000000E+00  0.14128830449E+04  0.17046091849E+04  0.95365296338E+03 0.  0.
        2    1    3    3  502    0  0.13372003127E+03  0.45038500025E+03  0.56083492478E+03  0.73161705015E+03  0.25500000920E-02 0. -1.
       -2    1    3    3    0  502 -0.13372003127E+03 -0.45038500025E+03  0.85204812015E+03  0.97299213474E+03  0.25500000920E-02 0.  1.
</event>
<event>
 5   0  0.4782125E-03  0.1010243E+04  0.7818609E-02  0.9297381E-01
       -3   -1    0    0    0  501  0.00000000000E+00  0.00000000000E+00  0.22547926260E+03  0.22547928522E+03  0.10100000352E+00 0.  1.
        3   -1    0    0  501    0  0.00000000000E+00  0.00000000000E+00 -0.11315792749E+04  0.11315792794E+04  0.10100000352E+00 0. -1.
    10030    2    1    2    0    0  0.00000000000E+00  0.00000000000E+00 -0.90610001230E+03  0.13570585646E+04  0.10102428993E+04 0.  0.
        4    1    3    3  502    0 -0.22696117277E+03 -0.41457225571E+03 -0.69246097670E+03  0.83838257753E+03  0.12699999809E+01 0. -1.
       -4    1    3    3    0  502  0.22696117277E+03  0.41457225571E+03 -0.21363903560E+03  0.51867598709E+03  0.12699999809E+01 0.  1.
</event>
<event>
 5   0  0.7224879E-03  0.9797202E+03  0.7818609E-02  0.9331071E-01
       -1   -1    0    0    0  501  0.00000000000E+00  0.00000000000E+00  0.21379238649E+03  0.21379238655E+03  0.50400001928E-02 0.  1.
        1   -1    0    0  501    0  0.00000000000E+00  0.00000000000E+00 -0.11224110500E+04  0.11224110500E+04  0.50400001928E-02 0. -1.
    10030    2    1    2    0    0  0.00000000000E+00  0.00000000000E+00 -0.90861866353E+03  0.13362034366E+04  0.97972023977E+03 0.  0.
        3    1    3    3  502    0 -0.24925108678E+03  0.23800986007E+03 -0.92909821821E+03  0.99095827714E+03  0.10100000352E+00 0. -1.
       -3    1    3    3    0  502  0.24925108678E+03 -0.23800986007E+03  0.20479554682E+02  0.34524515944E+03  0.10100000352E+00 0.  1.
</event>
<event>
 5   0  0.1216322E-02  0.9087466E+03  0.7818609E-02  0.9414713E-01
        2   -1    0    0  501    0  0.00000000000E+00  0.00000000000E+00  0.52158715582E+03  0.52158715583E+03  0.25500000920E-02 0.  1.
       -2   -1    0    0    0  501  0.00000000000E+00  0.00000000000E+00 -0.39582087897E+03  0.39582087897E+03  0.25500000920E-02 0. -1.
    10030    2    1    2    0    0  0.00000000000E+00  0.00000000000E+00  0.12576627686E+03  0.91740803480E+03  0.90874657959E+03 0.  0.
        2    1    3    3  502    0 -0.31725646599E+03 -0.26898816466E+03  0.24751640213E+03  0.48401515190E+03  0.25500000920E-02 0. -1.
       -2    1    3    3    0  502  0.31725646599E+03  0.26898816466E+03 -0.12175012527E+03  0.43339288290E+03  0.25500000920E-02 0.  1.
</event>
<event>
 5   0  0.1191822E-02  0.9932903E+03  0.7818609E-02  0.9315935E-01
       -2   -1    0    0    0  501  0.00000000000E+00  0.00000000000E+00  0.26965877712E+03  0.26965877713E+03  0.25500000920E-02 0.  1.
        2   -1    0    0  501    0  0.00000000000E+00  0.00000000000E+00 -0.91469824398E+03  0.91469824398E+03  0.25500000920E-02 0. -1.
    10030    2    1    2    0    0  0.00000000000E+00  0.00000000000E+00 -0.64503946686E+03  0.11843570211E+04  0.99329030985E+03 0.  0.
        4    1    3    3  502    0 -0.67043830259E+02  0.36247414202E+03  0.74326496293E+02  0.37604310891E+03  0.12699999809E+01 0.  1.
       -4    1    3    3    0  502  0.67043830259E+02 -0.36247414202E+03 -0.71936596315E+03  0.80831391220E+03  0.12699999809E+01 0. -1.
</event>
<event>
 5   0  0.7073004E-03  0.1000068E+04  0.7818609E-02  0.9308471E-01
       -1   -1    0    0    0  501  0.00000000000E+00  0.00000000000E+00  0.39974663422E+03  0.39974663425E+03  0.50400001928E-02 0.  1.
        1   -1    0    0  501    0  0.00000000000E+00  0.00000000000E+00 -0.62548076841E+03  0.62548076843E+03  0.50400001928E-02 0. -1.
    10030    2    1    2    0    0  0.00000000000E+00  0.00000000000E+00 -0.22573413419E+03  0.10252274027E+04  0.10000676616E+04 0.  0.
        1    1    3    3  502    0 -0.28855704773E+03  0.19092842194E+03  0.25720646527E+03  0.43113106812E+03  0.50400001928E-02 0.  1.
       -1    1    3    3    0  502  0.28855704773E+03 -0.19092842194E+03 -0.48294059946E+03  0.59409633455E+03  0.50400001928E-02 0. -1.
</event>
<event>
 5   0  0.7073004E-03  0.9804206E+03  0.7818609E-02  0.9330284E-01
        1   -1    0    0  501    0  0.00000000000E+00  0.00000000000E+00  0.87637587940E+03  0.87637587942E+03  0.50400001928E-02 0.  1.
       -1   -1    0    0    0  501  0.00000000000E+00  0.00000000000E+00 -0.27420442095E+03  0.27420442100E+03  0.50400001928E-02 0. -1.
    10030    2    1    2    0    0  0.00000000000E+00  0.00000000000E+00  0.60217145845E+03  0.11505803004E+04  0.98042060481E+03 0.  0.
        1    1    3    3  502    0 -0.90615561031E+02 -0.29446093044E+03  0.74856030880E+03  0.80948190554E+03  0.50400001928E-02 0.  1.
       -1    1    3    3    0  502  0.90615561031E+02  0.29446093044E+03 -0.14638885034E+03  0.34109839488E+03  0.50400001928E-02 0. -1.
</event>
<event>
 5   0  0.1245850E-02  0.1013155E+04  0.7818609E-02  0.9294233E-01
        2   -1    0    0  501    0  0.00000000000E+00  0.00000000000E+00  0.14623707338E+04  0.14623707338E+04  0.25500000920E-02 0. -1.
       -2   -1    0    0    0  501  0.00000000000E+00  0.00000000000E+00 -0.17548277256E+03  0.17548277257E+03  0.25500000920E-02 0.  1.
    10030    2    1    2    0    0  0.00000000000E+00  0.00000000000E+00  0.12868879612E+04  0.16378535063E+04  0.10131552120E+04 0.  0.
        3    1    3    3  502    0  0.40350646867E+03  0.83443641059E+02  0.16705648599E+03  0.44462140210E+03  0.10100000352E+00 0.  1.
       -3    1    3    3    0  502 -0.40350646867E+03 -0.83443641059E+02  0.11198314752E+04  0.11932321042E+04  0.10100000352E+00 0. -1.
</event>
<event>
 5   0  0.7241200E-03  0.1006050E+04  0.7818609E-02  0.9301935E-01
       -1   -1    0    0    0  501  0.00000000000E+00  0.00000000000E+00  0.30352506015E+03  0.30352506019E+03  0.50400001928E-02 0. -1.
        1   -1    0    0  501    0  0.00000000000E+00  0.00000000000E+00 -0.83365079430E+03  0.83365079432E+03  0.50400001928E-02 0.  1.
    10030    2    1    2    0    0  0.00000000000E+00  0.00000000000E+00 -0.53012573415E+03  0.11371758545E+04  0.10060495167E+04 0.  0.
        4    1    3    3  502    0  0.12595993781E+03  0.25589213082E+03 -0.73341792642E+03  0.78692449208E+03  0.12699999809E+01 0.  1.
       -4    1    3    3    0  502 -0.12595993781E+03 -0.25589213082E+03  0.20329219226E+03  0.35025136243E+03  0.12699999809E+01 0. -1.
</event>
<event>
 5   0  0.7073004E-03  0.1052503E+04  0.7818609E-02  0.9252763E-01
        1   -1    0    0  501    0  0.00000000000E+00  0.00000000000E+00  0.11930536855E+04  0.11930536855E+04  0.50400001928E-02 0. -1.
       -1   -1    0    0    0  501  0.00000000000E+00  0.00000000000E+00 -0.23212769766E+03  0.23212769771E+03  0.50400001928E-02 0.  1.
    10030    2    1    2    0    0  0.00000000000E+00  0.00000000000E+00  0.96092598782E+03  0.14251813832E+04  0.10525033116E+04 0.  0.
        1    1    3    3  502    0  0.78435456909E+02  0.72893831969E+02 -0.21722078593E+03  0.24217865617E+03  0.50400001928E-02 0.  1.
       -1    1    3    3    0  502 -0.78435456909E+02 -0.72893831969E+02  0.11781467738E+04  0.11830027270E+04  0.50400001928E-02 0. -1.
</event>
<event>
 5   0  0.4782125E-03  0.9968834E+03  0.7818609E-02  0.9311970E-01
       -3   -1    0    0    0  501  0.00000000000E+00  0.00000000000E+00  0.95711158186E+03  0.95711158719E+03  0.10100000352E+00 0.  1.
        3   -1    0    0  501    0  0.00000000000E+00  0.00000000000E+00 -0.25957696704E+03  0.25957698669E+03  0.10100000352E+00 0. -1.
    10030    2    1    2    0    0  0.00000000000E+00  0.00000000000E+00  0.69753461481E+03  0.12166885739E+04  0.99688341693E+03 0.  0.
        1    1    3    3  502    0  0.99396627229E+02  0.91744026638E+02 -0.23674788827E+03  0.27266502994E+03  0.50400001928E-02 0. -1.
       -1    1    3    3    0  502 -0.99396627229E+02 -0.91744026638E+02  0.93428250308E+03  0.94402354394E+03  0.50400001928E-02 0.  1.
</event>
<event>
 5   0  0.7073004E-03  0.9611812E+03  0.7818609E-02  0.9352176E-01
        1   -1    0    0  501    0  0.00000000000E+00  0.00000000000E+00  0.10785121828E+04  0.10785121828E+04  0.50400001928E-02 0. -1.
       -1   -1    0    0    0  501  0.00000000000E+00  0.00000000000E+00 -0.21415366514E+03  0.21415366520E+03  0.50400001928E-02 0.  1.
    10030    2    1    2    0    0  0.00000000000E+00  0.00000000000E+00  0.86435851765E+03  0.12926658480E+04  0.96118122515E+03 0.  0.
        1    1    3    3  502    0 -0.28189628917E+03  0.15681115660E+03  0.91128621582E+03  0.96669427631E+03  0.50400001928E-02 0. -1.
       -1    1    3    3    0  502  0.28189628917E+03 -0.15681115660E+03 -0.46927698165E+02  0.32597157170E+03  0.50400001928E-02 0.  1.
</event>
<event>
 5   0  0.7224879E-03  0.1009846E+04  0.7818609E-02  0.9297811E-01
        1   -1    0    0  501    0  0.00000000000E+00  0.00000000000E+00  0.21287708442E+03  0.21287708448E+03  0.50400001928E-02 0.  1.
       -1   -1    0    0    0  501  0.00000000000E+00  0.00000000000E+00 -0.11976261644E+04  0.11976261644E+04  0.50400001928E-02 0. -1.
    10030    2    1    2    0    0  0.00000000000E+00  0.00000000000E+00 -0.98474907994E+03  0.14105032489E+04  0.10098458618E+04 0.  0.
        3    1    3    3  502    0  0.39417719178E+03  0.14786243778E+01 -0.93311381387E+03  0.10129556973E+04  0.10100000352E+00 0. -1.
       -3    1    3    3    0  502 -0.39417719178E+03 -0.14786243778E+01 -0.51635266065E+02  0.39754755156E+03  0.10100000352E+00 0.  1.
</event>
<event>
 5   0  0.1221315E-02  0.1004100E+04  0.7818609E-02  0.9304059E-01
        2   -1    0    0  501    0  0.00000000000E+00  0.00000000000E+00  0.48606506167E+03  0.48606506168E+03  0.25500000920E-02 0.  1.
       -2   -1    0    0    0  501  0.00000000000E+00  0.00000000000E+00 -0.51856072836E+03  0.51856072836E+03  0.25500000920E-02 0. -1.
    10030    2    1    2    0    0  0.00000000000E+00  0.00000000000E+00 -0.32495666684E+02  0.10046257900E+04  0.10041000994E+04 0.  0.
        5    1    3    3  502    0 -0.41463105493E+03 -0.23496397798E+03  0.14164853931E+03  0.49720557253E+03  0.46999998093E+01 0. -1.
       -5    1    3    3    0  502  0.41463105493E+03  0.23496397798E+03 -0.17414420599E+03  0.50742021751E+03  0.46999998093E+01 0.  1.
</event>
<event>
 5   0  0.7241200E-03  0.9784316E+03  0.7818609E-02  0.9332522E-01
        1   -1    0    0  501    0  0.00000000000E+00  0.00000000000E+00  0.29122959097E+03  0.29122959102E+03  0.50400001928E-02 0.  1.
       -1   -1    0    0    0  501  0.00000000000E+00  0.00000000000E+00 -0.82179863830E+03  0.82179863832E+03  0.50400001928E-02 0. -1.
    10030    2    1    2    0    0  0.00000000000E+00  0.00000000000E+00 -0.53056904733E+03  0.11130282293E+04  0.97843156394E+03 0.  0.
        4    1    3    3  502    0  0.25531036044E+03  0.22228783399E+03  0.13647876575E+03  0.36499770915E+03  0.12699999809E+01 0.  1.
       -4    1    3    3    0  502 -0.25531036044E+03 -0.22228783399E+03 -0.66704781308E+03  0.74803052018E+03  0.12699999809E+01 0. -1.
</event>
<event>
 5   0  0.7073004E-03  0.9854852E+03  0.7818609E-02  0.9324609E-01
       -1   -1    0    0    0  501  0.00000000000E+00  0.00000000000E+00  0.75271088138E+03  0.75271088139E+03  0.50400001928E-02 0. -1.
        1   -1    0    0  501    0  0.00000000000E+00  0.00000000000E+00 -0.32256113057E+03  0.32256113061E+03  0.50400001928E-02 0.  1.
    10030    2    1    2    0    0  0.00000000000E+00  0.00000000000E+00  0.43014975081E+03  0.10752720120E+04  0.98548520622E+03 0.  0.
        1    1    3    3  502    0 -0.13292781233E+03  0.44866182318E+03  0.38350213202E+03  0.60501332230E+03  0.50400001928E-02 0. -1.
       -1    1    3    3    0  502  0.13292781233E+03 -0.44866182318E+03  0.46647618786E+02  0.47025868970E+03  0.50400001928E-02 0.  1.
</event>
<event>
 5   0  0.7073004E-03  0.1048803E+04  0.7818609E-02  0.9256580E-01
        1   -1    0    0  501    0  0.00000000000E+00  0.00000000000E+00  0.10234261151E+04  0.10234261151E+04  0.50400001928E-02 0.  1.
       -1   -1    0    0    0  501  0.00000000000E+00  0.00000000000E+00 -0.26870248479E+03  0.26870248484E+03  0.50400001928E-02 0. -1.
    10030    2    1    2    0    0  0.00000000000E+00  0.00000000000E+00  0.75472363031E+03  0.12921286000E+04  0.10488033947E+04 0.  0.
        1    1    3    3  502    0  0.45864662607E+03  0.17798039425E+03  0.60104204540E+03  0.77671441902E+03  0.50400001928E-02 0.  1.
       -1    1    3    3    0  502 -0.45864662607E+03 -0.17798039425E+03  0.15368158492E+03  0.51541418094E+03  0.50400001928E-02 0. -1.
</event>
<event>
 5   0  0.1221315E-02  0.1019854E+04  0.7818609E-02  0.9287034E-01
       -2   -1    0    0    0  501  0.00000000000E+00  0.00000000000E+00  0.85967766724E+02  0.85967766762E+02  0.25500000920E-02 0.  1.
        2   -1    0    0  501    0  0.00000000000E+00  0.00000000000E+00 -0.30246845322E+04  0.30246845322E+04  0.25500000920E-02 0. -1.
    10030    2    1    2    0    0  0.00000000000E+00  0.00000000000E+00 -0.29387167655E+04  0.31106522990E+04  0.10198536647E+04 0.  0.
        5    1    3    3  502    0  0.10033059756E+03 -0.36376307783E+02  0.51456107354E+02  0.11857185820E+03  0.46999998093E+01 0.  1.
       -5    1    3    3    0  502 -0.10033059756E+03  0.36376307783E+02 -0.29901728729E+04  0.29920804408E+04  0.46999998093E+01 0. -1.
</event>
<event>
 5   0  0.1191822E-02  0.1019596E+04  0.7818609E-02  0.9287309E-01
       -2   -1    0    0    0  501  0.00000000000E+00  0.00000000000E+00  0.17126957276E+03  0.17126957278E+03  0.25500000920E-02 0. -1.
        2   -1    0    0  501    0  0.00000000000E+00  0.00000000000E+00 -0.15174561239E+04  0.15174561239E+04  0.25500000920E-02 0.  1.
    10030    2    1    2    0    0  0.00000000000E+00  0.00000000000E+00 -0.13461865511E+04  0.16887256967E+04  0.10195961201E+04 0.  0.
        4    1    3    3  502    0  0.26180464734E+03 -0.10219831717E+03 -0.13775555799E+04  0.14059328427E+04  0.12699999809E+01 0.  1.
       -4    1    3    3    0  502 -0.26180464734E+03  0.10219831717E+03  0.31369028813E+02  0.28279285399E+03  0.12699999809E+01 0. -1.
</event>
<event>
 5   0  0.6967681E-03  0.1014684E+04  0.7818609E-02  0.9292585E-01
        1   -1    0    0  501    0  0.00000000000E+00  0.00000000000E+00  0.14533307988E+04  0.14533307988E+04  0.50400001928E-02 0. -1.
       -1   -1    0    0    0  501  0.00000000000E+00  0.00000000000E+00 -0.17710758392E+03  0.17710758399E+03  0.50400001928E-02 0.  1.
    10030    2    1    2    0    0  0.00000000000E+00  0.00000000000E+00  0.12762232148E+04  0.16304383828E+04  0.10146840030E+04 0.  0.
        5    1    3    3  502    0  0.32435466700E+03 -0.25105278180E+03  0.15836624352E+03  0.43969922258E+03  0.46999998093E+01 0.  1.
       -5    1    3    3    0  502 -0.32435466700E+03  0.25105278180E+03  0.11178569713E+04  0.11907391602E+04  0.46999998093E+01 0. -1.
</event>
<event>
 5   0  0.1191822E-02  0.1009433E+04  0.7818609E-02  0.9298258E-01
       -2   -1    0    0    0  501  0.00000000000E+00  0.00000000000E+00  0.33869193872E+03  0.33869193873E+03  0.25500000920E-02 0.  1.
        2   -1    0    0  501    0  0.00000000000E+00  0.00000000000E+00 -0.75212593438E+03  0.75212593438E+03  0.25500000920E-02 0. -1.
    10030    2    1    2    0    0  0.00000000000E+00  0.00000000000E+00 -0.41343399566E+03  0.10908178731E+04  0.10094334864E+04 0.  0.
        4    1    3    3  502    0 -0.41325409141E+03  0.74927216794E+02 -0.50918425466E+03  0.66004791491E+03  0.12699999809E+01 0. -1.
       -4    1    3    3    0  502  0.41325409141E+03 -0.74927216794E+02  0.95750259004E+02  0.43076995819E+03  0.12699999809E+01 0.  1.
</event>
<event>
 5   0  0.7224879E-03  0.1014253E+04  0.7818609E-02  0.9293049E-01
        1   -1    0    0  501    0  0.00000000000E+00  0.00000000000E+00  0.94979456987E+03  0.94979456988E+03  0.50400001928E-02 0.  1.
       -1   -1    0    0    0  501  0.00000000000E+00  0.00000000000E+00 -0.27077144612E+03  0.27077144616E+03  0.50400001928E-02 0. -1.
    10030    2    1    2    0    0  0.00000000000E+00  0.00000000000E+00  0.67902312375E+03  0.12205660160E+04  0.10142529255E+04 0.  0.
        3    1    3    3  502    0  0.46843492296E+01  0.49946408279E+03  0.23397466544E+03  0.55157090876E+03  0.10100000352E+00 0.  1.
       -3    1    3    3    0  502 -0.46843492296E+01 -0.49946408279E+03  0.44504845831E+03  0.66899510728E+03  0.10100000352E+00 0. -1.
</event>
<event>
 5   0  0.1216322E-02  0.8882058E+03  0.7818609E-02  0.9440446E-01
        2   -1    0    0  501    0  0.00000000000E+00  0.00000000000E+00  0.84419690955E+03  0.84419690955E+03  0.25500000920E-02 0. -1.
       -2   -1    0    0    0  501  0.00000000000E+00  0.00000000000E+00 -0.23362720565E+03  0.23362720566E+03  0.25500000920E-02 0.  1.
    10030    2    1    2    0    0  0.00000000000E+00  0.00000000000E+00  0.61056970390E+03  0.10778241152E+04  0.88820575320E+03 0.  0.
        2    1    3    3  502    0 -0.21050513832E+03  0.10496654727E+03  0.76239502216E+03  0.79785748046E+03  0.25500000920E-02 0. -1.
       -2    1    3    3    0  502  0.21050513832E+03 -0.10496654727E+03 -0.15182531826E+03  0.27996663475E+03  0.25500000920E-02 0.  1.
</event>
<event>
 5   0  0.1240503E-02  0.9838599E+03  0.7818609E-02  0.9326426E-01
       -2   -1    0    0    0  501  0.00000000000E+00  0.00000000000E+00  0.33722357945E+03  0.33722357946E+03  0.25500000920E-02 0. -1.
        2   -1    0    0  501    0  0.00000000000E+00  0.00000000000E+00 -0.71761023208E+03  0.71761023209E+03  0.25500000920E-02 0.  1.
    10030    2    1    2    0    0  0.00000000000E+00  0.00000000000E+00 -0.38038665264E+03  0.10548338115E+04  0.98385993133E+03 0.  0.
        1    1    3    3  502    0  0.26474467459E+03  0.23396543102E+03 -0.55718033507E+03  0.65975714581E+03  0.50400001928E-02 0.  1.
       -1    1    3    3    0  502 -0.26474467459E+03 -0.23396543102E+03  0.17679368243E+03  0.39507666573E+03  0.50400001928E-02 0. -1.
</event>
<event>
 5   0  0.7241200E-03  0.9452355E+03  0.7818609E-02  0.9370737E-01
        1   -1    0    0  501    0  0.00000000000E+00  0.00000000000E+00  0.82236824160E+03  0.82236824162E+03  0.50400001928E-02 0.  1.
       -1   -1    0    0    0  501  0.00000000000E+00  0.00000000000E+00 -0.27161500765E+03  0.27161500770E+03  0.50400001928E-02 0. -1.
    10030    2    1    2    0    0  0.00000000000E+00  0.00000000000E+00  0.55075323395E+03  0.10939832493E+04  0.94523553946E+03 0.  0.
        4    1    3    3  502    0 -0.38808497161E+02  0.43102890475E+03  0.55556546703E+02  0.43632574868E+03  0.12699999809E+01 0.  1.
       -4    1    3    3    0  502  0.38808497161E+02 -0.43102890475E+03  0.49519668725E+03  0.65765750064E+03  0.12699999809E+01 0. -1.
</event>
<event>
 5   0  0.1240503E-02  0.9746467E+03  0.7818609E-02  0.9336797E-01
        2   -1    0    0  501    0  0.00000000000E+00  0.00000000000E+00  0.10790952914E+04  0.10790952914E+04  0.25500000920E-02 0.  1.
       -2   -1    0    0    0  501  0.00000000000E+00  0.00000000000E+00 -0.22007700617E+03  0.22007700619E+03  0.25500000920E-02 0. -1.
    10030    2    1    2    0    0  0.00000000000E+00  0.00000000000E+00  0.85901828522E+03  0.12991722976E+04  0.97464672803E+03 0.  0.
        1    1    3    3  502    0  0.39516910058E+03  0.36938343666E+02  0.80643734701E+03  0.89881269126E+03  0.50400001928E-02 0.  1.
       -1    1    3    3    0  502 -0.39516910058E+03 -0.36938343666E+02  0.52580938211E+02  0.40035960632E+03  0.50400001928E-02 0. -1.
</event>
<event>
 5   0  0.4782125E-03  0.1000257E+04  0.7818609E-02  0.9308263E-01
        4   -1    0    0  501    0  0.00000000000E+00  0.00000000000E+00  0.13094677010E+04  0.13094683169E+04  0.12699999809E+01 0.  1.
       -4   -1    0    0    0  501  0.00000000000E+00  0.00000000000E+00 -0.19101277784E+03  0.19101699977E+03  0.12699999809E+01 0. -1.
    10030    2    1    2    0    0  0.00000000000E+00  0.00000000000E+00  0.11184549232E+04  0.15004853166E+04  0.10002573520E+04 0.  0.
        3    1    3    3  502    0 -0.23437796800E+03 -0.19923081801E+03  0.11507741248E+04  0.11911788477E+04  0.10100000352E+00 0.  1.
       -3    1    3    3    0  502  0.23437796800E+03  0.19923081801E+03 -0.32319201632E+02  0.30930646893E+03  0.10100000352E+00 0. -1.
</event>
<event>
 5   0  0.1191822E-02  0.8907205E+03  0.7818609E-02  0.9437256E-01
        2   -1    0    0  501    0  0.00000000000E+00  0.00000000000E+00  0.13328063153E+04  0.13328063153E+04  0.25500000920E-02 0.  1.
       -2   -1    0    0    0  501  0.00000000000E+00  0.00000000000E+00 -0.14881812452E+03  0.14881812454E+03  0.25500000920E-02 0. -1.
    10030    2    1    2    0    0  0.00000000000E+00  0.00000000000E+00  0.11839881908E+04  0.14816244398E+04  0.89072046389E+03 0.  0.
        4    1    3    3  502    0 -0.10797078583E+03  0.35545799034E+03  0.18340653534E+03  0.41430380591E+03  0.12699999809E+01 0. -1.
       -4    1    3    3    0  502  0.10797078583E+03 -0.35545799034E+03  0.10005816554E+04  0.10673206339E+04  0.12699999809E+01 0.  1.
</event>
<event>
 5   0  0.1245850E-02  0.1344260E+04  0.7818609E-02  0.8995185E-01
       -2   -1    0    0    0  501  0.00000000000E+00  0.00000000000E+00  0.35479848257E+03  0.35479848258E+03  0.25500000920E-02 0.  1.
        2   -1    0    0  501    0  0.00000000000E+00  0.00000000000E+00 -0.12732820345E+04  0.12732820345E+04  0.25500000920E-02 0. -1.
    10030    2    1    2    0    0  0.00000000000E+00  0.00000000000E+00 -0.91848355190E+03  0.16280805170E+04  0.13442596977E+04 0.  0.
        3    1    3    3  502    0  0.24638254326E+03  0.61570971830E+03 -0.59166994156E+03  0.88874976499E+03  0.10100000352E+00 0. -1.
       -3    1    3    3    0  502 -0.24638254326E+03 -0.61570971830E+03 -0.32681361034E+03  0.73933075205E+03  0.10100000352E+00 0.  1.
</event>
<event>
 5   0  0.7461157E-03  0.9797397E+03  0.7818609E-02  0.9331049E-01
       -1   -1    0    0    0  501  0.00000000000E+00  0.00000000000E+00  0.11700390698E+04  0.11700390698E+04  0.50400001928E-02 0. -1.
        1   -1    0    0  501    0  0.00000000000E+00  0.00000000000E+00 -0.20509783520E+03  0.20509783526E+03  0.50400001928E-02 0.  1.
    10030    2    1    2    0    0  0.00000000000E+00  0.00000000000E+00  0.96494123460E+03  0.13751369051E+04  0.97973972127E+03 0.  0.
        2    1    3    3  502    0 -0.39949667414E+03  0.17541312009E+03  0.79507747133E+03  0.90692642523E+03  0.25500000920E-02 0. -1.
       -2    1    3    3    0  502  0.39949667414E+03 -0.17541312009E+03  0.16986376327E+03  0.46821047984E+03  0.25500000920E-02 0.  1.
</event>
<event>
 5   0  0.7241200E-03  0.8982665E+03  0.7818609E-02  0.9427751E-01
        1   -1    0    0  501    0  0.00000000000E+00  0.00000000000E+00  0.55740256819E+03  0.55740256821E+03  0.50400001928E-02 0.  1.
       -1   -1    0    0    0  501  0.00000000000E+00  0.00000000000E+00 -0.36189404679E+03  0.36189404683E+03  0.50400001928E-02 0. -1.
    10030    2    1    2    0    0  0.00000000000E+00  0.00000000000E+00  0.19550852140E+03  0.91929661504E+03  0.89826648857E+03 0.  0.
        4    1    3    3  502    0  0.26260770888E+03 -0.20828113066E+03  0.40371029649E+03  0.52471654686E+03  0.12699999809E+01 0.  1.
       -4    1    3    3    0  502 -0.26260770888E+03  0.20828113066E+03 -0.20820177510E+03  0.39458006818E+03  0.12699999809E+01 0. -1.
</event>
<event>
 5   0  0.7224879E-03  0.1005201E+04  0.7818609E-02  0.9302859E-01
       -1   -1    0    0    0  501  0.00000000000E+00  0.00000000000E+00  0.51282296089E+03  0.51282296091E+03  0.50400001928E-02 0.  1.
        1   -1    0    0  501    0  0.00000000000E+00  0.00000000000E+00 -0.49258154591E+03  0.49258154594E+03  0.50400001928E-02 0. -1.
    10030    2    1    2    0    0  0.00000000000E+00  0.00000000000E+00  0.20241414975E+02  0.10054045069E+04  0.10052007300E+04 0.  0.
        3    1    3    3  502    0 -0.12881191173E+03  0.18039468364E+03 -0.44104984944E+03  0.49361901339E+03  0.10100000352E+00 0. -1.
       -3    1    3    3    0  502  0.12881191173E+03 -0.18039468364E+03  0.46129126441E+03  0.51178549346E+03  0.10100000352E+00 0.  1.
</event>
<event>
 5   0  0.7224879E-03  0.1002709E+04  0.7818609E-02  0.9305578E-01
       -1   -1    0    0    0  501  0.00000000000E+00  0.00000000000E+00  0.58127778708E+03  0.58127778710E+03  0.50400001928E-02 0.  1.
        1   -1    0    0  501    0  0.00000000000E+00  0.00000000000E+00 -0.43242049980E+03  0.43242049983E+03  0.50400001928E-02 0. -1.
    10030    2    1    2    0    0  0.00000000000E+00  0.00000000000E+00  0.14885728728E+03  0.10136982869E+04  0.10027091926E+04 0.  0.
        3    1    3    3  502    0  0.13019698922E+03  0.46978450687E+03  0.19279157946E+03  0.52423023779E+03  0.10100000352E+00 0.  1.
       -3    1    3    3    0  502 -0.13019698922E+03 -0.46978450687E+03 -0.43934292180E+02  0.48946804914E+03  0.10100000352E+00 0. -1.
</event>
<event>
 5   0  0.1240503E-02  0.8722385E+03  0.7818609E-02  0.9460966E-01
       -2   -1    0    0    0  501  0.00000000000E+00  0.00000000000E+00  0.81017246609E+02  0.81017246649E+02  0.25500000920E-02 0.  1.
        2   -1    0    0  501    0  0.00000000000E+00  0.00000000000E+00 -0.23476484132E+04  0.23476484132E+04  0.25500000920E-02 0. -1.
    10030    2    1    2    0    0  0.00000000000E+00  0.00000000000E+00 -0.22666311666E+04  0.24286656598E+04  0.87223852355E+03 0.  0.
        1    1    3    3  502    0 -0.53527892951E+02  0.60286209614E+02 -0.23267194971E+04  0.23281158220E+04  0.50400001928E-02 0. -1.
       -1    1    3    3    0  502  0.53527892951E+02 -0.60286209614E+02  0.60088330544E+02  0.10054983782E+03  0.50400001928E-02 0.  1.
</event>
<event>
 5   0  0.1221315E-02  0.9698264E+03  0.7818609E-02  0.9342272E-01
        2   -1    0    0  501    0  0.00000000000E+00  0.00000000000E+00  0.14421967990E+04  0.14421967990E+04  0.25500000920E-02 0.  1.
       -2   -1    0    0    0  501  0.00000000000E+00  0.00000000000E+00 -0.16304348719E+03  0.16304348721E+03  0.25500000920E-02 0. -1.
    10030    2    1    2    0    0  0.00000000000E+00  0.00000000000E+00  0.12791533118E+04  0.16052402862E+04  0.96982636660E+03 0.  0.
        5    1    3    3  502    0  0.72400383033E+02 -0.35004963594E+02  0.14310442379E+04  0.14333097584E+04  0.46999998093E+01 0.  1.
       -5    1    3    3    0  502 -0.72400383033E+02  0.35004963594E+02 -0.15189092609E+03  0.17193052773E+03  0.46999998093E+01 0. -1.
</event>
<event>
 5   0  0.1216322E-02  0.1001987E+04  0.7818609E-02  0.9306368E-01
        2   -1    0    0  501    0  0.00000000000E+00  0.00000000000E+00  0.30008463523E+03  0.30008463524E+03  0.25500000920E-02 0.  1.
       -2   -1    0    0    0  501  0.00000000000E+00  0.00000000000E+00 -0.83641273203E+03  0.83641273203E+03  0.25500000920E-02 0. -1.
    10030    2    1    2    0    0  0.00000000000E+00  0.00000000000E+00 -0.53632809680E+03  0.11364973673E+04  0.10019872446E+04 0.  0.
        2    1    3    3  502    0 -0.41650924393E+03  0.12330962674E+03 -0.55129217100E+03  0.70186057885E+03  0.25500000920E-02 0. -1.
       -2    1    3    3    0  502  0.41650924393E+03 -0.12330962674E+03  0.14964074204E+02  0.43463678842E+03  0.25500000920E-02 0.  1.
</event>
<event>
 5   0  0.7073004E-03  0.9989126E+03  0.7818609E-02  0.9309738E-01
       -1   -1    0    0    0  501  0.00000000000E+00  0.00000000000E+00  0.39238931692E+03  0.39238931695E+03  0.50400001928E-02 0. -1.
        1   -1    0    0  501    0  0.00000000000E+00  0.00000000000E+00 -0.63573752696E+03  0.63573752698E+03  0.50400001928E-02 0.  1.
    10030    2    1    2    0    0  0.00000000000E+00  0.00000000000E+00 -0.24334821004E+03  0.10281268439E+04  0.99891263676E+03 0.  0.
        1    1    3    3  502    0 -0.47930756780E+03  0.12290286434E+03 -0.51747799822E+02  0.49751250580E+03  0.50400001928E-02 0. -1.
       -1    1    3    3    0  502  0.47930756780E+03 -0.12290286434E+03 -0.19160041022E+03  0.53061433813E+03  0.50400001928E-02 0.  1.
</event>
<event>
 5   0  0.1216322E-02  0.9823841E+03  0.7818609E-02  0.9328079E-01
        2   -1    0    0  501    0  0.00000000000E+00  0.00000000000E+00  0.53492355852E+03  0.53492355853E+03  0.25500000920E-02 0. -1.
       -2   -1    0    0    0  501  0.00000000000E+00  0.00000000000E+00 -0.45103571474E+03  0.45103571475E+03  0.25500000920E-02 0.  1.
    10030    2    1    2    0    0  0.00000000000E+00  0.00000000000E+00  0.83887843778E+02  0.98595927328E+03  0.98238409913E+03 0.  0.
        2    1    3    3  502    0 -0.10446307706E+03 -0.25873897143E+03 -0.36376878885E+03  0.45846059978E+03  0.25500000920E-02 0.  1.
       -2    1    3    3    0  502  0.10446307706E+03  0.25873897143E+03  0.44765663262E+03  0.52749867350E+03  0.25500000920E-02 0. -1.
</event>
<event>
 5   0  0.7073004E-03  0.1006712E+04  0.7818609E-02  0.9301214E-01
        1   -1    0    0  501    0  0.00000000000E+00  0.00000000000E+00  0.47579339709E+03  0.47579339712E+03  0.50400001928E-02 0.  1.
       -1   -1    0    0    0  501  0.00000000000E+00  0.00000000000E+00 -0.53251510134E+03  0.53251510137E+03  0.50400001928E-02 0. -1.
    10030    2    1    2    0    0  0.00000000000E+00  0.00000000000E+00 -0.56721704250E+02  0.10083084985E+04  0.10067118140E+04 0.  0.
        1    1    3    3  502    0  0.83286601690E+02  0.27977736074E+03 -0.43907847262E+03  0.52725888779E+03  0.50400001928E-02 0. -1.
       -1    1    3    3    0  502 -0.83286601690E+02 -0.27977736074E+03  0.38235676837E+03  0.48104961070E+03  0.50400001928E-02 0.  1.
</event>
<event>
 5   0  0.6967681E-03  0.1013500E+04  0.7818609E-02  0.9293861E-01
       -1   -1    0    0    0  501  0.00000000000E+00  0.00000000000E+00  0.49430587878E+03  0.49430587881E+03  0.50400001928E-02 0. -1.
        1   -1    0    0  501    0  0.00000000000E+00  0.00000000000E+00 -0.51950692815E+03  0.51950692818E+03  0.50400001928E-02 0.  1.
    10030    2    1    2    0    0  0.00000000000E+00  0.00000000000E+00 -0.25201049368E+02  0.10138128070E+04  0.10134995386E+04 0.  0.
        5    1    3    3  502    0  0.41155274451E+03 -0.21450952382E+03  0.19089106747E+03  0.50184807160E+03  0.46999998093E+01 0. -1.
       -5    1    3    3    0  502 -0.41155274451E+03  0.21450952382E+03 -0.21609211684E+03  0.51196473539E+03  0.46999998093E+01 0.  1.
</event>
<event>
 5   0  0.1191822E-02  0.9979620E+03  0.7818609E-02  0.9310783E-01
        2   -1    0    0  501    0  0.00000000000E+00  0.00000000000E+00  0.11643857272E+04  0.11643857272E+04  0.25500000920E-02 0.  1.
       -2   -1    0    0    0  501  0.00000000000E+00  0.00000000000E+00 -0.21383124311E+03  0.21383124312E+03  0.25500000920E-02 0. -1.
    10030    2    1    2    0    0  0.00000000000E+00  0.00000000000E+00  0.95055448414E+03  0.13782169704E+04  0.99796201837E+03 0.  0.
        4    1    3    3  502    0  0.12344483557E+03 -0.22464335653E+03 -0.11595453087E+03  0.28133668654E+03  0.12699999809E+01 0. -1.
       -4    1    3    3    0  502 -0.12344483557E+03  0.22464335653E+03  0.10665090150E+04  0.10968802838E+04  0.12699999809E+01 0.  1.
</event>
<event>
 5   0  0.7073004E-03  0.9884182E+03  0.7818609E-02  0.9321339E-01
       -1   -1    0    0    0  501  0.00000000000E+00  0.00000000000E+00  0.16525555808E+03  0.16525555816E+03  0.50400001928E-02 0.  1.
        1   -1    0    0  501    0  0.00000000000E+00  0.00000000000E+00 -0.14779693112E+04  0.14779693112E+04  0.50400001928E-02 0. -1.
    10030    2    1    2    0    0  0.00000000000E+00  0.00000000000E+00 -0.13127137531E+04  0.16432248694E+04  0.98841821801E+03 0.  0.
        1    1    3    3  502    0  0.24523875719E+03  0.12259137494E+03 -0.13399411120E+04  0.13677035048E+04  0.50400001928E-02 0. -1.
       -1    1    3    3    0  502 -0.24523875719E+03 -0.12259137494E+03  0.27227358930E+02  0.27552136458E+03  0.50400001928E-02 0.  1.
</event>
<event>
 5   0  0.6967681E-03  0.9872009E+03  0.7818609E-02  0.9322695E-01
       -1   -1    0    0    0  501  0.00000000000E+00  0.00000000000E+00  0.40692227571E+03  0.40692227574E+03  0.50400001928E-02 0. -1.
        1   -1    0    0  501    0  0.00000000000E+00  0.00000000000E+00 -0.59874186894E+03  0.59874186896E+03  0.50400001928E-02 0.  1.
    10030    2    1    2    0    0  0.00000000000E+00  0.00000000000E+00 -0.19181959322E+03  0.10056641447E+04  0.98720089931E+03 0.  0.
        5    1    3    3  502    0  0.34328999339E+03  0.10078852998E+03 -0.44228811270E+03  0.56890000173E+03  0.46999998093E+01 0.  1.
       -5    1    3    3    0  502 -0.34328999339E+03 -0.10078852998E+03  0.25046851948E+03  0.43676414297E+03  0.46999998093E+01 0. -1.
</event>
<event>
 5   0  0.7073004E-03  0.9766114E+03  0.7818609E-02  0.9334576E-01
        1   -1    0    0  501    0  0.00000000000E+00  0.00000000000E+00  0.34923181876E+03  0.34923181880E+03  0.50400001928E-02 0.  1.
       -1   -1    0    0    0  501  0.00000000000E+00  0.00000000000E+00 -0.68276275937E+03  0.68276275939E+03  0.50400001928E-02 0. -1.
    10030    2    1    2    0    0  0.00000000000E+00  0.00000000000E+00 -0.33353094061E+03  0.10319945782E+04  0.97661144836E+03 0.  0.
        1    1    3    3  502    0  0.23399511186E+02  0.43966007949E+03  0.56382845304E+02  0.44387785245E+03  0.50400001928E-02 0.  1.
       -1    1    3    3    0  502 -0.23399511186E+02 -0.43966007949E+03 -0.38991378591E+03  0.58811672574E+03  0.50400001928E-02 0. -1.
</event>
<event>
 5   0  0.7461157E-03  0.1029478E+04  0.7818609E-02  0.9276792E-01
        1   -1    0    0  501    0  0.00000000000E+00  0.00000000000E+00  0.42427077273E+03  0.42427077276E+03  0.50400001928E-02 0. -1.
       -1   -1    0    0    0  501  0.00000000000E+00  0.00000000000E+00 -0.62449833494E+03  0.62449833496E+03  0.50400001928E-02 0.  1.
    10030    2    1    2    0    0  0.00000000000E+00  0.00000000000E+00 -0.20022756222E+03  0.10487691077E+04  0.10294782973E+04 0.  0.
        2    1    3    3  502    0 -0.22550035655E+03  0.34999727876E+03  0.20822568746E+03  0.46551739266E+03  0.25500000920E-02 0. -1.
       -2    1    3    3    0  502  0.22550035655E+03 -0.34999727876E+03 -0.40845324968E+03  0.58325171506E+03  0.25500000920E-02 0.  1.
</event>
<event>
 5   0  0.7241200E-03  0.9841389E+03  0.7818609E-02  0.9326114E-01
        1   -1    0    0  501    0  0.00000000000E+00  0.00000000000E+00  0.47424371432E+03  0.47424371435E+03  0.50400001928E-02 0.  1.
       -1   -1    0    0    0  501  0.00000000000E+00  0.00000000000E+00 -0.51056518502E+03  0.51056518504E+03  0.50400001928E-02 0. -1.
    10030    2    1    2    0    0  0.00000000000E+00  0.00000000000E+00 -0.36321470697E+02  0.98480889939E+03  0.98413887184E+03 0.  0.
        4    1    3    3  502    0  0.31374519462E+02 -0.44817462416E+02 -0.50751079901E+03  0.51045253395E+03  0.12699999809E+01 0. -1.
       -4    1    3    3    0  502 -0.31374519462E+02  0.44817462416E+02  0.47118932831E+03  0.47435636543E+03  0.12699999809E+01 0.  1.
</event>
<event>
 5   0  0.6967681E-03  0.9735725E+03  0.7818609E-02  0.9338015E-01
       -1   -1    0    0    0  501  0.00000000000E+00  0.00000000000E+00  0.23075630518E+03  0.23075630523E+03  0.50400001928E-02 0. -1.
        1   -1    0    0  501    0  0.00000000000E+00  0.00000000000E+00 -0.10268879030E+04  0.10268879030E+04  0.50400001928E-02 0.  1.
    10030    2    1    2    0    0  0.00000000000E+00  0.00000000000E+00 -0.79613159782E+03  0.12576442082E+04  0.97357251064E+03 0.  0.
        5    1    3    3  502    0 -0.44504470761E+03 -0.10688470157E+03 -0.61208749251E+03  0.76430512211E+03  0.46999998093E+01 0.  1.
       -5    1    3    3    0  502  0.44504470761E+03  0.10688470157E+03 -0.18404410531E+03  0.49333908613E+03  0.46999998093E+01 0. -1.
</event>
<event>
 5   0  0.1240503E-02  0.1041213E+04  0.7818609E-02  0.9264463E-01
        2   -1    0    0  501    0  0.00000000000E+00  0.00000000000E+00  0.21685803618E+04  0.21685803618E+04  0.25500000920E-02 0. -1.
       -2   -1    0    0    0  501  0.00000000000E+00  0.00000000000E+00 -0.12498097139E+03  0.12498097142E+03  0.25500000920E-02 0.  1.
    10030    2    1    2    0    0  0.00000000000E+00  0.00000000000E+00  0.20435993904E+04  0.22935613332E+04  0.10412132926E+04 0.  0.
        1    1    3    3  502    0 -0.88869632717E+02  0.46575232143E+03  0.14953110361E+04  0.15686867537E+04  0.50400001928E-02 0. -1.
       -1    1    3    3    0  502  0.88869632717E+02 -0.46575232143E+03  0.54828835431E+03  0.72487457952E+03  0.50400001928E-02 0.  1.
</event>
<event>
 5   0  0.7461157E-03  0.1022327E+04  0.7818609E-02  0.9284390E-01
       -1   -1    0    0    0  501  0.00000000000E+00  0.00000000000E+00  0.24778595809E+03  0.24778595814E+03  0.50400001928E-02 0. -1.
        1   -1    0    0  501    0  0.00000000000E+00  0.00000000000E+00 -0.10544920384E+04  0.10544920384E+04  0.50400001928E-02 0.  1.
    10030    2    1    2    0    0  0.00000000000E+00  0.00000000000E+00 -0.80670608027E+03  0.13022779965E+04  0.10223273841E+04 0.  0.
        2    1    3    3  502    0  0.96163563103E+02  0.55315936483E+02  0.23226592062E+03  0.25739996423E+03  0.25500000920E-02 0. -1.
       -2    1    3    3    0  502 -0.96163563103E+02 -0.55315936483E+02 -0.10389720009E+04  0.10448780323E+04  0.25500000920E-02 0.  1.
</event>
<event>
 5   0  0.1245850E-02  0.1004511E+04  0.7818609E-02  0.9303611E-01
       -2   -1    0    0    0  501  0.00000000000E+00  0.00000000000E+00  0.21229201162E+03  0.21229201163E+03  0.25500000920E-02 0. -1.
        2   -1    0    0  501    0  0.00000000000E+00  0.00000000000E+00 -0.11882711997E+04  0.11882711997E+04  0.25500000920E-02 0.  1.
    10030    2    1    2    0    0  0.00000000000E+00  0.00000000000E+00 -0.97597918809E+03  0.14005632113E+04  0.10045107931E+04 0.  0.
        3    1    3    3  502    0 -0.14192109965E+03 -0.18979931592E+03  0.12943151232E+03  0.27003315617E+03  0.10100000352E+00 0. -1.
       -3    1    3    3    0  502  0.14192109965E+03  0.18979931592E+03 -0.11054107004E+04  0.11305300552E+04  0.10100000352E+00 0.  1.
</event>
<event>
 5   0  0.7241200E-03  0.9701294E+03  0.7818609E-02  0.9341927E-01
        1   -1    0    0  501    0  0.00000000000E+00  0.00000000000E+00  0.16949660750E+04  0.16949660750E+04  0.50400001928E-02 0.  1.
       -1   -1    0    0    0  501  0.00000000000E+00  0.00000000000E+00 -0.13881561376E+03  0.13881561385E+03  0.50400001928E-02 0. -1.
    10030    2    1    2    0    0  0.00000000000E+00  0.00000000000E+00  0.15561504613E+04  0.18337816889E+04  0.97012938538E+03 0.  0.
        4    1    3    3  502    0  0.18256963688E+03 -0.43746124915E+03  0.58362679922E+03  0.75188155350E+03  0.12699999809E+01 0. -1.
       -4    1    3    3    0  502 -0.18256963688E+03  0.43746124915E+03  0.97252366205E+03  0.10819001354E+04  0.12699999809E+01 0.  1.
</event>
<event>
 5   0  0.1240503E-02  0.9908101E+03  0.7818609E-02  0.9318682E-01
       -2   -1    0    0    0  501  0.00000000000E+00  0.00000000000E+00  0.12077790446E+03  0.12077790449E+03  0.25500000920E-02 0.  1.
        2   -1    0    0  501    0  0.00000000000E+00  0.00000000000E+00 -0.20320454164E+04  0.20320454164E+04  0.25500000920E-02 0. -1.
    10030    2    1    2    0    0  0.00000000000E+00  0.00000000000E+00 -0.19112675120E+04  0.21528233209E+04  0.99081014770E+03 0.  0.
        1    1    3    3  502    0 -0.21343093425E+03 -0.37881901883E+03 -0.14715038142E+04  0.15343989338E+04  0.50400001928E-02 0. -1.
       -1    1    3    3    0  502  0.21343093425E+03  0.37881901883E+03 -0.43976369779E+03  0.61842438717E+03  0.50400001928E-02 0.  1.
</event>
<event>
 5   0  0.7224879E-03  0.1148335E+04  0.7818609E-02  0.9159321E-01
       -1   -1    0    0    0  501  0.00000000000E+00  0.00000000000E+00  0.42412751485E+03  0.42412751488E+03  0.50400001928E-02 0.  1.
        1   -1    0    0  501    0  0.00000000000E+00  0.00000000000E+00 -0.77728555804E+03  0.77728555806E+03  0.50400001928E-02 0. -1.
    10030    2    1    2    0    0  0.00000000000E+00  0.00000000000E+00 -0.35315804319E+03  0.12014130729E+04  0.11483347806E+04 0.  0.
        3    1    3    3  502    0 -0.57034325024E+02 -0.57087946127E+03 -0.15290783955E+03  0.59374833989E+03  0.10100000352E+00 0.  1.
       -3    1    3    3    0  502  0.57034325024E+02  0.57087946127E+03 -0.20025020364E+03  0.60766473305E+03  0.10100000352E+00 0. -1.
</event>
<event>
 5   0  0.1191822E-02  0.1021249E+04  0.7818609E-02  0.9285542E-01
       -2   -1    0    0    0  501  0.00000000000E+00  0.00000000000E+00  0.76102318724E+03  0.76102318724E+03  0.25500000920E-02 0. -1.
        2   -1    0    0  501    0  0.00000000000E+00  0.00000000000E+00 -0.34261394708E+03  0.34261394709E+03  0.25500000920E-02 0.  1.
    10030    2    1    2    0    0  0.00000000000E+00  0.00000000000E+00  0.41840924016E+03  0.11036371343E+04  0.10212485652E+04 0.  0.
        4    1    3    3  502    0  0.23381815992E+03  0.68096742159E+01 -0.28130517400E+03  0.36585723635E+03  0.12699999809E+01 0.  1.
       -4    1    3    3    0  502 -0.23381815992E+03 -0.68096742159E+01  0.69971441416E+03  0.73777989798E+03  0.12699999809E+01 0. -1.
</event>
<event>
 5   0  0.4782125E-03  0.1004964E+04  0.7818609E-02  0.9303117E-01
       -3   -1    0    0    0  501  0.00000000000E+00  0.00000000000E+00  0.61884852946E+03  0.61884853770E+03  0.10100000352E+00 0.  1.
        3   -1    0    0  501    0  0.00000000000E+00  0.00000000000E+00 -0.40799657859E+03  0.40799659109E+03  0.10100000352E+00 0. -1.
    10030    2    1    2    0    0  0.00000000000E+00  0.00000000000E+00  0.21085195087E+03  0.10268451288E+04  0.10049638667E+04 0.  0.
        4    1    3    3  502    0  0.39388172558E+03  0.12510643354E+03  0.39746735369E+03  0.57339021931E+03  0.12699999809E+01 0.  1.
       -4    1    3    3    0  502 -0.39388172558E+03 -0.12510643354E+03 -0.18661540281E+03  0.45345490947E+03  0.12699999809E+01 0. -1.
</event>
<event>
 5   0  0.1191822E-02  0.9476473E+03  0.7818609E-02  0.9367905E-01
        2   -1    0    0  501    0  0.00000000000E+00  0.00000000000E+00  0.76584064785E+03  0.76584064785E+03  0.25500000920E-02 0. -1.
       -2   -1    0    0    0  501  0.00000000000E+00  0.00000000000E+00 -0.29315350471E+03  0.29315350472E+03  0.25500000920E-02 0.  1.
    10030    2    1    2    0    0  0.00000000000E+00  0.00000000000E+00  0.47268714313E+03  0.10589941526E+04  0.94764733942E+03 0.  0.
        4    1    3    3  502    0 -0.18470740264E+03 -0.17573692329E+03 -0.20996645337E+03  0.33028444596E+03  0.12699999809E+01 0.  1.
       -4    1    3    3    0  502  0.18470740264E+03  0.17573692329E+03  0.68265359651E+03  0.72870970662E+03  0.12699999809E+01 0. -1.
</event>
<event>
 5   0  0.1221315E-02  0.9955009E+03  0.7818609E-02  0.9313493E-01
        2   -1    0    0  501    0  0.00000000000E+00  0.00000000000E+00  0.10858242027E+04  0.10858242027E+04  0.25500000920E-02 0. -1.
       -2   -1    0    0    0  501  0.00000000000E+00  0.00000000000E+00 -0.22817275791E+03  0.22817275792E+03  0.25500000920E-02 0.  1.
    10030    2    1    2    0    0  0.00000000000E+00  0.00000000000E+00  0.85765144481E+03  0.13139969606E+04  0.99550088488E+03 0.  0.
        5    1    3    3  502    0  0.37035924100E+03  0.15748592541E+03  0.81537898969E+03  0.90930345370E+03  0.46999998093E+01 0. -1.
       -5    1    3    3    0  502 -0.37035924100E+03 -0.15748592541E+03  0.42272455122E+02  0.40469350694E+03  0.46999998093E+01 0.  1.
</event>
<event>
 5   0  0.1216322E-02  0.9840685E+03  0.7818609E-02  0.9326193E-01
        2   -1    0    0  501    0  0.00000000000E+00  0.00000000000E+00  0.54507329464E+03  0.54507329465E+03  0.25500000920E-02 0. -1.
       -2   -1    0    0    0  501  0.00000000000E+00  0.00000000000E+00 -0.44415619649E+03  0.44415619649E+03  0.25500000920E-02 0.  1.
    10030    2    1    2    0    0  0.00000000000E+00  0.00000000000E+00  0.10091709816E+03  0.98922949115E+03  0.98406845567E+03 0.  0.
        2    1    3    3  502    0 -0.39955381268E+03  0.43719620041E+02 -0.23483090506E+03  0.46551069631E+03  0.25500000920E-02 0. -1.
       -2    1    3    3    0  502  0.39955381268E+03 -0.43719620041E+02  0.33574800321E+03  0.52371879484E+03  0.25500000920E-02 0.  1.
</event>
<event>
 5   0  0.1245850E-02  0.9930922E+03  0.7818609E-02  0.9316154E-01
        2   -1    0    0  501    0  0.00000000000E+00  0.00000000000E+00  0.12560349906E+04  0.12560349906E+04  0.25500000920E-02 0. -1.
       -2   -1    0    0    0  501  0.00000000000E+00  0.00000000000E+00 -0.19629868293E+03  0.19629868294E+03  0.25500000920E-02 0.  1.
    10030    2    1    2    0    0  0.00000000000E+00  0.00000000000E+00  0.10597363077E+04  0.14523336735E+04  0.99309216970E+03 0.  0.
        3    1    3    3  502    0  0.46644256551E+03 -0.81447699285E+02  0.31120776948E+03  0.56661510801E+03  0.10100000352E+00 0. -1.
       -3    1    3    3    0  502 -0.46644256551E+03  0.81447699285E+02  0.74852853820E+03  0.88571856554E+03  0.10100000352E+00 0.  1.
</event>
<event>
 5   0  0.1245850E-02  0.9934111E+03  0.7818609E-02  0.9315801E-01
        2   -1    0    0  501    0  0.00000000000E+00  0.00000000000E+00  0.63148453290E+03  0.63148453291E+03  0.25500000920E-02 0.  1.
       -2   -1    0    0    0  501  0.00000000000E+00  0.00000000000E+00 -0.39069272557E+03  0.39069272558E+03  0.25500000920E-02 0. -1.
    10030    2    1    2    0    0  0.00000000000E+00  0.00000000000E+00  0.24079180733E+03  0.10221772585E+04  0.99341111998E+03 0.  0.
        3    1    3    3  502    0  0.17666632227E+03 -0.39750108370E+03  0.36712746547E+03  0.56921058236E+03  0.10100000352E+00 0.  1.
       -3    1    3    3    0  502 -0.17666632227E+03  0.39750108370E+03 -0.12633565814E+03  0.45296667613E+03  0.10100000352E+00 0. -1.
</event>
<event>
 5   0  0.1216322E-02  0.1013098E+04  0.7818609E-02  0.9294295E-01
        2   -1    0    0  501    0  0.00000000000E+00  0.00000000000E+00  0.13406843043E+04  0.13406843043E+04  0.25500000920E-02 0.  1.
       -2   -1    0    0    0  501  0.00000000000E+00  0.00000000000E+00 -0.19138864403E+03  0.19138864405E+03  0.25500000920E-02 0. -1.
    10030    2    1    2    0    0  0.00000000000E+00  0.00000000000E+00  0.11492956603E+04  0.15320729484E+04  0.10130977270E+04 0.  0.
        2    1    3    3  502    0  0.23848722460E+02 -0.25201262478E+03 -0.88877815115E+02  0.26828788761E+03  0.25500000920E-02 0. -1.
       -2    1    3    3    0  502 -0.23848722460E+02  0.25201262478E+03  0.12381734754E+04  0.12637850608E+04  0.25500000920E-02 0.  1.
</event>
<event>
 5   0  0.4782125E-03  0.1007868E+04  0.7818609E-02  0.9299957E-01
        3   -1    0    0  501    0  0.00000000000E+00  0.00000000000E+00  0.65736698057E+03  0.65736698833E+03  0.10100000352E+00 0. -1.
       -3   -1    0    0    0  501  0.00000000000E+00  0.00000000000E+00 -0.38631301803E+03  0.38631303123E+03  0.10100000352E+00 0.  1.
    10030    2    1    2    0    0  0.00000000000E+00  0.00000000000E+00  0.27105396255E+03  0.10436800196E+04  0.10078679143E+04 0.  0.
        2    1    3    3  502    0 -0.39002283415E+03  0.31713996513E+03  0.98858826694E+02  0.51231692951E+03  0.25500000920E-02 0. -1.
       -2    1    3    3    0  502  0.39002283415E+03 -0.31713996513E+03  0.17219513585E+03  0.53136309004E+03  0.25500000920E-02 0.  1.
</event>
<event>
 5   0  0.4782125E-03  0.1164248E+04  0.7818609E-02  0.9144738E-01
        4   -1    0    0  501    0  0.00000000000E+00  0.00000000000E+00  0.41727596967E+03  0.41727790232E+03  0.12699999809E+01 0. -1.
       -4   -1    0    0    0  501  0.00000000000E+00  0.00000000000E+00 -0.81209284337E+03  0.81209383642E+03  0.12699999809E+01 0.  1.
    10030    2    1    2    0    0  0.00000000000E+00  0.00000000000E+00 -0.39481687370E+03  0.12293717387E+04  0.11642484736E+04 0.  0.
        2    1    3    3  502    0  0.57995763200E+03  0.50166356213E+02 -0.19629651632E+03  0.61432877235E+03  0.25500000920E-02 0. -1.
       -2    1    3    3    0  502 -0.57995763200E+03 -0.50166356213E+02 -0.19852035738E+03  0.61504296640E+03  0.25500000920E-02 0.  1.
</event>
<event>
 5   0  0.1245850E-02  0.1079648E+04  0.7818609E-02  0.9225258E-01
       -2   -1    0    0    0  501  0.00000000000E+00  0.00000000000E+00  0.11429778723E+04  0.11429778723E+04  0.25500000920E-02 0.  1.
        2   -1    0    0  501    0  0.00000000000E+00  0.00000000000E+00 -0.25495676847E+03  0.25495676849E+03  0.25500000920E-02 0. -1.
    10030    2    1    2    0    0  0.00000000000E+00  0.00000000000E+00  0.88802110381E+03  0.13979346408E+04  0.10796479885E+04 0.  0.
        3    1    3    3  502    0 -0.27843954092E+03  0.44594432522E+03  0.60267059875E+03  0.79975419970E+03  0.10100000352E+00 0.  1.
       -3    1    3    3    0  502  0.27843954092E+03 -0.44594432522E+03  0.28535050507E+03  0.59818044108E+03  0.10100000352E+00 0. -1.
</event>
<event>
 5   0  0.7241200E-03  0.8112881E+03  0.7818609E-02  0.9543820E-01
        1   -1    0    0  501    0  0.00000000000E+00  0.00000000000E+00  0.39765521033E+03  0.39765521036E+03  0.50400001928E-02 0.  1.
       -1   -1    0    0    0  501  0.00000000000E+00  0.00000000000E+00 -0.41379333412E+03  0.41379333415E+03  0.50400001928E-02 0. -1.
    10030    2    1    2    0    0  0.00000000000E+00  0.00000000000E+00 -0.16138123784E+02  0.81144854451E+03  0.81128805079E+03 0.  0.
        4    1    3    3  502    0 -0.10205080294E+03 -0.24424857750E+03 -0.31549565610E+03  0.41183838567E+03  0.12699999809E+01 0. -1.
       -4    1    3    3    0  502  0.10205080294E+03  0.24424857750E+03  0.29935753232E+03  0.39961015884E+03  0.12699999809E+01 0.  1.
</event>
<event>
 5   0  0.1240503E-02  0.1024806E+04  0.7818609E-02  0.9281749E-01
        2   -1    0    0  501    0  0.00000000000E+00  0.00000000000E+00  0.10353862271E+04  0.10353862271E+04  0.25500000920E-02 0.  1.
       -2   -1    0    0    0  501  0.00000000000E+00  0.00000000000E+00 -0.25358342814E+03  0.25358342815E+03  0.25500000920E-02 0. -1.
    10030    2    1    2    0    0  0.00000000000E+00  0.00000000000E+00  0.78180279892E+03  0.12889696552E+04  0.10248059112E+04 0.  0.
        1    1    3    3  502    0  0.47391607530E+03 -0.15925186110E+03  0.53208112584E+03  0.73011500889E+03  0.50400001928E-02 0. -1.
       -1    1    3    3    0  502 -0.47391607530E+03  0.15925186110E+03  0.24972167307E+03  0.55885464633E+03  0.50400001928E-02 0.  1.
</event>
<event>
 5   0  0.1216322E-02  0.9738447E+03  0.7818609E-02  0.9337706E-01
        2   -1    0    0  501    0  0.00000000000E+00  0.00000000000E+00  0.81767558948E+03  0.81767558948E+03  0.25500000920E-02 0. -1.
       -2   -1    0    0    0  501  0.00000000000E+00  0.00000000000E+00 -0.28996016848E+03  0.28996016849E+03  0.25500000920E-02 0.  1.
    10030    2    1    2    0    0  0.00000000000E+00  0.00000000000E+00  0.52771542100E+03  0.11076357580E+04  0.97384465228E+03 0.  0.
        2    1    3    3  502    0 -0.28459166854E+03 -0.12209428495E+02 -0.18530383611E+03  0.33982201169E+03  0.25500000920E-02 0.  1.
       -2    1    3    3    0  502  0.28459166854E+03  0.12209428495E+02  0.71301925711E+03  0.76781374627E+03  0.25500000920E-02 0. -1.
</event>
<event>
 5   0  0.7461157E-03  0.9946583E+03  0.7818609E-02  0.9314423E-01
        1   -1    0    0  501    0  0.00000000000E+00  0.00000000000E+00  0.80678639500E+03  0.80678639502E+03  0.50400001928E-02 0.  1.
       -1   -1    0    0    0  501  0.00000000000E+00  0.00000000000E+00 -0.30656973148E+03  0.30656973153E+03  0.50400001928E-02 0. -1.
    10030    2    1    2    0    0  0.00000000000E+00  0.00000000000E+00  0.50021666352E+03  0.11133561265E+04  0.99465831020E+03 0.  0.
        2    1    3    3  502    0 -0.47249218330E+03  0.15313178970E+03  0.27838302005E+03  0.56938151898E+03  0.25500000920E-02 0. -1.
       -2    1    3    3    0  502  0.47249218330E+03 -0.15313178970E+03  0.22183364347E+03  0.54397460757E+03  0.25500000920E-02 0.  1.
</event>
<event>
 5   0  0.1221315E-02  0.9652538E+03  0.7818609E-02  0.9347497E-01
       -2   -1    0    0    0  501  0.00000000000E+00  0.00000000000E+00  0.16345000979E+03  0.16345000981E+03  0.25500000920E-02 0. -1.
        2   -1    0    0  501    0  0.00000000000E+00  0.00000000000E+00 -0.14250761776E+04  0.14250761776E+04  0.25500000920E-02 0.  1.
    10030    2    1    2    0    0  0.00000000000E+00  0.00000000000E+00 -0.12616261678E+04  0.15885261874E+04  0.96525378050E+03 0.  0.
        5    1    3    3  502    0  0.29416325107E+03 -0.38133501479E+03 -0.57987014577E+03  0.75380361351E+03  0.46999998093E+01 0.  1.
       -5    1    3    3    0  502 -0.29416325107E+03  0.38133501479E+03 -0.68175602203E+03  0.83472257388E+03  0.46999998093E+01 0. -1.
</event>
<event>
 5   0  0.7224879E-03  0.8590846E+03  0.7818609E-02  0.9478224E-01
       -1   -1    0    0    0  501  0.00000000000E+00  0.00000000000E+00  0.17657581906E+03  0.17657581914E+03  0.50400001928E-02 0.  1.
        1   -1    0    0  501    0  0.00000000000E+00  0.00000000000E+00 -0.10449142759E+04  0.10449142759E+04  0.50400001928E-02 0. -1.
    10030    2    1    2    0    0  0.00000000000E+00  0.00000000000E+00 -0.86833845682E+03  0.12214900950E+04  0.85908461555E+03 0.  0.
        3    1    3    3  502    0  0.19608350516E+03  0.32472131966E+03 -0.14762517786E+03  0.40704530433E+03  0.10100000352E+00 0.  1.
       -3    1    3    3    0  502 -0.19608350516E+03 -0.32472131966E+03 -0.72071327896E+03  0.81444479070E+03  0.10100000352E+00 0. -1.
</event>
<event>
 5   0  0.7224879E-03  0.9997310E+03  0.7818609E-02  0.9308840E-01
        1   -1    0    0  501    0  0.00000000000E+00  0.00000000000E+00  0.10121757124E+04  0.10121757124E+04  0.50400001928E-02 0. -1.
       -1   -1    0    0    0  501  0.00000000000E+00  0.00000000000E+00 -0.24685980526E+03  0.24685980531E+03  0.50400001928E-02 0.  1.
    10030    2    1    2    0    0  0.00000000000E+00  0.00000000000E+00  0.76531590710E+03  0.12590355177E+04  0.99973096237E+03 0.  0.
        3    1    3    3  502    0  0.44235916416E+03 -0.43028498526E+02  0.67075592173E+03  0.80464066424E+03  0.10100000352E+00 0. -1.
       -3    1    3    3    0  502 -0.44235916416E+03  0.43028498526E+02  0.94559985363E+02  0.45439485344E+03  0.10100000352E+00 0.  1.
</event>
<event>
 5   0  0.7241200E-03  0.9858708E+03  0.7818609E-02  0.9324179E-01
       -1   -1    0    0    0  501  0.00000000000E+00  0.00000000000E+00  0.27589916531E+03  0.27589916535E+03  0.50400001928E-02 0. -1.
        1   -1    0    0  501    0  0.00000000000E+00  0.00000000000E+00 -0.88070330509E+03  0.88070330511E+03  0.50400001928E-02 0.  1.
    10030    2    1    2    0    0  0.00000000000E+00  0.00000000000E+00 -0.60480413979E+03  0.11566024705E+04  0.98587079639E+03 0.  0.
        4    1    3    3  502    0 -0.19752754936E+03  0.14859306522E+03  0.19793714191E+03  0.31666663360E+03  0.12699999809E+01 0. -1.
       -4    1    3    3    0  502  0.19752754936E+03 -0.14859306522E+03 -0.80274128170E+03  0.83993583686E+03  0.12699999809E+01 0.  1.
</event>
<event>
 5   0  0.1191822E-02  0.1007303E+04  0.7818609E-02  0.9300571E-01
       -2   -1    0    0    0  501  0.00000000000E+00  0.00000000000E+00  0.10796481736E+03  0.10796481739E+03  0.25500000920E-02 0. -1.
        2   -1    0    0  501    0  0.00000000000E+00  0.00000000000E+00 -0.23495120567E+04  0.23495120567E+04  0.25500000920E-02 0.  1.
    10030    2    1    2    0    0  0.00000000000E+00  0.00000000000E+00 -0.22415472394E+04  0.24574768741E+04  0.10073026162E+04 0.  0.
        4    1    3    3  502    0 -0.28536284307E+03  0.14268742221E+03 -0.17002119953E+03  0.36152520500E+03  0.12699999809E+01 0. -1.
       -4    1    3    3    0  502  0.28536284307E+03 -0.14268742221E+03 -0.20715260398E+04  0.20959516691E+04  0.12699999809E+01 0.  1.
</event>
<event>
 5   0  0.1216322E-02  0.1030239E+04  0.7818609E-02  0.9275987E-01
       -2   -1    0    0    0  501  0.00000000000E+00  0.00000000000E+00  0.55086287470E+03  0.55086287470E+03  0.25500000920E-02 0.  1.
        2   -1    0    0  501    0  0.00000000000E+00  0.00000000000E+00 -0.48169515481E+03  0.48169515482E+03  0.25500000920E-02 0. -1.
    10030    2    1    2    0    0  0.00000000000E+00  0.00000000000E+00  0.69167719884E+02  0.10325580295E+04  0.10302387640E+04 0.  0.
        2    1    3    3  502    0 -0.27404987395E+03  0.42568376155E+03  0.12986616529E+03  0.52266166796E+03  0.25500000920E-02 0. -1.
       -2    1    3    3    0  502  0.27404987395E+03 -0.42568376155E+03 -0.60698445405E+02  0.50989636157E+03  0.25500000920E-02 0.  1.
</event>
<event>
 5   0  0.1191822E-02  0.1009892E+04  0.7818609E-02  0.9297761E-01
        2   -1    0    0  501    0  0.00000000000E+00  0.00000000000E+00  0.93756301415E+03  0.93756301415E+03  0.25500000920E-02 0.  1.
       -2   -1    0    0    0  501  0.00000000000E+00  0.00000000000E+00 -0.27195030478E+03  0.27195030479E+03  0.25500000920E-02 0. -1.
    10030    2    1    2    0    0  0.00000000000E+00  0.00000000000E+00  0.66561270937E+03  0.12095133189E+04  0.10098921674E+04 0.  0.
        4    1    3    3  502    0  0.31925846057E+02 -0.44979080902E+03  0.60496363105E+03  0.75452875314E+03  0.12699999809E+01 0. -1.
       -4    1    3    3    0  502 -0.31925846057E+02  0.44979080902E+03  0.60649078319E+02  0.45498456581E+03  0.12699999809E+01 0.  1.
</event>
<event>
 5   0  0.1240503E-02  0.9308136E+03  0.7818609E-02  0.9387862E-01
       -2   -1    0    0    0  501  0.00000000000E+00  0.00000000000E+00  0.26405998843E+03  0.26405998844E+03  0.25500000920E-02 0.  1.
        2   -1    0    0  501    0  0.00000000000E+00  0.00000000000E+00 -0.82028143155E+03  0.82028143156E+03  0.25500000920E-02 0. -1.
    10030    2    1    2    0    0  0.00000000000E+00  0.00000000000E+00 -0.55622144312E+03  0.10843414200E+04  0.93081363405E+03 0.  0.
        1    1    3    3  502    0  0.27990457235E+03 -0.30006196422E+02 -0.70985642107E+03  0.76363805563E+03  0.50400001928E-02 0. -1.
       -1    1    3    3    0  502 -0.27990457235E+03  0.30006196422E+02  0.15363497795E+03  0.32070336437E+03  0.50400001928E-02 0.  1.
</event>
<event>
 5   0  0.1245850E-02  0.1024736E+04  0.7818609E-02  0.9281823E-01
        2   -1    0    0  501    0  0.00000000000E+00  0.00000000000E+00  0.16100048125E+04  0.16100048125E+04  0.25500000920E-02 0. -1.
       -2   -1    0    0    0  501  0.00000000000E+00  0.00000000000E+00 -0.16305599751E+03  0.16305599753E+03  0.25500000920E-02 0.  1.
    10030    2    1    2    0    0  0.00000000000E+00  0.00000000000E+00  0.14469488150E+04  0.17730608101E+04  0.10247359479E+04 0.  0.
        3    1    3    3  502    0  0.19727444759E+03  0.44754058832E+03  0.98765046759E+03  0.11021176172E+04  0.10100000352E+00 0. -1.
       -3    1    3    3    0  502 -0.19727444759E+03 -0.44754058832E+03  0.45929834743E+03  0.67094319284E+03  0.10100000352E+00 0.  1.
</event>
<event>
 5   0  0.7073004E-03  0.1153151E+04  0.7818609E-02  0.9154881E-01
       -1   -1    0    0    0  501  0.00000000000E+00  0.00000000000E+00  0.30139493120E+03  0.30139493124E+03  0.50400001928E-02 0. -1.
        1   -1    0    0  501    0  0.00000000000E+00  0.00000000000E+00 -0.11030028108E+04  0.11030028108E+04  0.50400001928E-02 0.  1.
    10030    2    1    2    0    0  0.00000000000E+00  0.00000000000E+00 -0.80160787957E+03  0.14043977420E+04  0.11531512586E+04 0.  0.
        1    1    3    3  502    0  0.25738563410E+02 -0.15449412398E+03  0.27499066190E+03  0.31646606792E+03  0.50400001928E-02 0. -1.
       -1    1    3    3    0  502 -0.25738563410E+02  0.15449412398E+03 -0.10765985415E+04  0.10879316741E+04  0.50400001928E-02 0.  1.
</event>
<event>
 5   0  0.1216322E-02  0.1017600E+04  0.7818609E-02  0.9289449E-01
       -2   -1    0    0    0  501  0.00000000000E+00  0.00000000000E+00  0.80294586245E+03  0.80294586245E+03  0.25500000920E-02 0. -1.
        2   -1    0    0  501    0  0.00000000000E+00  0.00000000000E+00 -0.32240979150E+03  0.32240979151E+03  0.25500000920E-02 0.  1.
    10030    2    1    2    0    0  0.00000000000E+00  0.00000000000E+00  0.48053607095E+03  0.11253556540E+04  0.10176003304E+04 0.  0.
        2    1    3    3  502    0  0.30873738722E+03 -0.12445727068E+03 -0.18527643786E+03  0.38096685542E+03  0.25500000920E-02 0.  1.
       -2    1    3    3    0  502 -0.30873738722E+03  0.12445727068E+03  0.66581250881E+03  0.74438879854E+03  0.25500000920E-02 0. -1.
</event>
<event>
 5   0  0.7461157E-03  0.9925540E+03  0.7818609E-02  0.9316749E-01
        1   -1    0    0  501    0  0.00000000000E+00  0.00000000000E+00  0.10278927944E+04  0.10278927944E+04  0.50400001928E-02 0.  1.
       -1   -1    0    0    0  501  0.00000000000E+00  0.00000000000E+00 -0.23960753813E+03  0.23960753818E+03  0.50400001928E-02 0. -1.
    10030    2    1    2    0    0  0.00000000000E+00  0.00000000000E+00  0.78828525627E+03  0.12675003326E+04  0.99255400250E+03 0.  0.
        2    1    3    3  502    0 -0.40615954566E+02 -0.48888610538E+03  0.29831093762E+03  0.57415041175E+03  0.25500000920E-02 0. -1.
       -2    1    3    3    0  502  0.40615954566E+02  0.48888610538E+03  0.48997431864E+03  0.69334992084E+03  0.25500000920E-02 0.  1.
</event>
<event>
 5   0  0.1216322E-02  0.9700077E+03  0.7818609E-02  0.9342066E-01
        2   -1    0    0  501    0  0.00000000000E+00  0.00000000000E+00  0.15100993331E+04  0.15100993331E+04  0.25500000920E-02 0. -1.
       -2   -1    0    0    0  501  0.00000000000E+00  0.00000000000E+00 -0.15577035884E+03  0.15577035886E+03  0.25500000920E-02 0.  1.
    10030    2    1    2    0    0  0.00000000000E+00  0.00000000000E+00  0.13543289742E+04  0.16658696919E+04  0.97000765978E+03 0.  0.
        2    1    3    3  502    0  0.24683340678E+03 -0.31626997087E+03  0.11452099512E+04  0.12134493221E+04  0.25500000920E-02 0. -1.
       -2    1    3    3    0  502 -0.24683340678E+03  0.31626997087E+03  0.20911902308E+03  0.45242036979E+03  0.25500000920E-02 0.  1.
</event>
<event>
 5   0  0.1191822E-02  0.1014857E+04  0.7818609E-02  0.9292399E-01
       -2   -1    0    0    0  501  0.00000000000E+00  0.00000000000E+00  0.20491954897E+03  0.20491954898E+03  0.25500000920E-02 0. -1.
        2   -1    0    0  501    0  0.00000000000E+00  0.00000000000E+00 -0.12565099980E+04  0.12565099980E+04  0.25500000920E-02 0.  1.
    10030    2    1    2    0    0  0.00000000000E+00  0.00000000000E+00 -0.10515904490E+04  0.14614295470E+04  0.10148565654E+04 0.  0.
        4    1    3    3  502    0 -0.89080228808E+01  0.43057800233E+03 -0.13937950332E+03  0.45266436551E+03  0.12699999809E+01 0.  1.
       -4    1    3    3    0  502  0.89080228808E+01 -0.43057800233E+03 -0.91221094569E+03  0.10087651815E+04  0.12699999809E+01 0. -1.
</event>
<event>
 5   0  0.7073004E-03  0.1008050E+04  0.7818609E-02  0.9299760E-01
       -1   -1    0    0    0  501  0.00000000000E+00  0.00000000000E+00  0.24646449120E+03  0.24646449125E+03  0.50400001928E-02 0.  1.
        1   -1    0    0  501    0  0.00000000000E+00  0.00000000000E+00 -0.10307413169E+04  0.10307413169E+04  0.50400001928E-02 0. -1.
    10030    2    1    2    0    0  0.00000000000E+00  0.00000000000E+00 -0.78427682566E+03  0.12772058081E+04  0.10080498683E+04 0.  0.
        1    1    3    3  502    0  0.44332666053E+03  0.18565175551E+03 -0.58443992703E+03  0.75668694359E+03  0.50400001928E-02 0. -1.
       -1    1    3    3    0  502 -0.44332666053E+03 -0.18565175551E+03 -0.19983689863E+03  0.52051886454E+03  0.50400001928E-02 0.  1.
</event>
<event>
 5   0  0.7224879E-03  0.9850062E+03  0.7818609E-02  0.9325144E-01
       -1   -1    0    0    0  501  0.00000000000E+00  0.00000000000E+00  0.51328643579E+03  0.51328643582E+03  0.50400001928E-02 0. -1.
        1   -1    0    0  501    0  0.00000000000E+00  0.00000000000E+00 -0.47256131432E+03  0.47256131434E+03  0.50400001928E-02 0.  1.
    10030    2    1    2    0    0  0.00000000000E+00  0.00000000000E+00  0.40725121477E+02  0.98584775016E+03  0.98500621875E+03 0.  0.
        3    1    3    3  502    0 -0.65534105525E+02  0.27580730751E+03 -0.38271580716E+03  0.47627280954E+03  0.10100000352E+00 0.  1.
       -3    1    3    3    0  502  0.65534105525E+02 -0.27580730751E+03  0.42344092864E+03  0.50957494062E+03  0.10100000352E+00 0. -1.
</event>
<event>
 5   0  0.1245850E-02  0.9613961E+03  0.7818609E-02  0.9351929E-01
        2   -1    0    0  501    0  0.00000000000E+00  0.00000000000E+00  0.10777415822E+04  0.10777415822E+04  0.25500000920E-02 0. -1.
       -2   -1    0    0    0  501  0.00000000000E+00  0.00000000000E+00 -0.21440261913E+03  0.21440261915E+03  0.25500000920E-02 0.  1.
    10030    2    1    2    0    0  0.00000000000E+00  0.00000000000E+00  0.86333896305E+03  0.12921442013E+04  0.96139610562E+03 0.  0.
        3    1    3    3  502    0  0.32300607745E+03  0.12586328248E+03 -0.15906519801E+02  0.34702668416E+03  0.10100000352E+00 0.  1.
       -3    1    3    3    0  502 -0.32300607745E+03 -0.12586328248E+03  0.87924548285E+03  0.94511751717E+03  0.10100000352E+00 0. -1.
</event>
<event>
 5   0  0.6967681E-03  0.1001431E+04  0.7818609E-02  0.9306977E-01
        1   -1    0    0  501    0  0.00000000000E+00  0.00000000000E+00  0.16420550886E+04  0.16420550886E+04  0.50400001928E-02 0. -1.
       -1   -1    0    0    0  501  0.00000000000E+00  0.00000000000E+00 -0.15268429226E+03  0.15268429234E+03  0.50400001928E-02 0.  1.
    10030    2    1    2    0    0  0.00000000000E+00  0.00000000000E+00  0.14893707963E+04  0.17947393809E+04  0.10014310144E+04 0.  0.
        5    1    3    3  502    0  0.34295442110E+03 -0.18005988593E+03  0.13132728054E+04  0.13692139529E+04  0.46999998093E+01 0. -1.
       -5    1    3    3    0  502 -0.34295442110E+03  0.18005988593E+03  0.17609799091E+03  0.42552542800E+03  0.46999998093E+01 0.  1.
</event>
<event>
 5   0  0.7241200E-03  0.9256810E+03  0.7818609E-02  0.9394036E-01
        1   -1    0    0  501    0  0.00000000000E+00  0.00000000000E+00  0.10478542129E+04  0.10478542130E+04  0.50400001928E-02 0.  1.
       -1   -1    0    0    0  501  0.00000000000E+00  0.00000000000E+00 -0.20443811301E+03  0.20443811307E+03  0.50400001928E-02 0. -1.
    10030    2    1    2    0    0  0.00000000000E+00  0.00000000000E+00  0.84341609994E+03  0.12522923260E+04  0.92568102075E+03 0.  0.
        4    1    3    3  502    0 -0.17734305413E+03  0.28859354145E+03  0.84840412958E+03  0.91352502484E+03  0.12699999809E+01 0.  1.
       -4    1    3    3    0  502  0.17734305413E+03 -0.28859354145E+03 -0.49880296405E+01  0.33876730119E+03  0.12699999809E+01 0. -1.
</event>
<event>
 5   0  0.1191822E-02  0.1042383E+04  0.7818609E-02  0.9263243E-01
        2   -1    0    0  501    0  0.00000000000E+00  0.00000000000E+00  0.65547905811E+03  0.65547905811E+03  0.25500000920E-02 0.  1.
       -2   -1    0    0    0  501  0.00000000000E+00  0.00000000000E+00 -0.41441554854E+03  0.41441554855E+03  0.25500000920E-02 0. -1.
    10030    2    1    2    0    0  0.00000000000E+00  0.00000000000E+00  0.24106350957E+03  0.10698946067E+04  0.10423832566E+04 0.  0.
        4    1    3    3  502    0  0.20840120185E+03  0.18513636205E+03  0.57253228520E+03  0.63678988998E+03  0.12699999809E+01 0.  1.
       -4    1    3    3    0  502 -0.20840120185E+03 -0.18513636205E+03 -0.33146877564E+03  0.43310471668E+03  0.12699999809E+01 0. -1.
</event>
<event>
 5   0  0.1240503E-02  0.1003820E+04  0.7818609E-02  0.9304365E-01
        2   -1    0    0  501    0  0.00000000000E+00  0.00000000000E+00  0.54613671619E+03  0.54613671619E+03  0.25500000920E-02 0. -1.
       -2   -1    0    0    0  501  0.00000000000E+00  0.00000000000E+00 -0.46126472987E+03  0.46126472988E+03  0.25500000920E-02 0.  1.
    10030    2    1    2    0    0  0.00000000000E+00  0.00000000000E+00  0.84871986313E+02  0.10074014461E+04  0.10038199139E+04 0.  0.
        1    1    3    3  502    0 -0.25912122576E+03  0.34908756811E+03  0.29414487802E+03  0.52490680043E+03  0.50400001928E-02 0. -1.
       -1    1    3    3    0  502  0.25912122576E+03 -0.34908756811E+03 -0.20927289171E+03  0.48249464565E+03  0.50400001928E-02 0.  1.
</event>
<event>
 5   0  0.7461157E-03  0.9163439E+03  0.7818609E-02  0.9405378E-01
        1   -1    0    0  501    0  0.00000000000E+00  0.00000000000E+00  0.29821925792E+03  0.29821925796E+03  0.50400001928E-02 0.  1.
       -1   -1    0    0    0  501  0.00000000000E+00  0.00000000000E+00 -0.70391681503E+03  0.70391681505E+03  0.50400001928E-02 0. -1.
    10030    2    1    2    0    0  0.00000000000E+00  0.00000000000E+00 -0.40569755711E+03  0.10021360730E+04  0.91634393160E+03 0.  0.
        2    1    3    3  502    0 -0.33369618546E+03  0.12056766115E+03 -0.51987131549E+03  0.62940915928E+03  0.25500000920E-02 0. -1.
       -2    1    3    3    0  502  0.33369618546E+03 -0.12056766115E+03  0.11417375838E+03  0.37272691373E+03  0.25500000920E-02 0.  1.
</event>
<event>
 5   0  0.1216322E-02  0.9608933E+03  0.7818609E-02  0.9352508E-01
        2   -1    0    0  501    0  0.00000000000E+00  0.00000000000E+00  0.52363840984E+03  0.52363840985E+03  0.25500000920E-02 0.  1.
       -2   -1    0    0    0  501  0.00000000000E+00  0.00000000000E+00 -0.44081755383E+03  0.44081755384E+03  0.25500000920E-02 0. -1.
    10030    2    1    2    0    0  0.00000000000E+00  0.00000000000E+00  0.82820856009E+02  0.96445596369E+03  0.96089334044E+03 0.  0.
        2    1    3    3  502    0  0.38884677572E+03  0.95626689724E+01  0.32447687350E+03  0.50653578459E+03  0.25500000920E-02 0.  1.
       -2    1    3    3    0  502 -0.38884677572E+03 -0.95626689724E+01 -0.24165601749E+03  0.45792017910E+03  0.25500000920E-02 0. -1.
</event>
<event>
 5   0  0.4782125E-03  0.6748796E+03  0.7818609E-02  0.9761183E-01
       -3   -1    0    0    0  501  0.00000000000E+00  0.00000000000E+00  0.39543692761E+03  0.39543694050E+03  0.10100000352E+00 0. -1.
        3   -1    0    0  501    0  0.00000000000E+00  0.00000000000E+00 -0.28794881191E+03  0.28794882962E+03  0.10100000352E+00 0.  1.
    10030    2    1    2    0    0  0.00000000000E+00  0.00000000000E+00  0.10748811570E+03  0.68338577013E+03  0.67487955651E+03 0.  0.
        3    1    3    3  502    0  0.10357371880E+03  0.14703277904E+03 -0.23537069525E+03  0.29621871602E+03  0.10100000352E+00 0.  1.
       -3    1    3    3    0  502 -0.10357371880E+03 -0.14703277904E+03  0.34285881094E+03  0.38716705410E+03  0.10100000352E+00 0. -1.
</event>
<event>
 5   0  0.1240503E-02  0.9921567E+03  0.7818609E-02  0.9317189E-01
       -2   -1    0    0    0  501  0.00000000000E+00  0.00000000000E+00  0.15804920238E+03  0.15804920240E+03  0.25500000920E-02 0. -1.
        2   -1    0    0  501    0  0.00000000000E+00  0.00000000000E+00 -0.15570704310E+04  0.15570704310E+04  0.25500000920E-02 0.  1.
    10030    2    1    2    0    0  0.00000000000E+00  0.00000000000E+00 -0.13990212286E+04  0.17151196334E+04  0.99215672088E+03 0.  0.
        1    1    3    3  502    0  0.38473995032E+03  0.92733147522E+02 -0.12165832812E+04  0.12793354314E+04  0.50400001928E-02 0.  1.
       -1    1    3    3    0  502 -0.38473995032E+03 -0.92733147522E+02 -0.18243794747E+03  0.43578420201E+03  0.50400001928E-02 0. -1.
</event>
<event>
 5   0  0.1245850E-02  0.1045267E+04  0.7818609E-02  0.9260245E-01
        2   -1    0    0  501    0  0.00000000000E+00  0.00000000000E+00  0.41659932918E+03  0.41659932919E+03  0.25500000920E-02 0. -1.
       -2   -1    0    0    0  501  0.00000000000E+00  0.00000000000E+00 -0.65565527646E+03  0.65565527647E+03  0.25500000920E-02 0.  1.
    10030    2    1    2    0    0  0.00000000000E+00  0.00000000000E+00 -0.23905594728E+03  0.10722546057E+04  0.10452665657E+04 0.  0.
        3    1    3    3  502    0  0.48899097156E+03  0.18425195562E+03 -0.11009351761E+03  0.53402391916E+03  0.10100000352E+00 0. -1.
       -3    1    3    3    0  502 -0.48899097156E+03 -0.18425195562E+03 -0.12896242967E+03  0.53823068649E+03  0.10100000352E+00 0.  1.
</event>
<event>
 5   0  0.1216322E-02  0.1004897E+04  0.7818609E-02  0.9303190E-01
        2   -1    0    0  501    0  0.00000000000E+00  0.00000000000E+00  0.48851226535E+03  0.48851226535E+03  0.25500000920E-02 0. -1.
       -2   -1    0    0    0  501  0.00000000000E+00  0.00000000000E+00 -0.51678230600E+03  0.51678230601E+03  0.25500000920E-02 0.  1.
    10030    2    1    2    0    0  0.00000000000E+00  0.00000000000E+00 -0.28270040657E+02  0.10052945714E+04  0.10048969997E+04 0.  0.
        2    1    3    3  502    0 -0.32735704221E+03  0.62429977720E+01 -0.39540637207E+03  0.51336907502E+03  0.25500000920E-02 0.  1.
       -2    1    3    3    0  502  0.32735704221E+03 -0.62429977720E+01  0.36713633141E+03  0.49192549634E+03  0.25500000920E-02 0. -1.
</event>
<event>
 5   0  0.6967681E-03  0.1008897E+04  0.7818609E-02  0.9298840E-01
       -1   -1    0    0    0  501  0.00000000000E+00  0.00000000000E+00  0.16418245933E+03  0.16418245941E+03  0.50400001928E-02 0. -1.
        1   -1    0    0  501    0  0.00000000000E+00  0.00000000000E+00 -0.15499124819E+04  0.15499124819E+04  0.50400001928E-02 0.  1.
    10030    2    1    2    0    0  0.00000000000E+00  0.00000000000E+00 -0.13857300226E+04  0.17140949413E+04  0.10088973052E+04 0.  0.
        5    1    3    3  502    0  0.12759715320E+03  0.31372465745E+03 -0.57751085403E+02  0.34360074514E+03  0.46999998093E+01 0. -1.
       -5    1    3    3    0  502 -0.12759715320E+03 -0.31372465745E+03 -0.13279789372E+04  0.13704941962E+04  0.46999998093E+01 0.  1.
</event>
<event>
 5   0  0.1191822E-02  0.1027910E+04  0.7818609E-02  0.9278452E-01
       -2   -1    0    0    0  501  0.00000000000E+00  0.00000000000E+00  0.36132883036E+03  0.36132883037E+03  0.25500000920E-02 0.  1.
        2   -1    0    0  501    0  0.00000000000E+00  0.00000000000E+00 -0.73105137487E+03  0.73105137488E+03  0.25500000920E-02 0. -1.
    10030    2    1    2    0    0  0.00000000000E+00  0.00000000000E+00 -0.36972254451E+03  0.10923802052E+04  0.10279103817E+04 0.  0.
        4    1    3    3  502    0 -0.11547222989E+03  0.32663980851E+03  0.21858163966E+03  0.40964246176E+03  0.12699999809E+01 0.  1.
       -4    1    3    3    0  502  0.11547222989E+03 -0.32663980851E+03 -0.58830418417E+03  0.68273774349E+03  0.12699999809E+01 0. -1.
</event>
<event>
 5   0  0.7224879E-03  0.9829532E+03  0.7818609E-02  0.9327442E-01
       -1   -1    0    0    0  501  0.00000000000E+00  0.00000000000E+00  0.39012799909E+03  0.39012799912E+03  0.50400001928E-02 0.  1.
        1   -1    0    0  501    0  0.00000000000E+00  0.00000000000E+00 -0.61915383255E+03  0.61915383257E+03  0.50400001928E-02 0. -1.
    10030    2    1    2    0    0  0.00000000000E+00  0.00000000000E+00 -0.22902583346E+03  0.10092818317E+04  0.98295319491E+03 0.  0.
        3    1    3    3  502    0  0.12075168151E+03  0.37849306981E+03 -0.41159165074E+03  0.57205390449E+03  0.10100000352E+00 0. -1.
       -3    1    3    3    0  502 -0.12075168151E+03 -0.37849306981E+03  0.18256581728E+03  0.43722792720E+03  0.10100000352E+00 0.  1.
</event>
<event>
 5   0  0.7073004E-03  0.9852645E+03  0.7818609E-02  0.9324856E-01
       -1   -1    0    0    0  501  0.00000000000E+00  0.00000000000E+00  0.40506416014E+03  0.40506416017E+03  0.50400001928E-02 0.  1.
        1   -1    0    0  501    0  0.00000000000E+00  0.00000000000E+00 -0.59913109352E+03  0.59913109354E+03  0.50400001928E-02 0. -1.
    10030    2    1    2    0    0  0.00000000000E+00  0.00000000000E+00 -0.19406693338E+03  0.10041952537E+04  0.98526449898E+03 0.  0.
        1    1    3    3  502    0 -0.16158003683E+03  0.22426323152E+03 -0.51264837745E+03  0.58241777466E+03  0.50400001928E-02 0. -1.
       -1    1    3    3    0  502  0.16158003683E+03 -0.22426323152E+03  0.31858144407E+03  0.42177747906E+03  0.50400001928E-02 0.  1.
</event>
<event>
 5   0  0.1245850E-02  0.1000829E+04  0.7818609E-02  0.9307636E-01
       -2   -1    0    0    0  501  0.00000000000E+00  0.00000000000E+00  0.47928708573E+03  0.47928708574E+03  0.25500000920E-02 0. -1.
        2   -1    0    0  501    0  0.00000000000E+00  0.00000000000E+00 -0.52247318523E+03  0.52247318524E+03  0.25500000920E-02 0.  1.
    10030    2    1    2    0    0  0.00000000000E+00  0.00000000000E+00 -0.43186099499E+02  0.10017602710E+04  0.10008289571E+04 0.  0.
        3    1    3    3  502    0  0.21132732824E+03 -0.40422909573E+03 -0.22758601116E+03  0.50976053610E+03  0.10100000352E+00 0.  1.
       -3    1    3    3    0  502 -0.21132732824E+03  0.40422909573E+03  0.18439991166E+03  0.49199973487E+03  0.10100000352E+00 0. -1.
</event>
<event>
 5   0  0.6967681E-03  0.1011176E+04  0.7818609E-02  0.9296371E-01
        1   -1    0    0  501    0  0.00000000000E+00  0.00000000000E+00  0.34772125611E+03  0.34772125614E+03  0.50400001928E-02 0. -1.
       -1   -1    0    0    0  501  0.00000000000E+00  0.00000000000E+00 -0.73512753766E+03  0.73512753768E+03  0.50400001928E-02 0.  1.
    10030    2    1    2    0    0  0.00000000000E+00  0.00000000000E+00 -0.38740628156E+03  0.10828487938E+04  0.10111764847E+04 0.  0.
        5    1    3    3  502    0  0.17591953212E+03  0.44186511440E+03 -0.10070087740E+02  0.47572676798E+03  0.46999998093E+01 0. -1.
       -5    1    3    3    0  502 -0.17591953212E+03 -0.44186511440E+03 -0.37733619382E+03  0.60712202585E+03  0.46999998093E+01 0.  1.
</event>
<event>
 5   0  0.7224879E-03  0.9186424E+03  0.7818609E-02  0.9402573E-01
       -1   -1    0    0    0  501  0.00000000000E+00  0.00000000000E+00  0.78537807557E+03  0.78537807558E+03  0.50400001928E-02 0.  1.
        1   -1    0    0  501    0  0.00000000000E+00  0.00000000000E+00 -0.26862982518E+03  0.26862982522E+03  0.50400001928E-02 0. -1.
    10030    2    1    2    0    0  0.00000000000E+00  0.00000000000E+00  0.51674825039E+03  0.10540079008E+04  0.91864242264E+03 0.  0.
        3    1    3    3  502    0 -0.16978804546E+03  0.24327006188E+03 -0.14396551794E+03  0.32974897110E+03  0.10100000352E+00 0. -1.
       -3    1    3    3    0  502  0.16978804546E+03 -0.24327006188E+03  0.66071376833E+03  0.72425892970E+03  0.10100000352E+00 0.  1.
</event>
<event>
 5   0  0.7241200E-03  0.1026306E+04  0.7818609E-02  0.9280154E-01
        1   -1    0    0  501    0  0.00000000000E+00  0.00000000000E+00  0.61594931862E+03  0.61594931864E+03  0.50400001928E-02 0.  1.
       -1   -1    0    0    0  501  0.00000000000E+00  0.00000000000E+00 -0.42751262628E+03  0.42751262631E+03  0.50400001928E-02 0. -1.
    10030    2    1    2    0    0  0.00000000000E+00  0.00000000000E+00  0.18843669235E+03  0.10434619450E+04  0.10263062133E+04 0.  0.
        4    1    3    3  502    0  0.47624848924E+03  0.18084725433E+03  0.31493106996E+02  0.51040354779E+03  0.12699999809E+01 0. -1.
       -4    1    3    3    0  502 -0.47624848924E+03 -0.18084725433E+03  0.15694358535E+03  0.53305839717E+03  0.12699999809E+01 0.  1.
</event>
<event>
 5   0  0.6967681E-03  0.9940562E+03  0.7818609E-02  0.9315088E-01
       -1   -1    0    0    0  501  0.00000000000E+00  0.00000000000E+00  0.22248482522E+03  0.22248482528E+03  0.50400001928E-02 0.  1.
        1   -1    0    0  501    0  0.00000000000E+00  0.00000000000E+00 -0.11103540113E+04  0.11103540113E+04  0.50400001928E-02 0. -1.
    10030    2    1    2    0    0  0.00000000000E+00  0.00000000000E+00 -0.88786918609E+03  0.13328388366E+04  0.99405617182E+03 0.  0.
        5    1    3    3  502    0 -0.19616274183E+03  0.40167107600E+03 -0.73521839524E+03  0.86045781610E+03  0.46999998093E+01 0. -1.
       -5    1    3    3    0  502  0.19616274183E+03 -0.40167107600E+03 -0.15265079084E+03  0.47238102050E+03  0.46999998093E+01 0.  1.
</event>
<event>
 5   0  0.7241200E-03  0.9877038E+03  0.7818609E-02  0.9322135E-01
       -1   -1    0    0    0  501  0.00000000000E+00  0.00000000000E+00  0.36477176459E+03  0.36477176463E+03  0.50400001928E-02 0.  1.
        1   -1    0    0  501    0  0.00000000000E+00  0.00000000000E+00 -0.66860899450E+03  0.66860899452E+03  0.50400001928E-02 0. -1.
    10030    2    1    2    0    0  0.00000000000E+00  0.00000000000E+00 -0.30383722991E+03  0.10333807591E+04  0.98770376687E+03 0.  0.
        4    1    3    3  502    0 -0.47025720806E+03  0.66284544172E+02 -0.10181916993E+02  0.47501659640E+03  0.12699999809E+01 0.  1.
       -4    1    3    3    0  502  0.47025720806E+03 -0.66284544172E+02 -0.29365531291E+03  0.55836416274E+03  0.12699999809E+01 0. -1.
</event>
<event>
 5   0  0.1245850E-02  0.8720523E+03  0.7818609E-02  0.9461208E-01
        2   -1    0    0  501    0  0.00000000000E+00  0.00000000000E+00  0.91463567619E+03  0.91463567620E+03  0.25500000920E-02 0. -1.
       -2   -1    0    0    0  501  0.00000000000E+00  0.00000000000E+00 -0.20786285963E+03  0.20786285965E+03  0.25500000920E-02 0.  1.
    10030    2    1    2    0    0  0.00000000000E+00  0.00000000000E+00  0.70677281656E+03  0.11224985358E+04  0.87205226262E+03 0.  0.
        3    1    3    3  502    0  0.99325479906E+02 -0.24544942220E+03  0.79929723798E+03  0.84201369031E+03  0.10100000352E+00 0. -1.
       -3    1    3    3    0  502 -0.99325479906E+02  0.24544942220E+03 -0.92524421422E+02  0.28048484554E+03  0.10100000352E+00 0.  1.
</event>
<event>
 5   0  0.7241200E-03  0.1001188E+04  0.7818609E-02  0.9307242E-01
       -1   -1    0    0    0  501  0.00000000000E+00  0.00000000000E+00  0.64290377787E+03  0.64290377789E+03  0.50400001928E-02 0.  1.
        1   -1    0    0  501    0  0.00000000000E+00  0.00000000000E+00 -0.38978546326E+03  0.38978546329E+03  0.50400001928E-02 0. -1.
    10030    2    1    2    0    0  0.00000000000E+00  0.00000000000E+00  0.25311831461E+03  0.10326892412E+04  0.10011883877E+04 0.  0.
        4    1    3    3  502    0  0.54973801168E+02  0.50468956624E+02 -0.38401390188E+03  0.39120010753E+03  0.12699999809E+01 0. -1.
       -4    1    3    3    0  502 -0.54973801168E+02 -0.50468956624E+02  0.63713221649E+03  0.64148913365E+03  0.12699999809E+01 0.  1.
</event>
<event>
 5   0  0.1245850E-02  0.9167590E+03  0.7818609E-02  0.9404871E-01
       -2   -1    0    0    0  501  0.00000000000E+00  0.00000000000E+00  0.26851384440E+03  0.26851384441E+03  0.25500000920E-02 0. -1.
        2   -1    0    0  501    0  0.00000000000E+00  0.00000000000E+00 -0.78249888775E+03  0.78249888775E+03  0.25500000920E-02 0.  1.
    10030    2    1    2    0    0  0.00000000000E+00  0.00000000000E+00 -0.51398504335E+03  0.10510127322E+04  0.91675904053E+03 0.  0.
        3    1    3    3  502    0 -0.82044153689E+02  0.35607313415E+03  0.60289722769E+02  0.37034332840E+03  0.10100000352E+00 0. -1.
       -3    1    3    3    0  502  0.82044153689E+02 -0.35607313415E+03 -0.57427476612E+03  0.68066940376E+03  0.10100000352E+00 0.  1.
</event>
<event>
 5   0  0.1191822E-02  0.9570915E+03  0.7818609E-02  0.9356900E-01
       -2   -1    0    0    0  501  0.00000000000E+00  0.00000000000E+00  0.20016088198E+03  0.20016088200E+03  0.25500000920E-02 0.  1.
        2   -1    0    0  501    0  0.00000000000E+00  0.00000000000E+00 -0.11441097733E+04  0.11441097733E+04  0.25500000920E-02 0. -1.
    10030    2    1    2    0    0  0.00000000000E+00  0.00000000000E+00 -0.94394889136E+03  0.13442706553E+04  0.95709147176E+03 0.  0.
        4    1    3    3  502    0 -0.32526832744E+03 -0.28956255419E+03 -0.75062009708E+03  0.86780072636E+03  0.12699999809E+01 0. -1.
       -4    1    3    3    0  502  0.32526832744E+03  0.28956255419E+03 -0.19332879428E+03  0.47646992898E+03  0.12699999809E+01 0.  1.
</event>
<event>
 5   0  0.7241200E-03  0.9664861E+03  0.7818609E-02  0.9346086E-01
       -1   -1    0    0    0  501  0.00000000000E+00  0.00000000000E+00  0.45943496929E+03  0.45943496932E+03  0.50400001928E-02 0. -1.
        1   -1    0    0  501    0  0.00000000000E+00  0.00000000000E+00 -0.50828490185E+03  0.50828490188E+03  0.50400001928E-02 0.  1.
    10030    2    1    2    0    0  0.00000000000E+00  0.00000000000E+00 -0.48849932563E+02  0.96771987119E+03  0.96648612674E+03 0.  0.
        4    1    3    3  502    0 -0.38987550680E+03  0.28392341872E+03 -0.54576973671E+02  0.48538199128E+03  0.12699999809E+01 0.  1.
       -4    1    3    3    0  502  0.38987550680E+03 -0.28392341872E+03  0.57270411077E+01  0.48233787991E+03  0.12699999809E+01 0. -1.
</event>
<event>
 5   0  0.7073004E-03  0.9900297E+03  0.7818609E-02  0.9319548E-01
       -1   -1    0    0    0  501  0.00000000000E+00  0.00000000000E+00  0.39761346358E+03  0.39761346361E+03  0.50400001928E-02 0.  1.
        1   -1    0    0  501    0  0.00000000000E+00  0.00000000000E+00 -0.61627619697E+03  0.61627619699E+03  0.50400001928E-02 0. -1.
    10030    2    1    2    0    0  0.00000000000E+00  0.00000000000E+00 -0.21866273339E+03  0.10138896606E+04  0.99002972324E+03 0.  0.
        1    1    3    3  502    0  0.67001351353E+02 -0.10323788757E+03 -0.60035775779E+03  0.61284311196E+03  0.50400001928E-02 0. -1.
       -1    1    3    3    0  502 -0.67001351353E+02  0.10323788757E+03  0.38169502439E+03  0.40104654865E+03  0.50400001928E-02 0.  1.
</event>
<event>
 5   0  0.1216322E-02  0.9866361E+03  0.7818609E-02  0.9323325E-01
        2   -1    0    0  501    0  0.00000000000E+00  0.00000000000E+00  0.82872545956E+03  0.82872545956E+03  0.25500000920E-02 0.  1.
       -2   -1    0    0    0  501  0.00000000000E+00  0.00000000000E+00 -0.29365901041E+03  0.29365901042E+03  0.25500000920E-02 0. -1.
    10030    2    1    2    0    0  0.00000000000E+00  0.00000000000E+00  0.53506644915E+03  0.11223844700E+04  0.98663609981E+03 0.  0.
        2    1    3    3  502    0 -0.79420763176E+02 -0.14458047219E+03 -0.26135488328E+03  0.30905912959E+03  0.25500000920E-02 0. -1.
       -2    1    3    3    0  502  0.79420763176E+02  0.14458047219E+03  0.79642133243E+03  0.81332534039E+03  0.25500000920E-02 0.  1.
</event>
<event>
 5   0  0.1245850E-02  0.9980768E+03  0.7818609E-02  0.9310657E-01
        2   -1    0    0  501    0  0.00000000000E+00  0.00000000000E+00  0.74629311331E+03  0.74629311332E+03  0.25500000920E-02 0.  1.
       -2   -1    0    0    0  501  0.00000000000E+00  0.00000000000E+00 -0.33370173055E+03  0.33370173056E+03  0.25500000920E-02 0. -1.
    10030    2    1    2    0    0  0.00000000000E+00  0.00000000000E+00  0.41259138276E+03  0.10799948439E+04  0.99807675741E+03 0.  0.
        3    1    3    3  502    0  0.14220316179E+03 -0.22684165607E+03  0.66200310157E+03  0.71409172579E+03  0.10100000352E+00 0.  1.
       -3    1    3    3    0  502 -0.14220316179E+03  0.22684165607E+03 -0.24941171881E+03  0.36590311809E+03  0.10100000352E+00 0. -1.
</event>
<event>
 5   0  0.7241200E-03  0.9992485E+03  0.7818609E-02  0.9309369E-01
       -1   -1    0    0    0  501  0.00000000000E+00  0.00000000000E+00  0.16457436479E+04  0.16457436479E+04  0.50400001928E-02 0.  1.
        1   -1    0    0  501    0  0.00000000000E+00  0.00000000000E+00 -0.15167878760E+03  0.15167878768E+03  0.50400001928E-02 0. -1.
    10030    2    1    2    0    0  0.00000000000E+00  0.00000000000E+00  0.14940648603E+04  0.17974224356E+04  0.99924852023E+03 0.  0.
        4    1    3    3  502    0 -0.13241487157E+03 -0.46170624807E+03  0.99443046247E+03  0.11043549770E+04  0.12699999809E+01 0.  1.
       -4    1    3    3    0  502  0.13241487157E+03  0.46170624807E+03  0.49963439787E+03  0.69306745859E+03  0.12699999809E+01 0. -1.
</event>
<event>
 5   0  0.7461157E-03  0.8714786E+03  0.7818609E-02  0.9461954E-01
        1   -1    0    0  501    0  0.00000000000E+00  0.00000000000E+00  0.19986550584E+03  0.19986550590E+03  0.50400001928E-02 0. -1.
       -1   -1    0    0    0  501  0.00000000000E+00  0.00000000000E+00 -0.94998251907E+03  0.94998251909E+03  0.50400001928E-02 0.  1.
    10030    2    1    2    0    0  0.00000000000E+00  0.00000000000E+00 -0.75011701323E+03  0.11498480250E+04  0.87147859815E+03 0.  0.
        2    1    3    3  502    0  0.91214997541E+02  0.33192279697E+03 -0.22558389043E+02  0.34496637495E+03  0.25500000920E-02 0. -1.
       -2    1    3    3    0  502 -0.91214997541E+02 -0.33192279697E+03 -0.72755862419E+03  0.80488165004E+03  0.25500000920E-02 0.  1.
</event>
<event>
 5   0  0.7073004E-03  0.1004088E+04  0.7818609E-02  0.9304073E-01
        1   -1    0    0  501    0  0.00000000000E+00  0.00000000000E+00  0.96460338379E+03  0.96460338380E+03  0.50400001928E-02 0.  1.
       -1   -1    0    0    0  501  0.00000000000E+00  0.00000000000E+00 -0.26129712843E+03  0.26129712848E+03  0.50400001928E-02 0. -1.
    10030    2    1    2    0    0  0.00000000000E+00  0.00000000000E+00  0.70330625535E+03  0.12259005123E+04  0.10040878334E+04 0.  0.
        1    1    3    3  502    0  0.23421001427E+03  0.43686538060E+03  0.44888539862E+03  0.66873297561E+03  0.50400001928E-02 0.  1.
       -1    1    3    3    0  502 -0.23421001427E+03 -0.43686538060E+03  0.25442085673E+03  0.55716753667E+03  0.50400001928E-02 0. -1.
</event>
<event>
 5   0  0.1216322E-02  0.9885451E+03  0.7818609E-02  0.9321198E-01
       -2   -1    0    0    0  501  0.00000000000E+00  0.00000000000E+00  0.38806844448E+03  0.38806844449E+03  0.25500000920E-02 0. -1.
        2   -1    0    0  501    0  0.00000000000E+00  0.00000000000E+00 -0.62954189817E+03  0.62954189818E+03  0.25500000920E-02 0.  1.
    10030    2    1    2    0    0  0.00000000000E+00  0.00000000000E+00 -0.24147345369E+03  0.10176103427E+04  0.98854508277E+03 0.  0.
        2    1    3    3  502    0  0.30374544620E+03 -0.31724080727E+02 -0.52079901621E+03  0.60373779795E+03  0.25500000920E-02 0.  1.
       -2    1    3    3    0  502 -0.30374544620E+03  0.31724080727E+02  0.27932556252E+03  0.41387254471E+03  0.25500000920E-02 0. -1.
</event>
<event>
 5   0  0.6967681E-03  0.1005554E+04  0.7818609E-02  0.9302474E-01
        1   -1    0    0  501    0  0.00000000000E+00  0.00000000000E+00  0.12661189129E+04  0.12661189129E+04  0.50400001928E-02 0. -1.
       -1   -1    0    0    0  501  0.00000000000E+00  0.00000000000E+00 -0.19965310008E+03  0.19965310014E+03  0.50400001928E-02 0.  1.
    10030    2    1    2    0    0  0.00000000000E+00  0.00000000000E+00  0.10664658128E+04  0.14657720131E+04  0.10055537103E+04 0.  0.
        5    1    3    3  502    0 -0.43640129584E+03  0.78692196781E+02  0.87856358602E+03  0.98414156376E+03  0.46999998093E+01 0. -1.
       -5    1    3    3    0  502  0.43640129584E+03 -0.78692196781E+02  0.18790222680E+03  0.48163044929E+03  0.46999998093E+01 0.  1.
</event>
<event>
 5   0  0.7224879E-03  0.9748976E+03  0.7818609E-02  0.9336513E-01
        1   -1    0    0  501    0  0.00000000000E+00  0.00000000000E+00  0.57340564992E+03  0.57340564994E+03  0.50400001928E-02 0.  1.
       -1   -1    0    0    0  501  0.00000000000E+00  0.00000000000E+00 -0.41437735174E+03  0.41437735177E+03  0.50400001928E-02 0. -1.
    10030    2    1    2    0    0  0.00000000000E+00  0.00000000000E+00  0.15902829818E+03  0.98778300171E+03  0.97489756326E+03 0.  0.
        3    1    3    3  502    0 -0.38883885356E+03  0.13156415755E+03 -0.18683196986E+03  0.45101106057E+03  0.10100000352E+00 0.  1.
       -3    1    3    3    0  502  0.38883885356E+03 -0.13156415755E+03  0.34586026804E+03  0.53677194115E+03  0.10100000352E+00 0. -1.
</event>
<event>
 5   0  0.1245850E-02  0.9970584E+03  0.7818609E-02  0.9311777E-01
       -2   -1    0    0    0  501  0.00000000000E+00  0.00000000000E+00  0.20111435949E+03  0.20111435951E+03  0.25500000920E-02 0.  1.
        2   -1    0    0  501    0  0.00000000000E+00  0.00000000000E+00 -0.12357714424E+04  0.12357714424E+04  0.25500000920E-02 0. -1.
    10030    2    1    2    0    0  0.00000000000E+00  0.00000000000E+00 -0.10346570829E+04  0.14368858019E+04  0.99705843785E+03 0.  0.
        3    1    3    3  502    0 -0.27055909186E+03  0.39342400226E+03 -0.31075593733E+03  0.56969634941E+03  0.10100000352E+00 0.  1.
       -3    1    3    3    0  502  0.27055909186E+03 -0.39342400226E+03 -0.72390114555E+03  0.86718945247E+03  0.10100000352E+00 0. -1.
</event>
<event>
 5   0  0.1245850E-02  0.9895642E+03  0.7818609E-02  0.9320065E-01
       -2   -1    0    0    0  501  0.00000000000E+00  0.00000000000E+00  0.23501613185E+03  0.23501613187E+03  0.25500000920E-02 0. -1.
        2   -1    0    0  501    0  0.00000000000E+00  0.00000000000E+00 -0.10416702531E+04  0.10416702531E+04  0.25500000920E-02 0.  1.
    10030    2    1    2    0    0  0.00000000000E+00  0.00000000000E+00 -0.80665412121E+03  0.12766863849E+04  0.98956417387E+03 0.  0.
        3    1    3    3  502    0 -0.50445558373E+02  0.17825258338E+03  0.18858417072E+03  0.26435343290E+03  0.10100000352E+00 0. -1.
       -3    1    3    3    0  502  0.50445558373E+02 -0.17825258338E+03 -0.99523829193E+03  0.10123329520E+04  0.10100000352E+00 0.  1.
</event>
<event>
 5   0  0.7073004E-03  0.9867634E+03  0.7818609E-02  0.9323183E-01
       -1   -1    0    0    0  501  0.00000000000E+00  0.00000000000E+00  0.23336263910E+03  0.23336263916E+03  0.50400001928E-02 0. -1.
        1   -1    0    0  501    0  0.00000000000E+00  0.00000000000E+00 -0.10431210808E+04  0.10431210808E+04  0.50400001928E-02 0.  1.
    10030    2    1    2    0    0  0.00000000000E+00  0.00000000000E+00 -0.80975844170E+03  0.12764837200E+04  0.98676337257E+03 0.  0.
        1    1    3    3  502    0 -0.39923744094E+03  0.12002886572E+03 -0.63533628463E+02  0.42170366945E+03  0.50400001928E-02 0.  1.
       -1    1    3    3    0  502  0.39923744094E+03 -0.12002886572E+03 -0.74622481324E+03  0.85478005053E+03  0.50400001928E-02 0. -1.
</event>
<event>
 5   0  0.1240503E-02  0.9935392E+03  0.7818609E-02  0.9315659E-01
        2   -1    0    0  501    0  0.00000000000E+00  0.00000000000E+00  0.79158858030E+03  0.79158858031E+03  0.25500000920E-02 0.  1.
       -2   -1    0    0    0  501  0.00000000000E+00  0.00000000000E+00 -0.31175288328E+03  0.31175288329E+03  0.25500000920E-02 0. -1.
    10030    2    1    2    0    0  0.00000000000E+00  0.00000000000E+00  0.47983569702E+03  0.11033414636E+04  0.99353917344E+03 0.  0.
        1    1    3    3  502    0  0.43905226433E+03 -0.67655796915E+02  0.48683191690E+03  0.65905198051E+03  0.50400001928E-02 0. -1.
       -1    1    3    3    0  502 -0.43905226433E+03  0.67655796915E+02 -0.69962198783E+01  0.44428948310E+03  0.50400001928E-02 0.  1.
</event>
<event>
 5   0  0.7461157E-03  0.9771338E+03  0.7818609E-02  0.9333986E-01
       -1   -1    0    0    0  501  0.00000000000E+00  0.00000000000E+00  0.30953972889E+03  0.30953972893E+03  0.50400001928E-02 0. -1.
        1   -1    0    0  501    0  0.00000000000E+00  0.00000000000E+00 -0.77113722797E+03  0.77113722799E+03  0.50400001928E-02 0.  1.
    10030    2    1    2    0    0  0.00000000000E+00  0.00000000000E+00 -0.46159749908E+03  0.10806769569E+04  0.97713378514E+03 0.  0.
        2    1    3    3  502    0 -0.49256082987E+02  0.14768646993E+03  0.28137246674E+03  0.32157101884E+03  0.25500000920E-02 0. -1.
       -2    1    3    3    0  502  0.49256082987E+02 -0.14768646993E+03 -0.74296996582E+03  0.75910593808E+03  0.25500000920E-02 0.  1.
</event>
<event>
 5   0  0.7073004E-03  0.9852154E+03  0.7818609E-02  0.9324911E-01
       -1   -1    0    0    0  501  0.00000000000E+00  0.00000000000E+00  0.53303449967E+03  0.53303449969E+03  0.50400001928E-02 0. -1.
        1   -1    0    0  501    0  0.00000000000E+00  0.00000000000E+00 -0.45524694095E+03  0.45524694098E+03  0.50400001928E-02 0.  1.
    10030    2    1    2    0    0  0.00000000000E+00  0.00000000000E+00  0.77787558717E+02  0.98828144067E+03  0.98521535802E+03 0.  0.
        1    1    3    3  502    0 -0.45323037864E+03  0.41031922790E+02 -0.15026914750E+03  0.47925172043E+03  0.50400001928E-02 0. -1.
       -1    1    3    3    0  502  0.45323037864E+03 -0.41031922790E+02  0.22805670622E+03  0.50902972024E+03  0.50400001928E-02 0.  1.
</event>
<event>
 5   0  0.4782125E-03  0.1014861E+04  0.7818609E-02  0.9292394E-01
       -4   -1    0    0    0  501  0.00000000000E+00  0.00000000000E+00  0.44544419550E+03  0.44544600594E+03  0.12699999809E+01 0. -1.
        4   -1    0    0  501    0  0.00000000000E+00  0.00000000000E+00 -0.57803871820E+03  0.57804011335E+03  0.12699999809E+01 0.  1.
    10030    2    1    2    0    0  0.00000000000E+00  0.00000000000E+00 -0.13259452270E+03  0.10234861193E+04  0.10148608421E+04 0.  0.
        4    1    3    3  502    0  0.19750382015E+03  0.22651264639E+03  0.34603982713E+03  0.45832402600E+03  0.12699999809E+01 0. -1.
       -4    1    3    3    0  502 -0.19750382015E+03 -0.22651264639E+03 -0.47863434983E+03  0.56516209329E+03  0.12699999809E+01 0.  1.
</event>
<event>
 5   0  0.1240503E-02  0.9548941E+03  0.7818609E-02  0.9359448E-01
        2   -1    0    0  501    0  0.00000000000E+00  0.00000000000E+00  0.78309667503E+03  0.78309667504E+03  0.25500000920E-02 0.  1.
       -2   -1    0    0    0  501  0.00000000000E+00  0.00000000000E+00 -0.29109517691E+03  0.29109517692E+03  0.25500000920E-02 0. -1.
    10030    2    1    2    0    0  0.00000000000E+00  0.00000000000E+00  0.49200149812E+03  0.10741918520E+04  0.95489405730E+03 0.  0.
        1    1    3    3  502    0 -0.83913041584E+01  0.18473164315E+03 -0.24917359333E+03  0.31029610633E+03  0.50400001928E-02 0. -1.
       -1    1    3    3    0  502  0.83913041584E+01 -0.18473164315E+03  0.74117509145E+03  0.76389574562E+03  0.50400001928E-02 0.  1.
</event>
<event>
 5   0  0.7461157E-03  0.9500587E+03  0.7818609E-02  0.9365082E-01
       -1   -1    0    0    0  501  0.00000000000E+00  0.00000000000E+00  0.84071265709E+02  0.84071265860E+02  0.50400001928E-02 0.  1.
        1   -1    0    0  501    0  0.00000000000E+00  0.00000000000E+00 -0.26840664432E+04  0.26840664432E+04  0.50400001928E-02 0. -1.
    10030    2    1    2    0    0  0.00000000000E+00  0.00000000000E+00 -0.25999951775E+04  0.27681377091E+04  0.95005865786E+03 0.  0.
        2    1    3    3  502    0 -0.33545329014E+03  0.26788130882E+03 -0.18925765320E+04  0.19406533011E+04  0.25500000920E-02 0. -1.
       -2    1    3    3    0  502  0.33545329014E+03 -0.26788130882E+03 -0.70741864550E+03  0.82748440800E+03  0.25500000920E-02 0.  1.
</event>
<event>
 5   0  0.7461157E-03  0.1012672E+04  0.7818609E-02  0.9294755E-01
       -1   -1    0    0    0  501  0.00000000000E+00  0.00000000000E+00  0.26053905731E+03  0.26053905736E+03  0.50400001928E-02 0. -1.
        1   -1    0    0  501    0  0.00000000000E+00  0.00000000000E+00 -0.98402192210E+03  0.98402192211E+03  0.50400001928E-02 0.  1.
    10030    2    1    2    0    0  0.00000000000E+00  0.00000000000E+00 -0.72348286478E+03  0.12445609795E+04  0.10126719982E+04 0.  0.
        2    1    3    3  502    0  0.23661704344E+02  0.39812382170E+02 -0.98141338361E+03  0.98250553768E+03  0.25500000920E-02 0.  1.
       -2    1    3    3    0  502 -0.23661704344E+02 -0.39812382170E+02  0.25793051883E+03  0.26205544180E+03  0.25500000920E-02 0. -1.
</event>
<event>
 5   0  0.1216322E-02  0.9886014E+03  0.7818609E-02  0.9321136E-01
        2   -1    0    0  501    0  0.00000000000E+00  0.00000000000E+00  0.12845867189E+04  0.12845867190E+04  0.25500000920E-02 0.  1.
       -2   -1    0    0    0  501  0.00000000000E+00  0.00000000000E+00 -0.19020372496E+03  0.19020372497E+03  0.25500000920E-02 0. -1.
    10030    2    1    2    0    0  0.00000000000E+00  0.00000000000E+00  0.10943829940E+04  0.14747904439E+04  0.98860139386E+03 0.  0.
        2    1    3    3  502    0  0.41384598111E+03  0.15302093235E+03  0.21478801731E+03  0.49073189646E+03  0.25500000920E-02 0. -1.
       -2    1    3    3    0  502 -0.41384598111E+03 -0.15302093235E+03  0.87959497669E+03  0.98405854746E+03  0.25500000920E-02 0.  1.
</event>
<event>
 5   0  0.4782125E-03  0.1000683E+04  0.7818609E-02  0.9307795E-01
        3   -1    0    0  501    0  0.00000000000E+00  0.00000000000E+00  0.28562180480E+03  0.28562182266E+03  0.10100000352E+00 0. -1.
       -3   -1    0    0    0  501  0.00000000000E+00  0.00000000000E+00 -0.87648014394E+03  0.87648014976E+03  0.10100000352E+00 0.  1.
    10030    2    1    2    0    0  0.00000000000E+00  0.00000000000E+00 -0.59085833914E+03  0.11621019724E+04  0.10006834751E+04 0.  0.
        4    1    3    3  502    0  0.38864484902E+03 -0.22677265825E+03 -0.54951318138E+03  0.71023728895E+03  0.12699999809E+01 0.  1.
       -4    1    3    3    0  502 -0.38864484902E+03  0.22677265825E+03 -0.41345157763E+02  0.45186468347E+03  0.12699999809E+01 0. -1.
</event>
<event>
 5   0  0.7224879E-03  0.1004941E+04  0.7818609E-02  0.9303142E-01
        1   -1    0    0  501    0  0.00000000000E+00  0.00000000000E+00  0.48881013620E+03  0.48881013622E+03  0.50400001928E-02 0.  1.
       -1   -1    0    0    0  501  0.00000000000E+00  0.00000000000E+00 -0.51651287484E+03  0.51651287487E+03  0.50400001928E-02 0. -1.
    10030    2    1    2    0    0  0.00000000000E+00  0.00000000000E+00 -0.27702738647E+02  0.10053230111E+04  0.10049412495E+04 0.  0.
        3    1    3    3  502    0  0.78819931424E+02  0.31379563349E+03  0.37073769685E+03  0.49206374714E+03  0.10100000352E+00 0.  1.
       -3    1    3    3    0  502 -0.78819931424E+02 -0.31379563349E+03 -0.39844043550E+03  0.51325926395E+03  0.10100000352E+00 0. -1.
</event>
<event>
 5   0  0.1221315E-02  0.9300229E+03  0.7818609E-02  0.9388810E-01
       -2   -1    0    0    0  501  0.00000000000E+00  0.00000000000E+00  0.15547954527E+03  0.15547954529E+03  0.25500000920E-02 0.  1.
        2   -1    0    0  501    0  0.00000000000E+00  0.00000000000E+00 -0.13907658820E+04  0.13907658820E+04  0.25500000920E-02 0. -1.
    10030    2    1    2    0    0  0.00000000000E+00  0.00000000000E+00 -0.12352863367E+04  0.15462454273E+04  0.93002289635E+03 0.  0.
        5    1    3    3  502    0  0.25178367223E+03  0.33693682781E+03 -0.94720543565E+03  0.10364080619E+04  0.46999998093E+01 0. -1.
       -5    1    3    3    0  502 -0.25178367223E+03 -0.33693682781E+03 -0.28808090107E+03  0.50983736534E+03  0.46999998093E+01 0.  1.
</event>
<event>
 5   0  0.7224879E-03  0.9613236E+03  0.7818609E-02  0.9352012E-01
       -1   -1    0    0    0  501  0.00000000000E+00  0.00000000000E+00  0.41646188414E+03  0.41646188417E+03  0.50400001928E-02 0.  1.
        1   -1    0    0  501    0  0.00000000000E+00  0.00000000000E+00 -0.55475851565E+03  0.55475851568E+03  0.50400001928E-02 0. -1.
    10030    2    1    2    0    0  0.00000000000E+00  0.00000000000E+00 -0.13829663152E+03  0.97122039984E+03  0.96132362230E+03 0.  0.
        3    1    3    3  502    0 -0.42034571258E+03 -0.22420810804E+03 -0.13364892476E+03  0.49479474440E+03  0.10100000352E+00 0. -1.
       -3    1    3    3    0  502  0.42034571258E+03  0.22420810804E+03 -0.46477067588E+01  0.47642565545E+03  0.10100000352E+00 0.  1.
</event>
<event>
 5   0  0.1216322E-02  0.9859074E+03  0.7818609E-02  0.9324138E-01
       -2   -1    0    0    0  501  0.00000000000E+00  0.00000000000E+00  0.34978032769E+03  0.34978032770E+03  0.25500000920E-02 0. -1.
        2   -1    0    0  501    0  0.00000000000E+00  0.00000000000E+00 -0.69473126030E+03  0.69473126031E+03  0.25500000920E-02 0.  1.
    10030    2    1    2    0    0  0.00000000000E+00  0.00000000000E+00 -0.34495093261E+03  0.10445115880E+04  0.98590735445E+03 0.  0.
        2    1    3    3  502    0 -0.12986338892E+03  0.27681248133E+03 -0.58212986190E+03  0.65754454276E+03  0.25500000920E-02 0.  1.
       -2    1    3    3    0  502  0.12986338892E+03 -0.27681248133E+03  0.23717892929E+03  0.38696704524E+03  0.25500000920E-02 0. -1.
</event>
<event>
 5   0  0.1216322E-02  0.9852208E+03  0.7818609E-02  0.9324905E-01
        2   -1    0    0  501    0  0.00000000000E+00  0.00000000000E+00  0.18736577422E+04  0.18736577422E+04  0.25500000920E-02 0. -1.
       -2   -1    0    0    0  501  0.00000000000E+00  0.00000000000E+00 -0.12951405323E+03  0.12951405326E+03  0.25500000920E-02 0.  1.
    10030    2    1    2    0    0  0.00000000000E+00  0.00000000000E+00  0.17441436889E+04  0.20031717954E+04  0.98522080486E+03 0.  0.
        2    1    3    3  502    0  0.35840060460E+03 -0.13036451913E+03  0.15060297721E+04  0.15535673708E+04  0.25500000920E-02 0. -1.
       -2    1    3    3    0  502 -0.35840060460E+03  0.13036451913E+03  0.23811391684E+03  0.44960442461E+03  0.25500000920E-02 0.  1.
</event>
<event>
 5   0  0.7073004E-03  0.9967524E+03  0.7818609E-02  0.9312114E-01
        1   -1    0    0  501    0  0.00000000000E+00  0.00000000000E+00  0.49861947406E+03  0.49861947408E+03  0.50400001928E-02 0. -1.
       -1   -1    0    0    0  501  0.00000000000E+00  0.00000000000E+00 -0.49813304303E+03  0.49813304306E+03  0.50400001928E-02 0.  1.
    10030    2    1    2    0    0  0.00000000000E+00  0.00000000000E+00  0.48643102470E+00  0.99675251714E+03  0.99675239844E+03 0.  0.
        1    1    3    3  502    0 -0.37293781969E+03  0.27690953765E+03  0.18084591287E+03  0.49846439555E+03  0.50400001928E-02 0. -1.
       -1    1    3    3    0  502  0.37293781969E+03 -0.27690953765E+03 -0.18035948185E+03  0.49828812159E+03  0.50400001928E-02 0.  1.
</event>
<event>
 5   0  0.1245850E-02  0.1007213E+04  0.7818609E-02  0.9300669E-01
        2   -1    0    0  501    0  0.00000000000E+00  0.00000000000E+00  0.13178168897E+04  0.13178168897E+04  0.25500000920E-02 0. -1.
       -2   -1    0    0    0  501  0.00000000000E+00  0.00000000000E+00 -0.19245411762E+03  0.19245411763E+03  0.25500000920E-02 0.  1.
    10030    2    1    2    0    0  0.00000000000E+00  0.00000000000E+00  0.11253627721E+04  0.15102710073E+04  0.10072125629E+04 0.  0.
        3    1    3    3  502    0  0.24728695670E+03 -0.22455699900E+03  0.11278044670E+04  0.11762311043E+04  0.10100000352E+00 0. -1.
       -3    1    3    3    0  502 -0.24728695670E+03  0.22455699900E+03 -0.24416948923E+01  0.33403990305E+03  0.10100000352E+00 0.  1.
</event>
<event>
 5   0  0.1216322E-02  0.9991106E+03  0.7818609E-02  0.9309521E-01
        2   -1    0    0  501    0  0.00000000000E+00  0.00000000000E+00  0.11744776394E+04  0.11744776394E+04  0.25500000920E-02 0. -1.
       -2   -1    0    0    0  501  0.00000000000E+00  0.00000000000E+00 -0.21248212858E+03  0.21248212860E+03  0.25500000920E-02 0.  1.
    10030    2    1    2    0    0  0.00000000000E+00  0.00000000000E+00  0.96199551084E+03  0.13869597680E+04  0.99911062212E+03 0.  0.
        2    1    3    3  502    0 -0.30104567244E+02 -0.46511177816E+03  0.73056506338E+03  0.86657980763E+03  0.25500000920E-02 0. -1.
       -2    1    3    3    0  502  0.30104567244E+02  0.46511177816E+03  0.23143044746E+03  0.52037996039E+03  0.25500000920E-02 0.  1.
</event>
<event>
 5   0  0.7224879E-03  0.9868175E+03  0.7818609E-02  0.9323123E-01
       -1   -1    0    0    0  501  0.00000000000E+00  0.00000000000E+00  0.18096740462E+03  0.18096740469E+03  0.50400001928E-02 0. -1.
        1   -1    0    0  501    0  0.00000000000E+00  0.00000000000E+00 -0.13452819032E+04  0.13452819032E+04  0.50400001928E-02 0.  1.
    10030    2    1    2    0    0  0.00000000000E+00  0.00000000000E+00 -0.11643144986E+04  0.15262493079E+04  0.98681745946E+03 0.  0.
        3    1    3    3  502    0  0.43348905350E+02  0.23915704579E+03  0.81955720307E+02  0.25649945505E+03  0.10100000352E+00 0. -1.
       -3    1    3    3    0  502 -0.43348905350E+02 -0.23915704579E+03 -0.12462702189E+04  0.12697498529E+04  0.10100000352E+00 0.  1.
</event>
<event>
 5   0  0.7224879E-03  0.1001102E+04  0.7818609E-02  0.9307337E-01
       -1   -1    0    0    0  501  0.00000000000E+00  0.00000000000E+00  0.44336174726E+03  0.44336174729E+03  0.50400001928E-02 0. -1.
        1   -1    0    0  501    0  0.00000000000E+00  0.00000000000E+00 -0.56511660936E+03  0.56511660939E+03  0.50400001928E-02 0.  1.
    10030    2    1    2    0    0  0.00000000000E+00  0.00000000000E+00 -0.12175486211E+03  0.10084783567E+04  0.10011015680E+04 0.  0.
        3    1    3    3  502    0 -0.11386617112E+03  0.48347353152E+03 -0.12329297733E+03  0.51177468585E+03  0.10100000352E+00 0.  1.
       -3    1    3    3    0  502  0.11386617112E+03 -0.48347353152E+03  0.15381152268E+01  0.49670367082E+03  0.10100000352E+00 0. -1.
</event>
<event>
 5   0  0.7241200E-03  0.9657403E+03  0.7818609E-02  0.9346939E-01
       -1   -1    0    0    0  501  0.00000000000E+00  0.00000000000E+00  0.24078794851E+03  0.24078794856E+03  0.50400001928E-02 0.  1.
        1   -1    0    0  501    0  0.00000000000E+00  0.00000000000E+00 -0.96833575971E+03  0.96833575972E+03  0.50400001928E-02 0. -1.
    10030    2    1    2    0    0  0.00000000000E+00  0.00000000000E+00 -0.72754781120E+03  0.12091237083E+04  0.96574029860E+03 0.  0.
        4    1    3    3  502    0 -0.18707513527E+03 -0.12818709209E+03 -0.89751076845E+03  0.92571930368E+03  0.12699999809E+01 0. -1.
       -4    1    3    3    0  502  0.18707513527E+03  0.12818709209E+03  0.16996295725E+03  0.28340440461E+03  0.12699999809E+01 0.  1.
</event>
<event>
 5   0  0.1245850E-02  0.9937500E+03  0.7818609E-02  0.9315426E-01
        2   -1    0    0  501    0  0.00000000000E+00  0.00000000000E+00  0.93810410726E+03  0.93810410726E+03  0.25500000920E-02 0.  1.
       -2   -1    0    0    0  501  0.00000000000E+00  0.00000000000E+00 -0.26317414207E+03  0.26317414208E+03  0.25500000920E-02 0. -1.
    10030    2    1    2    0    0  0.00000000000E+00  0.00000000000E+00  0.67492996519E+03  0.12012782493E+04  0.99374995569E+03 0.  0.
        3    1    3    3  502    0 -0.49377995263E+03 -0.46999215109E+02  0.37285647274E+03  0.62052359126E+03  0.10100000352E+00 0. -1.
       -3    1    3    3    0  502  0.49377995263E+03  0.46999215109E+02  0.30207349245E+03  0.58075465808E+03  0.10100000352E+00 0.  1.
</event>
<event>
 5   0  0.1216322E-02  0.1000672E+04  0.7818609E-02  0.9307808E-01
       -2   -1    0    0    0  501  0.00000000000E+00  0.00000000000E+00  0.96816249475E+03  0.96816249476E+03  0.25500000920E-02 0. -1.
        2   -1    0    0  501    0  0.00000000000E+00  0.00000000000E+00 -0.25856833358E+03  0.25856833360E+03  0.25500000920E-02 0.  1.
    10030    2    1    2    0    0  0.00000000000E+00  0.00000000000E+00  0.70959416117E+03  0.12267308284E+04  0.10006721000E+04 0.  0.
        2    1    3    3  502    0  0.37964283859E+03  0.22323564984E+03  0.63729185863E+02  0.44499915662E+03  0.25500000920E-02 0.  1.
       -2    1    3    3    0  502 -0.37964283859E+03 -0.22323564984E+03  0.64586497531E+03  0.78173167173E+03  0.25500000920E-02 0. -1.
</event>
<event>
 5   0  0.1191822E-02  0.9979854E+03  0.7818609E-02  0.9310757E-01
       -2   -1    0    0    0  501  0.00000000000E+00  0.00000000000E+00  0.25543176417E+03  0.25543176418E+03  0.25500000920E-02 0.  1.
        2   -1    0    0  501    0  0.00000000000E+00  0.00000000000E+00 -0.97479543041E+03  0.97479543041E+03  0.25500000920E-02 0. -1.
    10030    2    1    2    0    0  0.00000000000E+00  0.00000000000E+00 -0.71936366624E+03  0.12302271946E+04  0.99798540371E+03 0.  0.
        4    1    3    3  502    0  0.15937436161E+02  0.39677413364E+02  0.25316729055E+03  0.25675589362E+03  0.12699999809E+01 0.  1.
       -4    1    3    3    0  502 -0.15937436161E+02 -0.39677413364E+02 -0.97253095679E+03  0.97347130098E+03  0.12699999809E+01 0. -1.
</event>
<event>
 5   0  0.7461157E-03  0.1000846E+04  0.7818609E-02  0.9307618E-01
        1   -1    0    0  501    0  0.00000000000E+00  0.00000000000E+00  0.44520936214E+03  0.44520936217E+03  0.50400001928E-02 0.  1.
       -1   -1    0    0    0  501  0.00000000000E+00  0.00000000000E+00 -0.56248397848E+03  0.56248397851E+03  0.50400001928E-02 0. -1.
    10030    2    1    2    0    0  0.00000000000E+00  0.00000000000E+00 -0.11727461634E+03  0.10076933407E+04  0.10008459088E+04 0.  0.
        2    1    3    3  502    0 -0.20731444043E+03  0.31764384060E+02  0.39882225389E+03  0.45060786001E+03  0.25500000920E-02 0.  1.
       -2    1    3    3    0  502  0.20731444043E+03 -0.31764384060E+02 -0.51609687023E+03  0.55708548067E+03  0.25500000920E-02 0. -1.
</event>
<event>
 5   0  0.4782125E-03  0.1010243E+04  0.7818609E-02  0.9297381E-01
        3   -1    0    0  501    0  0.00000000000E+00  0.00000000000E+00  0.46437358800E+03  0.46437359898E+03  0.10100000352E+00 0. -1.
       -3   -1    0    0    0  501  0.00000000000E+00  0.00000000000E+00 -0.54944528892E+03  0.54944529821E+03  0.10100000352E+00 0.  1.
    10030    2    1    2    0    0  0.00000000000E+00  0.00000000000E+00 -0.85071700926E+02  0.10138188972E+04  0.10102433182E+04 0.  0.
        2    1    3    3  502    0 -0.37525230059E+03 -0.29979157429E+03  0.11441017118E+03  0.49373977396E+03  0.25500000920E-02 0. -1.
       -2    1    3    3    0  502  0.37525230059E+03  0.29979157429E+03 -0.19948187211E+03  0.52007912323E+03  0.25500000920E-02 0.  1.
</event>
<event>
 5   0  0.1240503E-02  0.1074634E+04  0.7818609E-02  0.9230274E-01
        2   -1    0    0  501    0  0.00000000000E+00  0.00000000000E+00  0.53699271791E+03  0.53699271791E+03  0.25500000920E-02 0.  1.
       -2   -1    0    0    0  501  0.00000000000E+00  0.00000000000E+00 -0.53764179281E+03  0.53764179282E+03  0.25500000920E-02 0. -1.
    10030    2    1    2    0    0  0.00000000000E+00  0.00000000000E+00 -0.64907490261E+00  0.10746345107E+04  0.10746343147E+04 0.  0.
        1    1    3    3  502    0 -0.47543226975E+03 -0.24895536371E+03  0.26040431416E+02  0.53730133103E+03  0.50400001928E-02 0. -1.
       -1    1    3    3    0  502  0.47543226975E+03  0.24895536371E+03 -0.26689506319E+02  0.53733317970E+03  0.50400001928E-02 0.  1.
</event>
<event>
 5   0  0.1216322E-02  0.1026956E+04  0.7818609E-02  0.9279464E-01
       -2   -1    0    0    0  501  0.00000000000E+00  0.00000000000E+00  0.32333332583E+03  0.32333332584E+03  0.25500000920E-02 0. -1.
        2   -1    0    0  501    0  0.00000000000E+00  0.00000000000E+00 -0.81544240010E+03  0.81544240010E+03  0.25500000920E-02 0.  1.
    10030    2    1    2    0    0  0.00000000000E+00  0.00000000000E+00 -0.49210907427E+03  0.11387757259E+04  0.10269560911E+04 0.  0.
        2    1    3    3  502    0 -0.20986530416E+03 -0.21499061474E+02 -0.76516654419E+03  0.79371625654E+03  0.25500000920E-02 0.  1.
       -2    1    3    3    0  502  0.20986530416E+03  0.21499061474E+02  0.27305746992E+03  0.34505946940E+03  0.25500000920E-02 0. -1.
</event>
<event>
 5   0  0.7073004E-03  0.1002477E+04  0.7818609E-02  0.9305832E-01
       -1   -1    0    0    0  501  0.00000000000E+00  0.00000000000E+00  0.15173646429E+03  0.15173646438E+03  0.50400001928E-02 0. -1.
        1   -1    0    0  501    0  0.00000000000E+00  0.00000000000E+00 -0.16557657293E+04  0.16557657293E+04  0.50400001928E-02 0.  1.
    10030    2    1    2    0    0  0.00000000000E+00  0.00000000000E+00 -0.15040292650E+04  0.18075021936E+04  0.10024770073E+04 0.  0.
        1    1    3    3  502    0 -0.48538475239E+03  0.12450239230E+03 -0.77341189093E+03  0.92155583477E+03  0.50400001928E-02 0.  1.
       -1    1    3    3    0  502  0.48538475239E+03 -0.12450239230E+03 -0.73061737403E+03  0.88594635887E+03  0.50400001928E-02 0. -1.
</event>
<event>
 5   0  0.7224879E-03  0.1047373E+04  0.7818609E-02  0.9258060E-01
       -1   -1    0    0    0  501  0.00000000000E+00  0.00000000000E+00  0.10101330032E+03  0.10101330045E+03  0.50400001928E-02 0.  1.
        1   -1    0    0  501    0  0.00000000000E+00  0.00000000000E+00 -0.27149649924E+04  0.27149649924E+04  0.50400001928E-02 0. -1.
    10030    2    1    2    0    0  0.00000000000E+00  0.00000000000E+00 -0.26139516921E+04  0.28159782928E+04  0.10473730459E+04 0.  0.
        3    1    3    3  502    0 -0.15979894456E+02 -0.75980382182E+02  0.85452423007E+02  0.11545779446E+03  0.10100000352E+00 0.  1.
       -3    1    3    3    0  502  0.15979894456E+02  0.75980382182E+02 -0.26994041151E+04  0.27005204984E+04  0.10100000352E+00 0. -1.
</event>
<event>
 5   0  0.7241200E-03  0.9948258E+03  0.7818609E-02  0.9314238E-01
        1   -1    0    0  501    0  0.00000000000E+00  0.00000000000E+00  0.49045382426E+03  0.49045382429E+03  0.50400001928E-02 0.  1.
       -1   -1    0    0    0  501  0.00000000000E+00  0.00000000000E+00 -0.50447071803E+03  0.50447071806E+03  0.50400001928E-02 0. -1.
    10030    2    1    2    0    0  0.00000000000E+00  0.00000000000E+00 -0.14016893772E+02  0.99492454235E+03  0.99482579965E+03 0.  0.
        4    1    3    3  502    0 -0.78687565274E+02  0.21254986833E+03  0.43580948481E+03  0.49122367554E+03  0.12699999809E+01 0.  1.
       -4    1    3    3    0  502  0.78687565274E+02 -0.21254986833E+03 -0.44982637858E+03  0.50370086681E+03  0.12699999809E+01 0. -1.
</event>
<event>
 5   0  0.4782125E-03  0.9854859E+03  0.7818609E-02  0.9324608E-01
       -3   -1    0    0    0  501  0.00000000000E+00  0.00000000000E+00  0.23628126295E+03  0.23628128453E+03  0.10100000352E+00 0.  1.
        3   -1    0    0  501    0  0.00000000000E+00  0.00000000000E+00 -0.10275702634E+04  0.10275702684E+04  0.10100000352E+00 0. -1.
    10030    2    1    2    0    0  0.00000000000E+00  0.00000000000E+00 -0.79128900045E+03  0.12638515529E+04  0.98548590326E+03 0.  0.
        4    1    3    3  502    0 -0.16709667646E+03 -0.95353544967E+02  0.18612059323E+03  0.26768654420E+03  0.12699999809E+01 0.  1.
       -4    1    3    3    0  502  0.16709667646E+03  0.95353544967E+02 -0.97740959368E+03  0.99616500869E+03  0.12699999809E+01 0. -1.
</event>
<event>
 5   0  0.7073004E-03  0.9451880E+03  0.7818609E-02  0.9370793E-01
        1   -1    0    0  501    0  0.00000000000E+00  0.00000000000E+00  0.50933900546E+03  0.50933900548E+03  0.50400001928E-02 0. -1.
       -1   -1    0    0    0  501  0.00000000000E+00  0.00000000000E+00 -0.43849987831E+03  0.43849987834E+03  0.50400001928E-02 0.  1.
    10030    2    1    2    0    0  0.00000000000E+00  0.00000000000E+00  0.70839127151E+02  0.94783888382E+03  0.94518800656E+03 0.  0.
        1    1    3    3  502    0  0.24044574244E+02  0.22525501544E+02 -0.43734676356E+03  0.43858605927E+03  0.50400001928E-02 0.  1.
       -1    1    3    3    0  502 -0.24044574244E+02 -0.22525501544E+02  0.50818589071E+03  0.50925282455E+03  0.50400001928E-02 0. -1.
</event>
<event>
 5   0  0.1245850E-02  0.1014395E+04  0.7818609E-02  0.9292896E-01
       -2   -1    0    0    0  501  0.00000000000E+00  0.00000000000E+00  0.14854809828E+03  0.14854809830E+03  0.25500000920E-02 0. -1.
        2   -1    0    0  501    0  0.00000000000E+00  0.00000000000E+00 -0.17317568464E+04  0.17317568464E+04  0.25500000920E-02 0.  1.
    10030    2    1    2    0    0  0.00000000000E+00  0.00000000000E+00 -0.15832087481E+04  0.18803049447E+04  0.10143947678E+04 0.  0.
        3    1    3    3  502    0  0.98109747665E+02  0.32636545994E+03 -0.14879085729E+04  0.15264376396E+04  0.10100000352E+00 0.  1.
       -3    1    3    3    0  502 -0.98109747665E+02 -0.32636545994E+03 -0.95300175202E+02  0.35386730510E+03  0.10100000352E+00 0. -1.
</event>
<event>
 5   0  0.7461157E-03  0.1088895E+04  0.7818609E-02  0.9216084E-01
       -1   -1    0    0    0  501  0.00000000000E+00  0.00000000000E+00  0.18999841460E+03  0.18999841467E+03  0.50400001928E-02 0. -1.
        1   -1    0    0  501    0  0.00000000000E+00  0.00000000000E+00 -0.15601340945E+04  0.15601340945E+04  0.50400001928E-02 0.  1.
    10030    2    1    2    0    0  0.00000000000E+00  0.00000000000E+00 -0.13701356799E+04  0.17501325092E+04  0.10888948610E+04 0.  0.
        2    1    3    3  502    0 -0.15598666070E+03 -0.23816146685E+03  0.60827462725E+02  0.29112317468E+03  0.25500000920E-02 0. -1.
       -2    1    3    3    0  502  0.15598666070E+03  0.23816146685E+03 -0.14309631427E+04  0.14590093345E+04  0.25500000920E-02 0.  1.
</event>
<event>
 5   0  0.1240503E-02  0.9882861E+03  0.7818609E-02  0.9321486E-01
        2   -1    0    0  501    0  0.00000000000E+00  0.00000000000E+00  0.98588109134E+03  0.98588109134E+03  0.25500000920E-02 0. -1.
       -2   -1    0    0    0  501  0.00000000000E+00  0.00000000000E+00 -0.24767426517E+03  0.24767426518E+03  0.25500000920E-02 0.  1.
    10030    2    1    2    0    0  0.00000000000E+00  0.00000000000E+00  0.73820682617E+03  0.12335553565E+04  0.98828614248E+03 0.  0.
        1    1    3    3  502    0  0.80221144377E+02  0.34934901824E+03  0.79366175036E+03  0.87084966703E+03  0.50400001928E-02 0. -1.
       -1    1    3    3    0  502 -0.80221144377E+02 -0.34934901824E+03 -0.55454924189E+02  0.36270568950E+03  0.50400001928E-02 0.  1.
</event>
<event>
 5   0  0.7461157E-03  0.9987228E+03  0.7818609E-02  0.9309947E-01
       -1   -1    0    0    0  501  0.00000000000E+00  0.00000000000E+00  0.48349068150E+03  0.48349068152E+03  0.50400001928E-02 0. -1.
        1   -1    0    0  501    0  0.00000000000E+00  0.00000000000E+00 -0.51575307087E+03  0.51575307090E+03  0.50400001928E-02 0.  1.
    10030    2    1    2    0    0  0.00000000000E+00  0.00000000000E+00 -0.32262389374E+02  0.99924375242E+03  0.99872279186E+03 0.  0.
        2    1    3    3  502    0 -0.47371309297E+03  0.15796689126E+03 -0.14087935215E+02  0.49955590589E+03  0.25500000920E-02 0. -1.
       -2    1    3    3    0  502  0.47371309297E+03 -0.15796689126E+03 -0.18174454159E+02  0.49968784653E+03  0.25500000920E-02 0.  1.
</event>
<event>
 5   0  0.7224879E-03  0.1021828E+04  0.7818609E-02  0.9284923E-01
        1   -1    0    0  501    0  0.00000000000E+00  0.00000000000E+00  0.35220547834E+03  0.35220547838E+03  0.50400001928E-02 0. -1.
       -1   -1    0    0    0  501  0.00000000000E+00  0.00000000000E+00 -0.74113863534E+03  0.74113863535E+03  0.50400001928E-02 0.  1.
    10030    2    1    2    0    0  0.00000000000E+00  0.00000000000E+00 -0.38893315699E+03  0.10933441137E+04  0.10218279456E+04 0.  0.
        3    1    3    3  502    0 -0.19867015670E+03 -0.23064093457E+03 -0.63351142014E+03  0.70285261720E+03  0.10100000352E+00 0.  1.
       -3    1    3    3    0  502  0.19867015670E+03  0.23064093457E+03  0.24457826314E+03  0.39049149653E+03  0.10100000352E+00 0. -1.
</event>
<event>
 5   0  0.1191822E-02  0.1009523E+04  0.7818609E-02  0.9298161E-01
       -2   -1    0    0    0  501  0.00000000000E+00  0.00000000000E+00  0.33132079761E+03  0.33132079762E+03  0.25500000920E-02 0. -1.
        2   -1    0    0  501    0  0.00000000000E+00  0.00000000000E+00 -0.76899597570E+03  0.76899597570E+03  0.25500000920E-02 0.  1.
    10030    2    1    2    0    0  0.00000000000E+00  0.00000000000E+00 -0.43767517809E+03  0.11003167733E+04  0.10095233727E+04 0.  0.
        4    1    3    3  502    0  0.35410508885E+03  0.19183905674E+03  0.11281520008E+03  0.41823620110E+03  0.12699999809E+01 0. -1.
       -4    1    3    3    0  502 -0.35410508885E+03 -0.19183905674E+03 -0.55049037817E+03  0.68208057222E+03  0.12699999809E+01 0.  1.
</event>
<event>
 5   0  0.7241200E-03  0.9916068E+03  0.7818609E-02  0.9317799E-01
        1   -1    0    0  501    0  0.00000000000E+00  0.00000000000E+00  0.93731393760E+03  0.93731393761E+03  0.50400001928E-02 0. -1.
       -1   -1    0    0    0  501  0.00000000000E+00  0.00000000000E+00 -0.26226111414E+03  0.26226111418E+03  0.50400001928E-02 0.  1.
    10030    2    1    2    0    0  0.00000000000E+00  0.00000000000E+00  0.67505282346E+03  0.11995750518E+04  0.99160677208E+03 0.  0.
        4    1    3    3  502    0  0.41455668541E+03 -0.92422937391E+01  0.87188918077E+01  0.41475329701E+03  0.12699999809E+01 0. -1.
       -4    1    3    3    0  502 -0.41455668541E+03  0.92422937391E+01  0.66633393165E+03  0.78482175478E+03  0.12699999809E+01 0.  1.
</event>
<event>
 5   0  0.1216322E-02  0.9954434E+03  0.7818609E-02  0.9313557E-01
       -2   -1    0    0    0  501  0.00000000000E+00  0.00000000000E+00  0.21894142045E+03  0.21894142046E+03  0.25500000920E-02 0. -1.
        2   -1    0    0  501    0  0.00000000000E+00  0.00000000000E+00 -0.11314756965E+04  0.11314756965E+04  0.25500000920E-02 0.  1.
    10030    2    1    2    0    0  0.00000000000E+00  0.00000000000E+00 -0.91253427605E+03  0.13504171170E+04  0.99544341115E+03 0.  0.
        2    1    3    3  502    0  0.22458713107E+03 -0.40207863832E+03 -0.71230256105E+03  0.84822258241E+03  0.25500000920E-02 0.  1.
       -2    1    3    3    0  502 -0.22458713107E+03  0.40207863832E+03 -0.20023171500E+03  0.50219453455E+03  0.25500000920E-02 0. -1.
</event>
<event>
 5   0  0.7224879E-03  0.1111017E+04  0.7818609E-02  0.9194520E-01
       -1   -1    0    0    0  501  0.00000000000E+00  0.00000000000E+00  0.10749518159E+04  0.10749518159E+04  0.50400001928E-02 0. -1.
        1   -1    0    0  501    0  0.00000000000E+00  0.00000000000E+00 -0.28707309333E+03  0.28707309337E+03  0.50400001928E-02 0.  1.
    10030    2    1    2    0    0  0.00000000000E+00  0.00000000000E+00  0.78787872254E+03  0.13620249092E+04  0.11110170890E+04 0.  0.
        3    1    3    3  502    0 -0.95487898357E+02  0.14928292793E+03 -0.25149230847E+03  0.30765520103E+03  0.10100000352E+00 0.  1.
       -3    1    3    3    0  502  0.95487898357E+02 -0.14928292793E+03  0.10393710310E+04  0.10543697082E+04  0.10100000352E+00 0. -1.
</event>
<event>
 5   0  0.1245850E-02  0.1002671E+04  0.7818609E-02  0.9305620E-01
       -2   -1    0    0    0  501  0.00000000000E+00  0.00000000000E+00  0.21378494231E+03  0.21378494232E+03  0.25500000920E-02 0. -1.
        2   -1    0    0  501    0  0.00000000000E+00  0.00000000000E+00 -0.11756544560E+04  0.11756544560E+04  0.25500000920E-02 0.  1.
    10030    2    1    2    0    0  0.00000000000E+00  0.00000000000E+00 -0.96186951365E+03  0.13894393983E+04  0.10026708733E+04 0.  0.
        3    1    3    3  502    0  0.47219766301E+03  0.16556314982E+03 -0.52376775225E+03  0.72437176783E+03  0.10100000352E+00 0. -1.
       -3    1    3    3    0  502 -0.47219766301E+03 -0.16556314982E+03 -0.43810176140E+03  0.66506763046E+03  0.10100000352E+00 0.  1.
</event>
<event>
 5   0  0.7461157E-03  0.9961966E+03  0.7818609E-02  0.9312726E-01
        1   -1    0    0  501    0  0.00000000000E+00  0.00000000000E+00  0.12017680538E+04  0.12017680538E+04  0.50400001928E-02 0.  1.
       -1   -1    0    0    0  501  0.00000000000E+00  0.00000000000E+00 -0.20644740789E+03  0.20644740795E+03  0.50400001928E-02 0. -1.
    10030    2    1    2    0    0  0.00000000000E+00  0.00000000000E+00  0.99532064592E+03  0.14082154618E+04  0.99619656623E+03 0.  0.
        2    1    3    3  502    0  0.18982834573E+02 -0.38802056065E+03  0.93833295741E+03  0.10155732580E+04  0.25500000920E-02 0. -1.
       -2    1    3    3    0  502 -0.18982834573E+02  0.38802056065E+03  0.56987688514E+02  0.39264220372E+03  0.25500000920E-02 0.  1.
</event>
<event>
 5   0  0.1216322E-02  0.9740765E+03  0.7818609E-02  0.9337443E-01
        2   -1    0    0  501    0  0.00000000000E+00  0.00000000000E+00  0.65974494837E+03  0.65974494838E+03  0.25500000920E-02 0. -1.
       -2   -1    0    0    0  501  0.00000000000E+00  0.00000000000E+00 -0.35954234884E+03  0.35954234885E+03  0.25500000920E-02 0.  1.
    10030    2    1    2    0    0  0.00000000000E+00  0.00000000000E+00  0.30020259953E+03  0.10192872972E+04  0.97407648237E+03 0.  0.
        2    1    3    3  502    0  0.10515241704E+02  0.44787954150E+03  0.35001730860E+03  0.56852332434E+03  0.25500000920E-02 0. -1.
       -2    1    3    3    0  502 -0.10515241704E+02 -0.44787954150E+03 -0.49814709066E+02  0.45076397288E+03  0.25500000920E-02 0.  1.
</event>
<event>
 5   0  0.1240503E-02  0.9891742E+03  0.7818609E-02  0.9320499E-01
       -2   -1    0    0    0  501  0.00000000000E+00  0.00000000000E+00  0.27707863497E+03  0.27707863498E+03  0.25500000920E-02 0. -1.
        2   -1    0    0  501    0  0.00000000000E+00  0.00000000000E+00 -0.88284108916E+03  0.88284108917E+03  0.25500000920E-02 0.  1.
    10030    2    1    2    0    0  0.00000000000E+00  0.00000000000E+00 -0.60576245419E+03  0.11599197242E+04  0.98917420891E+03 0.  0.
        1    1    3    3  502    0 -0.30557362462E+01  0.19572568796E+03  0.22972128056E+03  0.30181078380E+03  0.50400001928E-02 0. -1.
       -1    1    3    3    0  502  0.30557362462E+01 -0.19572568796E+03 -0.83548373475E+03  0.85810894035E+03  0.50400001928E-02 0.  1.
</event>
<event>
 5   0  0.7224879E-03  0.9727876E+03  0.7818609E-02  0.9338905E-01
       -1   -1    0    0    0  501  0.00000000000E+00  0.00000000000E+00  0.15952764348E+03  0.15952764356E+03  0.50400001928E-02 0. -1.
        1   -1    0    0  501    0  0.00000000000E+00  0.00000000000E+00 -0.14829963716E+04  0.14829963716E+04  0.50400001928E-02 0.  1.
    10030    2    1    2    0    0  0.00000000000E+00  0.00000000000E+00 -0.13234687282E+04  0.16425240152E+04  0.97278757502E+03 0.  0.
        3    1    3    3  502    0 -0.43458876212E+03 -0.13114865551E+03 -0.36679970731E+03  0.58361750958E+03  0.10100000352E+00 0.  1.
       -3    1    3    3    0  502  0.43458876212E+03  0.13114865551E+03 -0.95666902085E+03  0.10589065056E+04  0.10100000352E+00 0. -1.
</event>
<event>
 5   0  0.7461157E-03  0.1077030E+04  0.7818609E-02  0.9227874E-01
       -1   -1    0    0    0  501  0.00000000000E+00  0.00000000000E+00  0.66933811740E+03  0.66933811742E+03  0.50400001928E-02 0. -1.
        1   -1    0    0  501    0  0.00000000000E+00  0.00000000000E+00 -0.43326137923E+03  0.43326137926E+03  0.50400001928E-02 0.  1.
    10030    2    1    2    0    0  0.00000000000E+00  0.00000000000E+00  0.23607673817E+03  0.11025994967E+04  0.10770299085E+04 0.  0.
        2    1    3    3  502    0 -0.88370905912E+02  0.32072868865E+03 -0.31547936743E+03  0.45847959607E+03  0.25500000920E-02 0.  1.
       -2    1    3    3    0  502  0.88370905912E+02 -0.32072868865E+03  0.55155610559E+03  0.64411990061E+03  0.25500000920E-02 0. -1.
</event>
<event>
 5   0  0.1216322E-02  0.9366527E+03  0.7818609E-02  0.9380889E-01
        2   -1    0    0  501    0  0.00000000000E+00  0.00000000000E+00  0.84594437146E+03  0.84594437147E+03  0.25500000920E-02 0.  1.
       -2   -1    0    0    0  501  0.00000000000E+00  0.00000000000E+00 -0.25927184636E+03  0.25927184637E+03  0.25500000920E-02 0. -1.
    10030    2    1    2    0    0  0.00000000000E+00  0.00000000000E+00  0.58667252510E+03  0.11052162178E+04  0.93665267654E+03 0.  0.
        2    1    3    3  502    0  0.32445959512E+03 -0.28399544329E+03  0.50898934810E+03  0.66708140220E+03  0.25500000920E-02 0.  1.
       -2    1    3    3    0  502 -0.32445959512E+03  0.28399544329E+03  0.77683177006E+02  0.43813481564E+03  0.25500000920E-02 0. -1.
</event>
<event>
 5   0  0.1191822E-02  0.9828915E+03  0.7818609E-02  0.9327511E-01
        2   -1    0    0  501    0  0.00000000000E+00  0.00000000000E+00  0.88510044487E+03  0.88510044487E+03  0.25500000920E-02 0.  1.
       -2   -1    0    0    0  501  0.00000000000E+00  0.00000000000E+00 -0.27287176606E+03  0.27287176608E+03  0.25500000920E-02 0. -1.
    10030    2    1    2    0    0  0.00000000000E+00  0.00000000000E+00  0.61222867881E+03  0.11579722109E+04  0.98289149258E+03 0.  0.
        4    1    3    3  502    0 -0.40133277863E+03 -0.25771564980E+03  0.16655733894E+03  0.50520126228E+03  0.12699999809E+01 0. -1.
       -4    1    3    3    0  502  0.40133277863E+03  0.25771564980E+03  0.44567133987E+03  0.65277094867E+03  0.12699999809E+01 0.  1.
</event>
<event>
 5   0  0.1245850E-02  0.1016085E+04  0.7818609E-02  0.9291077E-01
       -2   -1    0    0    0  501  0.00000000000E+00  0.00000000000E+00  0.29112515498E+03  0.29112515499E+03  0.25500000920E-02 0.  1.
        2   -1    0    0  501    0  0.00000000000E+00  0.00000000000E+00 -0.88658511406E+03  0.88658511407E+03  0.25500000920E-02 0. -1.
    10030    2    1    2    0    0  0.00000000000E+00  0.00000000000E+00 -0.59545995908E+03  0.11777102691E+04  0.10160850924E+04 0.  0.
        3    1    3    3  502    0  0.11419106465E+03  0.14793904344E+02  0.27580160089E+03  0.29887286947E+03  0.10100000352E+00 0.  1.
       -3    1    3    3    0  502 -0.11419106465E+03 -0.14793904344E+02 -0.87126155997E+03  0.87883739959E+03  0.10100000352E+00 0. -1.
</event>
<event>
 5   0  0.1221315E-02  0.1019546E+04  0.7818609E-02  0.9287364E-01
        2   -1    0    0  501    0  0.00000000000E+00  0.00000000000E+00  0.57803756790E+03  0.57803756791E+03  0.25500000920E-02 0.  1.
       -2   -1    0    0    0  501  0.00000000000E+00  0.00000000000E+00 -0.44956990308E+03  0.44956990308E+03  0.25500000920E-02 0. -1.
    10030    2    1    2    0    0  0.00000000000E+00  0.00000000000E+00  0.12846766483E+03  0.10276074710E+04  0.10195455721E+04 0.  0.
        5    1    3    3  502    0 -0.44493964366E+03 -0.19361847735E+02 -0.18571913344E+03  0.48255554516E+03  0.46999998093E+01 0. -1.
       -5    1    3    3    0  502  0.44493964366E+03  0.19361847735E+02  0.31418679827E+03  0.54505192583E+03  0.46999998093E+01 0.  1.
</event>
<event>
 5   0  0.7241200E-03  0.9829255E+03  0.7818609E-02  0.9327473E-01
        1   -1    0    0  501    0  0.00000000000E+00  0.00000000000E+00  0.68036361666E+03  0.68036361668E+03  0.50400001928E-02 0.  1.
       -1   -1    0    0    0  501  0.00000000000E+00  0.00000000000E+00 -0.35500961679E+03  0.35500961682E+03  0.50400001928E-02 0. -1.
    10030    2    1    2    0    0  0.00000000000E+00  0.00000000000E+00  0.32535399987E+03  0.10353732335E+04  0.98292548416E+03 0.  0.
        4    1    3    3  502    0 -0.20741767374E+03 -0.29448153037E+03  0.51487166346E+03  0.62835969464E+03  0.12699999809E+01 0.  1.
       -4    1    3    3    0  502  0.20741767374E+03  0.29448153037E+03 -0.18951766359E+03  0.40701353887E+03  0.12699999809E+01 0. -1.
</event>
<event>
 5   0  0.7224879E-03  0.1005262E+04  0.7818609E-02  0.9302793E-01
       -1   -1    0    0    0  501  0.00000000000E+00  0.00000000000E+00  0.13827856040E+03  0.13827856049E+03  0.50400001928E-02 0. -1.
        1   -1    0    0  501    0  0.00000000000E+00  0.00000000000E+00 -0.18270206167E+04  0.18270206167E+04  0.50400001928E-02 0.  1.
    10030    2    1    2    0    0  0.00000000000E+00  0.00000000000E+00 -0.16887420563E+04  0.19652991772E+04  0.10052617188E+04 0.  0.
        3    1    3    3  502    0 -0.18371208608E+03 -0.45520887980E+03 -0.10555894351E+04  0.11641453176E+04  0.10100000352E+00 0. -1.
       -3    1    3    3    0  502  0.18371208608E+03  0.45520887980E+03 -0.63315262127E+03  0.80115385965E+03  0.10100000352E+00 0.  1.
</event>
<event>
 5   0  0.7073004E-03  0.9822241E+03  0.7818609E-02  0.9328259E-01
       -1   -1    0    0    0  501  0.00000000000E+00  0.00000000000E+00  0.66690510630E+03  0.66690510632E+03  0.50400001928E-02 0. -1.
        1   -1    0    0  501    0  0.00000000000E+00  0.00000000000E+00 -0.36165719163E+03  0.36165719166E+03  0.50400001928E-02 0.  1.
    10030    2    1    2    0    0  0.00000000000E+00  0.00000000000E+00  0.30524791467E+03  0.10285622980E+04  0.98222406375E+03 0.  0.
        1    1    3    3  502    0 -0.27062232349E+03  0.19309769943E+03 -0.22590963635E+03  0.40194318916E+03  0.50400001928E-02 0.  1.
       -1    1    3    3    0  502  0.27062232349E+03 -0.19309769943E+03  0.53115755103E+03  0.62661910881E+03  0.50400001928E-02 0. -1.
</event>
<event>
 5   0  0.1191822E-02  0.6420981E+03  0.7818609E-02  0.9821721E-01
        2   -1    0    0  501    0  0.00000000000E+00  0.00000000000E+00  0.12162503004E+04  0.12162503004E+04  0.25500000920E-02 0. -1.
       -2   -1    0    0    0  501  0.00000000000E+00  0.00000000000E+00 -0.84746118851E+02  0.84746118889E+02  0.25500000920E-02 0.  1.
    10030    2    1    2    0    0  0.00000000000E+00  0.00000000000E+00  0.11315041815E+04  0.13009964193E+04  0.64209810009E+03 0.  0.
        4    1    3    3  502    0 -0.23620666803E+03 -0.88813693492E+02  0.96788025880E+03  0.10002376070E+04  0.12699999809E+01 0. -1.
       -4    1    3    3    0  502  0.23620666803E+03  0.88813693492E+02  0.16362392273E+03  0.30075881228E+03  0.12699999809E+01 0.  1.
</event>
<event>
 5   0  0.1191822E-02  0.1007208E+04  0.7818609E-02  0.9300674E-01
        2   -1    0    0  501    0  0.00000000000E+00  0.00000000000E+00  0.49658233296E+03  0.49658233297E+03  0.25500000920E-02 0. -1.
       -2   -1    0    0    0  501  0.00000000000E+00  0.00000000000E+00 -0.51072488249E+03  0.51072488250E+03  0.25500000920E-02 0.  1.
    10030    2    1    2    0    0  0.00000000000E+00  0.00000000000E+00 -0.14142549529E+02  0.10073072155E+04  0.10072079302E+04 0.  0.
        4    1    3    3  502    0 -0.20074999788E+03 -0.44163518597E+03  0.12812023509E+03  0.50175552481E+03  0.12699999809E+01 0.  1.
       -4    1    3    3    0  502  0.20074999788E+03  0.44163518597E+03 -0.14226278462E+03  0.50555169066E+03  0.12699999809E+01 0. -1.
</event>
<event>
 5   0  0.6967681E-03  0.1001858E+04  0.7818609E-02  0.9306509E-01
        1   -1    0    0  501    0  0.00000000000E+00  0.00000000000E+00  0.10364443527E+04  0.10364443527E+04  0.50400001928E-02 0. -1.
       -1   -1    0    0    0  501  0.00000000000E+00  0.00000000000E+00 -0.24210646081E+03  0.24210646086E+03  0.50400001928E-02 0.  1.
    10030    2    1    2    0    0  0.00000000000E+00  0.00000000000E+00  0.79433789189E+03  0.12785508136E+04  0.10018580221E+04 0.  0.
        5    1    3    3  502    0 -0.41535964680E+02 -0.38676635759E+03 -0.55750968346E+01  0.38905863752E+03  0.46999998093E+01 0.  1.
       -5    1    3    3    0  502  0.41535964680E+02  0.38676635759E+03  0.79991298872E+03  0.88949217605E+03  0.46999998093E+01 0. -1.
</event>
<event>
 5   0  0.1216322E-02  0.1016268E+04  0.7818609E-02  0.9290880E-01
       -2   -1    0    0    0  501  0.00000000000E+00  0.00000000000E+00  0.31307499163E+03  0.31307499164E+03  0.25500000920E-02 0.  1.
        2   -1    0    0  501    0  0.00000000000E+00  0.00000000000E+00 -0.82472321604E+03  0.82472321604E+03  0.25500000920E-02 0. -1.
    10030    2    1    2    0    0  0.00000000000E+00  0.00000000000E+00 -0.51164822441E+03  0.11377982077E+04  0.10162681024E+04 0.  0.
        2    1    3    3  502    0  0.42116512524E+03  0.13783719784E+03  0.22547643032E+02  0.44372012806E+03  0.25500000920E-02 0.  1.
       -2    1    3    3    0  502 -0.42116512524E+03 -0.13783719784E+03 -0.53419586744E+03  0.69407807963E+03  0.25500000920E-02 0. -1.
</event>
<event>
 5   0  0.7461157E-03  0.8844776E+03  0.7818609E-02  0.9445196E-01
       -1   -1    0    0    0  501  0.00000000000E+00  0.00000000000E+00  0.32087788244E+03  0.32087788248E+03  0.50400001928E-02 0. -1.
        1   -1    0    0  501    0  0.00000000000E+00  0.00000000000E+00 -0.60950029857E+03  0.60950029859E+03  0.50400001928E-02 0.  1.
    10030    2    1    2    0    0  0.00000000000E+00  0.00000000000E+00 -0.28862241613E+03  0.93037818107E+03  0.88447762025E+03 0.  0.
        2    1    3    3  502    0 -0.21469033645E+03  0.60045848918E+02 -0.54607163120E+03  0.58982342353E+03  0.25500000920E-02 0.  1.
       -2    1    3    3    0  502  0.21469033645E+03 -0.60045848918E+02  0.25744921507E+03  0.34055475754E+03  0.25500000920E-02 0. -1.
</event>
<event>
 5   0  0.7224879E-03  0.9914298E+03  0.7818609E-02  0.9317995E-01
        1   -1    0    0  501    0  0.00000000000E+00  0.00000000000E+00  0.25142815801E+03  0.25142815806E+03  0.50400001928E-02 0.  1.
       -1   -1    0    0    0  501  0.00000000000E+00  0.00000000000E+00 -0.97734971683E+03  0.97734971685E+03  0.50400001928E-02 0. -1.
    10030    2    1    2    0    0  0.00000000000E+00  0.00000000000E+00 -0.72592155882E+03  0.12287778749E+04  0.99142975359E+03 0.  0.
        3    1    3    3  502    0 -0.11042610422E+03 -0.23871523081E+03 -0.88373639046E+03  0.92204604220E+03  0.10100000352E+00 0. -1.
       -3    1    3    3    0  502  0.11042610422E+03  0.23871523081E+03  0.15781483164E+03  0.30673183271E+03  0.10100000352E+00 0.  1.
</event>
<event>
 5   0  0.1221315E-02  0.9995213E+03  0.7818609E-02  0.9309070E-01
       -2   -1    0    0    0  501  0.00000000000E+00  0.00000000000E+00  0.21908162632E+03  0.21908162633E+03  0.25500000920E-02 0.  1.
        2   -1    0    0  501    0  0.00000000000E+00  0.00000000000E+00 -0.11400348363E+04  0.11400348363E+04  0.25500000920E-02 0. -1.
    10030    2    1    2    0    0  0.00000000000E+00  0.00000000000E+00 -0.92095320996E+03  0.13591164626E+04  0.99952125741E+03 0.  0.
        5    1    3    3  502    0  0.12826178645E+03  0.36476573309E+03 -0.89097448888E+03  0.97126863212E+03  0.46999998093E+01 0. -1.
       -5    1    3    3    0  502 -0.12826178645E+03 -0.36476573309E+03 -0.29978721076E+02  0.38784783049E+03  0.46999998093E+01 0.  1.
</event>
<event>
 5   0  0.1240503E-02  0.1034315E+04  0.7818609E-02  0.9271690E-01
       -2   -1    0    0    0  501  0.00000000000E+00  0.00000000000E+00  0.24174172475E+03  0.24174172476E+03  0.25500000920E-02 0.  1.
        2   -1    0    0  501    0  0.00000000000E+00  0.00000000000E+00 -0.11063530088E+04  0.11063530088E+04  0.25500000920E-02 0. -1.
    10030    2    1    2    0    0  0.00000000000E+00  0.00000000000E+00 -0.86461128408E+03  0.13480947336E+04  0.10343146224E+04 0.  0.
        1    1    3    3  502    0  0.34324310917E+03  0.36693000947E+03 -0.27268552782E+03  0.57167373645E+03  0.50400001928E-02 0. -1.
       -1    1    3    3    0  502 -0.34324310917E+03 -0.36693000947E+03 -0.59192575626E+03  0.77642099713E+03  0.50400001928E-02 0.  1.
</event>
<event>
 5   0  0.7241200E-03  0.9759513E+03  0.7818609E-02  0.9335322E-01
       -1   -1    0    0    0  501  0.00000000000E+00  0.00000000000E+00  0.60549860402E+03  0.60549860404E+03  0.50400001928E-02 0. -1.
        1   -1    0    0  501    0  0.00000000000E+00  0.00000000000E+00 -0.39326302763E+03  0.39326302767E+03  0.50400001928E-02 0.  1.
    10030    2    1    2    0    0  0.00000000000E+00  0.00000000000E+00  0.21223557639E+03  0.99876163171E+03  0.97595125754E+03 0.  0.
        4    1    3    3  502    0 -0.22256796881E+02 -0.35080547739E+03 -0.24025826694E+03  0.42577634470E+03  0.12699999809E+01 0.  1.
       -4    1    3    3    0  502  0.22256796881E+02  0.35080547739E+03  0.45249384333E+03  0.57298528701E+03  0.12699999809E+01 0. -1.
</event>
<event>
 5   0  0.7241200E-03  0.9990830E+03  0.7818609E-02  0.9309551E-01
        1   -1    0    0  501    0  0.00000000000E+00  0.00000000000E+00  0.75796694761E+03  0.75796694763E+03  0.50400001928E-02 0. -1.
       -1   -1    0    0    0  501  0.00000000000E+00  0.00000000000E+00 -0.32922504889E+03  0.32922504893E+03  0.50400001928E-02 0.  1.
    10030    2    1    2    0    0  0.00000000000E+00  0.00000000000E+00  0.42874189872E+03  0.10871919966E+04  0.99908299038E+03 0.  0.
        4    1    3    3  502    0  0.42394546855E+03 -0.25717744032E+03  0.14844696960E+03  0.51759840784E+03  0.12699999809E+01 0. -1.
       -4    1    3    3    0  502 -0.42394546855E+03  0.25717744032E+03  0.28029492912E+03  0.56959358872E+03  0.12699999809E+01 0.  1.
</event>
<event>
 5   0  0.7224879E-03  0.9791224E+03  0.7818609E-02  0.9331744E-01
        1   -1    0    0  501    0  0.00000000000E+00  0.00000000000E+00  0.64053420354E+03  0.64053420356E+03  0.50400001928E-02 0.  1.
       -1   -1    0    0    0  501  0.00000000000E+00  0.00000000000E+00 -0.37417231822E+03  0.37417231825E+03  0.50400001928E-02 0. -1.
    10030    2    1    2    0    0  0.00000000000E+00  0.00000000000E+00  0.26636188532E+03  0.10147065218E+04  0.97912239861E+03 0.  0.
        3    1    3    3  502    0 -0.26501312397E+03 -0.10385136173E+03 -0.27960770251E+03  0.39899566252E+03  0.10100000352E+00 0. -1.
       -3    1    3    3    0  502  0.26501312397E+03  0.10385136173E+03  0.54596958783E+03  0.61571085929E+03  0.10100000352E+00 0.  1.
</event>
<event>
 5   0  0.1191822E-02  0.7571111E+03  0.7818609E-02  0.9624260E-01
       -2   -1    0    0    0  501  0.00000000000E+00  0.00000000000E+00  0.10143564317E+03  0.10143564320E+03  0.25500000920E-02 0.  1.
        2   -1    0    0  501    0  0.00000000000E+00  0.00000000000E+00 -0.14127606780E+04  0.14127606780E+04  0.25500000920E-02 0. -1.
    10030    2    1    2    0    0  0.00000000000E+00  0.00000000000E+00 -0.13113250348E+04  0.15141963212E+04  0.75711105670E+03 0.  0.
        4    1    3    3  502    0  0.33923204417E+03 -0.14280150785E+03 -0.83265695683E+03  0.91037897115E+03  0.12699999809E+01 0.  1.
       -4    1    3    3    0  502 -0.33923204417E+03  0.14280150785E+03 -0.47866807801E+03  0.60381735007E+03  0.12699999809E+01 0. -1.
</event>
<event>
 5   0  0.6967681E-03  0.1001025E+04  0.7818609E-02  0.9307421E-01
       -1   -1    0    0    0  501  0.00000000000E+00  0.00000000000E+00  0.18551096684E+03  0.18551096691E+03  0.50400001928E-02 0. -1.
        1   -1    0    0  501    0  0.00000000000E+00  0.00000000000E+00 -0.13503944982E+04  0.13503944982E+04  0.50400001928E-02 0.  1.
    10030    2    1    2    0    0  0.00000000000E+00  0.00000000000E+00 -0.11648835313E+04  0.15359054651E+04  0.10010254523E+04 0.  0.
        5    1    3    3  502    0 -0.36129666996E+03 -0.11315641629E+03 -0.80194052725E+02  0.38703079252E+03  0.46999998093E+01 0. -1.
       -5    1    3    3    0  502  0.36129666996E+03  0.11315641629E+03 -0.10846894786E+04  0.11488746726E+04  0.46999998093E+01 0.  1.
</event>
<event>
 5   0  0.1245850E-02  0.1019878E+04  0.7818609E-02  0.9287007E-01
       -2   -1    0    0    0  501  0.00000000000E+00  0.00000000000E+00  0.35632414746E+03  0.35632414747E+03  0.25500000920E-02 0.  1.
        2   -1    0    0  501    0  0.00000000000E+00  0.00000000000E+00 -0.72977925631E+03  0.72977925632E+03  0.25500000920E-02 0. -1.
    10030    2    1    2    0    0  0.00000000000E+00  0.00000000000E+00 -0.37345510886E+03  0.10861034038E+04  0.10198783679E+04 0.  0.
        3    1    3    3  502    0  0.14266157532E+03 -0.33217005250E+03  0.19627689180E+03  0.41135616843E+03  0.10100000352E+00 0.  1.
       -3    1    3    3    0  502 -0.14266157532E+03  0.33217005250E+03 -0.56973200065E+03  0.67474723536E+03  0.10100000352E+00 0. -1.
</event>
<event>
 5   0  0.1245850E-02  0.1001316E+04  0.7818609E-02  0.9307103E-01
       -2   -1    0    0    0  501  0.00000000000E+00  0.00000000000E+00  0.65175433128E+03  0.65175433129E+03  0.25500000920E-02 0. -1.
        2   -1    0    0  501    0  0.00000000000E+00  0.00000000000E+00 -0.38458998565E+03  0.38458998566E+03  0.25500000920E-02 0.  1.
    10030    2    1    2    0    0  0.00000000000E+00  0.00000000000E+00  0.26716434563E+03  0.10363443169E+04  0.10013155126E+04 0.  0.
        3    1    3    3  502    0 -0.10264764699E+02  0.43319501113E+03 -0.12597965650E+03  0.45125842609E+03  0.10100000352E+00 0. -1.
       -3    1    3    3    0  502  0.10264764699E+02 -0.43319501113E+03  0.39314400214E+03  0.58508589086E+03  0.10100000352E+00 0.  1.
</event>
<event>
 5   0  0.6967681E-03  0.1004538E+04  0.7818609E-02  0.9303581E-01
       -1   -1    0    0    0  501  0.00000000000E+00  0.00000000000E+00  0.54716993777E+03  0.54716993780E+03  0.50400001928E-02 0. -1.
        1   -1    0    0  501    0  0.00000000000E+00  0.00000000000E+00 -0.46105275707E+03  0.46105275709E+03  0.50400001928E-02 0.  1.
    10030    2    1    2    0    0  0.00000000000E+00  0.00000000000E+00  0.86117180706E+02  0.10082226949E+04  0.10045381196E+04 0.  0.
        5    1    3    3  502    0 -0.28609431420E+03 -0.10840548738E+03  0.44282900409E+03  0.53825767358E+03  0.46999998093E+01 0. -1.
       -5    1    3    3    0  502  0.28609431420E+03  0.10840548738E+03 -0.35671182338E+03  0.46996502131E+03  0.46999998093E+01 0.  1.
</event>
<event>
 5   0  0.4782125E-03  0.1010405E+04  0.7818609E-02  0.9297206E-01
       -3   -1    0    0    0  501  0.00000000000E+00  0.00000000000E+00  0.34399689822E+03  0.34399691305E+03  0.10100000352E+00 0. -1.
        3   -1    0    0  501    0  0.00000000000E+00  0.00000000000E+00 -0.74195298727E+03  0.74195299414E+03  0.10100000352E+00 0.  1.
    10030    2    1    2    0    0  0.00000000000E+00  0.00000000000E+00 -0.39795608905E+03  0.10859499072E+04  0.10104049446E+04 0.  0.
        5    1    3    3  502    0  0.42311025850E+03 -0.24872554230E+03 -0.32759475270E+03  0.59010770054E+03  0.46999998093E+01 0.  1.
       -5    1    3    3    0  502 -0.42311025850E+03  0.24872554230E+03 -0.70361336352E+02  0.49584220665E+03  0.46999998093E+01 0. -1.
</event>
<event>
 5   0  0.6967681E-03  0.9924979E+03  0.7818609E-02  0.9316811E-01
       -1   -1    0    0    0  501  0.00000000000E+00  0.00000000000E+00  0.16921760757E+03  0.16921760764E+03  0.50400001928E-02 0.  1.
        1   -1    0    0  501    0  0.00000000000E+00  0.00000000000E+00 -0.14553037007E+04  0.14553037007E+04  0.50400001928E-02 0. -1.
    10030    2    1    2    0    0  0.00000000000E+00  0.00000000000E+00 -0.12860860932E+04  0.16245213084E+04  0.99249788027E+03 0.  0.
        5    1    3    3  502    0 -0.41864374020E+02  0.16779030266E+03 -0.14043484747E+04  0.14149639359E+04  0.46999998093E+01 0. -1.
       -5    1    3    3    0  502  0.41864374020E+02 -0.16779030266E+03  0.11826238154E+03  0.20955737249E+03  0.46999998093E+01 0.  1.
</event>
<event>
 5   0  0.1245850E-02  0.9941912E+03  0.7818609E-02  0.9314939E-01
       -2   -1    0    0    0  501  0.00000000000E+00  0.00000000000E+00  0.14850111780E+03  0.14850111783E+03  0.25500000920E-02 0.  1.
        2   -1    0    0  501    0  0.00000000000E+00  0.00000000000E+00 -0.16639877147E+04  0.16639877147E+04  0.25500000920E-02 0. -1.
    10030    2    1    2    0    0  0.00000000000E+00  0.00000000000E+00 -0.15154865969E+04  0.18124888325E+04  0.99419120025E+03 0.  0.
        3    1    3    3  502    0 -0.10744403214E+03 -0.22394733467E+03 -0.15427420257E+04  0.15626098671E+04  0.10100000352E+00 0. -1.
       -3    1    3    3    0  502  0.10744403214E+03  0.22394733467E+03  0.27255428815E+02  0.24987896540E+03  0.10100000352E+00 0.  1.
</event>
<event>
 5   0  0.4782125E-03  0.9932578E+03  0.7818609E-02  0.9315971E-01
        3   -1    0    0  501    0  0.00000000000E+00  0.00000000000E+00  0.28236038796E+03  0.28236040603E+03  0.10100000352E+00 0. -1.
       -3   -1    0    0    0  501  0.00000000000E+00  0.00000000000E+00 -0.87349452560E+03  0.87349453144E+03  0.10100000352E+00 0.  1.
    10030    2    1    2    0    0  0.00000000000E+00  0.00000000000E+00 -0.59113413764E+03  0.11558549375E+04  0.99325780530E+03 0.  0.
        2    1    3    3  502    0 -0.14318719707E+03 -0.31691881798E+03 -0.70814809803E+03  0.78893208791E+03  0.25500000920E-02 0.  1.
       -2    1    3    3    0  502  0.14318719707E+03  0.31691881798E+03  0.11701396039E+03  0.36692284955E+03  0.25500000920E-02 0. -1.
</event>
<event>
 5   0  0.1216322E-02  0.1006623E+04  0.7818609E-02  0.9301311E-01
        2   -1    0    0  501    0  0.00000000000E+00  0.00000000000E+00  0.67184252751E+03  0.67184252752E+03  0.25500000920E-02 0.  1.
       -2   -1    0    0    0  501  0.00000000000E+00  0.00000000000E+00 -0.37705625391E+03  0.37705625392E+03  0.25500000920E-02 0. -1.
    10030    2    1    2    0    0  0.00000000000E+00  0.00000000000E+00  0.29478627360E+03  0.10488987814E+04  0.10066229218E+04 0.  0.
        2    1    3    3  502    0 -0.29457118638E+03 -0.14442178169E+03  0.54512052655E+03  0.63622812210E+03  0.25500000920E-02 0.  1.
       -2    1    3    3    0  502  0.29457118638E+03  0.14442178169E+03 -0.25033425295E+03  0.41267065934E+03  0.25500000920E-02 0. -1.
</event>
<event>
 5   0  0.1240503E-02  0.8961109E+03  0.7818609E-02  0.9430456E-01
       -2   -1    0    0    0  501  0.00000000000E+00  0.00000000000E+00  0.28697257123E+03  0.28697257124E+03  0.25500000920E-02 0.  1.
        2   -1    0    0  501    0  0.00000000000E+00  0.00000000000E+00 -0.69955703879E+03  0.69955703880E+03  0.25500000920E-02 0. -1.
    10030    2    1    2    0    0  0.00000000000E+00  0.00000000000E+00 -0.41258446756E+03  0.98652961003E+03  0.89611089079E+03 0.  0.
        1    1    3    3  502    0 -0.58336599110E+02  0.42821430648E+03 -0.33647366156E+03  0.54770902496E+03  0.50400001928E-02 0. -1.
       -1    1    3    3    0  502  0.58336599110E+02 -0.42821430648E+03 -0.76110806002E+02  0.43882058508E+03  0.50400001928E-02 0.  1.
</event>
<event>
 5   0  0.7073004E-03  0.1003246E+04  0.7818609E-02  0.9304992E-01
        1   -1    0    0  501    0  0.00000000000E+00  0.00000000000E+00  0.92451718327E+03  0.92451718328E+03  0.50400001928E-02 0.  1.
       -1   -1    0    0    0  501  0.00000000000E+00  0.00000000000E+00 -0.27216951821E+03  0.27216951825E+03  0.50400001928E-02 0. -1.
    10030    2    1    2    0    0  0.00000000000E+00  0.00000000000E+00  0.65234766506E+03  0.11966867015E+04  0.10032455260E+04 0.  0.
        1    1    3    3  502    0  0.13658277267E+03  0.41570779607E+03  0.61873614411E+03  0.75782731645E+03  0.50400001928E-02 0.  1.
       -1    1    3    3    0  502 -0.13658277267E+03 -0.41570779607E+03  0.33611520948E+02  0.43885938508E+03  0.50400001928E-02 0. -1.
</event>
<event>
 5   0  0.1191822E-02  0.9903772E+03  0.7818609E-02  0.9319162E-01
        2   -1    0    0  501    0  0.00000000000E+00  0.00000000000E+00  0.85411158345E+03  0.85411158345E+03  0.25500000920E-02 0.  1.
       -2   -1    0    0    0  501  0.00000000000E+00  0.00000000000E+00 -0.28709570093E+03  0.28709570094E+03  0.25500000920E-02 0. -1.
    10030    2    1    2    0    0  0.00000000000E+00  0.00000000000E+00  0.56701588252E+03  0.11412072844E+04  0.99037722860E+03 0.  0.
        4    1    3    3  502    0  0.52438699689E+02  0.37811011638E+03 -0.79955147094E+02  0.39001476354E+03  0.12699999809E+01 0. -1.
       -4    1    3    3    0  502 -0.52438699689E+02 -0.37811011638E+03  0.64697102962E+03  0.75119252086E+03  0.12699999809E+01 0.  1.
</event>
<event>
 5   0  0.1191822E-02  0.1008289E+04  0.7818609E-02  0.9299500E-01
        2   -1    0    0  501    0  0.00000000000E+00  0.00000000000E+00  0.76291989280E+03  0.76291989280E+03  0.25500000920E-02 0. -1.
       -2   -1    0    0    0  501  0.00000000000E+00  0.00000000000E+00 -0.33314305798E+03  0.33314305799E+03  0.25500000920E-02 0.  1.
    10030    2    1    2    0    0  0.00000000000E+00  0.00000000000E+00  0.42977683482E+03  0.10960629508E+04  0.10082885819E+04 0.  0.
        4    1    3    3  502    0  0.40633345081E+03 -0.12628755744E+03  0.50880392750E+03  0.66327857643E+03  0.12699999809E+01 0. -1.
       -4    1    3    3    0  502 -0.40633345081E+03  0.12628755744E+03 -0.79027092683E+02  0.43278437436E+03  0.12699999809E+01 0.  1.
</event>
<event>
 5   0  0.1221315E-02  0.9959364E+03  0.7818609E-02  0.9313013E-01
       -2   -1    0    0    0  501  0.00000000000E+00  0.00000000000E+00  0.52250792849E+03  0.52250792850E+03  0.25500000920E-02 0. -1.
        2   -1    0    0  501    0  0.00000000000E+00  0.00000000000E+00 -0.47458094733E+03  0.47458094734E+03  0.25500000920E-02 0.  1.
    10030    2    1    2    0    0  0.00000000000E+00  0.00000000000E+00  0.47926981155E+02  0.99708887584E+03  0.99593635881E+03 0.  0.
        5    1    3    3  502    0 -0.17014016734E+03  0.46787515765E+03  0.33740958826E+02  0.49901441060E+03  0.46999998093E+01 0.  1.
       -5    1    3    3    0  502  0.17014016734E+03 -0.46787515765E+03  0.14186022329E+02  0.49807446523E+03  0.46999998093E+01 0. -1.
</event>
<event>
 5   0  0.7241200E-03  0.1010990E+04  0.7818609E-02  0.9296573E-01
        1   -1    0    0  501    0  0.00000000000E+00  0.00000000000E+00  0.92062200906E+03  0.92062200907E+03  0.50400001928E-02 0.  1.
       -1   -1    0    0    0  501  0.00000000000E+00  0.00000000000E+00 -0.27755698170E+03  0.27755698175E+03  0.50400001928E-02 0. -1.
    10030    2    1    2    0    0  0.00000000000E+00  0.00000000000E+00  0.64306502735E+03  0.11981789908E+04  0.10109897451E+04 0.  0.
        4    1    3    3  502    0 -0.40424114023E+03 -0.96748220781E+02 -0.19397377567E+02  0.41611175042E+03  0.12699999809E+01 0. -1.
       -4    1    3    3    0  502  0.40424114023E+03  0.96748220781E+02  0.66246240492E+03  0.78206724040E+03  0.12699999809E+01 0.  1.
</event>
<event>
 5   0  0.7461157E-03  0.1004096E+04  0.7818609E-02  0.9304064E-01
        1   -1    0    0  501    0  0.00000000000E+00  0.00000000000E+00  0.63204615663E+03  0.63204615665E+03  0.50400001928E-02 0. -1.
       -1   -1    0    0    0  501  0.00000000000E+00  0.00000000000E+00 -0.39878729617E+03  0.39878729620E+03  0.50400001928E-02 0.  1.
    10030    2    1    2    0    0  0.00000000000E+00  0.00000000000E+00  0.23325886047E+03  0.10308334529E+04  0.10040955689E+04 0.  0.
        2    1    3    3  502    0  0.20027637854E+03 -0.34304564627E+03  0.43182460082E+03  0.58673966042E+03  0.25500000920E-02 0. -1.
       -2    1    3    3    0  502 -0.20027637854E+03  0.34304564627E+03 -0.19856574036E+03  0.44409379243E+03  0.25500000920E-02 0.  1.
</event>
<event>
 5   0  0.1245850E-02  0.1014178E+04  0.7818609E-02  0.9293130E-01
       -2   -1    0    0    0  501  0.00000000000E+00  0.00000000000E+00  0.20787415890E+03  0.20787415892E+03  0.25500000920E-02 0. -1.
        2   -1    0    0  501    0  0.00000000000E+00  0.00000000000E+00 -0.12369941757E+04  0.12369941757E+04  0.25500000920E-02 0.  1.
    10030    2    1    2    0    0  0.00000000000E+00  0.00000000000E+00 -0.10291200168E+04  0.14448683346E+04  0.10141777435E+04 0.  0.
        3    1    3    3  502    0 -0.43942343364E+02  0.49029190448E+03 -0.34111249484E+03  0.59889466977E+03  0.10100000352E+00 0. -1.
       -3    1    3    3    0  502  0.43942343364E+02 -0.49029190448E+03 -0.68800752194E+03  0.84597366483E+03  0.10100000352E+00 0.  1.
</event>
<event>
 5   0  0.1191822E-02  0.9992877E+03  0.7818609E-02  0.9309326E-01
       -2   -1    0    0    0  501  0.00000000000E+00  0.00000000000E+00  0.33107240938E+03  0.33107240939E+03  0.25500000920E-02 0. -1.
        2   -1    0    0  501    0  0.00000000000E+00  0.00000000000E+00 -0.75404645377E+03  0.75404645377E+03  0.25500000920E-02 0.  1.
    10030    2    1    2    0    0  0.00000000000E+00  0.00000000000E+00 -0.42297404438E+03  0.10851188632E+04  0.99928769880E+03 0.  0.
        4    1    3    3  502    0 -0.24942214349E+03 -0.37765799199E+03  0.18366913956E+02  0.45296348750E+03  0.12699999809E+01 0. -1.
       -4    1    3    3    0  502  0.24942214349E+03  0.37765799199E+03 -0.44134095834E+03  0.63215537567E+03  0.12699999809E+01 0.  1.
</event>
<event>
 5   0  0.1191822E-02  0.1053737E+04  0.7818609E-02  0.9251494E-01
       -2   -1    0    0    0  501  0.00000000000E+00  0.00000000000E+00  0.58431531432E+03  0.58431531432E+03  0.25500000920E-02 0.  1.
        2   -1    0    0  501    0  0.00000000000E+00  0.00000000000E+00 -0.47506961258E+03  0.47506961259E+03  0.25500000920E-02 0. -1.
    10030    2    1    2    0    0  0.00000000000E+00  0.00000000000E+00  0.10924570174E+03  0.10593849269E+04  0.10537370640E+04 0.  0.
        4    1    3    3  502    0 -0.33825289905E+03  0.70959736732E+02 -0.34517493155E+03  0.48846458850E+03  0.12699999809E+01 0. -1.
       -4    1    3    3    0  502  0.33825289905E+03 -0.70959736732E+02  0.45442063328E+03  0.57092033841E+03  0.12699999809E+01 0.  1.
</event>
<event>
 5   0  0.7224879E-03  0.9979330E+03  0.7818609E-02  0.9310815E-01
        1   -1    0    0  501    0  0.00000000000E+00  0.00000000000E+00  0.27370200945E+03  0.27370200950E+03  0.50400001928E-02 0. -1.
       -1   -1    0    0    0  501  0.00000000000E+00  0.00000000000E+00 -0.90963007960E+03  0.90963007962E+03  0.50400001928E-02 0.  1.
    10030    2    1    2    0    0  0.00000000000E+00  0.00000000000E+00 -0.63592807015E+03  0.11833320891E+04  0.99793302517E+03 0.  0.
        3    1    3    3  502    0 -0.10479107709E+03 -0.48603743345E+03 -0.26830231418E+03  0.56497760889E+03  0.10100000352E+00 0.  1.
       -3    1    3    3    0  502  0.10479107709E+03  0.48603743345E+03 -0.36762575597E+03  0.61835448022E+03  0.10100000352E+00 0. -1.
</event>
<event>
 5   0  0.7073004E-03  0.1004762E+04  0.7818609E-02  0.9303337E-01
        1   -1    0    0  501    0  0.00000000000E+00  0.00000000000E+00  0.69837089327E+03  0.69837089329E+03  0.50400001928E-02 0.  1.
       -1   -1    0    0    0  501  0.00000000000E+00  0.00000000000E+00 -0.36139343913E+03  0.36139343917E+03  0.50400001928E-02 0. -1.
    10030    2    1    2    0    0  0.00000000000E+00  0.00000000000E+00  0.33697745413E+03  0.10597643325E+04  0.10047619796E+04 0.  0.
        1    1    3    3  502    0 -0.18265109532E+01 -0.50237754371E+03  0.16811381107E+03  0.52976295271E+03  0.50400001928E-02 0.  1.
       -1    1    3    3    0  502  0.18265109532E+01  0.50237754371E+03  0.16886364306E+03  0.53000137975E+03  0.50400001928E-02 0. -1.
</event>
<event>
 5   0  0.7461157E-03  0.9955490E+03  0.7818609E-02  0.9313440E-01
        1   -1    0    0  501    0  0.00000000000E+00  0.00000000000E+00  0.10581144567E+04  0.10581144567E+04  0.50400001928E-02 0.  1.
       -1   -1    0    0    0  501  0.00000000000E+00  0.00000000000E+00 -0.23417076667E+03  0.23417076672E+03  0.50400001928E-02 0. -1.
    10030    2    1    2    0    0  0.00000000000E+00  0.00000000000E+00  0.82394369002E+03  0.12922852234E+04  0.99554904166E+03 0.  0.
        2    1    3    3  502    0  0.89790133392E+02 -0.43323658575E+03  0.11590176041E+03  0.45737230498E+03  0.25500000920E-02 0. -1.
       -2    1    3    3    0  502 -0.89790133392E+02  0.43323658575E+03  0.70804192961E+03  0.83491291844E+03  0.25500000920E-02 0.  1.
</event>
<event>
 5   0  0.1240503E-02  0.1016122E+04  0.7818609E-02  0.9291037E-01
       -2   -1    0    0    0  501  0.00000000000E+00  0.00000000000E+00  0.19514098067E+03  0.19514098068E+03  0.25500000920E-02 0.  1.
        2   -1    0    0  501    0  0.00000000000E+00  0.00000000000E+00 -0.13227679318E+04  0.13227679318E+04  0.25500000920E-02 0. -1.
    10030    2    1    2    0    0  0.00000000000E+00  0.00000000000E+00 -0.11276269511E+04  0.15179089125E+04  0.10161224954E+04 0.  0.
        1    1    3    3  502    0  0.54531593499E+02 -0.25647374432E+03  0.86255650437E+02  0.27602991409E+03  0.50400001928E-02 0.  1.
       -1    1    3    3    0  502 -0.54531593499E+02  0.25647374432E+03 -0.12138826016E+04  0.12418789984E+04  0.50400001928E-02 0. -1.
</event>
<event>
 5   0  0.1191822E-02  0.8790112E+03  0.7818609E-02  0.9452206E-01
       -2   -1    0    0    0  501  0.00000000000E+00  0.00000000000E+00  0.33052005296E+03  0.33052005297E+03  0.25500000920E-02 0.  1.
        2   -1    0    0  501    0  0.00000000000E+00  0.00000000000E+00 -0.58442794622E+03  0.58442794622E+03  0.25500000920E-02 0. -1.
    10030    2    1    2    0    0  0.00000000000E+00  0.00000000000E+00 -0.25390789326E+03  0.91494799919E+03  0.87901116202E+03 0.  0.
        4    1    3    3  502    0 -0.12501830331E+03  0.34231897893E+03  0.12875546670E+03  0.38651189193E+03  0.12699999809E+01 0.  1.
       -4    1    3    3    0  502  0.12501830331E+03 -0.34231897893E+03 -0.38266335996E+03  0.52843610726E+03  0.12699999809E+01 0. -1.
</event>
<event>
 5   0  0.6967681E-03  0.9855168E+03  0.7818609E-02  0.9324574E-01
       -1   -1    0    0    0  501  0.00000000000E+00  0.00000000000E+00  0.79828966946E+03  0.79828966947E+03  0.50400001928E-02 0. -1.
        1   -1    0    0  501    0  0.00000000000E+00  0.00000000000E+00 -0.30416384605E+03  0.30416384609E+03  0.50400001928E-02 0.  1.
    10030    2    1    2    0    0  0.00000000000E+00  0.00000000000E+00  0.49412582341E+03  0.11024535156E+04  0.98551683122E+03 0.  0.
        5    1    3    3  502    0 -0.37146383690E+03  0.22939273117E+03 -0.84766200794E+01  0.43669251233E+03  0.46999998093E+01 0.  1.
       -5    1    3    3    0  502  0.37146383690E+03 -0.22939273117E+03  0.50260244349E+03  0.66576100324E+03  0.46999998093E+01 0. -1.
</event>
<event>
 5   0  0.1240503E-02  0.1016522E+04  0.7818609E-02  0.9290607E-01
        2   -1    0    0  501    0  0.00000000000E+00  0.00000000000E+00  0.42935019041E+03  0.42935019042E+03  0.25500000920E-02 0. -1.
       -2   -1    0    0    0  501  0.00000000000E+00  0.00000000000E+00 -0.60167545810E+03  0.60167545810E+03  0.25500000920E-02 0.  1.
    10030    2    1    2    0    0  0.00000000000E+00  0.00000000000E+00 -0.17232526768E+03  0.10310256485E+04  0.10165224494E+04 0.  0.
        1    1    3    3  502    0 -0.38453785455E+03  0.13184039197E+03  0.22327742446E+03  0.46379312073E+03  0.50400001928E-02 0. -1.
       -1    1    3    3    0  502  0.38453785455E+03 -0.13184039197E+03 -0.39560269214E+03  0.56723252780E+03  0.50400001928E-02 0.  1.
</event>
<event>
 5   0  0.7224879E-03  0.1022940E+04  0.7818609E-02  0.9283736E-01
        1   -1    0    0  501    0  0.00000000000E+00  0.00000000000E+00  0.21476717584E+03  0.21476717590E+03  0.50400001928E-02 0.  1.
       -1   -1    0    0    0  501  0.00000000000E+00  0.00000000000E+00 -0.12180709469E+04  0.12180709469E+04  0.50400001928E-02 0. -1.
    10030    2    1    2    0    0  0.00000000000E+00  0.00000000000E+00 -0.10033037711E+04  0.14328381228E+04  0.10229401884E+04 0.  0.
        3    1    3    3  502    0 -0.17561630536E+03  0.17848933487E+03 -0.11263448150E+04  0.11538423557E+04  0.10100000352E+00 0. -1.
       -3    1    3    3    0  502  0.17561630536E+03 -0.17848933487E+03  0.12304104393E+03  0.27899576710E+03  0.10100000352E+00 0.  1.
</event>
<event>
 5   0  0.6967681E-03  0.9784301E+03  0.7818609E-02  0.9332524E-01
       -1   -1    0    0    0  501  0.00000000000E+00  0.00000000000E+00  0.92270060146E+02  0.92270060284E+02  0.50400001928E-02 0. -1.
        1   -1    0    0  501    0  0.00000000000E+00  0.00000000000E+00 -0.25938137160E+04  0.25938137160E+04  0.50400001928E-02 0.  1.
    10030    2    1    2    0    0  0.00000000000E+00  0.00000000000E+00 -0.25015436558E+04  0.26860837763E+04  0.97843006449E+03 0.  0.
        5    1    3    3  502    0 -0.32617539614E+03 -0.17537516885E+03 -0.37329562274E+03  0.52585031220E+03  0.46999998093E+01 0. -1.
       -5    1    3    3    0  502  0.32617539614E+03  0.17537516885E+03 -0.21282480331E+04  0.21602334641E+04  0.46999998093E+01 0.  1.
</event>
<event>
 5   0  0.6967681E-03  0.1001742E+04  0.7818609E-02  0.9306636E-01
        1   -1    0    0  501    0  0.00000000000E+00  0.00000000000E+00  0.61208135926E+03  0.61208135928E+03  0.50400001928E-02 0.  1.
       -1   -1    0    0    0  501  0.00000000000E+00  0.00000000000E+00 -0.40986677539E+03  0.40986677542E+03  0.50400001928E-02 0. -1.
    10030    2    1    2    0    0  0.00000000000E+00  0.00000000000E+00  0.20221458388E+03  0.10219481347E+04  0.10017421086E+04 0.  0.
        5    1    3    3  502    0 -0.16834947426E+03  0.13884583935E+03 -0.35879634622E+03  0.41997216652E+03  0.46999998093E+01 0. -1.
       -5    1    3    3    0  502  0.16834947426E+03 -0.13884583935E+03  0.56101093010E+03  0.60197596819E+03  0.46999998093E+01 0.  1.
</event>
<event>
 5   0  0.1221315E-02  0.1017139E+04  0.7818609E-02  0.9289944E-01
        2   -1    0    0  501    0  0.00000000000E+00  0.00000000000E+00  0.58976003079E+03  0.58976003080E+03  0.25500000920E-02 0.  1.
       -2   -1    0    0    0  501  0.00000000000E+00  0.00000000000E+00 -0.43855607370E+03  0.43855607371E+03  0.25500000920E-02 0. -1.
    10030    2    1    2    0    0  0.00000000000E+00  0.00000000000E+00  0.15120395709E+03  0.10283161045E+04  0.10171388175E+04 0.  0.
        5    1    3    3  502    0  0.84380170939E+02 -0.75678540917E+02 -0.42560133617E+03  0.44046094282E+03  0.46999998093E+01 0. -1.
       -5    1    3    3    0  502 -0.84380170939E+02  0.75678540917E+02  0.57680529325E+03  0.58785516169E+03  0.46999998093E+01 0.  1.
</event>
<event>
 5   0  0.1221315E-02  0.1026007E+04  0.7818609E-02  0.9280472E-01
       -2   -1    0    0    0  501  0.00000000000E+00  0.00000000000E+00  0.37795658278E+03  0.37795658279E+03  0.25500000920E-02 0. -1.
        2   -1    0    0  501    0  0.00000000000E+00  0.00000000000E+00 -0.69630337988E+03  0.69630337989E+03  0.25500000920E-02 0.  1.
    10030    2    1    2    0    0  0.00000000000E+00  0.00000000000E+00 -0.31834679710E+03  0.10742599627E+04  0.10260067174E+04 0.  0.
        5    1    3    3  502    0  0.16334837530E+03  0.43896825065E+03 -0.37823687611E+03  0.60204737458E+03  0.46999998093E+01 0.  1.
       -5    1    3    3    0  502 -0.16334837530E+03 -0.43896825065E+03  0.59890079002E+02  0.47221258810E+03  0.46999998093E+01 0. -1.
</event>
<event>
 5   0  0.1191822E-02  0.9610369E+03  0.7818609E-02  0.9352342E-01
       -2   -1    0    0    0  501  0.00000000000E+00  0.00000000000E+00  0.44291841245E+03  0.44291841245E+03  0.25500000920E-02 0.  1.
        2   -1    0    0  501    0  0.00000000000E+00  0.00000000000E+00 -0.52131043008E+03  0.52131043009E+03  0.25500000920E-02 0. -1.
    10030    2    1    2    0    0  0.00000000000E+00  0.00000000000E+00 -0.78392017633E+02  0.96422884254E+03  0.96103691519E+03 0.  0.
        4    1    3    3  502    0  0.44289390625E+03 -0.18073870735E+03  0.65061609083E+01  0.47839882479E+03  0.12699999809E+01 0.  1.
       -4    1    3    3    0  502 -0.44289390625E+03  0.18073870735E+03 -0.84898178541E+02  0.48583001775E+03  0.12699999809E+01 0. -1.
</event>
<event>
 5   0  0.7073004E-03  0.1008625E+04  0.7818609E-02  0.9299135E-01
        1   -1    0    0  501    0  0.00000000000E+00  0.00000000000E+00  0.64973786275E+03  0.64973786277E+03  0.50400001928E-02 0.  1.
       -1   -1    0    0    0  501  0.00000000000E+00  0.00000000000E+00 -0.39143682626E+03  0.39143682629E+03  0.50400001928E-02 0. -1.
    10030    2    1    2    0    0  0.00000000000E+00  0.00000000000E+00  0.25830103649E+03  0.10411746891E+04  0.10086254546E+04 0.  0.
        1    1    3    3  502    0 -0.35275690410E+02 -0.47031946212E+03  0.31348113903E+03  0.56631722148E+03  0.50400001928E-02 0.  1.
       -1    1    3    3    0  502  0.35275690410E+02  0.47031946212E+03 -0.55180102539E+02  0.47485746759E+03  0.50400001928E-02 0. -1.
</event>
<event>
 5   0  0.1221315E-02  0.9947282E+03  0.7818609E-02  0.9314346E-01
        2   -1    0    0  501    0  0.00000000000E+00  0.00000000000E+00  0.11993515673E+04  0.11993515673E+04  0.25500000920E-02 0. -1.
       -2   -1    0    0    0  501  0.00000000000E+00  0.00000000000E+00 -0.20625399339E+03  0.20625399341E+03  0.25500000920E-02 0.  1.
    10030    2    1    2    0    0  0.00000000000E+00  0.00000000000E+00  0.99309757393E+03  0.14056055607E+04  0.99472820459E+03 0.  0.
        5    1    3    3  502    0  0.57947914811E+02  0.44150209574E+03  0.80955527505E+03  0.92395015814E+03  0.46999998093E+01 0. -1.
       -5    1    3    3    0  502 -0.57947914811E+02 -0.44150209574E+03  0.18354229888E+03  0.48165540259E+03  0.46999998093E+01 0.  1.
</event>
<event>
 5   0  0.6967681E-03  0.9926521E+03  0.7818609E-02  0.9316641E-01
       -1   -1    0    0    0  501  0.00000000000E+00  0.00000000000E+00  0.34165942574E+03  0.34165942578E+03  0.50400001928E-02 0.  1.
        1   -1    0    0  501    0  0.00000000000E+00  0.00000000000E+00 -0.72100906502E+03  0.72100906504E+03  0.50400001928E-02 0. -1.
    10030    2    1    2    0    0  0.00000000000E+00  0.00000000000E+00 -0.37934963928E+03  0.10626684908E+04  0.99265209040E+03 0.  0.
        5    1    3    3  502    0 -0.60499471898E+02  0.24273427141E+03 -0.64855516341E+03  0.69514459114E+03  0.46999998093E+01 0. -1.
       -5    1    3    3    0  502  0.60499471898E+02 -0.24273427141E+03  0.26920552413E+03  0.36752389968E+03  0.46999998093E+01 0.  1.
</event>
<event>
 5   0  0.1245850E-02  0.9972937E+03  0.7818609E-02  0.9311518E-01
       -2   -1    0    0    0  501  0.00000000000E+00  0.00000000000E+00  0.32886880359E+03  0.32886880360E+03  0.25500000920E-02 0. -1.
        2   -1    0    0  501    0  0.00000000000E+00  0.00000000000E+00 -0.75607250615E+03  0.75607250615E+03  0.25500000920E-02 0.  1.
    10030    2    1    2    0    0  0.00000000000E+00  0.00000000000E+00 -0.42720370256E+03  0.10849413098E+04  0.99729365892E+03 0.  0.
        3    1    3    3  502    0  0.17571629287E+03  0.46099389913E+03 -0.13472407779E+03  0.51141194545E+03  0.10100000352E+00 0.  1.
       -3    1    3    3    0  502 -0.17571629287E+03 -0.46099389913E+03 -0.29247962477E+03  0.57352936430E+03  0.10100000352E+00 0. -1.
</event>
<event>
 5   0  0.1221315E-02  0.1001447E+04  0.7818609E-02  0.9306960E-01
       -2   -1    0    0    0  501  0.00000000000E+00  0.00000000000E+00  0.46650190846E+03  0.46650190847E+03  0.25500000920E-02 0. -1.
        2   -1    0    0  501    0  0.00000000000E+00  0.00000000000E+00 -0.53745504573E+03  0.53745504574E+03  0.25500000920E-02 0.  1.
    10030    2    1    2    0    0  0.00000000000E+00  0.00000000000E+00 -0.70953137268E+02  0.10039569542E+04  0.10014465628E+04 0.  0.
        5    1    3    3  502    0  0.11480552158E+03 -0.61333232297E+02  0.44922238057E+03  0.46772311294E+03  0.46999998093E+01 0. -1.
       -5    1    3    3    0  502 -0.11480552158E+03  0.61333232297E+02 -0.52017551784E+03  0.53623384127E+03  0.46999998093E+01 0.  1.
</event>
<event>
 5   0  0.7241200E-03  0.1001371E+04  0.7818609E-02  0.9307042E-01
       -1   -1    0    0    0  501  0.00000000000E+00  0.00000000000E+00  0.80021249601E+03  0.80021249603E+03  0.50400001928E-02 0.  1.
        1   -1    0    0  501    0  0.00000000000E+00  0.00000000000E+00 -0.31327420397E+03  0.31327420401E+03  0.50400001928E-02 0. -1.
    10030    2    1    2    0    0  0.00000000000E+00  0.00000000000E+00  0.48693829204E+03  0.11134867000E+04  0.10013709257E+04 0.  0.
        4    1    3    3  502    0  0.22020562092E+03  0.17314266782E+03 -0.21798236775E+03  0.35494622755E+03  0.12699999809E+01 0. -1.
       -4    1    3    3    0  502 -0.22020562092E+03 -0.17314266782E+03  0.70492065979E+03  0.75854047249E+03  0.12699999809E+01 0.  1.
</event>
<event>
 5   0  0.1245850E-02  0.1342380E+04  0.7818609E-02  0.8996616E-01
       -2   -1    0    0    0  501  0.00000000000E+00  0.00000000000E+00  0.40457785606E+03  0.40457785606E+03  0.25500000920E-02 0. -1.
        2   -1    0    0  501    0  0.00000000000E+00  0.00000000000E+00 -0.11134964456E+04  0.11134964456E+04  0.25500000920E-02 0.  1.
    10030    2    1    2    0    0  0.00000000000E+00  0.00000000000E+00 -0.70891858957E+03  0.15180743017E+04  0.13423799830E+04 0.  0.
        3    1    3    3  502    0  0.30494714603E+03 -0.24437220998E+02  0.32114829353E+03  0.44353824669E+03  0.10100000352E+00 0. -1.
       -3    1    3    3    0  502 -0.30494714603E+03  0.24437220998E+02 -0.10300668831E+04  0.10745360550E+04  0.10100000352E+00 0.  1.
</event>
<event>
 5   0  0.1216322E-02  0.1091887E+04  0.7818609E-02  0.9213136E-01
        2   -1    0    0  501    0  0.00000000000E+00  0.00000000000E+00  0.89104786946E+03  0.89104786947E+03  0.25500000920E-02 0. -1.
       -2   -1    0    0    0  501  0.00000000000E+00  0.00000000000E+00 -0.33449838147E+03  0.33449838148E+03  0.25500000920E-02 0.  1.
    10030    2    1    2    0    0  0.00000000000E+00  0.00000000000E+00  0.55654948799E+03  0.12255462509E+04  0.10918865695E+04 0.  0.
        2    1    3    3  502    0 -0.54372442845E+03 -0.15612272276E+02  0.33060938442E+03  0.63653952132E+03  0.25500000920E-02 0. -1.
       -2    1    3    3    0  502  0.54372442845E+03  0.15612272276E+02  0.22594010358E+03  0.58900672963E+03  0.25500000920E-02 0.  1.
</event>
<event>
 5   0  0.1191822E-02  0.9958835E+03  0.7818609E-02  0.9313071E-01
       -2   -1    0    0    0  501  0.00000000000E+00  0.00000000000E+00  0.50042403418E+03  0.50042403418E+03  0.25500000920E-02 0. -1.
        2   -1    0    0  501    0  0.00000000000E+00  0.00000000000E+00 -0.49547174223E+03  0.49547174224E+03  0.25500000920E-02 0.  1.
    10030    2    1    2    0    0  0.00000000000E+00  0.00000000000E+00  0.49522919424E+01  0.99589577642E+03  0.99588346322E+03 0.  0.
        4    1    3    3  502    0  0.20926599570E+03 -0.81338269140E+02 -0.44197977866E+03  0.49573774178E+03  0.12699999809E+01 0.  1.
       -4    1    3    3    0  502 -0.20926599570E+03  0.81338269140E+02  0.44693207060E+03  0.50015803464E+03  0.12699999809E+01 0. -1.
</event>
<event>
 5   0  0.1245850E-02  0.1097558E+04  0.7818609E-02  0.9207575E-01
       -2   -1    0    0    0  501  0.00000000000E+00  0.00000000000E+00  0.87828862239E+03  0.87828862239E+03  0.25500000920E-02 0. -1.
        2   -1    0    0  501    0  0.00000000000E+00  0.00000000000E+00 -0.34289249345E+03  0.34289249346E+03  0.25500000920E-02 0.  1.
    10030    2    1    2    0    0  0.00000000000E+00  0.00000000000E+00  0.53539612894E+03  0.12211811158E+04  0.10975583369E+04 0.  0.
        3    1    3    3  502    0 -0.24906633446E+03  0.25212416906E+03 -0.19849165541E+03  0.40620140701E+03  0.10100000352E+00 0.  1.
       -3    1    3    3    0  502  0.24906633446E+03 -0.25212416906E+03  0.73388778436E+03  0.81497970884E+03  0.10100000352E+00 0. -1.
</event>
<event>
 5   0  0.1240503E-02  0.9961702E+03  0.7818609E-02  0.9312755E-01
       -2   -1    0    0    0  501  0.00000000000E+00  0.00000000000E+00  0.30152950882E+03  0.30152950883E+03  0.25500000920E-02 0.  1.
        2   -1    0    0  501    0  0.00000000000E+00  0.00000000000E+00 -0.82276784719E+03  0.82276784720E+03  0.25500000920E-02 0. -1.
    10030    2    1    2    0    0  0.00000000000E+00  0.00000000000E+00 -0.52123833837E+03  0.11242973560E+04  0.99617023615E+03 0.  0.
        1    1    3    3  502    0 -0.16438616950E+03 -0.36747471172E+03  0.70411566538E+02  0.40867868210E+03  0.50400001928E-02 0.  1.
       -1    1    3    3    0  502  0.16438616950E+03  0.36747471172E+03 -0.59164990491E+03  0.71561867393E+03  0.50400001928E-02 0. -1.
</event>
<event>
 5   0  0.1240503E-02  0.1009846E+04  0.7818609E-02  0.9297811E-01
        2   -1    0    0  501    0  0.00000000000E+00  0.00000000000E+00  0.43986933877E+03  0.43986933877E+03  0.25500000920E-02 0.  1.
       -2   -1    0    0    0  501  0.00000000000E+00  0.00000000000E+00 -0.57959761387E+03  0.57959761388E+03  0.25500000920E-02 0. -1.
    10030    2    1    2    0    0  0.00000000000E+00  0.00000000000E+00 -0.13972827510E+03  0.10194669526E+04  0.10098459668E+04 0.  0.
        1    1    3    3  502    0 -0.52008455231E+02  0.75179222428E+02 -0.57117385223E+03  0.57844305199E+03  0.50400001928E-02 0. -1.
       -1    1    3    3    0  502  0.52008455231E+02 -0.75179222428E+02  0.43144557713E+03  0.44102390066E+03  0.50400001928E-02 0.  1.
</event>
<event>
 5   0  0.7073004E-03  0.9917108E+03  0.7818609E-02  0.9317683E-01
        1   -1    0    0  501    0  0.00000000000E+00  0.00000000000E+00  0.60573348067E+03  0.60573348069E+03  0.50400001928E-02 0. -1.
       -1   -1    0    0    0  501  0.00000000000E+00  0.00000000000E+00 -0.40590887436E+03  0.40590887439E+03  0.50400001928E-02 0.  1.
    10030    2    1    2    0    0  0.00000000000E+00  0.00000000000E+00  0.19982460631E+03  0.10116423551E+04  0.99171083553E+03 0.  0.
        1    1    3    3  502    0  0.48501557215E+03  0.55977481473E+02  0.11575036045E+02  0.48837236321E+03  0.50400001928E-02 0.  1.
       -1    1    3    3    0  502 -0.48501557215E+03 -0.55977481473E+02  0.18824957026E+03  0.52326999187E+03  0.50400001928E-02 0. -1.
</event>
<event>
 5   0  0.7461157E-03  0.9911615E+03  0.7818609E-02  0.9318292E-01
        1   -1    0    0  501    0  0.00000000000E+00  0.00000000000E+00  0.76890886061E+03  0.76890886062E+03  0.50400001928E-02 0. -1.
       -1   -1    0    0    0  501  0.00000000000E+00  0.00000000000E+00 -0.31941403996E+03  0.31941404000E+03  0.50400001928E-02 0.  1.
    10030    2    1    2    0    0  0.00000000000E+00  0.00000000000E+00  0.44949482065E+03  0.10883229006E+04  0.99116151168E+03 0.  0.
        2    1    3    3  502    0  0.15603852416E+03  0.26847734790E+03 -0.19934183001E+03  0.36900578933E+03  0.25500000920E-02 0.  1.
       -2    1    3    3    0  502 -0.15603852416E+03 -0.26847734790E+03  0.64883665066E+03  0.71931711130E+03  0.25500000920E-02 0. -1.
</event>
<event>
 5   0  0.1240503E-02  0.9959735E+03  0.7818609E-02  0.9312972E-01
        2   -1    0    0  501    0  0.00000000000E+00  0.00000000000E+00  0.27349819182E+03  0.27349819183E+03  0.25500000920E-02 0.  1.
       -2   -1    0    0    0  501  0.00000000000E+00  0.00000000000E+00 -0.90673652538E+03  0.90673652539E+03  0.25500000920E-02 0. -1.
    10030    2    1    2    0    0  0.00000000000E+00  0.00000000000E+00 -0.63323833356E+03  0.11802347172E+04  0.99597349394E+03 0.  0.
        1    1    3    3  502    0  0.35539942418E+03 -0.28139622206E+03 -0.56090931488E+03  0.72118780081E+03  0.50400001928E-02 0. -1.
       -1    1    3    3    0  502 -0.35539942418E+03  0.28139622206E+03 -0.72329018679E+02  0.45904691641E+03  0.50400001928E-02 0.  1.
</event>
<event>
 5   0  0.7224879E-03  0.6885147E+03  0.7818609E-02  0.9737078E-01
       -1   -1    0    0    0  501  0.00000000000E+00  0.00000000000E+00  0.34372225869E+03  0.34372225873E+03  0.50400001928E-02 0. -1.
        1   -1    0    0  501    0  0.00000000000E+00  0.00000000000E+00 -0.34479326563E+03  0.34479326567E+03  0.50400001928E-02 0.  1.
    10030    2    1    2    0    0  0.00000000000E+00  0.00000000000E+00 -0.10710069424E+01  0.68851552440E+03  0.68851469140E+03 0.  0.
        3    1    3    3  502    0  0.96791833525E+02  0.22453656823E+02 -0.33014215844E+03  0.34477047542E+03  0.10100000352E+00 0.  1.
       -3    1    3    3    0  502 -0.96791833525E+02 -0.22453656823E+02  0.32907115150E+03  0.34374504897E+03  0.10100000352E+00 0. -1.
</event>
<event>
 5   0  0.1221315E-02  0.9784856E+03  0.7818609E-02  0.9332461E-01
        2   -1    0    0  501    0  0.00000000000E+00  0.00000000000E+00  0.12476799349E+04  0.12476799349E+04  0.25500000920E-02 0.  1.
       -2   -1    0    0    0  501  0.00000000000E+00  0.00000000000E+00 -0.19184287264E+03  0.19184287266E+03  0.25500000920E-02 0. -1.
    10030    2    1    2    0    0  0.00000000000E+00  0.00000000000E+00  0.10558370622E+04  0.14395228075E+04  0.97848557037E+03 0.  0.
        5    1    3    3  502    0 -0.12195780381E+02  0.39229058692E+03  0.98255611958E+02  0.40461944704E+03  0.46999998093E+01 0. -1.
       -5    1    3    3    0  502  0.12195780381E+02 -0.39229058692E+03  0.95758145027E+03  0.10349033605E+04  0.46999998093E+01 0.  1.
</event>
<event>
 5   0  0.7224879E-03  0.1010108E+04  0.7818609E-02  0.9297527E-01
        1   -1    0    0  501    0  0.00000000000E+00  0.00000000000E+00  0.78357823254E+03  0.78357823256E+03  0.50400001928E-02 0. -1.
       -1   -1    0    0    0  501  0.00000000000E+00  0.00000000000E+00 -0.32553197383E+03  0.32553197387E+03  0.50400001928E-02 0.  1.
    10030    2    1    2    0    0  0.00000000000E+00  0.00000000000E+00  0.45804625871E+03  0.11091102064E+04  0.10101084471E+04 0.  0.
        3    1    3    3  502    0 -0.15547055554E+03  0.73258843849E+02 -0.29243594141E+03  0.33920015016E+03  0.10100000352E+00 0.  1.
       -3    1    3    3    0  502  0.15547055554E+03 -0.73258843849E+02  0.75048220012E+03  0.76991005627E+03  0.10100000352E+00 0. -1.
</event>
<event>
 5   0  0.1216322E-02  0.9996200E+03  0.7818609E-02  0.9308962E-01
       -2   -1    0    0    0  501  0.00000000000E+00  0.00000000000E+00  0.37005540043E+03  0.37005540044E+03  0.25500000920E-02 0. -1.
        2   -1    0    0  501    0  0.00000000000E+00  0.00000000000E+00 -0.67506117495E+03  0.67506117496E+03  0.25500000920E-02 0.  1.
    10030    2    1    2    0    0  0.00000000000E+00  0.00000000000E+00 -0.30500577453E+03  0.10451165754E+04  0.99961999463E+03 0.  0.
        2    1    3    3  502    0  0.29538419447E+03 -0.90662990674E+02  0.25823696709E+03  0.40268838002E+03  0.25500000920E-02 0. -1.
       -2    1    3    3    0  502 -0.29538419447E+03  0.90662990674E+02 -0.56324274162E+03  0.64242819538E+03  0.25500000920E-02 0.  1.
</event>
<event>
 5   0  0.7241200E-03  0.1004844E+04  0.7818609E-02  0.9303248E-01
       -1   -1    0    0    0  501  0.00000000000E+00  0.00000000000E+00  0.55293625289E+03  0.55293625292E+03  0.50400001928E-02 0. -1.
        1   -1    0    0  501    0  0.00000000000E+00  0.00000000000E+00 -0.45652259972E+03  0.45652259974E+03  0.50400001928E-02 0.  1.
    10030    2    1    2    0    0  0.00000000000E+00  0.00000000000E+00  0.96413653177E+02  0.10094588527E+04  0.10048440589E+04 0.  0.
        4    1    3    3  502    0 -0.29810978489E+03  0.31554058321E+03  0.30233296087E+03  0.52900107337E+03  0.12699999809E+01 0. -1.
       -4    1    3    3    0  502  0.29810978489E+03 -0.31554058321E+03 -0.20591930769E+03  0.48045777929E+03  0.12699999809E+01 0.  1.
</event>
<event>
 5   0  0.6967681E-03  0.1011929E+04  0.7818609E-02  0.9295557E-01
       -1   -1    0    0    0  501  0.00000000000E+00  0.00000000000E+00  0.25448689595E+03  0.25448689600E+03  0.50400001928E-02 0.  1.
        1   -1    0    0  501    0  0.00000000000E+00  0.00000000000E+00 -0.10059455031E+04  0.10059455031E+04  0.50400001928E-02 0. -1.
    10030    2    1    2    0    0  0.00000000000E+00  0.00000000000E+00 -0.75145860716E+03  0.12604323991E+04  0.10119287497E+04 0.  0.
        5    1    3    3  502    0 -0.46922017610E+03  0.18850532854E+03 -0.39642331456E+03  0.64255378520E+03  0.46999998093E+01 0.  1.
       -5    1    3    3    0  502  0.46922017610E+03 -0.18850532854E+03 -0.35503529260E+03  0.61787861392E+03  0.46999998093E+01 0. -1.
</event>
<event>
 5   0  0.7073004E-03  0.1014211E+04  0.7818609E-02  0.9293095E-01
       -1   -1    0    0    0  501  0.00000000000E+00  0.00000000000E+00  0.53440124769E+03  0.53440124771E+03  0.50400001928E-02 0.  1.
        1   -1    0    0  501    0  0.00000000000E+00  0.00000000000E+00 -0.48120364880E+03  0.48120364883E+03  0.50400001928E-02 0. -1.
    10030    2    1    2    0    0  0.00000000000E+00  0.00000000000E+00  0.53197598890E+02  0.10156048965E+04  0.10142106888E+04 0.  0.
        1    1    3    3  502    0  0.25291076511E+03 -0.36935267774E+03  0.26519210162E+03  0.52030001581E+03  0.50400001928E-02 0.  1.
       -1    1    3    3    0  502 -0.25291076511E+03  0.36935267774E+03 -0.21199450273E+03  0.49530488073E+03  0.50400001928E-02 0. -1.
</event>
<event>
 5   0  0.7461157E-03  0.1010958E+04  0.7818609E-02  0.9296607E-01
        1   -1    0    0  501    0  0.00000000000E+00  0.00000000000E+00  0.14652219373E+04  0.14652219373E+04  0.50400001928E-02 0. -1.
       -1   -1    0    0    0  501  0.00000000000E+00  0.00000000000E+00 -0.17438258715E+03  0.17438258722E+03  0.50400001928E-02 0.  1.
    10030    2    1    2    0    0  0.00000000000E+00  0.00000000000E+00  0.12908393502E+04  0.16396045246E+04  0.10109583419E+04 0.  0.
        2    1    3    3  502    0 -0.48006782244E+03  0.37211257065E+02  0.39595577061E+03  0.62340256983E+03  0.25500000920E-02 0.  1.
       -2    1    3    3    0  502  0.48006782244E+03 -0.37211257065E+02  0.89488357957E+03  0.10162019547E+04  0.25500000920E-02 0. -1.
</event>
<event>
 5   0  0.1245850E-02  0.1011138E+04  0.7818609E-02  0.9296412E-01
        2   -1    0    0  501    0  0.00000000000E+00  0.00000000000E+00  0.88611867970E+03  0.88611867971E+03  0.25500000920E-02 0. -1.
       -2   -1    0    0    0  501  0.00000000000E+00  0.00000000000E+00 -0.28844905499E+03  0.28844905500E+03  0.25500000920E-02 0.  1.
    10030    2    1    2    0    0  0.00000000000E+00  0.00000000000E+00  0.59766962471E+03  0.11745677347E+04  0.10111381622E+04 0.  0.
        3    1    3    3  502    0 -0.48027486330E+03 -0.15278707718E+03  0.25248230455E+03  0.56369775552E+03  0.10100000352E+00 0.  1.
       -3    1    3    3    0  502  0.48027486330E+03  0.15278707718E+03  0.34518732016E+03  0.61086997919E+03  0.10100000352E+00 0. -1.
</event>
<event>
 5   0  0.1240503E-02  0.1000326E+04  0.7818609E-02  0.9308188E-01
       -2   -1    0    0    0  501  0.00000000000E+00  0.00000000000E+00  0.61100324326E+03  0.61100324327E+03  0.25500000920E-02 0.  1.
        2   -1    0    0  501    0  0.00000000000E+00  0.00000000000E+00 -0.40942958777E+03  0.40942958778E+03  0.25500000920E-02 0. -1.
    10030    2    1    2    0    0  0.00000000000E+00  0.00000000000E+00  0.20157365549E+03  0.10204328310E+04  0.10003255591E+04 0.  0.
        1    1    3    3  502    0 -0.42979022405E+03  0.10001715174E+03 -0.13940246577E+03  0.46277004529E+03  0.50400001928E-02 0. -1.
       -1    1    3    3    0  502  0.42979022405E+03 -0.10001715174E+03  0.34097612125E+03  0.55766278576E+03  0.50400001928E-02 0.  1.
</event>
<event>
 5   0  0.7461157E-03  0.1038324E+04  0.7818609E-02  0.9267483E-01
        1   -1    0    0  501    0  0.00000000000E+00  0.00000000000E+00  0.51978102414E+03  0.51978102417E+03  0.50400001928E-02 0.  1.
       -1   -1    0    0    0  501  0.00000000000E+00  0.00000000000E+00 -0.51854344853E+03  0.51854344856E+03  0.50400001928E-02 0. -1.
    10030    2    1    2    0    0  0.00000000000E+00  0.00000000000E+00  0.12375756110E+01  0.10383244727E+04  0.10383237352E+04 0.  0.
        2    1    3    3  502    0 -0.48278426043E+03 -0.19008576420E+03  0.18389700484E+02  0.51918341746E+03  0.25500000920E-02 0. -1.
       -2    1    3    3    0  502  0.48278426043E+03  0.19008576420E+03 -0.17152124873E+02  0.51914105527E+03  0.25500000920E-02 0.  1.
</event>
<event>
 5   0  0.7241200E-03  0.9928367E+03  0.7818609E-02  0.9316436E-01
       -1   -1    0    0    0  501  0.00000000000E+00  0.00000000000E+00  0.46588022612E+03  0.46588022615E+03  0.50400001928E-02 0.  1.
        1   -1    0    0  501    0  0.00000000000E+00  0.00000000000E+00 -0.52895824632E+03  0.52895824635E+03  0.50400001928E-02 0. -1.
    10030    2    1    2    0    0  0.00000000000E+00  0.00000000000E+00 -0.63078020198E+02  0.99483847250E+03  0.99283671857E+03 0.  0.
        4    1    3    3  502    0 -0.22153645620E+03  0.37154224846E+03 -0.27556139243E+03  0.51289154576E+03  0.12699999809E+01 0. -1.
       -4    1    3    3    0  502  0.22153645620E+03 -0.37154224846E+03  0.21248337223E+03  0.48194692674E+03  0.12699999809E+01 0.  1.
</event>
<event>
 5   0  0.7224879E-03  0.1006218E+04  0.7818609E-02  0.9301751E-01
       -1   -1    0    0    0  501  0.00000000000E+00  0.00000000000E+00  0.29530832199E+03  0.29530832203E+03  0.50400001928E-02 0. -1.
        1   -1    0    0  501    0  0.00000000000E+00  0.00000000000E+00 -0.85713333303E+03  0.85713333305E+03  0.50400001928E-02 0.  1.
    10030    2    1    2    0    0  0.00000000000E+00  0.00000000000E+00 -0.56182501104E+03  0.11524416551E+04  0.10062178816E+04 0.  0.
        3    1    3    3  502    0 -0.28220466099E+02 -0.48183599530E+03 -0.11830819484E+03  0.49694985687E+03  0.10100000352E+00 0.  1.
       -3    1    3    3    0  502  0.28220466099E+02  0.48183599530E+03 -0.44351681620E+03  0.65549179822E+03  0.10100000352E+00 0. -1.
</event>
<event>
 5   0  0.7241200E-03  0.6204194E+03  0.7818609E-02  0.9863925E-01
        1   -1    0    0  501    0  0.00000000000E+00  0.00000000000E+00  0.12671710325E+03  0.12671710335E+03  0.50400001928E-02 0. -1.
       -1   -1    0    0    0  501  0.00000000000E+00  0.00000000000E+00 -0.75940858160E+03  0.75940858161E+03  0.50400001928E-02 0.  1.
    10030    2    1    2    0    0  0.00000000000E+00  0.00000000000E+00 -0.63269147834E+03  0.88612568497E+03  0.62041939266E+03 0.  0.
        4    1    3    3  502    0 -0.21574555867E+03 -0.91885132550E+02 -0.26300173256E+02  0.23597104840E+03  0.12699999809E+01 0. -1.
       -4    1    3    3    0  502  0.21574555867E+03  0.91885132550E+02 -0.60639130509E+03  0.65015463657E+03  0.12699999809E+01 0.  1.
</event>
<event>
 5   0  0.1216322E-02  0.9981452E+03  0.7818609E-02  0.9310581E-01
       -2   -1    0    0    0  501  0.00000000000E+00  0.00000000000E+00  0.14506009277E+03  0.14506009279E+03  0.25500000920E-02 0. -1.
        2   -1    0    0  501    0  0.00000000000E+00  0.00000000000E+00 -0.17170364522E+04  0.17170364522E+04  0.25500000920E-02 0.  1.
    10030    2    1    2    0    0  0.00000000000E+00  0.00000000000E+00 -0.15719763594E+04  0.18620965450E+04  0.99814521402E+03 0.  0.
        2    1    3    3  502    0  0.11965734214E+03 -0.44055076663E+03 -0.11622141807E+04  0.12486571424E+04  0.25500000920E-02 0. -1.
       -2    1    3    3    0  502 -0.11965734214E+03  0.44055076663E+03 -0.40976217876E+03  0.61343940260E+03  0.25500000920E-02 0.  1.
</event>
<event>
 5   0  0.1240503E-02  0.9802542E+03  0.7818609E-02  0.9330471E-01
       -2   -1    0    0    0  501  0.00000000000E+00  0.00000000000E+00  0.48940060764E+03  0.48940060765E+03  0.25500000920E-02 0.  1.
        2   -1    0    0  501    0  0.00000000000E+00  0.00000000000E+00 -0.49085462571E+03  0.49085462571E+03  0.25500000920E-02 0. -1.
    10030    2    1    2    0    0  0.00000000000E+00  0.00000000000E+00 -0.14540180684E+01  0.98025523336E+03  0.98025415498E+03 0.  0.
        1    1    3    3  502    0  0.43929630698E+03  0.14305844192E+03  0.16291176341E+03  0.48988489037E+03  0.50400001928E-02 0.  1.
       -1    1    3    3    0  502 -0.43929630698E+03 -0.14305844192E+03 -0.16436578148E+03  0.49037034299E+03  0.50400001928E-02 0. -1.
</event>
<event>
 5   0  0.4782125E-03  0.1005232E+04  0.7818609E-02  0.9302825E-01
        3   -1    0    0  501    0  0.00000000000E+00  0.00000000000E+00  0.38978539809E+03  0.38978541118E+03  0.10100000352E+00 0. -1.
       -3   -1    0    0    0  501  0.00000000000E+00  0.00000000000E+00 -0.64810805237E+03  0.64810806024E+03  0.10100000352E+00 0.  1.
    10030    2    1    2    0    0  0.00000000000E+00  0.00000000000E+00 -0.25832265428E+03  0.10378934714E+04  0.10052324429E+04 0.  0.
        1    1    3    3  502    0  0.34412575214E+03 -0.28257653522E+03 -0.36986914232E+03  0.57885681650E+03  0.50400001928E-02 0.  1.
       -1    1    3    3    0  502 -0.34412575214E+03  0.28257653522E+03  0.11154648804E+03  0.45903665492E+03  0.50400001928E-02 0. -1.
</event>
<event>
 5   0  0.7073004E-03  0.1027744E+04  0.7818609E-02  0.9278628E-01
       -1   -1    0    0    0  501  0.00000000000E+00  0.00000000000E+00  0.31908429949E+03  0.31908429953E+03  0.50400001928E-02 0.  1.
        1   -1    0    0  501    0  0.00000000000E+00  0.00000000000E+00 -0.82756952110E+03  0.82756952111E+03  0.50400001928E-02 0. -1.
    10030    2    1    2    0    0  0.00000000000E+00  0.00000000000E+00 -0.50848522161E+03  0.11466538206E+04  0.10277440167E+04 0.  0.
        1    1    3    3  502    0 -0.51097602476E+03 -0.32942093473E+02 -0.30265371886E+03  0.59479488310E+03  0.50400001928E-02 0. -1.
       -1    1    3    3    0  502  0.51097602476E+03  0.32942093473E+02 -0.20583150274E+03  0.55185893754E+03  0.50400001928E-02 0.  1.
</event>
<event>
 5   0  0.1216322E-02  0.1001956E+04  0.7818609E-02  0.9306403E-01
        2   -1    0    0  501    0  0.00000000000E+00  0.00000000000E+00  0.19106632463E+04  0.19106632463E+04  0.25500000920E-02 0.  1.
       -2   -1    0    0    0  501  0.00000000000E+00  0.00000000000E+00 -0.13135687961E+03  0.13135687964E+03  0.25500000920E-02 0. -1.
    10030    2    1    2    0    0  0.00000000000E+00  0.00000000000E+00  0.17793063667E+04  0.20420201259E+04  0.10019556119E+04 0.  0.
        2    1    3    3  502    0 -0.32046636226E+03 -0.10099880047E+03  0.16469669437E+04  0.16808924893E+04  0.25500000920E-02 0.  1.
       -2    1    3    3    0  502  0.32046636226E+03  0.10099880047E+03  0.13233942298E+03  0.36112763660E+03  0.25500000920E-02 0. -1.
</event>
<event>
 5   0  0.7224879E-03  0.9817191E+03  0.7818609E-02  0.9328825E-01
        1   -1    0    0  501    0  0.00000000000E+00  0.00000000000E+00  0.50519319706E+03  0.50519319709E+03  0.50400001928E-02 0.  1.
       -1   -1    0    0    0  501  0.00000000000E+00  0.00000000000E+00 -0.47693258646E+03  0.47693258649E+03  0.50400001928E-02 0. -1.
    10030    2    1    2    0    0  0.00000000000E+00  0.00000000000E+00  0.28260610605E+02  0.98212578357E+03  0.98171910068E+03 0.  0.
        3    1    3    3  502    0 -0.38485676652E+02 -0.42624680627E+02  0.50182079093E+03  0.50509615630E+03  0.10100000352E+00 0.  1.
       -3    1    3    3    0  502  0.38485676652E+02  0.42624680627E+02 -0.47356018032E+03  0.47702962727E+03  0.10100000352E+00 0. -1.
</event>
<event>
 5   0  0.1240503E-02  0.1015102E+04  0.7818609E-02  0.9292134E-01
        2   -1    0    0  501    0  0.00000000000E+00  0.00000000000E+00  0.55596424838E+03  0.55596424838E+03  0.25500000920E-02 0. -1.
       -2   -1    0    0    0  501  0.00000000000E+00  0.00000000000E+00 -0.46335397382E+03  0.46335397383E+03  0.25500000920E-02 0.  1.
    10030    2    1    2    0    0  0.00000000000E+00  0.00000000000E+00  0.92610274559E+02  0.10193182222E+04  0.10151024457E+04 0.  0.
        1    1    3    3  502    0 -0.43189154298E+03 -0.20185185287E+03  0.22119437990E+03  0.52554869340E+03  0.50400001928E-02 0.  1.
       -1    1    3    3    0  502  0.43189154298E+03  0.20185185287E+03 -0.12858410535E+03  0.49376952881E+03  0.50400001928E-02 0. -1.
</event>
<event>
 5   0  0.7224879E-03  0.9891865E+03  0.7818609E-02  0.9320485E-01
        1   -1    0    0  501    0  0.00000000000E+00  0.00000000000E+00  0.13732545068E+04  0.13732545068E+04  0.50400001928E-02 0.  1.
       -1   -1    0    0    0  501  0.00000000000E+00  0.00000000000E+00 -0.17813340455E+03  0.17813340462E+03  0.50400001928E-02 0. -1.
    10030    2    1    2    0    0  0.00000000000E+00  0.00000000000E+00  0.11951211022E+04  0.15513879114E+04  0.98918653584E+03 0.  0.
        3    1    3    3  502    0  0.36629611191E+03 -0.32390131417E+03  0.48085204524E+03  0.68578684920E+03  0.10100000352E+00 0.  1.
       -3    1    3    3    0  502 -0.36629611191E+03  0.32390131417E+03  0.71426905700E+03  0.86560106222E+03  0.10100000352E+00 0. -1.
</event>
<event>
 5   0  0.1221315E-02  0.1149462E+04  0.7818609E-02  0.9158280E-01
        2   -1    0    0  501    0  0.00000000000E+00  0.00000000000E+00  0.92723603509E+03  0.92723603509E+03  0.25500000920E-02 0. -1.
       -2   -1    0    0    0  501  0.00000000000E+00  0.00000000000E+00 -0.35623719961E+03  0.35623719962E+03  0.25500000920E-02 0.  1.
    10030    2    1    2    0    0  0.00000000000E+00  0.00000000000E+00  0.57099883548E+03  0.12834732347E+04  0.11494624283E+04 0.  0.
        5    1    3    3  502    0  0.13275378588E+03 -0.18920574720E+03  0.87303092300E+03  0.90312095809E+03  0.46999998093E+01 0. -1.
       -5    1    3    3    0  502 -0.13275378588E+03  0.18920574720E+03 -0.30203208752E+03  0.38035227662E+03  0.46999998093E+01 0.  1.
</event>
<event>
 5   0  0.1240503E-02  0.1000622E+04  0.7818609E-02  0.9307863E-01
        2   -1    0    0  501    0  0.00000000000E+00  0.00000000000E+00  0.88496418798E+03  0.88496418798E+03  0.25500000920E-02 0. -1.
       -2   -1    0    0    0  501  0.00000000000E+00  0.00000000000E+00 -0.28284884917E+03  0.28284884919E+03  0.25500000920E-02 0.  1.
    10030    2    1    2    0    0  0.00000000000E+00  0.00000000000E+00  0.60211533881E+03  0.11678130372E+04  0.10006220108E+04 0.  0.
        1    1    3    3  502    0 -0.30339135586E+03  0.18179577255E+02  0.76486913884E+03  0.82304411268E+03  0.50400001928E-02 0. -1.
       -1    1    3    3    0  502  0.30339135586E+03 -0.18179577255E+02 -0.16275380004E+03  0.34476892449E+03  0.50400001928E-02 0.  1.
</event>
<event>
 5   0  0.7461157E-03  0.9581383E+03  0.7818609E-02  0.9355688E-01
        1   -1    0    0  501    0  0.00000000000E+00  0.00000000000E+00  0.19082019062E+04  0.19082019062E+04  0.50400001928E-02 0. -1.
       -1   -1    0    0    0  501  0.00000000000E+00  0.00000000000E+00 -0.12027408033E+03  0.12027408043E+03  0.50400001928E-02 0.  1.
    10030    2    1    2    0    0  0.00000000000E+00  0.00000000000E+00  0.17879278259E+04  0.20284759867E+04  0.95813825613E+03 0.  0.
        2    1    3    3  502    0  0.39451423180E+03 -0.17241692960E+02  0.31973168231E+03  0.50810146993E+03  0.25500000920E-02 0.  1.
       -2    1    3    3    0  502 -0.39451423180E+03  0.17241692960E+02  0.14681961436E+04  0.15203745167E+04  0.25500000920E-02 0. -1.
</event>
<event>
 5   0  0.1216322E-02  0.1046065E+04  0.7818609E-02  0.9259416E-01
        2   -1    0    0  501    0  0.00000000000E+00  0.00000000000E+00  0.19610921507E+04  0.19610921507E+04  0.25500000920E-02 0.  1.
       -2   -1    0    0    0  501  0.00000000000E+00  0.00000000000E+00 -0.13949531421E+03  0.13949531424E+03  0.25500000920E-02 0. -1.
    10030    2    1    2    0    0  0.00000000000E+00  0.00000000000E+00  0.18215968365E+04  0.21005874649E+04  0.10460653245E+04 0.  0.
        2    1    3    3  502    0 -0.29899149090E+03 -0.16132175809E+03  0.11224067611E+03  0.35779685667E+03  0.25500000920E-02 0. -1.
       -2    1    3    3    0  502  0.29899149090E+03  0.16132175809E+03  0.17093561604E+04  0.17427906083E+04  0.25500000920E-02 0.  1.
</event>
<event>
 5   0  0.1240503E-02  0.1004798E+04  0.7818609E-02  0.9303298E-01
        2   -1    0    0  501    0  0.00000000000E+00  0.00000000000E+00  0.52990314221E+03  0.52990314222E+03  0.25500000920E-02 0. -1.
       -2   -1    0    0    0  501  0.00000000000E+00  0.00000000000E+00 -0.47632277112E+03  0.47632277113E+03  0.25500000920E-02 0.  1.
    10030    2    1    2    0    0  0.00000000000E+00  0.00000000000E+00  0.53580371090E+02  0.10062259133E+04  0.10047983542E+04 0.  0.
        1    1    3    3  502    0  0.20449253195E+03  0.29929252877E+03  0.37515180344E+03  0.52166281165E+03  0.50400001928E-02 0. -1.
       -1    1    3    3    0  502 -0.20449253195E+03 -0.29929252877E+03 -0.32157143235E+03  0.48456310170E+03  0.50400001928E-02 0.  1.
</event>
<event>
 5   0  0.7461157E-03  0.9984657E+03  0.7818609E-02  0.9310229E-01
        1   -1    0    0  501    0  0.00000000000E+00  0.00000000000E+00  0.11354659717E+04  0.11354659717E+04  0.50400001928E-02 0.  1.
       -1   -1    0    0    0  501  0.00000000000E+00  0.00000000000E+00 -0.21949881587E+03  0.21949881593E+03  0.50400001928E-02 0. -1.
    10030    2    1    2    0    0  0.00000000000E+00  0.00000000000E+00  0.91596715586E+03  0.13549647877E+04  0.99846569555E+03 0.  0.
        2    1    3    3  502    0 -0.40524463940E+03 -0.33630728803E+02  0.85101021148E+03  0.94317157704E+03  0.25500000920E-02 0.  1.
       -2    1    3    3    0  502  0.40524463940E+03  0.33630728803E+02  0.64956944377E+02  0.41179321062E+03  0.25500000920E-02 0. -1.
</event>
<event>
 5   0  0.7241200E-03  0.1022719E+04  0.7818609E-02  0.9283972E-01
       -1   -1    0    0    0  501  0.00000000000E+00  0.00000000000E+00  0.56845829409E+03  0.56845829411E+03  0.50400001928E-02 0.  1.
        1   -1    0    0  501    0  0.00000000000E+00  0.00000000000E+00 -0.45999632282E+03  0.45999632285E+03  0.50400001928E-02 0. -1.
    10030    2    1    2    0    0  0.00000000000E+00  0.00000000000E+00  0.10846197127E+03  0.10284546170E+04  0.10227193652E+04 0.  0.
        4    1    3    3  502    0 -0.10698105040E+03  0.49948470269E+03  0.30493555142E+02  0.51172393258E+03  0.12699999809E+01 0.  1.
       -4    1    3    3    0  502  0.10698105040E+03 -0.49948470269E+03  0.77968416124E+02  0.51673068438E+03  0.12699999809E+01 0. -1.
</event>
<event>
 5   0  0.1221315E-02  0.9776648E+03  0.7818609E-02  0.9333387E-01
       -2   -1    0    0    0  501  0.00000000000E+00  0.00000000000E+00  0.47195539614E+03  0.47195539615E+03  0.25500000920E-02 0. -1.
        2   -1    0    0  501    0  0.00000000000E+00  0.00000000000E+00 -0.50631292781E+03  0.50631292782E+03  0.25500000920E-02 0.  1.
    10030    2    1    2    0    0  0.00000000000E+00  0.00000000000E+00 -0.34357531674E+02  0.97826832397E+03  0.97766480641E+03 0.  0.
        5    1    3    3  502    0 -0.22407281373E+03  0.29244172422E+03  0.30427371411E+03  0.47784450506E+03  0.46999998093E+01 0. -1.
       -5    1    3    3    0  502  0.22407281373E+03 -0.29244172422E+03 -0.33863124578E+03  0.50042381891E+03  0.46999998093E+01 0.  1.
</event>
<event>
 5   0  0.7224879E-03  0.1009200E+04  0.7818609E-02  0.9298512E-01
        1   -1    0    0  501    0  0.00000000000E+00  0.00000000000E+00  0.70216290921E+03  0.70216290923E+03  0.50400001928E-02 0.  1.
       -1   -1    0    0    0  501  0.00000000000E+00  0.00000000000E+00 -0.36262396538E+03  0.36262396541E+03  0.50400001928E-02 0. -1.
    10030    2    1    2    0    0  0.00000000000E+00  0.00000000000E+00  0.33953894383E+03  0.10647868746E+04  0.10091998781E+04 0.  0.
        3    1    3    3  502    0 -0.24617708136E+03  0.39784878082E+03 -0.29677763495E+02  0.46879375811E+03  0.10100000352E+00 0. -1.
       -3    1    3    3    0  502  0.24617708136E+03 -0.39784878082E+03  0.36921670733E+03  0.59599311654E+03  0.10100000352E+00 0.  1.
</event>
<event>
 5   0  0.7073004E-03  0.1006896E+04  0.7818609E-02  0.9301013E-01
        1   -1    0    0  501    0  0.00000000000E+00  0.00000000000E+00  0.50417359926E+03  0.50417359929E+03  0.50400001928E-02 0. -1.
       -1   -1    0    0    0  501  0.00000000000E+00  0.00000000000E+00 -0.50272357894E+03  0.50272357897E+03  0.50400001928E-02 0.  1.
    10030    2    1    2    0    0  0.00000000000E+00  0.00000000000E+00  0.14500203180E+01  0.10068971783E+04  0.10068961342E+04 0.  0.
        1    1    3    3  502    0  0.27969970355E+03  0.27468470789E+03 -0.31514925318E+03  0.50299370246E+03  0.50400001928E-02 0.  1.
       -1    1    3    3    0  502 -0.27969970355E+03 -0.27468470789E+03  0.31659927350E+03  0.50390347579E+03  0.50400001928E-02 0. -1.
</event>
<event>
 5   0  0.1245850E-02  0.1041227E+04  0.7818609E-02  0.9264449E-01
       -2   -1    0    0    0  501  0.00000000000E+00  0.00000000000E+00  0.23187149770E+03  0.23187149772E+03  0.25500000920E-02 0.  1.
        2   -1    0    0  501    0  0.00000000000E+00  0.00000000000E+00 -0.11689160834E+04  0.11689160834E+04  0.25500000920E-02 0. -1.
    10030    2    1    2    0    0  0.00000000000E+00  0.00000000000E+00 -0.93704458572E+03  0.14007875811E+04  0.10412268206E+04 0.  0.
        3    1    3    3  502    0 -0.44394122569E+03  0.18317746741E+03 -0.19811375855E+03  0.51950636951E+03  0.10100000352E+00 0. -1.
       -3    1    3    3    0  502  0.44394122569E+03 -0.18317746741E+03 -0.73893082718E+03  0.88128121164E+03  0.10100000352E+00 0.  1.
</event>
<event>
 5   0  0.1221315E-02  0.9854005E+03  0.7818609E-02  0.9324704E-01
        2   -1    0    0  501    0  0.00000000000E+00  0.00000000000E+00  0.14998180756E+04  0.14998180756E+04  0.25500000920E-02 0.  1.
       -2   -1    0    0    0  501  0.00000000000E+00  0.00000000000E+00 -0.16185532011E+03  0.16185532013E+03  0.25500000920E-02 0. -1.
    10030    2    1    2    0    0  0.00000000000E+00  0.00000000000E+00  0.13379627555E+04  0.16616733958E+04  0.98540049677E+03 0.  0.
        5    1    3    3  502    0  0.44551350732E+03  0.81358472480E+02  0.34186690486E+03  0.56744740451E+03  0.46999998093E+01 0. -1.
       -5    1    3    3    0  502 -0.44551350732E+03 -0.81358472480E+02  0.99609585065E+03  0.10942259912E+04  0.46999998093E+01 0.  1.
</event>
<event>
 5   0  0.6967681E-03  0.1012109E+04  0.7818609E-02  0.9295363E-01
        1   -1    0    0  501    0  0.00000000000E+00  0.00000000000E+00  0.35805352808E+03  0.35805352812E+03  0.50400001928E-02 0. -1.
       -1   -1    0    0    0  501  0.00000000000E+00  0.00000000000E+00 -0.71523155349E+03  0.71523155350E+03  0.50400001928E-02 0.  1.
    10030    2    1    2    0    0  0.00000000000E+00  0.00000000000E+00 -0.35717802540E+03  0.10732850816E+04  0.10121090478E+04 0.  0.
        5    1    3    3  502    0  0.17601875093E+03  0.25768919184E+03 -0.60101698959E+03  0.67722214379E+03  0.46999998093E+01 0.  1.
       -5    1    3    3    0  502 -0.17601875093E+03 -0.25768919184E+03  0.24383896418E+03  0.39606293783E+03  0.46999998093E+01 0. -1.
</event>
<event>
 5   0  0.7461157E-03  0.9794117E+03  0.7818609E-02  0.9331418E-01
        1   -1    0    0  501    0  0.00000000000E+00  0.00000000000E+00  0.12002023983E+04  0.12002023983E+04  0.50400001928E-02 0.  1.
       -1   -1    0    0    0  501  0.00000000000E+00  0.00000000000E+00 -0.19980946202E+03  0.19980946208E+03  0.50400001928E-02 0. -1.
    10030    2    1    2    0    0  0.00000000000E+00  0.00000000000E+00  0.10003929363E+04  0.14000118604E+04  0.97941165109E+03 0.  0.
        2    1    3    3  502    0  0.87791500789E+02 -0.41444764594E+03  0.14907251869E+03  0.44910668518E+03  0.25500000920E-02 0. -1.
       -2    1    3    3    0  502 -0.87791500789E+02  0.41444764594E+03  0.85132041762E+03  0.95090517524E+03  0.25500000920E-02 0.  1.
</event>
<event>
 5   0  0.1191822E-02  0.1015179E+04  0.7818609E-02  0.9292052E-01
        2   -1    0    0  501    0  0.00000000000E+00  0.00000000000E+00  0.21282697140E+03  0.21282697142E+03  0.25500000920E-02 0. -1.
       -2   -1    0    0    0  501  0.00000000000E+00  0.00000000000E+00 -0.12105932757E+04  0.12105932757E+04  0.25500000920E-02 0.  1.
    10030    2    1    2    0    0  0.00000000000E+00  0.00000000000E+00 -0.99776630431E+03  0.14234202471E+04  0.10151786059E+04 0.  0.
        4    1    3    3  502    0 -0.22135609909E+03  0.12900110285E+03  0.11551159615E+03  0.28104154299E+03  0.12699999809E+01 0. -1.
       -4    1    3    3    0  502  0.22135609909E+03 -0.12900110285E+03 -0.11132779005E+04  0.11423787041E+04  0.12699999809E+01 0.  1.
</event>
<event>
 5   0  0.1221315E-02  0.1021852E+04  0.7818609E-02  0.9284898E-01
        2   -1    0    0  501    0  0.00000000000E+00  0.00000000000E+00  0.57858686325E+03  0.57858686326E+03  0.25500000920E-02 0. -1.
       -2   -1    0    0    0  501  0.00000000000E+00  0.00000000000E+00 -0.45117718339E+03  0.45117718340E+03  0.25500000920E-02 0.  1.
    10030    2    1    2    0    0  0.00000000000E+00  0.00000000000E+00  0.12740967986E+03  0.10297640467E+04  0.10218516356E+04 0.  0.
        5    1    3    3  502    0  0.36893578930E+03 -0.19707457662E+03  0.35935529155E+03  0.55146198503E+03  0.46999998093E+01 0. -1.
       -5    1    3    3    0  502 -0.36893578930E+03  0.19707457662E+03 -0.23194561169E+03  0.47830206162E+03  0.46999998093E+01 0.  1.
</event>
<event>
 5   0  0.7073004E-03  0.1005834E+04  0.7818609E-02  0.9302169E-01
       -1   -1    0    0    0  501  0.00000000000E+00  0.00000000000E+00  0.50258287357E+03  0.50258287359E+03  0.50400001928E-02 0. -1.
        1   -1    0    0  501    0  0.00000000000E+00  0.00000000000E+00 -0.50325144141E+03  0.50325144143E+03  0.50400001928E-02 0.  1.
    10030    2    1    2    0    0  0.00000000000E+00  0.00000000000E+00 -0.66856784094E+00  0.10058343150E+04  0.10058340928E+04 0.  0.
        1    1    3    3  502    0 -0.46519381226E+03  0.16909088139E+03 -0.89376689102E+02  0.50297634310E+03  0.50400001928E-02 0.  1.
       -1    1    3    3    0  502  0.46519381226E+03 -0.16909088139E+03  0.88708121261E+02  0.50285797193E+03  0.50400001928E-02 0. -1.
</event>
<event>
 5   0  0.1216322E-02  0.9314085E+03  0.7818609E-02  0.9387149E-01
        2   -1    0    0  501    0  0.00000000000E+00  0.00000000000E+00  0.26523747764E+04  0.26523747764E+04  0.25500000920E-02 0.  1.
       -2   -1    0    0    0  501  0.00000000000E+00  0.00000000000E+00 -0.81768407291E+02  0.81768407331E+02  0.25500000920E-02 0. -1.
    10030    2    1    2    0    0  0.00000000000E+00  0.00000000000E+00  0.25706063691E+04  0.27341431838E+04  0.93140852705E+03 0.  0.
        2    1    3    3  502    0 -0.36037954732E+03 -0.10584761802E+03  0.20935149563E+04  0.21269419382E+04  0.25500000920E-02 0.  1.
       -2    1    3    3    0  502  0.36037954732E+03  0.10584761802E+03  0.47709141289E+03  0.60720124557E+03  0.25500000920E-02 0. -1.
</event>
<event>
 5   0  0.7461157E-03  0.1010494E+04  0.7818609E-02  0.9297109E-01
        1   -1    0    0  501    0  0.00000000000E+00  0.00000000000E+00  0.53914888636E+03  0.53914888638E+03  0.50400001928E-02 0.  1.
       -1   -1    0    0    0  501  0.00000000000E+00  0.00000000000E+00 -0.47347695575E+03  0.47347695578E+03  0.50400001928E-02 0. -1.
    10030    2    1    2    0    0  0.00000000000E+00  0.00000000000E+00  0.65671930608E+02  0.10126258422E+04  0.10104940840E+04 0.  0.
        2    1    3    3  502    0 -0.71559431862E+02 -0.36919692913E+03 -0.30528872320E+03  0.48438448497E+03  0.25500000920E-02 0. -1.
       -2    1    3    3    0  502  0.71559431862E+02  0.36919692913E+03  0.37096065381E+03  0.52824135719E+03  0.25500000920E-02 0.  1.
</event>
<event>
 5   0  0.1240503E-02  0.1080371E+04  0.7818609E-02  0.9224538E-01
        2   -1    0    0  501    0  0.00000000000E+00  0.00000000000E+00  0.53473691459E+03  0.53473691460E+03  0.25500000920E-02 0.  1.
       -2   -1    0    0    0  501  0.00000000000E+00  0.00000000000E+00 -0.54568920254E+03  0.54568920254E+03  0.25500000920E-02 0. -1.
    10030    2    1    2    0    0  0.00000000000E+00  0.00000000000E+00 -0.10952287945E+02  0.10804261171E+04  0.10803706040E+04 0.  0.
        1    1    3    3  502    0 -0.31707008989E+03  0.46062995909E+02 -0.44040643414E+03  0.54462195030E+03  0.50400001928E-02 0. -1.
       -1    1    3    3    0  502  0.31707008989E+03 -0.46062995909E+02  0.42945414619E+03  0.53580416684E+03  0.50400001928E-02 0.  1.
</event>
<event>
 5   0  0.7073004E-03  0.1009133E+04  0.7818609E-02  0.9298585E-01
       -1   -1    0    0    0  501  0.00000000000E+00  0.00000000000E+00  0.50204513840E+03  0.50204513842E+03  0.50400001928E-02 0. -1.
        1   -1    0    0  501    0  0.00000000000E+00  0.00000000000E+00 -0.50710007945E+03  0.50710007948E+03  0.50400001928E-02 0.  1.
    10030    2    1    2    0    0  0.00000000000E+00  0.00000000000E+00 -0.50549410543E+01  0.10091452179E+04  0.10091325574E+04 0.  0.
        1    1    3    3  502    0 -0.15370507947E+03 -0.42261018439E+03  0.22630396099E+03  0.50342636223E+03  0.50400001928E-02 0. -1.
       -1    1    3    3    0  502  0.15370507947E+03  0.42261018439E+03 -0.23135890204E+03  0.50571885567E+03  0.50400001928E-02 0.  1.
</event>
<event>
 5   0  0.7224879E-03  0.9483551E+03  0.7818609E-02  0.9367075E-01
        1   -1    0    0  501    0  0.00000000000E+00  0.00000000000E+00  0.73455356210E+03  0.73455356212E+03  0.50400001928E-02 0. -1.
       -1   -1    0    0    0  501  0.00000000000E+00  0.00000000000E+00 -0.30609658438E+03  0.30609658442E+03  0.50400001928E-02 0.  1.
    10030    2    1    2    0    0  0.00000000000E+00  0.00000000000E+00  0.42845697771E+03  0.10406501465E+04  0.94835507366E+03 0.  0.
        3    1    3    3  502    0 -0.29414631848E+03  0.22608129983E+03 -0.10982426342E+03  0.38690591860E+03  0.10100000352E+00 0.  1.
       -3    1    3    3    0  502  0.29414631848E+03 -0.22608129983E+03  0.53828124113E+03  0.65374422794E+03  0.10100000352E+00 0. -1.
</event>
<event>
 5   0  0.1191822E-02  0.9906334E+03  0.7818609E-02  0.9318878E-01
        2   -1    0    0  501    0  0.00000000000E+00  0.00000000000E+00  0.11998074587E+04  0.11998074587E+04  0.25500000920E-02 0. -1.
       -2   -1    0    0    0  501  0.00000000000E+00  0.00000000000E+00 -0.20448166123E+03  0.20448166125E+03  0.25500000920E-02 0.  1.
    10030    2    1    2    0    0  0.00000000000E+00  0.00000000000E+00  0.99532579749E+03  0.14042891200E+04  0.99063337786E+03 0.  0.
        4    1    3    3  502    0 -0.28443472206E+01 -0.15111601552E+03  0.11663171688E+04  0.11760703600E+04  0.12699999809E+01 0. -1.
       -4    1    3    3    0  502  0.28443472206E+01  0.15111601552E+03 -0.17099137131E+03  0.22821876001E+03  0.12699999809E+01 0.  1.
</event>
<event>
 5   0  0.1240503E-02  0.1009404E+04  0.7818609E-02  0.9298291E-01
        2   -1    0    0  501    0  0.00000000000E+00  0.00000000000E+00  0.47895277828E+03  0.47895277829E+03  0.25500000920E-02 0.  1.
       -2   -1    0    0    0  501  0.00000000000E+00  0.00000000000E+00 -0.53183523427E+03  0.53183523427E+03  0.25500000920E-02 0. -1.
    10030    2    1    2    0    0  0.00000000000E+00  0.00000000000E+00 -0.52882455985E+02  0.10107880126E+04  0.10094037112E+04 0.  0.
        1    1    3    3  502    0 -0.26602488311E+03  0.33765550807E+03  0.23838976661E+03  0.49153856554E+03  0.50400001928E-02 0.  1.
       -1    1    3    3    0  502  0.26602488311E+03 -0.33765550807E+03 -0.29127222259E+03  0.51924944703E+03  0.50400001928E-02 0. -1.
</event>
<event>
 5   0  0.4782125E-03  0.9886149E+03  0.7818609E-02  0.9321121E-01
       -4   -1    0    0    0  501  0.00000000000E+00  0.00000000000E+00  0.41402772672E+03  0.41402967453E+03  0.12699999809E+01 0.  1.
        4   -1    0    0  501    0  0.00000000000E+00  0.00000000000E+00 -0.59014939662E+03  0.59015076314E+03  0.12699999809E+01 0. -1.
    10030    2    1    2    0    0  0.00000000000E+00  0.00000000000E+00 -0.17612166990E+03  0.10041804377E+04  0.98861494465E+03 0.  0.
        4    1    3    3  502    0 -0.12733787587E+03  0.14478086831E+03 -0.55037739987E+03  0.58317521350E+03  0.12699999809E+01 0. -1.
       -4    1    3    3    0  502  0.12733787587E+03 -0.14478086831E+03  0.37425572997E+03  0.42100522416E+03  0.12699999809E+01 0.  1.
</event>
<event>
 5   0  0.7241200E-03  0.9982556E+03  0.7818609E-02  0.9310460E-01
        1   -1    0    0  501    0  0.00000000000E+00  0.00000000000E+00  0.17165106239E+04  0.17165106239E+04  0.50400001928E-02 0. -1.
       -1   -1    0    0    0  501  0.00000000000E+00  0.00000000000E+00 -0.14513662739E+03  0.14513662748E+03  0.50400001928E-02 0.  1.
    10030    2    1    2    0    0  0.00000000000E+00  0.00000000000E+00  0.15713739965E+04  0.18616472514E+04  0.99825560439E+03 0.  0.
        4    1    3    3  502    0 -0.36330759072E+03  0.20210866175E+03  0.13007731348E+04  0.13655960888E+04  0.12699999809E+01 0. -1.
       -4    1    3    3    0  502  0.36330759072E+03 -0.20210866175E+03  0.27060086165E+03  0.49605116254E+03  0.12699999809E+01 0.  1.
</event>
<event>
 5   0  0.6967681E-03  0.1005627E+04  0.7818609E-02  0.9302395E-01
       -1   -1    0    0    0  501  0.00000000000E+00  0.00000000000E+00  0.77979005575E+03  0.77979005576E+03  0.50400001928E-02 0.  1.
        1   -1    0    0  501    0  0.00000000000E+00  0.00000000000E+00 -0.32421710295E+03  0.32421710299E+03  0.50400001928E-02 0. -1.
    10030    2    1    2    0    0  0.00000000000E+00  0.00000000000E+00  0.45557295280E+03  0.11040071587E+04  0.10056267157E+04 0.  0.
        5    1    3    3  502    0 -0.26549001236E+03  0.22889451031E+03  0.62349523756E+03  0.71529437631E+03  0.46999998093E+01 0.  1.
       -5    1    3    3    0  502  0.26549001236E+03 -0.22889451031E+03 -0.16792228476E+03  0.38871278244E+03  0.46999998093E+01 0. -1.
</event>
<event>
 5   0  0.1216322E-02  0.9872212E+03  0.7818609E-02  0.9322672E-01
        2   -1    0    0  501    0  0.00000000000E+00  0.00000000000E+00  0.20702780473E+03  0.20702780475E+03  0.25500000920E-02 0.  1.
       -2   -1    0    0    0  501  0.00000000000E+00  0.00000000000E+00 -0.11769019457E+04  0.11769019457E+04  0.25500000920E-02 0. -1.
    10030    2    1    2    0    0  0.00000000000E+00  0.00000000000E+00 -0.96987414100E+03  0.13839297505E+04  0.98722120363E+03 0.  0.
        2    1    3    3  502    0  0.37158665774E+03 -0.29369476823E+03 -0.67977903863E+03  0.82851240333E+03  0.25500000920E-02 0. -1.
       -2    1    3    3    0  502 -0.37158665774E+03  0.29369476823E+03 -0.29009510236E+03  0.55541734715E+03  0.25500000920E-02 0.  1.
</event>
<event>
 5   0  0.7241200E-03  0.1002525E+04  0.7818609E-02  0.9305780E-01
        1   -1    0    0  501    0  0.00000000000E+00  0.00000000000E+00  0.39843898191E+03  0.39843898195E+03  0.50400001928E-02 0. -1.
       -1   -1    0    0    0  501  0.00000000000E+00  0.00000000000E+00 -0.63062066398E+03  0.63062066400E+03  0.50400001928E-02 0.  1.
    10030    2    1    2    0    0  0.00000000000E+00  0.00000000000E+00 -0.23218168207E+03  0.10290596459E+04  0.10025245241E+04 0.  0.
        4    1    3    3  502    0 -0.97138275482E+02 -0.32394811371E+03  0.26368026044E+03  0.42884393150E+03  0.12699999809E+01 0. -1.
       -4    1    3    3    0  502  0.97138275482E+02  0.32394811371E+03 -0.49586194250E+03  0.60021571444E+03  0.12699999809E+01 0.  1.
</event>
<event>
 5   0  0.1221315E-02  0.1010716E+04  0.7818609E-02  0.9296869E-01
       -2   -1    0    0    0  501  0.00000000000E+00  0.00000000000E+00  0.28695025502E+03  0.28695025503E+03  0.25500000920E-02 0.  1.
        2   -1    0    0  501    0  0.00000000000E+00  0.00000000000E+00 -0.89000428734E+03  0.89000428735E+03  0.25500000920E-02 0. -1.
    10030    2    1    2    0    0  0.00000000000E+00  0.00000000000E+00 -0.60305403232E+03  0.11769545424E+04  0.10107164929E+04 0.  0.
        5    1    3    3  502    0 -0.18643140281E+03  0.14678891535E+03  0.21801857115E+03  0.32226982636E+03  0.46999998093E+01 0.  1.
       -5    1    3    3    0  502  0.18643140281E+03 -0.14678891535E+03 -0.82107260347E+03  0.85468471601E+03  0.46999998093E+01 0. -1.
</event>
<event>
 5   0  0.6967681E-03  0.1000842E+04  0.7818609E-02  0.9307621E-01
       -1   -1    0    0    0  501  0.00000000000E+00  0.00000000000E+00  0.17089453908E+03  0.17089453915E+03  0.50400001928E-02 0.  1.
        1   -1    0    0  501    0  0.00000000000E+00  0.00000000000E+00 -0.14653561194E+04  0.14653561194E+04  0.50400001928E-02 0. -1.
    10030    2    1    2    0    0  0.00000000000E+00  0.00000000000E+00 -0.12944615803E+04  0.16362506585E+04  0.10008423626E+04 0.  0.
        5    1    3    3  502    0  0.45419755733E+03 -0.17184072087E+03 -0.84460149368E+03  0.97426814972E+03  0.46999998093E+01 0. -1.
       -5    1    3    3    0  502 -0.45419755733E+03  0.17184072087E+03 -0.44986008660E+03  0.66198250880E+03  0.46999998093E+01 0.  1.
</event>
<event>
 5   0  0.7073004E-03  0.9881505E+03  0.7818609E-02  0.9321637E-01
        1   -1    0    0  501    0  0.00000000000E+00  0.00000000000E+00  0.95928438505E+03  0.95928438506E+03  0.50400001928E-02 0.  1.
       -1   -1    0    0    0  501  0.00000000000E+00  0.00000000000E+00 -0.25447129719E+03  0.25447129724E+03  0.50400001928E-02 0. -1.
    10030    2    1    2    0    0  0.00000000000E+00  0.00000000000E+00  0.70481308786E+03  0.12137556823E+04  0.98815047816E+03 0.  0.
        1    1    3    3  502    0 -0.29401043899E+03  0.36896343479E+03  0.17215772197E+03  0.50220955358E+03  0.50400001928E-02 0. -1.
       -1    1    3    3    0  502  0.29401043899E+03 -0.36896343479E+03  0.53265536590E+03  0.71154612872E+03  0.50400001928E-02 0.  1.
</event>
<event>
 5   0  0.1216322E-02  0.8955816E+03  0.7818609E-02  0.9431122E-01
        2   -1    0    0  501    0  0.00000000000E+00  0.00000000000E+00  0.52040585262E+03  0.52040585263E+03  0.25500000920E-02 0.  1.
       -2   -1    0    0    0  501  0.00000000000E+00  0.00000000000E+00 -0.38530811658E+03  0.38530811659E+03  0.25500000920E-02 0. -1.
    10030    2    1    2    0    0  0.00000000000E+00  0.00000000000E+00  0.13509773604E+03  0.90571396921E+03  0.89558159636E+03 0.  0.
        2    1    3    3  502    0  0.14194316853E+03 -0.27489741991E+03 -0.25984221458E+03  0.40402281006E+03  0.25500000920E-02 0. -1.
       -2    1    3    3    0  502 -0.14194316853E+03  0.27489741991E+03  0.39493995062E+03  0.50169115915E+03  0.25500000920E-02 0.  1.
</event>
<event>
 5   0  0.6967681E-03  0.1040655E+04  0.7818609E-02  0.9265046E-01
       -1   -1    0    0    0  501  0.00000000000E+00  0.00000000000E+00  0.44529581965E+03  0.44529581967E+03  0.50400001928E-02 0. -1.
        1   -1    0    0  501    0  0.00000000000E+00  0.00000000000E+00 -0.60800155400E+03  0.60800155403E+03  0.50400001928E-02 0.  1.
    10030    2    1    2    0    0  0.00000000000E+00  0.00000000000E+00 -0.16270573436E+03  0.10532973737E+04  0.10406546985E+04 0.  0.
        5    1    3    3  502    0  0.48225661788E+03  0.63959085212E+02 -0.26813819822E+03  0.55550192926E+03  0.46999998093E+01 0.  1.
       -5    1    3    3    0  502 -0.48225661788E+03 -0.63959085212E+02  0.10543246386E+03  0.49779544444E+03  0.46999998093E+01 0. -1.
</event>
<event>
 5   0  0.1240503E-02  0.9292526E+03  0.7818609E-02  0.9389735E-01
        2   -1    0    0  501    0  0.00000000000E+00  0.00000000000E+00  0.93225529358E+03  0.93225529359E+03  0.25500000920E-02 0. -1.
       -2   -1    0    0    0  501  0.00000000000E+00  0.00000000000E+00 -0.23156488758E+03  0.23156488760E+03  0.25500000920E-02 0.  1.
    10030    2    1    2    0    0  0.00000000000E+00  0.00000000000E+00  0.70069040600E+03  0.11638201812E+04  0.92925258626E+03 0.  0.
        1    1    3    3  502    0 -0.43091120960E+03 -0.15084805881E+03  0.45835912846E+03  0.64694103138E+03  0.50400001928E-02 0. -1.
       -1    1    3    3    0  502  0.43091120960E+03  0.15084805881E+03  0.24233127754E+03  0.51687914981E+03  0.50400001928E-02 0.  1.
</event>
<event>
 5   0  0.7073004E-03  0.1002508E+04  0.7818609E-02  0.9305798E-01
        1   -1    0    0  501    0  0.00000000000E+00  0.00000000000E+00  0.12694483664E+04  0.12694483664E+04  0.50400001928E-02 0. -1.
       -1   -1    0    0    0  501  0.00000000000E+00  0.00000000000E+00 -0.19792498806E+03  0.19792498812E+03  0.50400001928E-02 0.  1.
    10030    2    1    2    0    0  0.00000000000E+00  0.00000000000E+00  0.10715233783E+04  0.14673733545E+04  0.10025079607E+04 0.  0.
        1    1    3    3  502    0  0.39777384051E+03 -0.30252485343E+03  0.59264376605E+03  0.77522380549E+03  0.50400001928E-02 0.  1.
       -1    1    3    3    0  502 -0.39777384051E+03  0.30252485343E+03  0.47887961228E+03  0.69214954903E+03  0.50400001928E-02 0. -1.
</event>
<event>
 5   0  0.7461157E-03  0.9567281E+03  0.7818609E-02  0.9357321E-01
        1   -1    0    0  501    0  0.00000000000E+00  0.00000000000E+00  0.20195628816E+04  0.20195628816E+04  0.50400001928E-02 0.  1.
       -1   -1    0    0    0  501  0.00000000000E+00  0.00000000000E+00 -0.11330776439E+03  0.11330776450E+03  0.50400001928E-02 0. -1.
    10030    2    1    2    0    0  0.00000000000E+00  0.00000000000E+00  0.19062551172E+04  0.21328706461E+04  0.95672808107E+03 0.  0.
        2    1    3    3  502    0 -0.20345682116E+03  0.10265426453E+03  0.15480499243E+02  0.22841239451E+03  0.25500000920E-02 0. -1.
       -2    1    3    3    0  502  0.20345682116E+03 -0.10265426453E+03  0.18907746179E+04  0.19044582516E+04  0.25500000920E-02 0.  1.
</event>
<event>
 5   0  0.1191822E-02  0.1011700E+04  0.7818609E-02  0.9295805E-01
        2   -1    0    0  501    0  0.00000000000E+00  0.00000000000E+00  0.12639056105E+04  0.12639056105E+04  0.25500000920E-02 0.  1.
       -2   -1    0    0    0  501  0.00000000000E+00  0.00000000000E+00 -0.20245503169E+03  0.20245503170E+03  0.25500000920E-02 0. -1.
    10030    2    1    2    0    0  0.00000000000E+00  0.00000000000E+00  0.10614505788E+04  0.14663606422E+04  0.10116996598E+04 0.  0.
        4    1    3    3  502    0 -0.26725185974E+03  0.23161346633E+02 -0.90868323313E+02  0.28322900557E+03  0.12699999809E+01 0. -1.
       -4    1    3    3    0  502  0.26725185974E+03 -0.23161346633E+02  0.11523189021E+04  0.11831316366E+04  0.12699999809E+01 0.  1.
</event>
<event>
 5   0  0.1216322E-02  0.1003395E+04  0.7818609E-02  0.9304829E-01
        2   -1    0    0  501    0  0.00000000000E+00  0.00000000000E+00  0.18372230425E+04  0.18372230425E+04  0.25500000920E-02 0.  1.
       -2   -1    0    0    0  501  0.00000000000E+00  0.00000000000E+00 -0.13700046152E+03  0.13700046154E+03  0.25500000920E-02 0. -1.
    10030    2    1    2    0    0  0.00000000000E+00  0.00000000000E+00  0.17002225810E+04  0.19742235040E+04  0.10033950463E+04 0.  0.
        2    1    3    3  502    0  0.34747339073E+03  0.32526773276E+03  0.53799939851E+03  0.71831762337E+03  0.25500000920E-02 0.  1.
       -2    1    3    3    0  502 -0.34747339073E+03 -0.32526773276E+03  0.11622231824E+04  0.12559058806E+04  0.25500000920E-02 0. -1.
</event>
<event>
 5   0  0.1191822E-02  0.1008096E+04  0.7818609E-02  0.9299709E-01
        2   -1    0    0  501    0  0.00000000000E+00  0.00000000000E+00  0.26566521187E+03  0.26566521188E+03  0.25500000920E-02 0. -1.
       -2   -1    0    0    0  501  0.00000000000E+00  0.00000000000E+00 -0.95633371916E+03  0.95633371916E+03  0.25500000920E-02 0.  1.
    10030    2    1    2    0    0  0.00000000000E+00  0.00000000000E+00 -0.69066850729E+03  0.12219989310E+04  0.10080964242E+04 0.  0.
        4    1    3    3  502    0 -0.16629048256E+03 -0.38774483287E+03 -0.11016458240E+02  0.42204449441E+03  0.12699999809E+01 0. -1.
       -4    1    3    3    0  502  0.16629048256E+03  0.38774483287E+03 -0.67965204905E+03  0.79995443663E+03  0.12699999809E+01 0.  1.
</event>
<event>
 5   0  0.7461157E-03  0.9506605E+03  0.7818609E-02  0.9364379E-01
        1   -1    0    0  501    0  0.00000000000E+00  0.00000000000E+00  0.75176428255E+03  0.75176428257E+03  0.50400001928E-02 0. -1.
       -1   -1    0    0    0  501  0.00000000000E+00  0.00000000000E+00 -0.30054483187E+03  0.30054483191E+03  0.50400001928E-02 0.  1.
    10030    2    1    2    0    0  0.00000000000E+00  0.00000000000E+00  0.45121945068E+03  0.10523091145E+04  0.95066054917E+03 0.  0.
        2    1    3    3  502    0  0.42686494859E+03  0.64267699577E+02  0.44587052034E+03  0.62060014700E+03  0.25500000920E-02 0. -1.
       -2    1    3    3    0  502 -0.42686494859E+03 -0.64267699577E+02  0.53489303409E+01  0.43170896748E+03  0.25500000920E-02 0.  1.
</event>
<event>
 5   0  0.1240503E-02  0.1005095E+04  0.7818609E-02  0.9302974E-01
        2   -1    0    0  501    0  0.00000000000E+00  0.00000000000E+00  0.12906274014E+04  0.12906274014E+04  0.25500000920E-02 0. -1.
       -2   -1    0    0    0  501  0.00000000000E+00  0.00000000000E+00 -0.19568310563E+03  0.19568310564E+03  0.25500000920E-02 0.  1.
    10030    2    1    2    0    0  0.00000000000E+00  0.00000000000E+00  0.10949442958E+04  0.14863105070E+04  0.10050949769E+04 0.  0.
        1    1    3    3  502    0 -0.18305960209E+03 -0.41496758188E+03  0.86753433878E+03  0.97894062175E+03  0.50400001928E-02 0. -1.
       -1    1    3    3    0  502  0.18305960209E+03  0.41496758188E+03  0.22740995698E+03  0.50736988528E+03  0.50400001928E-02 0.  1.
</event>
<event>
 5   0  0.7241200E-03  0.9644786E+03  0.7818609E-02  0.9348386E-01
        1   -1    0    0  501    0  0.00000000000E+00  0.00000000000E+00  0.21826656151E+03  0.21826656157E+03  0.50400001928E-02 0.  1.
       -1   -1    0    0    0  501  0.00000000000E+00  0.00000000000E+00 -0.10654620784E+04  0.10654620785E+04  0.50400001928E-02 0. -1.
    10030    2    1    2    0    0  0.00000000000E+00  0.00000000000E+00 -0.84719551693E+03  0.12837286400E+04  0.96447860386E+03 0.  0.
        4    1    3    3  502    0  0.21092679397E+03  0.42178460193E+03 -0.55776420363E+03  0.73040734018E+03  0.12699999809E+01 0. -1.
       -4    1    3    3    0  502 -0.21092679397E+03 -0.42178460193E+03 -0.28943131331E+03  0.55332129984E+03  0.12699999809E+01 0.  1.
</event>
<event>
 5   0  0.7461157E-03  0.1007475E+04  0.7818609E-02  0.9300385E-01
        1   -1    0    0  501    0  0.00000000000E+00  0.00000000000E+00  0.52406250303E+03  0.52406250306E+03  0.50400001928E-02 0.  1.
       -1   -1    0    0    0  501  0.00000000000E+00  0.00000000000E+00 -0.48420043103E+03  0.48420043105E+03  0.50400001928E-02 0. -1.
    10030    2    1    2    0    0  0.00000000000E+00  0.00000000000E+00  0.39862072004E+02  0.10082629341E+04  0.10074746446E+04 0.  0.
        2    1    3    3  502    0  0.30928325373E+03 -0.30988549058E+03  0.26925673816E+03  0.51398865684E+03  0.25500000920E-02 0.  1.
       -2    1    3    3    0  502 -0.30928325373E+03  0.30988549058E+03 -0.22939466615E+03  0.49427427727E+03  0.25500000920E-02 0. -1.
</event>
<event>
 5   0  0.7073004E-03  0.9944722E+03  0.7818609E-02  0.9314628E-01
        1   -1    0    0  501    0  0.00000000000E+00  0.00000000000E+00  0.15616939244E+04  0.15616939244E+04  0.50400001928E-02 0. -1.
       -1   -1    0    0    0  501  0.00000000000E+00  0.00000000000E+00 -0.15831768069E+03  0.15831768077E+03  0.50400001928E-02 0.  1.
    10030    2    1    2    0    0  0.00000000000E+00  0.00000000000E+00  0.14033762437E+04  0.17200116052E+04  0.99447224222E+03 0.  0.
        1    1    3    3  502    0  0.15059139720E+03 -0.39162955186E+02 -0.11512470382E+03  0.19355930208E+03  0.50400001928E-02 0.  1.
       -1    1    3    3    0  502 -0.15059139720E+03  0.39162955186E+02  0.15185009475E+04  0.15264523031E+04  0.50400001928E-02 0. -1.
</event>
<event>
 5   0  0.1240503E-02  0.1035448E+04  0.7818609E-02  0.9270499E-01
        2   -1    0    0  501    0  0.00000000000E+00  0.00000000000E+00  0.12590251835E+04  0.12590251835E+04  0.25500000920E-02 0. -1.
       -2   -1    0    0    0  501  0.00000000000E+00  0.00000000000E+00 -0.21289331062E+03  0.21289331064E+03  0.25500000920E-02 0.  1.
    10030    2    1    2    0    0  0.00000000000E+00  0.00000000000E+00  0.10461318729E+04  0.14719184942E+04  0.10354478055E+04 0.  0.
        1    1    3    3  502    0  0.36851616021E+03 -0.30254191020E+03  0.23627536150E+03  0.53212950889E+03  0.50400001928E-02 0.  1.
       -1    1    3    3    0  502 -0.36851616021E+03  0.30254191020E+03  0.80985651142E+03  0.93978898529E+03  0.50400001928E-02 0. -1.
</event>
<event>
 5   0  0.7224879E-03  0.1000830E+04  0.7818609E-02  0.9307635E-01
       -1   -1    0    0    0  501  0.00000000000E+00  0.00000000000E+00  0.10798209084E+03  0.10798209096E+03  0.50400001928E-02 0. -1.
        1   -1    0    0  501    0  0.00000000000E+00  0.00000000000E+00 -0.23190419606E+04  0.23190419606E+04  0.50400001928E-02 0.  1.
    10030    2    1    2    0    0  0.00000000000E+00  0.00000000000E+00 -0.22110598698E+04  0.24270240516E+04  0.10008296554E+04 0.  0.
        3    1    3    3  502    0  0.14795779225E+03  0.19585034723E+03 -0.48029655544E+02  0.25011142479E+03  0.10100000352E+00 0. -1.
       -3    1    3    3    0  502 -0.14795779225E+03 -0.19585034723E+03 -0.21630302143E+04  0.21769126268E+04  0.10100000352E+00 0.  1.
</event>
<event>
 5   0  0.6967681E-03  0.9963679E+03  0.7818609E-02  0.9312537E-01
        1   -1    0    0  501    0  0.00000000000E+00  0.00000000000E+00  0.97687434261E+03  0.97687434262E+03  0.50400001928E-02 0.  1.
       -1   -1    0    0    0  501  0.00000000000E+00  0.00000000000E+00 -0.25406263409E+03  0.25406263414E+03  0.50400001928E-02 0. -1.
    10030    2    1    2    0    0  0.00000000000E+00  0.00000000000E+00  0.72281170851E+03  0.12309369768E+04  0.99636794147E+03 0.  0.
        5    1    3    3  502    0  0.45959128400E+02  0.13702539883E+03 -0.22756498767E+03  0.26962217086E+03  0.46999998093E+01 0. -1.
       -5    1    3    3    0  502 -0.45959128400E+02 -0.13702539883E+03  0.95037669618E+03  0.96131480590E+03  0.46999998093E+01 0.  1.
</event>
<event>
 5   0  0.7224879E-03  0.1017923E+04  0.7818609E-02  0.9289102E-01
        1   -1    0    0  501    0  0.00000000000E+00  0.00000000000E+00  0.39999282092E+03  0.39999282095E+03  0.50400001928E-02 0. -1.
       -1   -1    0    0    0  501  0.00000000000E+00  0.00000000000E+00 -0.64761666280E+03  0.64761666282E+03  0.50400001928E-02 0.  1.
    10030    2    1    2    0    0  0.00000000000E+00  0.00000000000E+00 -0.24762384189E+03  0.10476094838E+04  0.10179234074E+04 0.  0.
        3    1    3    3  502    0  0.34324491975E+03  0.19486773162E+03  0.20688678884E+03  0.44563736531E+03  0.10100000352E+00 0. -1.
       -3    1    3    3    0  502 -0.34324491975E+03 -0.19486773162E+03 -0.45451063073E+03  0.60197211846E+03  0.10100000352E+00 0.  1.
</event>
<event>
 5   0  0.1216322E-02  0.1049313E+04  0.7818609E-02  0.9256054E-01
       -2   -1    0    0    0  501  0.00000000000E+00  0.00000000000E+00  0.12580158196E+03  0.12580158199E+03  0.25500000920E-02 0.  1.
        2   -1    0    0  501    0  0.00000000000E+00  0.00000000000E+00 -0.21880843908E+04  0.21880843908E+04  0.25500000920E-02 0. -1.
    10030    2    1    2    0    0  0.00000000000E+00  0.00000000000E+00 -0.20622828089E+04  0.23138859728E+04  0.10493130665E+04 0.  0.
        2    1    3    3  502    0  0.47145870146E+02  0.20786410865E+03 -0.20883099992E+04  0.20991590873E+04  0.25500000920E-02 0. -1.
       -2    1    3    3    0  502 -0.47145870146E+02 -0.20786410865E+03  0.26027190367E+02  0.21472688556E+03  0.25500000920E-02 0.  1.
</event>
<event>
 5   0  0.1216322E-02  0.9865005E+03  0.7818609E-02  0.9323476E-01
        2   -1    0    0  501    0  0.00000000000E+00  0.00000000000E+00  0.25353894521E+03  0.25353894522E+03  0.25500000920E-02 0. -1.
       -2   -1    0    0    0  501  0.00000000000E+00  0.00000000000E+00 -0.95959940354E+03  0.95959940354E+03  0.25500000920E-02 0.  1.
    10030    2    1    2    0    0  0.00000000000E+00  0.00000000000E+00 -0.70606045833E+03  0.12131383488E+04  0.98650052327E+03 0.  0.
        2    1    3    3  502    0 -0.13682239621E+03  0.37034074225E+03  0.10571825879E+02  0.39494860044E+03  0.25500000920E-02 0. -1.
       -2    1    3    3    0  502  0.13682239621E+03 -0.37034074225E+03 -0.71663228421E+03  0.81818974832E+03  0.25500000920E-02 0.  1.
</event>
<event>
 5   0  0.1191822E-02  0.1010103E+04  0.7818609E-02  0.9297533E-01
       -2   -1    0    0    0  501  0.00000000000E+00  0.00000000000E+00  0.28481418822E+03  0.28481418823E+03  0.25500000920E-02 0. -1.
        2   -1    0    0  501    0  0.00000000000E+00  0.00000000000E+00 -0.89559149381E+03  0.89559149381E+03  0.25500000920E-02 0.  1.
    10030    2    1    2    0    0  0.00000000000E+00  0.00000000000E+00 -0.61077730559E+03  0.11804056820E+04  0.10101032903E+04 0.  0.
        4    1    3    3  502    0  0.44947906060E+03 -0.20239847971E+03 -0.17695446233E+03  0.52374713855E+03  0.12699999809E+01 0. -1.
       -4    1    3    3    0  502 -0.44947906060E+03  0.20239847971E+03 -0.43382284326E+03  0.65665854349E+03  0.12699999809E+01 0.  1.
</event>
<event>
 5   0  0.6967681E-03  0.8645729E+03  0.7818609E-02  0.9470984E-01
       -1   -1    0    0    0  501  0.00000000000E+00  0.00000000000E+00  0.17089115024E+03  0.17089115031E+03  0.50400001928E-02 0.  1.
        1   -1    0    0  501    0  0.00000000000E+00  0.00000000000E+00 -0.10935122301E+04  0.10935122301E+04  0.50400001928E-02 0. -1.
    10030    2    1    2    0    0  0.00000000000E+00  0.00000000000E+00 -0.92262107984E+03  0.12644033804E+04  0.86457287223E+03 0.  0.
        5    1    3    3  502    0  0.90326877426E+02 -0.11162372633E+03  0.13495488045E+03  0.19711344657E+03  0.46999998093E+01 0.  1.
       -5    1    3    3    0  502 -0.90326877426E+02  0.11162372633E+03 -0.10575759603E+04  0.10672899338E+04  0.46999998093E+01 0. -1.
</event>
<event>
 5   0  0.7224879E-03  0.9719679E+03  0.7818609E-02  0.9339836E-01
       -1   -1    0    0    0  501  0.00000000000E+00  0.00000000000E+00  0.51984598495E+03  0.51984598497E+03  0.50400001928E-02 0. -1.
        1   -1    0    0  501    0  0.00000000000E+00  0.00000000000E+00 -0.45432761521E+03  0.45432761524E+03  0.50400001928E-02 0.  1.
    10030    2    1    2    0    0  0.00000000000E+00  0.00000000000E+00  0.65518369742E+02  0.97417360021E+03  0.97196787322E+03 0.  0.
        3    1    3    3  502    0  0.22315412401E+02 -0.18476984955E+03 -0.41719445379E+03  0.45682501837E+03  0.10100000352E+00 0.  1.
       -3    1    3    3    0  502 -0.22315412401E+02  0.18476984955E+03  0.48271282353E+03  0.51734858184E+03  0.10100000352E+00 0. -1.
</event>
<event>
 5   0  0.7241200E-03  0.1000522E+04  0.7818609E-02  0.9307972E-01
       -1   -1    0    0    0  501  0.00000000000E+00  0.00000000000E+00  0.33111028634E+03  0.33111028638E+03  0.50400001928E-02 0. -1.
        1   -1    0    0  501    0  0.00000000000E+00  0.00000000000E+00 -0.75582415112E+03  0.75582415114E+03  0.50400001928E-02 0.  1.
    10030    2    1    2    0    0  0.00000000000E+00  0.00000000000E+00 -0.42471386478E+03  0.10869344375E+04  0.10005221659E+04 0.  0.
        4    1    3    3  502    0 -0.47814809492E+02 -0.67133507892E+02 -0.74839561154E+03  0.75292148871E+03  0.12699999809E+01 0.  1.
       -4    1    3    3    0  502  0.47814809492E+02  0.67133507892E+02  0.32368174676E+03  0.33401294881E+03  0.12699999809E+01 0. -1.
</event>
<event>
 5   0  0.1221315E-02  0.9953436E+03  0.7818609E-02  0.9313667E-01
       -2   -1    0    0    0  501  0.00000000000E+00  0.00000000000E+00  0.28296561840E+03  0.28296561842E+03  0.25500000920E-02 0.  1.
        2   -1    0    0  501    0  0.00000000000E+00  0.00000000000E+00 -0.87529093680E+03  0.87529093681E+03  0.25500000920E-02 0. -1.
    10030    2    1    2    0    0  0.00000000000E+00  0.00000000000E+00 -0.59232531840E+03  0.11582565552E+04  0.99534364161E+03 0.  0.
        5    1    3    3  502    0 -0.23854101212E+03 -0.16212019290E+03 -0.76809046658E+03  0.82046927198E+03  0.46999998093E+01 0. -1.
       -5    1    3    3    0  502  0.23854101212E+03  0.16212019290E+03  0.17576514818E+03  0.33778728324E+03  0.46999998093E+01 0.  1.
</event>
<event>
 5   0  0.7224879E-03  0.9841244E+03  0.7818609E-02  0.9326130E-01
        1   -1    0    0  501    0  0.00000000000E+00  0.00000000000E+00  0.11883335163E+04  0.11883335163E+04  0.50400001928E-02 0.  1.
       -1   -1    0    0    0  501  0.00000000000E+00  0.00000000000E+00 -0.20375189258E+03  0.20375189264E+03  0.50400001928E-02 0. -1.
    10030    2    1    2    0    0  0.00000000000E+00  0.00000000000E+00  0.98458162371E+03  0.13920854089E+04  0.98412438850E+03 0.  0.
        3    1    3    3  502    0  0.43573276505E+03 -0.16307399651E+03  0.26565916878E+03  0.53575271818E+03  0.10100000352E+00 0. -1.
       -3    1    3    3    0  502 -0.43573276505E+03  0.16307399651E+03  0.71892245492E+03  0.85633269076E+03  0.10100000352E+00 0.  1.
</event>
<event>
 5   0  0.7461157E-03  0.9853124E+03  0.7818609E-02  0.9324802E-01
       -1   -1    0    0    0  501  0.00000000000E+00  0.00000000000E+00  0.61528359658E+03  0.61528359660E+03  0.50400001928E-02 0. -1.
        1   -1    0    0  501    0  0.00000000000E+00  0.00000000000E+00 -0.39446871526E+03  0.39446871529E+03  0.50400001928E-02 0.  1.
    10030    2    1    2    0    0  0.00000000000E+00  0.00000000000E+00  0.22081488132E+03  0.10097523119E+04  0.98531239694E+03 0.  0.
        2    1    3    3  502    0 -0.28854605979E+03  0.38484509652E+03  0.12498999513E+01  0.48100534217E+03  0.25500000920E-02 0.  1.
       -2    1    3    3    0  502  0.28854605979E+03 -0.38484509652E+03  0.21956498137E+03  0.52874696972E+03  0.25500000920E-02 0. -1.
</event>
<event>
 5   0  0.1245850E-02  0.9895971E+03  0.7818609E-02  0.9320029E-01
       -2   -1    0    0    0  501  0.00000000000E+00  0.00000000000E+00  0.28000274023E+03  0.28000274024E+03  0.25500000920E-02 0.  1.
        2   -1    0    0  501    0  0.00000000000E+00  0.00000000000E+00 -0.87436856130E+03  0.87436856130E+03  0.25500000920E-02 0. -1.
    10030    2    1    2    0    0  0.00000000000E+00  0.00000000000E+00 -0.59436582107E+03  0.11543713015E+04  0.98959707586E+03 0.  0.
        3    1    3    3  502    0  0.33092519293E+03  0.32590910874E+03 -0.49616493972E+03  0.67963805668E+03  0.10100000352E+00 0. -1.
       -3    1    3    3    0  502 -0.33092519293E+03 -0.32590910874E+03 -0.98200881353E+02  0.47473324486E+03  0.10100000352E+00 0.  1.
</event>
<event>
 5   0  0.7224879E-03  0.1027061E+04  0.7818609E-02  0.9279353E-01
        1   -1    0    0  501    0  0.00000000000E+00  0.00000000000E+00  0.94720274412E+03  0.94720274413E+03  0.50400001928E-02 0.  1.
       -1   -1    0    0    0  501  0.00000000000E+00  0.00000000000E+00 -0.27841295412E+03  0.27841295417E+03  0.50400001928E-02 0. -1.
    10030    2    1    2    0    0  0.00000000000E+00  0.00000000000E+00  0.66878979000E+03  0.12256156983E+04  0.10270608827E+04 0.  0.
        3    1    3    3  502    0 -0.20268328524E+03 -0.90918962614E+02  0.88690066771E+03  0.91429731295E+03  0.10100000352E+00 0.  1.
       -3    1    3    3    0  502  0.20268328524E+03  0.90918962614E+02 -0.21811087771E+03  0.31131838535E+03  0.10100000352E+00 0. -1.
</event>
<event>
 5   0  0.7224879E-03  0.9968631E+03  0.7818609E-02  0.9311992E-01
        1   -1    0    0  501    0  0.00000000000E+00  0.00000000000E+00  0.68558932737E+03  0.68558932739E+03  0.50400001928E-02 0. -1.
       -1   -1    0    0    0  501  0.00000000000E+00  0.00000000000E+00 -0.36236562802E+03  0.36236562806E+03  0.50400001928E-02 0.  1.
    10030    2    1    2    0    0  0.00000000000E+00  0.00000000000E+00  0.32322369934E+03  0.10479549554E+04  0.99686309432E+03 0.  0.
        3    1    3    3  502    0  0.25109884017E+03 -0.39097967844E+03  0.35118234758E+03  0.58244724047E+03  0.10100000352E+00 0. -1.
       -3    1    3    3    0  502 -0.25109884017E+03  0.39097967844E+03 -0.27958648235E+02  0.46550771497E+03  0.10100000352E+00 0.  1.
</event>
<event>
 5   0  0.7224879E-03  0.1052616E+04  0.7818609E-02  0.9252647E-01
       -1   -1    0    0    0  501  0.00000000000E+00  0.00000000000E+00  0.49371769910E+03  0.49371769913E+03  0.50400001928E-02 0.  1.
        1   -1    0    0  501    0  0.00000000000E+00  0.00000000000E+00 -0.56104978848E+03  0.56104978851E+03  0.50400001928E-02 0. -1.
    10030    2    1    2    0    0  0.00000000000E+00  0.00000000000E+00 -0.67332089384E+02  0.10547674876E+04  0.10526161896E+04 0.  0.
        3    1    3    3  502    0 -0.32993529344E+03  0.78673383569E+02 -0.43692286923E+03  0.55312602813E+03  0.10100000352E+00 0. -1.
       -3    1    3    3    0  502  0.32993529344E+03 -0.78673383569E+02  0.36959077985E+03  0.50164145950E+03  0.10100000352E+00 0.  1.
</event>
<event>
 5   0  0.4782125E-03  0.9927237E+03  0.7818609E-02  0.9316562E-01
        4   -1    0    0  501    0  0.00000000000E+00  0.00000000000E+00  0.41537224431E+03  0.41537418582E+03  0.12699999809E+01 0. -1.
       -4   -1    0    0    0  501  0.00000000000E+00  0.00000000000E+00 -0.59313884226E+03  0.59314020189E+03  0.12699999809E+01 0.  1.
    10030    2    1    2    0    0  0.00000000000E+00  0.00000000000E+00 -0.17776659795E+03  0.10085143877E+04  0.99272368103E+03 0.  0.
        4    1    3    3  502    0  0.47534323649E+03 -0.36789653854E+02 -0.22916961649E+03  0.52898487420E+03  0.12699999809E+01 0.  1.
       -4    1    3    3    0  502 -0.47534323649E+03  0.36789653854E+02  0.51403018545E+02  0.47952951351E+03  0.12699999809E+01 0. -1.
</event>
<event>
 5   0  0.7241200E-03  0.1041248E+04  0.7818609E-02  0.9264426E-01
        1   -1    0    0  501    0  0.00000000000E+00  0.00000000000E+00  0.69514048462E+03  0.69514048464E+03  0.50400001928E-02 0. -1.
       -1   -1    0    0    0  501  0.00000000000E+00  0.00000000000E+00 -0.38992053061E+03  0.38992053064E+03  0.50400001928E-02 0.  1.
    10030    2    1    2    0    0  0.00000000000E+00  0.00000000000E+00  0.30521995402E+03  0.10850610153E+04  0.10412483789E+04 0.  0.
        4    1    3    3  502    0  0.14870376488E+03 -0.23837361210E+03  0.60935977387E+03  0.67101098020E+03  0.12699999809E+01 0. -1.
       -4    1    3    3    0  502 -0.14870376488E+03  0.23837361210E+03 -0.30413981985E+03  0.41405003509E+03  0.12699999809E+01 0.  1.
</event>
<event>
 5   0  0.7241200E-03  0.8862764E+03  0.7818609E-02  0.9442901E-01
        1   -1    0    0  501    0  0.00000000000E+00  0.00000000000E+00  0.60141298825E+03  0.60141298827E+03  0.50400001928E-02 0.  1.
       -1   -1    0    0    0  501  0.00000000000E+00  0.00000000000E+00 -0.32651680301E+03  0.32651680305E+03  0.50400001928E-02 0. -1.
    10030    2    1    2    0    0  0.00000000000E+00  0.00000000000E+00  0.27489618523E+03  0.92792979132E+03  0.88627635925E+03 0.  0.
        4    1    3    3  502    0  0.23721907494E+03 -0.36883911207E+03  0.70779265951E+02  0.44421447241E+03  0.12699999809E+01 0.  1.
       -4    1    3    3    0  502 -0.23721907494E+03  0.36883911207E+03  0.20411691928E+03  0.48371531891E+03  0.12699999809E+01 0. -1.
</event>
<event>
 5   0  0.1245850E-02  0.9874928E+03  0.7818609E-02  0.9322370E-01
        2   -1    0    0  501    0  0.00000000000E+00  0.00000000000E+00  0.62035534442E+03  0.62035534443E+03  0.25500000920E-02 0. -1.
       -2   -1    0    0    0  501  0.00000000000E+00  0.00000000000E+00 -0.39297717804E+03  0.39297717805E+03  0.25500000920E-02 0.  1.
    10030    2    1    2    0    0  0.00000000000E+00  0.00000000000E+00  0.22737816638E+03  0.10133325225E+04  0.98749276988E+03 0.  0.
        3    1    3    3  502    0  0.12154752680E+03  0.19106733418E+03 -0.33654566829E+03  0.40563964859E+03  0.10100000352E+00 0.  1.
       -3    1    3    3    0  502 -0.12154752680E+03 -0.19106733418E+03  0.56392383467E+03  0.60769287389E+03  0.10100000352E+00 0. -1.
</event>
<event>
 5   0  0.1191822E-02  0.9771074E+03  0.7818609E-02  0.9334016E-01
        2   -1    0    0  501    0  0.00000000000E+00  0.00000000000E+00  0.40117086065E+03  0.40117086065E+03  0.25500000920E-02 0.  1.
       -2   -1    0    0    0  501  0.00000000000E+00  0.00000000000E+00 -0.59497016661E+03  0.59497016661E+03  0.25500000920E-02 0. -1.
    10030    2    1    2    0    0  0.00000000000E+00  0.00000000000E+00 -0.19379930596E+03  0.99614102727E+03  0.97710735092E+03 0.  0.
        4    1    3    3  502    0 -0.42898010254E+03 -0.15955735536E+03 -0.27111020460E+03  0.53196318854E+03  0.12699999809E+01 0. -1.
       -4    1    3    3    0  502  0.42898010254E+03  0.15955735536E+03  0.77310898636E+02  0.46417783873E+03  0.12699999809E+01 0.  1.
</event>
<event>
 5   0  0.1191822E-02  0.9894810E+03  0.7818609E-02  0.9320158E-01
       -2   -1    0    0    0  501  0.00000000000E+00  0.00000000000E+00  0.16242265353E+03  0.16242265355E+03  0.25500000920E-02 0. -1.
        2   -1    0    0  501    0  0.00000000000E+00  0.00000000000E+00 -0.15069830348E+04  0.15069830348E+04  0.25500000920E-02 0.  1.
    10030    2    1    2    0    0  0.00000000000E+00  0.00000000000E+00 -0.13445603812E+04  0.16694056883E+04  0.98948104247E+03 0.  0.
        4    1    3    3  502    0  0.26378540937E+03 -0.24476225273E+03 -0.12451058730E+04  0.12960638682E+04  0.12699999809E+01 0.  1.
       -4    1    3    3    0  502 -0.26378540937E+03  0.24476225273E+03 -0.99454508248E+02  0.37334182014E+03  0.12699999809E+01 0. -1.
</event>
<event>
 5   0  0.6967681E-03  0.9952500E+03  0.7818609E-02  0.9313770E-01
       -1   -1    0    0    0  501  0.00000000000E+00  0.00000000000E+00  0.19702068461E+03  0.19702068467E+03  0.50400001928E-02 0. -1.
        1   -1    0    0  501    0  0.00000000000E+00  0.00000000000E+00 -0.12568763768E+04  0.12568763768E+04  0.50400001928E-02 0.  1.
    10030    2    1    2    0    0  0.00000000000E+00  0.00000000000E+00 -0.10598556922E+04  0.14538970615E+04  0.99525000734E+03 0.  0.
        5    1    3    3  502    0  0.48216940962E+03  0.10181926151E+03 -0.63065196216E+03  0.80037396820E+03  0.46999998093E+01 0. -1.
       -5    1    3    3    0  502 -0.48216940962E+03 -0.10181926151E+03 -0.42920373003E+03  0.65352309328E+03  0.46999998093E+01 0.  1.
</event>
<event>
 5   0  0.7224879E-03  0.8875341E+03  0.7818609E-02  0.9441300E-01
       -1   -1    0    0    0  501  0.00000000000E+00  0.00000000000E+00  0.48163894235E+03  0.48163894238E+03  0.50400001928E-02 0.  1.
        1   -1    0    0  501    0  0.00000000000E+00  0.00000000000E+00 -0.40887304671E+03  0.40887304674E+03  0.50400001928E-02 0. -1.
    10030    2    1    2    0    0  0.00000000000E+00  0.00000000000E+00  0.72765895644E+02  0.89051198911E+03  0.88753407100E+03 0.  0.
        3    1    3    3  502    0  0.24561024407E+03 -0.10796010152E+03  0.39105079404E+03  0.47423676495E+03  0.10100000352E+00 0.  1.
       -3    1    3    3    0  502 -0.24561024407E+03  0.10796010152E+03 -0.31828489839E+03  0.41627522417E+03  0.10100000352E+00 0. -1.
</event>
<event>
 5   0  0.1191822E-02  0.9916859E+03  0.7818609E-02  0.9317711E-01
       -2   -1    0    0    0  501  0.00000000000E+00  0.00000000000E+00  0.11023140612E+03  0.11023140615E+03  0.25500000920E-02 0. -1.
        2   -1    0    0  501    0  0.00000000000E+00  0.00000000000E+00 -0.22304009499E+04  0.22304009499E+04  0.25500000920E-02 0.  1.
    10030    2    1    2    0    0  0.00000000000E+00  0.00000000000E+00 -0.21201695438E+04  0.23406323561E+04  0.99168590381E+03 0.  0.
        4    1    3    3  502    0  0.18569474943E+03 -0.12878849010E+03 -0.21017830651E+04  0.21138975095E+04  0.12699999809E+01 0.  1.
       -4    1    3    3    0  502 -0.18569474943E+03  0.12878849010E+03 -0.18386478725E+02  0.22673484657E+03  0.12699999809E+01 0. -1.
</event>
<event>
 5   0  0.1221315E-02  0.8400742E+03  0.7818609E-02  0.9503757E-01
        2   -1    0    0  501    0  0.00000000000E+00  0.00000000000E+00  0.74864897868E+03  0.74864897868E+03  0.25500000920E-02 0.  1.
       -2   -1    0    0    0  501  0.00000000000E+00  0.00000000000E+00 -0.23566606882E+03  0.23566606883E+03  0.25500000920E-02 0. -1.
    10030    2    1    2    0    0  0.00000000000E+00  0.00000000000E+00  0.51298290986E+03  0.98431504751E+03  0.84007419134E+03 0.  0.
        5    1    3    3  502    0 -0.38294129165E+03 -0.10734974415E+03  0.98242207835E+02  0.40968478349E+03  0.46999998093E+01 0.  1.
       -5    1    3    3    0  502  0.38294129165E+03  0.10734974415E+03  0.41474070202E+03  0.57463026403E+03  0.46999998093E+01 0. -1.
</event>
<event>
 5   0  0.6967681E-03  0.9269328E+03  0.7818609E-02  0.9392527E-01
       -1   -1    0    0    0  501  0.00000000000E+00  0.00000000000E+00  0.24802654802E+03  0.24802654807E+03  0.50400001928E-02 0. -1.
        1   -1    0    0  501    0  0.00000000000E+00  0.00000000000E+00 -0.86604071066E+03  0.86604071068E+03  0.50400001928E-02 0.  1.
    10030    2    1    2    0    0  0.00000000000E+00  0.00000000000E+00 -0.61801416264E+03  0.11140672587E+04  0.92693276551E+03 0.  0.
        5    1    3    3  502    0  0.37579030891E+03 -0.20912875268E+03 -0.10143961947E+03  0.44188830926E+03  0.46999998093E+01 0. -1.
       -5    1    3    3    0  502 -0.37579030891E+03  0.20912875268E+03 -0.51657454318E+03  0.67217894948E+03  0.46999998093E+01 0.  1.
</event>
<event>
 5   0  0.7224879E-03  0.8478071E+03  0.7818609E-02  0.9493285E-01
        1   -1    0    0  501    0  0.00000000000E+00  0.00000000000E+00  0.21342757320E+03  0.21342757326E+03  0.50400001928E-02 0.  1.
       -1   -1    0    0    0  501  0.00000000000E+00  0.00000000000E+00 -0.84194473209E+03  0.84194473210E+03  0.50400001928E-02 0. -1.
    10030    2    1    2    0    0  0.00000000000E+00  0.00000000000E+00 -0.62851715889E+03  0.10553723054E+04  0.84780710300E+03 0.  0.
        3    1    3    3  502    0  0.13260321978E+03  0.67275696645E+02 -0.80841620151E+03  0.82197712762E+03  0.10100000352E+00 0. -1.
       -3    1    3    3    0  502 -0.13260321978E+03 -0.67275696645E+02  0.17989904262E+03  0.23339517774E+03  0.10100000352E+00 0.  1.
</event>
<event>
 5   0  0.1216322E-02  0.9814042E+03  0.7818609E-02  0.9329179E-01
        2   -1    0    0  501    0  0.00000000000E+00  0.00000000000E+00  0.11518981782E+04  0.11518981782E+04  0.25500000920E-02 0. -1.
       -2   -1    0    0    0  501  0.00000000000E+00  0.00000000000E+00 -0.20903630230E+03  0.20903630232E+03  0.25500000920E-02 0.  1.
    10030    2    1    2    0    0  0.00000000000E+00  0.00000000000E+00  0.94286187588E+03  0.13609344805E+04  0.98140416915E+03 0.  0.
        2    1    3    3  502    0  0.68141353667E+02  0.35973383274E+03  0.92448135316E+03  0.99434272102E+03  0.25500000920E-02 0. -1.
       -2    1    3    3    0  502 -0.68141353667E+02 -0.35973383274E+03  0.18380522715E+02  0.36659175948E+03  0.25500000920E-02 0.  1.
</event>
<event>
 5   0  0.1221315E-02  0.9971137E+03  0.7818609E-02  0.9311716E-01
       -2   -1    0    0    0  501  0.00000000000E+00  0.00000000000E+00  0.10023146675E+04  0.10023146675E+04  0.25500000920E-02 0. -1.
        2   -1    0    0  501    0  0.00000000000E+00  0.00000000000E+00 -0.24798492140E+03  0.24798492141E+03  0.25500000920E-02 0.  1.
    10030    2    1    2    0    0  0.00000000000E+00  0.00000000000E+00  0.75432974610E+03  0.12502995889E+04  0.99711368268E+03 0.  0.
        5    1    3    3  502    0  0.81563403313E+02 -0.12367808524E+03 -0.21971624863E+03  0.26503995441E+03  0.46999998093E+01 0.  1.
       -5    1    3    3    0  502 -0.81563403313E+02  0.12367808524E+03  0.97404599473E+03  0.98525963450E+03  0.46999998093E+01 0. -1.
</event>
<event>
 5   0  0.1240503E-02  0.1028586E+04  0.7818609E-02  0.9277737E-01
       -2   -1    0    0    0  501  0.00000000000E+00  0.00000000000E+00  0.83453438339E+03  0.83453438339E+03  0.25500000920E-02 0. -1.
        2   -1    0    0  501    0  0.00000000000E+00  0.00000000000E+00 -0.31693964988E+03  0.31693964989E+03  0.25500000920E-02 0.  1.
    10030    2    1    2    0    0  0.00000000000E+00  0.00000000000E+00  0.51759473350E+03  0.11514740333E+04  0.10285855050E+04 0.  0.
        1    1    3    3  502    0  0.13329455028E+03 -0.32909816984E+03 -0.15770688087E+03  0.38851576908E+03  0.50400001928E-02 0.  1.
       -1    1    3    3    0  502 -0.13329455028E+03  0.32909816984E+03  0.67530161437E+03  0.76295826421E+03  0.50400001928E-02 0. -1.
</event>
<event>
 5   0  0.1191822E-02  0.9882535E+03  0.7818609E-02  0.9321523E-01
       -2   -1    0    0    0  501  0.00000000000E+00  0.00000000000E+00  0.13060549029E+03  0.13060549032E+03  0.25500000920E-02 0.  1.
        2   -1    0    0  501    0  0.00000000000E+00  0.00000000000E+00 -0.18694562439E+04  0.18694562439E+04  0.25500000920E-02 0. -1.
    10030    2    1    2    0    0  0.00000000000E+00  0.00000000000E+00 -0.17388507536E+04  0.20000617342E+04  0.98825350866E+03 0.  0.
        4    1    3    3  502    0 -0.50442253574E+02  0.49036124464E+03 -0.93838634504E+03  0.10599854323E+04  0.12699999809E+01 0. -1.
       -4    1    3    3    0  502  0.50442253574E+02 -0.49036124464E+03 -0.80046440857E+03  0.94007630195E+03  0.12699999809E+01 0.  1.
</event>
<event>
 5   0  0.1221315E-02  0.9972011E+03  0.7818609E-02  0.9311620E-01
       -2   -1    0    0    0  501  0.00000000000E+00  0.00000000000E+00  0.19515618512E+03  0.19515618514E+03  0.25500000920E-02 0.  1.
        2   -1    0    0  501    0  0.00000000000E+00  0.00000000000E+00 -0.12738642371E+04  0.12738642371E+04  0.25500000920E-02 0. -1.
    10030    2    1    2    0    0  0.00000000000E+00  0.00000000000E+00 -0.10787080520E+04  0.14690204223E+04  0.99720105273E+03 0.  0.
        5    1    3    3  502    0 -0.10747107688E+03  0.22776818333E+03  0.94529301502E+02  0.26904694115E+03  0.46999998093E+01 0.  1.
       -5    1    3    3    0  502  0.10747107688E+03 -0.22776818333E+03 -0.11732373535E+04  0.11999734811E+04  0.46999998093E+01 0. -1.
</event>
<event>
 5   0  0.1245850E-02  0.1000175E+04  0.7818609E-02  0.9308353E-01
       -2   -1    0    0    0  501  0.00000000000E+00  0.00000000000E+00  0.25425690805E+03  0.25425690807E+03  0.25500000920E-02 0. -1.
        2   -1    0    0  501    0  0.00000000000E+00  0.00000000000E+00 -0.98360189431E+03  0.98360189431E+03  0.25500000920E-02 0.  1.
    10030    2    1    2    0    0  0.00000000000E+00  0.00000000000E+00 -0.72934498625E+03  0.12378588024E+04  0.10001751375E+04 0.  0.
        3    1    3    3  502    0  0.21479095486E+03 -0.15586702307E+03 -0.88926030207E+03  0.92801593639E+03  0.10100000352E+00 0.  1.
       -3    1    3    3    0  502 -0.21479095486E+03  0.15586702307E+03  0.15991531581E+03  0.30984286598E+03  0.10100000352E+00 0. -1.
</event>
<event>
 5   0  0.7461157E-03  0.9699812E+03  0.7818609E-02  0.9342096E-01
       -1   -1    0    0    0  501  0.00000000000E+00  0.00000000000E+00  0.20093729372E+03  0.20093729379E+03  0.50400001928E-02 0. -1.
        1   -1    0    0  501    0  0.00000000000E+00  0.00000000000E+00 -0.11705933892E+04  0.11705933892E+04  0.50400001928E-02 0.  1.
    10030    2    1    2    0    0  0.00000000000E+00  0.00000000000E+00 -0.96965609545E+03  0.13715306830E+04  0.96998117037E+03 0.  0.
        2    1    3    3  502    0 -0.19320157706E+03 -0.44240717606E+03 -0.41903772191E+03  0.63925235330E+03  0.25500000920E-02 0.  1.
       -2    1    3    3    0  502  0.19320157706E+03  0.44240717606E+03 -0.55061837354E+03  0.73227832967E+03  0.25500000920E-02 0. -1.
</event>
<event>
 5   0  0.1221315E-02  0.1006857E+04  0.7818609E-02  0.9301056E-01
       -2   -1    0    0    0  501  0.00000000000E+00  0.00000000000E+00  0.38687017997E+03  0.38687017998E+03  0.25500000920E-02 0.  1.
        2   -1    0    0  501    0  0.00000000000E+00  0.00000000000E+00 -0.65510457217E+03  0.65510457218E+03  0.25500000920E-02 0. -1.
    10030    2    1    2    0    0  0.00000000000E+00  0.00000000000E+00 -0.26823439220E+03  0.10419747522E+04  0.10068573360E+04 0.  0.
        5    1    3    3  502    0  0.34174522141E+03  0.36954309206E+03 -0.12568179558E+03  0.51881586038E+03  0.46999998093E+01 0.  1.
       -5    1    3    3    0  502 -0.34174522141E+03 -0.36954309206E+03 -0.14255259662E+03  0.52315889178E+03  0.46999998093E+01 0. -1.
</event>
<event>
 5   0  0.6967681E-03  0.9951295E+03  0.7818609E-02  0.9313903E-01
       -1   -1    0    0    0  501  0.00000000000E+00  0.00000000000E+00  0.34547749817E+03  0.34547749821E+03  0.50400001928E-02 0.  1.
        1   -1    0    0  501    0  0.00000000000E+00  0.00000000000E+00 -0.71660437416E+03  0.71660437418E+03  0.50400001928E-02 0. -1.
    10030    2    1    2    0    0  0.00000000000E+00  0.00000000000E+00 -0.37112687599E+03  0.10620818724E+04  0.99512951195E+03 0.  0.
        5    1    3    3  502    0 -0.45908339818E+02 -0.30967046210E+03 -0.59829213509E+03  0.67526212664E+03  0.46999998093E+01 0. -1.
       -5    1    3    3    0  502  0.45908339818E+02  0.30967046210E+03  0.22716525910E+03  0.38681974575E+03  0.46999998093E+01 0.  1.
</event>
<event>
 5   0  0.6967681E-03  0.9992263E+03  0.7818609E-02  0.9309394E-01
       -1   -1    0    0    0  501  0.00000000000E+00  0.00000000000E+00  0.29773970284E+03  0.29773970288E+03  0.50400001928E-02 0.  1.
        1   -1    0    0  501    0  0.00000000000E+00  0.00000000000E+00 -0.83836080249E+03  0.83836080250E+03  0.50400001928E-02 0. -1.
    10030    2    1    2    0    0  0.00000000000E+00  0.00000000000E+00 -0.54062109965E+03  0.11361005054E+04  0.99922629317E+03 0.  0.
        5    1    3    3  502    0  0.44451520304E+03 -0.18340801262E+03 -0.11625522369E+03  0.49474198514E+03  0.46999998093E+01 0. -1.
       -5    1    3    3    0  502 -0.44451520304E+03  0.18340801262E+03 -0.42436587596E+03  0.64135852025E+03  0.46999998093E+01 0.  1.
</event>
<event>
 5   0  0.6967681E-03  0.1000079E+04  0.7818609E-02  0.9308458E-01
       -1   -1    0    0    0  501  0.00000000000E+00  0.00000000000E+00  0.22217336633E+03  0.22217336638E+03  0.50400001928E-02 0.  1.
        1   -1    0    0  501    0  0.00000000000E+00  0.00000000000E+00 -0.11254261696E+04  0.11254261696E+04  0.50400001928E-02 0. -1.
    10030    2    1    2    0    0  0.00000000000E+00  0.00000000000E+00 -0.90325280327E+03  0.13475995360E+04  0.10000794382E+04 0.  0.
        5    1    3    3  502    0  0.18498551388E+03 -0.46206859461E+03 -0.51611773910E+03  0.71702624574E+03  0.46999998093E+01 0. -1.
       -5    1    3    3    0  502 -0.18498551388E+03  0.46206859461E+03 -0.38713506417E+03  0.63057329025E+03  0.46999998093E+01 0.  1.
</event>
<event>
 5   0  0.7241200E-03  0.1010358E+04  0.7818609E-02  0.9297256E-01
        1   -1    0    0  501    0  0.00000000000E+00  0.00000000000E+00  0.27285832193E+03  0.27285832198E+03  0.50400001928E-02 0.  1.
       -1   -1    0    0    0  501  0.00000000000E+00  0.00000000000E+00 -0.93530574772E+03  0.93530574773E+03  0.50400001928E-02 0. -1.
    10030    2    1    2    0    0  0.00000000000E+00  0.00000000000E+00 -0.66244742578E+03  0.12081640697E+04  0.10103582669E+04 0.  0.
        4    1    3    3  502    0 -0.24115699866E+03  0.42618793619E+03 -0.18277623724E+03  0.52268692423E+03  0.12699999809E+01 0. -1.
       -4    1    3    3    0  502  0.24115699866E+03 -0.42618793619E+03 -0.47967118854E+03  0.68547714548E+03  0.12699999809E+01 0.  1.
</event>
<event>
 5   0  0.1245850E-02  0.6541944E+03  0.7818609E-02  0.9798940E-01
       -2   -1    0    0    0  501  0.00000000000E+00  0.00000000000E+00  0.46677070437E+03  0.46677070437E+03  0.25500000920E-02 0.  1.
        2   -1    0    0  501    0  0.00000000000E+00  0.00000000000E+00 -0.22921872846E+03  0.22921872848E+03  0.25500000920E-02 0. -1.
    10030    2    1    2    0    0  0.00000000000E+00  0.00000000000E+00  0.23755197591E+03  0.69598943285E+03  0.65419442781E+03 0.  0.
        3    1    3    3  502    0  0.27463710665E+03 -0.99188152069E+02  0.27560021282E+03  0.40152125394E+03  0.10100000352E+00 0.  1.
       -3    1    3    3    0  502 -0.27463710665E+03  0.99188152069E+02 -0.38048236913E+02  0.29446817891E+03  0.10100000352E+00 0. -1.
</event>
<event>
 5   0  0.4782125E-03  0.9969201E+03  0.7818609E-02  0.9311929E-01
       -4   -1    0    0    0  501  0.00000000000E+00  0.00000000000E+00  0.57599065425E+03  0.57599205436E+03  0.12699999809E+01 0.  1.
        4   -1    0    0  501    0  0.00000000000E+00  0.00000000000E+00 -0.43136247887E+03  0.43136434841E+03  0.12699999809E+01 0. -1.
    10030    2    1    2    0    0  0.00000000000E+00  0.00000000000E+00  0.14462817538E+03  0.10073564028E+04  0.99692006354E+03 0.  0.
        2    1    3    3  502    0  0.41052741076E+03  0.23314893310E+03  0.23389816656E+03  0.52687715107E+03  0.25500000920E-02 0.  1.
       -2    1    3    3    0  502 -0.41052741076E+03 -0.23314893310E+03 -0.89269991180E+02  0.48047925171E+03  0.25500000920E-02 0. -1.
</event>
<event>
 5   0  0.7241200E-03  0.1013397E+04  0.7818609E-02  0.9293972E-01
       -1   -1    0    0    0  501  0.00000000000E+00  0.00000000000E+00  0.30192366392E+03  0.30192366396E+03  0.50400001928E-02 0. -1.
        1   -1    0    0  501    0  0.00000000000E+00  0.00000000000E+00 -0.85035853906E+03  0.85035853908E+03  0.50400001928E-02 0.  1.
    10030    2    1    2    0    0  0.00000000000E+00  0.00000000000E+00 -0.54843487514E+03  0.11522822030E+04  0.10133969919E+04 0.  0.
        4    1    3    3  502    0  0.22260485170E+02  0.13756517991E+03 -0.82813901686E+03  0.83978303869E+03  0.12699999809E+01 0.  1.
       -4    1    3    3    0  502 -0.22260485170E+02 -0.13756517991E+03  0.27970414172E+03  0.31249916435E+03  0.12699999809E+01 0. -1.
</event>
<event>
 5   0  0.1216322E-02  0.1003749E+04  0.7818609E-02  0.9304443E-01
       -2   -1    0    0    0  501  0.00000000000E+00  0.00000000000E+00  0.19135107789E+03  0.19135107791E+03  0.25500000920E-02 0. -1.
        2   -1    0    0  501    0  0.00000000000E+00  0.00000000000E+00 -0.13163125890E+04  0.13163125890E+04  0.25500000920E-02 0.  1.
    10030    2    1    2    0    0  0.00000000000E+00  0.00000000000E+00 -0.11249615111E+04  0.15076636669E+04  0.10037486394E+04 0.  0.
        2    1    3    3  502    0 -0.29451812482E+02 -0.44967472651E+03 -0.89430112548E+03  0.10014236226E+04  0.25500000920E-02 0.  1.
       -2    1    3    3    0  502  0.29451812482E+02  0.44967472651E+03 -0.23066038560E+03  0.50624004426E+03  0.25500000920E-02 0. -1.
</event>
<event>
 5   0  0.1216322E-02  0.9882633E+03  0.7818609E-02  0.9321512E-01
       -2   -1    0    0    0  501  0.00000000000E+00  0.00000000000E+00  0.24055598443E+03  0.24055598445E+03  0.25500000920E-02 0.  1.
        2   -1    0    0  501    0  0.00000000000E+00  0.00000000000E+00 -0.10150072515E+04  0.10150072515E+04  0.25500000920E-02 0. -1.
    10030    2    1    2    0    0  0.00000000000E+00  0.00000000000E+00 -0.77445126711E+03  0.12555632360E+04  0.98826326172E+03 0.  0.
        2    1    3    3  502    0  0.59944872633E+01  0.38317287446E+03  0.90904861539E+01  0.38332756560E+03  0.25500000920E-02 0.  1.
       -2    1    3    3    0  502 -0.59944872633E+01 -0.38317287446E+03 -0.78354175326E+03  0.87223567040E+03  0.25500000920E-02 0. -1.
</event>
<event>
 5   0  0.7241200E-03  0.9815905E+03  0.7818609E-02  0.9328970E-01
       -1   -1    0    0    0  501  0.00000000000E+00  0.00000000000E+00  0.21163982142E+03  0.21163982148E+03  0.50400001928E-02 0.  1.
        1   -1    0    0  501    0  0.00000000000E+00  0.00000000000E+00 -0.11381600404E+04  0.11381600404E+04  0.50400001928E-02 0. -1.
    10030    2    1    2    0    0  0.00000000000E+00  0.00000000000E+00 -0.92652021895E+03  0.13497998618E+04  0.98159052101E+03 0.  0.
        4    1    3    3  502    0  0.39804027379E+03 -0.23813658340E+03 -0.68385051594E+03  0.82631606117E+03  0.12699999809E+01 0. -1.
       -4    1    3    3    0  502 -0.39804027379E+03  0.23813658340E+03 -0.24266970301E+03  0.52348380068E+03  0.12699999809E+01 0.  1.
</event>
<event>
 5   0  0.1221315E-02  0.1022010E+04  0.7818609E-02  0.9284729E-01
       -2   -1    0    0    0  501  0.00000000000E+00  0.00000000000E+00  0.43995800974E+03  0.43995800975E+03  0.25500000920E-02 0.  1.
        2   -1    0    0  501    0  0.00000000000E+00  0.00000000000E+00 -0.59352452319E+03  0.59352452319E+03  0.25500000920E-02 0. -1.
    10030    2    1    2    0    0  0.00000000000E+00  0.00000000000E+00 -0.15356651344E+03  0.10334825329E+04  0.10220095263E+04 0.  0.
        5    1    3    3  502    0 -0.46031531898E+03 -0.12952877713E+01 -0.30111115922E+03  0.55007444121E+03  0.46999998093E+01 0. -1.
       -5    1    3    3    0  502  0.46031531898E+03  0.12952877713E+01  0.14754464578E+03  0.48340809174E+03  0.46999998093E+01 0.  1.
</event>
<event>
 5   0  0.7224879E-03  0.9885903E+03  0.7818609E-02  0.9321148E-01
       -1   -1    0    0    0  501  0.00000000000E+00  0.00000000000E+00  0.39454574257E+03  0.39454574260E+03  0.50400001928E-02 0. -1.
        1   -1    0    0  501    0  0.00000000000E+00  0.00000000000E+00 -0.61926328391E+03  0.61926328393E+03  0.50400001928E-02 0.  1.
    10030    2    1    2    0    0  0.00000000000E+00  0.00000000000E+00 -0.22471754134E+03  0.10138090265E+04  0.98859029375E+03 0.  0.
        3    1    3    3  502    0 -0.36044145507E+03  0.32639760092E+03 -0.20335937782E+03  0.52707540558E+03  0.10100000352E+00 0. -1.
       -3    1    3    3    0  502  0.36044145507E+03 -0.32639760092E+03 -0.21358163521E+02  0.48673362096E+03  0.10100000352E+00 0.  1.
</event>
<event>
 5   0  0.1191822E-02  0.9637246E+03  0.7818609E-02  0.9349251E-01
        2   -1    0    0  501    0  0.00000000000E+00  0.00000000000E+00  0.39845769034E+03  0.39845769035E+03  0.25500000920E-02 0.  1.
       -2   -1    0    0    0  501  0.00000000000E+00  0.00000000000E+00 -0.58272502454E+03  0.58272502454E+03  0.25500000920E-02 0. -1.
    10030    2    1    2    0    0  0.00000000000E+00  0.00000000000E+00 -0.18426733420E+03  0.98118271489E+03  0.96372458179E+03 0.  0.
        4    1    3    3  502    0 -0.20656423331E+03 -0.97956182451E+02  0.33972661183E+03  0.40948745994E+03  0.12699999809E+01 0.  1.
       -4    1    3    3    0  502  0.20656423331E+03  0.97956182451E+02 -0.52399394603E+03  0.57169525495E+03  0.12699999809E+01 0. -1.
</event>
<event>
 5   0  0.4782125E-03  0.1052545E+04  0.7818609E-02  0.9252720E-01
       -3   -1    0    0    0  501  0.00000000000E+00  0.00000000000E+00  0.21855201190E+03  0.21855203524E+03  0.10100000352E+00 0.  1.
        3   -1    0    0  501    0  0.00000000000E+00  0.00000000000E+00 -0.12672632578E+04  0.12672632618E+04  0.10100000352E+00 0. -1.
    10030    2    1    2    0    0  0.00000000000E+00  0.00000000000E+00 -0.10487112459E+04  0.14858152971E+04  0.10525454003E+04 0.  0.
        4    1    3    3  502    0 -0.16026841771E+03  0.49416396782E+03 -0.64311264549E+03  0.82672817812E+03  0.12699999809E+01 0. -1.
       -4    1    3    3    0  502  0.16026841771E+03 -0.49416396782E+03 -0.40559860041E+03  0.65908711895E+03  0.12699999809E+01 0.  1.
</event>
<event>
 5   0  0.4782125E-03  0.9966064E+03  0.7818609E-02  0.9312275E-01
       -4   -1    0    0    0  501  0.00000000000E+00  0.00000000000E+00  0.80507005790E+03  0.80507105961E+03  0.12699999809E+01 0. -1.
        4   -1    0    0  501    0  0.00000000000E+00  0.00000000000E+00 -0.30842542153E+03  0.30842803625E+03  0.12699999809E+01 0.  1.
    10030    2    1    2    0    0  0.00000000000E+00  0.00000000000E+00  0.49664463637E+03  0.11134990959E+04  0.99660641262E+03 0.  0.
        2    1    3    3  502    0  0.13570332120E+03 -0.32553414617E+03  0.64163120883E+03  0.73217380441E+03  0.25500000920E-02 0. -1.
       -2    1    3    3    0  502 -0.13570332120E+03  0.32553414617E+03 -0.14498657246E+03  0.38132529146E+03  0.25500000920E-02 0.  1.
</event>
<event>
 5   0  0.7073004E-03  0.9883108E+03  0.7818609E-02  0.9321459E-01
       -1   -1    0    0    0  501  0.00000000000E+00  0.00000000000E+00  0.32244983798E+03  0.32244983802E+03  0.50400001928E-02 0. -1.
        1   -1    0    0  501    0  0.00000000000E+00  0.00000000000E+00 -0.75729472475E+03  0.75729472476E+03  0.50400001928E-02 0.  1.
    10030    2    1    2    0    0  0.00000000000E+00  0.00000000000E+00 -0.43484488677E+03  0.10797445628E+04  0.98831080400E+03 0.  0.
        1    1    3    3  502    0 -0.52100654540E+02  0.11065222591E+02  0.31930464332E+03  0.32371650039E+03  0.50400001928E-02 0. -1.
       -1    1    3    3    0  502  0.52100654540E+02 -0.11065222591E+02 -0.75414953009E+03  0.75602806239E+03  0.50400001928E-02 0.  1.
</event>
<event>
 5   0  0.7073004E-03  0.1017546E+04  0.7818609E-02  0.9289507E-01
        1   -1    0    0  501    0  0.00000000000E+00  0.00000000000E+00  0.52820514514E+03  0.52820514517E+03  0.50400001928E-02 0.  1.
       -1   -1    0    0    0  501  0.00000000000E+00  0.00000000000E+00 -0.49005568663E+03  0.49005568666E+03  0.50400001928E-02 0. -1.
    10030    2    1    2    0    0  0.00000000000E+00  0.00000000000E+00  0.38149458510E+02  0.10182608318E+04  0.10175459402E+04 0.  0.
        1    1    3    3  502    0  0.30710041612E+03  0.26899134515E+03  0.32290445153E+03  0.52051349088E+03  0.50400001928E-02 0.  1.
       -1    1    3    3    0  502 -0.30710041612E+03 -0.26899134515E+03 -0.28475499302E+03  0.49774734095E+03  0.50400001928E-02 0. -1.
</event>
<event>
 5   0  0.7224879E-03  0.9861029E+03  0.7818609E-02  0.9323920E-01
       -1   -1    0    0    0  501  0.00000000000E+00  0.00000000000E+00  0.19514748888E+03  0.19514748895E+03  0.50400001928E-02 0. -1.
        1   -1    0    0  501    0  0.00000000000E+00  0.00000000000E+00 -0.12457229658E+04  0.12457229658E+04  0.50400001928E-02 0.  1.
    10030    2    1    2    0    0  0.00000000000E+00  0.00000000000E+00 -0.10505754769E+04  0.14408704548E+04  0.98610285200E+03 0.  0.
        3    1    3    3  502    0  0.39402421193E+03  0.40762419930E+00 -0.95835952558E+03  0.10361989366E+04  0.10100000352E+00 0.  1.
       -3    1    3    3    0  502 -0.39402421193E+03 -0.40762419930E+00 -0.92215951367E+02  0.40467151819E+03  0.10100000352E+00 0. -1.
</event>
<event>
 5   0  0.1191822E-02  0.9831626E+03  0.7818609E-02  0.9327207E-01
       -2   -1    0    0    0  501  0.00000000000E+00  0.00000000000E+00  0.13799511239E+04  0.13799511239E+04  0.25500000920E-02 0.  1.
        2   -1    0    0  501    0  0.00000000000E+00  0.00000000000E+00 -0.17511647110E+03  0.17511647112E+03  0.25500000920E-02 0. -1.
    10030    2    1    2    0    0  0.00000000000E+00  0.00000000000E+00  0.12048346528E+04  0.15550675950E+04  0.98316259309E+03 0.  0.
        4    1    3    3  502    0 -0.11379738086E+03 -0.44819161254E+03  0.86625782267E+03  0.98195203227E+03  0.12699999809E+01 0.  1.
       -4    1    3    3    0  502  0.11379738086E+03  0.44819161254E+03  0.33857683008E+03  0.57311556270E+03  0.12699999809E+01 0. -1.
</event>
<event>
 5   0  0.1240503E-02  0.1008281E+04  0.7818609E-02  0.9299509E-01
        2   -1    0    0  501    0  0.00000000000E+00  0.00000000000E+00  0.15284259373E+04  0.15284259373E+04  0.25500000920E-02 0. -1.
       -2   -1    0    0    0  501  0.00000000000E+00  0.00000000000E+00 -0.16628705453E+03  0.16628705455E+03  0.25500000920E-02 0.  1.
    10030    2    1    2    0    0  0.00000000000E+00  0.00000000000E+00  0.13621388828E+04  0.16947129919E+04  0.10082806102E+04 0.  0.
        1    1    3    3  502    0 -0.10891529026E+02 -0.34866535550E+03  0.12928217666E+04  0.13390572339E+04  0.50400001928E-02 0. -1.
       -1    1    3    3    0  502  0.10891529026E+02  0.34866535550E+03  0.69317116174E+02  0.35565575793E+03  0.50400001928E-02 0.  1.
</event>
<event>
 5   0  0.4782125E-03  0.9984147E+03  0.7818609E-02  0.9310285E-01
       -4   -1    0    0    0  501  0.00000000000E+00  0.00000000000E+00  0.14379310225E+04  0.14379315833E+04  0.12699999809E+01 0.  1.
        4   -1    0    0  501    0  0.00000000000E+00  0.00000000000E+00 -0.17330720185E+03  0.17331185509E+03  0.12699999809E+01 0. -1.
    10030    2    1    2    0    0  0.00000000000E+00  0.00000000000E+00  0.12646238206E+04  0.16112434384E+04  0.99841474855E+03 0.  0.
        2    1    3    3  502    0 -0.38560837374E+02  0.21997166243E+03 -0.88198657618E+02  0.24011137762E+03  0.25500000920E-02 0. -1.
       -2    1    3    3    0  502  0.38560837374E+02 -0.21997166243E+03  0.13528224783E+04  0.13711320608E+04  0.25500000920E-02 0.  1.
</event>
<event>
 5   0  0.7461157E-03  0.9677030E+03  0.7818609E-02  0.9344695E-01
        1   -1    0    0  501    0  0.00000000000E+00  0.00000000000E+00  0.58562823890E+03  0.58562823893E+03  0.50400001928E-02 0.  1.
       -1   -1    0    0    0  501  0.00000000000E+00  0.00000000000E+00 -0.39976262084E+03  0.39976262087E+03  0.50400001928E-02 0. -1.
    10030    2    1    2    0    0  0.00000000000E+00  0.00000000000E+00  0.18586561806E+03  0.98539085980E+03  0.96770301157E+03 0.  0.
        2    1    3    3  502    0 -0.27804278322E+03 -0.23835034173E+03 -0.22906472803E+03  0.43195986427E+03  0.25500000920E-02 0. -1.
       -2    1    3    3    0  502  0.27804278322E+03  0.23835034173E+03  0.41493034609E+03  0.55343099553E+03  0.25500000920E-02 0.  1.
</event>
<event>
 5   0  0.6967681E-03  0.1010298E+04  0.7818609E-02  0.9297321E-01
        1   -1    0    0  501    0  0.00000000000E+00  0.00000000000E+00  0.26487570718E+04  0.26487570718E+04  0.50400001928E-02 0. -1.
       -1   -1    0    0    0  501  0.00000000000E+00  0.00000000000E+00 -0.96337924736E+02  0.96337924868E+02  0.50400001928E-02 0.  1.
    10030    2    1    2    0    0  0.00000000000E+00  0.00000000000E+00  0.25524191471E+04  0.27450949967E+04  0.10102984898E+04 0.  0.
        5    1    3    3  502    0 -0.11850874501E+03  0.81479478387E+02 -0.39474825816E+02  0.14920985193E+03  0.46999998093E+01 0.  1.
       -5    1    3    3    0  502  0.11850874501E+03 -0.81479478387E+02  0.25918939729E+04  0.25958851448E+04  0.46999998093E+01 0. -1.
</event>
<event>
 5   0  0.1191822E-02  0.9931956E+03  0.7818609E-02  0.9316039E-01
       -2   -1    0    0    0  501  0.00000000000E+00  0.00000000000E+00  0.31551591125E+03  0.31551591126E+03  0.25500000920E-02 0. -1.
        2   -1    0    0  501    0  0.00000000000E+00  0.00000000000E+00 -0.78160682383E+03  0.78160682383E+03  0.25500000920E-02 0.  1.
    10030    2    1    2    0    0  0.00000000000E+00  0.00000000000E+00 -0.46609091258E+03  0.10971227351E+04  0.99319562880E+03 0.  0.
        4    1    3    3  502    0 -0.93192890775E+02  0.19916061416E+03 -0.72489885700E+03  0.75751556479E+03  0.12699999809E+01 0.  1.
       -4    1    3    3    0  502  0.93192890775E+02 -0.19916061416E+03  0.25880794442E+03  0.33960717030E+03  0.12699999809E+01 0. -1.
</event>
<event>
 5   0  0.7224879E-03  0.9902240E+03  0.7818609E-02  0.9319332E-01
       -1   -1    0    0    0  501  0.00000000000E+00  0.00000000000E+00  0.65752251418E+03  0.65752251420E+03  0.50400001928E-02 0.  1.
        1   -1    0    0  501    0  0.00000000000E+00  0.00000000000E+00 -0.37281748688E+03  0.37281748691E+03  0.50400001928E-02 0. -1.
    10030    2    1    2    0    0  0.00000000000E+00  0.00000000000E+00  0.28470502730E+03  0.10303400011E+04  0.99022399755E+03 0.  0.
        3    1    3    3  502    0 -0.70451951225E+02 -0.32983062043E+03  0.51950643485E+03  0.61938571315E+03  0.10100000352E+00 0.  1.
       -3    1    3    3    0  502  0.70451951225E+02  0.32983062043E+03 -0.23480140755E+03  0.41095428796E+03  0.10100000352E+00 0. -1.
</event>
<event>
 5   0  0.1191822E-02  0.9875438E+03  0.7818609E-02  0.9322313E-01
       -2   -1    0    0    0  501  0.00000000000E+00  0.00000000000E+00  0.13351546869E+03  0.13351546871E+03  0.25500000920E-02 0.  1.
        2   -1    0    0  501    0  0.00000000000E+00  0.00000000000E+00 -0.18260857256E+04  0.18260857256E+04  0.25500000920E-02 0. -1.
    10030    2    1    2    0    0  0.00000000000E+00  0.00000000000E+00 -0.16925702569E+04  0.19596011943E+04  0.98754380469E+03 0.  0.
        4    1    3    3  502    0 -0.24601550852E+03  0.35373603205E+03 -0.36775466467E+03  0.56647852306E+03  0.12699999809E+01 0.  1.
       -4    1    3    3    0  502  0.24601550852E+03 -0.35373603205E+03 -0.13248155922E+04  0.13931226712E+04  0.12699999809E+01 0. -1.
</event>
<event>
 5   0  0.7073004E-03  0.1002763E+04  0.7818609E-02  0.9305520E-01
       -1   -1    0    0    0  501  0.00000000000E+00  0.00000000000E+00  0.18025897503E+03  0.18025897510E+03  0.50400001928E-02 0. -1.
        1   -1    0    0  501    0  0.00000000000E+00  0.00000000000E+00 -0.13945674574E+04  0.13945674574E+04  0.50400001928E-02 0.  1.
    10030    2    1    2    0    0  0.00000000000E+00  0.00000000000E+00 -0.12143084824E+04  0.15748264325E+04  0.10027627846E+04 0.  0.
        1    1    3    3  502    0  0.31768940221E+03 -0.29440559133E+03 -0.10037826958E+04  0.10932432981E+04  0.50400001928E-02 0.  1.
       -1    1    3    3    0  502 -0.31768940221E+03  0.29440559133E+03 -0.21052578657E+03  0.48158313438E+03  0.50400001928E-02 0. -1.
</event>
<event>
 5   0  0.7073004E-03  0.1021486E+04  0.7818609E-02  0.9285288E-01
        1   -1    0    0  501    0  0.00000000000E+00  0.00000000000E+00  0.18229080730E+03  0.18229080737E+03  0.50400001928E-02 0. -1.
       -1   -1    0    0    0  501  0.00000000000E+00  0.00000000000E+00 -0.14310026164E+04  0.14310026164E+04  0.50400001928E-02 0.  1.
    10030    2    1    2    0    0  0.00000000000E+00  0.00000000000E+00 -0.12487118091E+04  0.16132934238E+04  0.10214864116E+04 0.  0.
        1    1    3    3  502    0  0.15035994466E+03  0.14759904529E+03  0.11045339473E+03  0.23789397546E+03  0.50400001928E-02 0. -1.
       -1    1    3    3    0  502 -0.15035994466E+03 -0.14759904529E+03 -0.13591652038E+04  0.13753994483E+04  0.50400001928E-02 0.  1.
</event>
<event>
 5   0  0.1191822E-02  0.9665016E+03  0.7818609E-02  0.9346068E-01
        2   -1    0    0  501    0  0.00000000000E+00  0.00000000000E+00  0.16777756193E+04  0.16777756193E+04  0.25500000920E-02 0.  1.
       -2   -1    0    0    0  501  0.00000000000E+00  0.00000000000E+00 -0.13919105446E+03  0.13919105448E+03  0.25500000920E-02 0. -1.
    10030    2    1    2    0    0  0.00000000000E+00  0.00000000000E+00  0.15385845649E+04  0.18169666738E+04  0.96650164536E+03 0.  0.
        4    1    3    3  502    0 -0.29196297930E+03 -0.37655456032E+03  0.92078836180E+03  0.10367683147E+04  0.12699999809E+01 0.  1.
       -4    1    3    3    0  502  0.29196297930E+03  0.37655456032E+03  0.61779620308E+03  0.78019835915E+03  0.12699999809E+01 0. -1.
</event>
<event>
 5   0  0.1240503E-02  0.1004706E+04  0.7818609E-02  0.9303399E-01
        2   -1    0    0  501    0  0.00000000000E+00  0.00000000000E+00  0.13614406926E+04  0.13614406926E+04  0.25500000920E-02 0.  1.
       -2   -1    0    0    0  501  0.00000000000E+00  0.00000000000E+00 -0.18536131351E+03  0.18536131353E+03  0.25500000920E-02 0. -1.
    10030    2    1    2    0    0  0.00000000000E+00  0.00000000000E+00  0.11760793791E+04  0.15468020061E+04  0.10047057979E+04 0.  0.
        1    1    3    3  502    0  0.34183552757E+03  0.12645990808E+03  0.11202786479E+04  0.11780780472E+04  0.50400001928E-02 0.  1.
       -1    1    3    3    0  502 -0.34183552757E+03 -0.12645990808E+03  0.55800731151E+02  0.36872395892E+03  0.50400001928E-02 0. -1.
</event>
<event>
 5   0  0.1216322E-02  0.1028443E+04  0.7818609E-02  0.9277888E-01
        2   -1    0    0  501    0  0.00000000000E+00  0.00000000000E+00  0.60821591877E+03  0.60821591878E+03  0.25500000920E-02 0. -1.
       -2   -1    0    0    0  501  0.00000000000E+00  0.00000000000E+00 -0.43475292917E+03  0.43475292918E+03  0.25500000920E-02 0.  1.
    10030    2    1    2    0    0  0.00000000000E+00  0.00000000000E+00  0.17346298960E+03  0.10429688480E+04  0.10284428079E+04 0.  0.
        2    1    3    3  502    0 -0.81157336628E+01 -0.28118476180E+03 -0.34980504372E+03  0.44888116916E+03  0.25500000920E-02 0.  1.
       -2    1    3    3    0  502  0.81157336628E+01  0.28118476180E+03  0.52326803332E+03  0.59408767880E+03  0.25500000920E-02 0. -1.
</event>
<event>
 5   0  0.1191822E-02  0.1135440E+04  0.7818609E-02  0.9171322E-01
       -2   -1    0    0    0  501  0.00000000000E+00  0.00000000000E+00  0.22200079241E+03  0.22200079242E+03  0.25500000920E-02 0. -1.
        2   -1    0    0  501    0  0.00000000000E+00  0.00000000000E+00 -0.14518240167E+04  0.14518240167E+04  0.25500000920E-02 0.  1.
    10030    2    1    2    0    0  0.00000000000E+00  0.00000000000E+00 -0.12298232243E+04  0.16738248091E+04  0.11354401475E+04 0.  0.
        4    1    3    3  502    0  0.36994521552E+03  0.10465949093E+02  0.19724859954E+02  0.37062067073E+03  0.12699999809E+01 0. -1.
       -4    1    3    3    0  502 -0.36994521552E+03 -0.10465949093E+02 -0.12495480842E+04  0.13032041384E+04  0.12699999809E+01 0.  1.
</event>
<event>
 5   0  0.7073004E-03  0.9927671E+03  0.7818609E-02  0.9316513E-01
        1   -1    0    0  501    0  0.00000000000E+00  0.00000000000E+00  0.11827204048E+04  0.11827204049E+04  0.50400001928E-02 0. -1.
       -1   -1    0    0    0  501  0.00000000000E+00  0.00000000000E+00 -0.20833041469E+03  0.20833041475E+03  0.50400001928E-02 0.  1.
    10030    2    1    2    0    0  0.00000000000E+00  0.00000000000E+00  0.97438999016E+03  0.13910508196E+04  0.99276710754E+03 0.  0.
        1    1    3    3  502    0  0.11249940337E+03  0.42535244192E+03  0.80921111831E+03  0.92108818776E+03  0.50400001928E-02 0. -1.
       -1    1    3    3    0  502 -0.11249940337E+03 -0.42535244192E+03  0.16517887185E+03  0.46996263185E+03  0.50400001928E-02 0.  1.
</event>
<event>
 5   0  0.7224879E-03  0.9679173E+03  0.7818609E-02  0.9344450E-01
        1   -1    0    0  501    0  0.00000000000E+00  0.00000000000E+00  0.19466938719E+04  0.19466938719E+04  0.50400001928E-02 0. -1.
       -1   -1    0    0    0  501  0.00000000000E+00  0.00000000000E+00 -0.12031474582E+03  0.12031474593E+03  0.50400001928E-02 0.  1.
    10030    2    1    2    0    0  0.00000000000E+00  0.00000000000E+00  0.18263791261E+04  0.20670086179E+04  0.96791730743E+03 0.  0.
        3    1    3    3  502    0  0.37616659568E+03 -0.60851599915E+02  0.27606010511E+03  0.47054587104E+03  0.10100000352E+00 0.  1.
       -3    1    3    3    0  502 -0.37616659568E+03  0.60851599915E+02  0.15503190210E+04  0.15964627468E+04  0.10100000352E+00 0. -1.
</event>
<event>
 5   0  0.1216322E-02  0.9922017E+03  0.7818609E-02  0.9317139E-01
       -2   -1    0    0    0  501  0.00000000000E+00  0.00000000000E+00  0.16995884671E+03  0.16995884673E+03  0.25500000920E-02 0. -1.
        2   -1    0    0  501    0  0.00000000000E+00  0.00000000000E+00 -0.14480920964E+04  0.14480920964E+04  0.25500000920E-02 0.  1.
    10030    2    1    2    0    0  0.00000000000E+00  0.00000000000E+00 -0.12781332497E+04  0.16180509431E+04  0.99220171871E+03 0.  0.
        2    1    3    3  502    0  0.60857074371E+02  0.15049304021E+02  0.16347345525E+03  0.17508179697E+03  0.25500000920E-02 0. -1.
       -2    1    3    3    0  502 -0.60857074371E+02 -0.15049304021E+02 -0.14416067049E+04  0.14429691462E+04  0.25500000920E-02 0.  1.
</event>
<event>
 5   0  0.4782125E-03  0.1016249E+04  0.7818609E-02  0.9290900E-01
        3   -1    0    0  501    0  0.00000000000E+00  0.00000000000E+00  0.32199374463E+03  0.32199376047E+03  0.10100000352E+00 0.  1.
       -3   -1    0    0    0  501  0.00000000000E+00  0.00000000000E+00 -0.80185013015E+03  0.80185013651E+03  0.10100000352E+00 0. -1.
    10030    2    1    2    0    0  0.00000000000E+00  0.00000000000E+00 -0.47985638552E+03  0.11238438970E+04  0.10162494546E+04 0.  0.
        3    1    3    3  502    0 -0.45907678538E+03  0.89962739986E+02 -0.20569109600E+02  0.46826049154E+03  0.10100000352E+00 0.  1.
       -3    1    3    3    0  502  0.45907678538E+03 -0.89962739986E+02 -0.45928727592E+03  0.65558340544E+03  0.10100000352E+00 0. -1.
</event>
<event>
 5   0  0.7461157E-03  0.1018488E+04  0.7818609E-02  0.9288497E-01
       -1   -1    0    0    0  501  0.00000000000E+00  0.00000000000E+00  0.36748041055E+03  0.36748041058E+03  0.50400001928E-02 0.  1.
        1   -1    0    0  501    0  0.00000000000E+00  0.00000000000E+00 -0.70569613722E+03  0.70569613724E+03  0.50400001928E-02 0. -1.
    10030    2    1    2    0    0  0.00000000000E+00  0.00000000000E+00 -0.33821572667E+03  0.10731765478E+04  0.10184881075E+04 0.  0.
        2    1    3    3  502    0 -0.31402216243E+03 -0.33342566318E+03  0.65435700591E+02  0.46267096546E+03  0.25500000920E-02 0.  1.
       -2    1    3    3    0  502  0.31402216243E+03  0.33342566318E+03 -0.40365142726E+03  0.61050558236E+03  0.25500000920E-02 0. -1.
</event>
<event>
 5   0  0.7241200E-03  0.9504753E+03  0.7818609E-02  0.9364595E-01
       -1   -1    0    0    0  501  0.00000000000E+00  0.00000000000E+00  0.62078597647E+03  0.62078597649E+03  0.50400001928E-02 0. -1.
        1   -1    0    0  501    0  0.00000000000E+00  0.00000000000E+00 -0.36381428676E+03  0.36381428679E+03  0.50400001928E-02 0.  1.
    10030    2    1    2    0    0  0.00000000000E+00  0.00000000000E+00  0.25697168971E+03  0.98460026328E+03  0.95047526488E+03 0.  0.
        4    1    3    3  502    0 -0.42669169781E+03  0.10539693436E+02 -0.87996349670E+02  0.43580025307E+03  0.12699999809E+01 0.  1.
       -4    1    3    3    0  502  0.42669169781E+03 -0.10539693436E+02  0.34496803938E+03  0.54880001022E+03  0.12699999809E+01 0. -1.
</event>
<event>
 5   0  0.7241200E-03  0.1011017E+04  0.7818609E-02  0.9296544E-01
       -1   -1    0    0    0  501  0.00000000000E+00  0.00000000000E+00  0.10984939466E+04  0.10984939466E+04  0.50400001928E-02 0.  1.
        1   -1    0    0  501    0  0.00000000000E+00  0.00000000000E+00 -0.23262649105E+03  0.23262649110E+03  0.50400001928E-02 0. -1.
    10030    2    1    2    0    0  0.00000000000E+00  0.00000000000E+00  0.86586745558E+03  0.13311204377E+04  0.10110168985E+04 0.  0.
        4    1    3    3  502    0  0.19039353619E+03 -0.17170616745E+03 -0.14067025503E+03  0.29244219961E+03  0.12699999809E+01 0. -1.
       -4    1    3    3    0  502 -0.19039353619E+03  0.17170616745E+03  0.10065377106E+04  0.10386782381E+04  0.12699999809E+01 0.  1.
</event>
<event>
 5   0  0.1216322E-02  0.1024358E+04  0.7818609E-02  0.9282226E-01
       -2   -1    0    0    0  501  0.00000000000E+00  0.00000000000E+00  0.35247720628E+03  0.35247720629E+03  0.25500000920E-02 0.  1.
        2   -1    0    0  501    0  0.00000000000E+00  0.00000000000E+00 -0.74423844268E+03  0.74423844268E+03  0.25500000920E-02 0. -1.
    10030    2    1    2    0    0  0.00000000000E+00  0.00000000000E+00 -0.39176123640E+03  0.10967156490E+04  0.10243575296E+04 0.  0.
        2    1    3    3  502    0  0.42648147284E+03  0.41240009326E+02  0.10454703924E+03  0.44104111879E+03  0.25500000920E-02 0.  1.
       -2    1    3    3    0  502 -0.42648147284E+03 -0.41240009326E+02 -0.49630827564E+03  0.65567453018E+03  0.25500000920E-02 0. -1.
</event>
<event>
 5   0  0.7073004E-03  0.1016171E+04  0.7818609E-02  0.9290984E-01
        1   -1    0    0  501    0  0.00000000000E+00  0.00000000000E+00  0.47428040931E+03  0.47428040934E+03  0.50400001928E-02 0. -1.
       -1   -1    0    0    0  501  0.00000000000E+00  0.00000000000E+00 -0.54430009653E+03  0.54430009655E+03  0.50400001928E-02 0.  1.
    10030    2    1    2    0    0  0.00000000000E+00  0.00000000000E+00 -0.70019687213E+02  0.10185805059E+04  0.10161709947E+04 0.  0.
        1    1    3    3  502    0  0.19832830321E+03 -0.29549863176E+03  0.32847558788E+03  0.48430338537E+03  0.50400001928E-02 0. -1.
       -1    1    3    3    0  502 -0.19832830321E+03  0.29549863176E+03 -0.39849527509E+03  0.53427712052E+03  0.50400001928E-02 0.  1.
</event>
<event>
 5   0  0.1216322E-02  0.1011810E+04  0.7818609E-02  0.9295686E-01
        2   -1    0    0  501    0  0.00000000000E+00  0.00000000000E+00  0.16199058252E+04  0.16199058252E+04  0.25500000920E-02 0. -1.
       -2   -1    0    0    0  501  0.00000000000E+00  0.00000000000E+00 -0.15799679661E+03  0.15799679663E+03  0.25500000920E-02 0.  1.
    10030    2    1    2    0    0  0.00000000000E+00  0.00000000000E+00  0.14619090286E+04  0.17779026219E+04  0.10118101229E+04 0.  0.
        2    1    3    3  502    0 -0.32830978885E+03  0.86186608092E+02  0.13901189691E+04  0.14309598867E+04  0.25500000920E-02 0. -1.
       -2    1    3    3    0  502  0.32830978885E+03 -0.86186608092E+02  0.71790059505E+02  0.34694273522E+03  0.25500000920E-02 0.  1.
</event>
<event>
 5   0  0.1216322E-02  0.9904113E+03  0.7818609E-02  0.9319124E-01
       -2   -1    0    0    0  501  0.00000000000E+00  0.00000000000E+00  0.74191910748E+03  0.74191910748E+03  0.25500000920E-02 0. -1.
        2   -1    0    0  501    0  0.00000000000E+00  0.00000000000E+00 -0.33053286388E+03  0.33053286389E+03  0.25500000920E-02 0.  1.
    10030    2    1    2    0    0  0.00000000000E+00  0.00000000000E+00  0.41138624359E+03  0.10724519714E+04  0.99041132339E+03 0.  0.
        2    1    3    3  502    0 -0.65298265072E+02  0.65616225032E+02 -0.32108052247E+03  0.33415872624E+03  0.25500000920E-02 0.  1.
       -2    1    3    3    0  502  0.65298265072E+02 -0.65616225032E+02  0.73246676607E+03  0.73829324513E+03  0.25500000920E-02 0. -1.
</event>
<event>
 5   0  0.1216322E-02  0.1029689E+04  0.7818609E-02  0.9276569E-01
        2   -1    0    0  501    0  0.00000000000E+00  0.00000000000E+00  0.13204634673E+04  0.13204634673E+04  0.25500000920E-02 0. -1.
       -2   -1    0    0    0  501  0.00000000000E+00  0.00000000000E+00 -0.20073612498E+03  0.20073612500E+03  0.25500000920E-02 0.  1.
    10030    2    1    2    0    0  0.00000000000E+00  0.00000000000E+00  0.11197273424E+04  0.15211995923E+04  0.10296887289E+04 0.  0.
        2    1    3    3  502    0  0.20487306136E+03 -0.17775412663E+03 -0.86622454662E+02  0.28473312147E+03  0.25500000920E-02 0.  1.
       -2    1    3    3    0  502 -0.20487306136E+03  0.17775412663E+03  0.12063497970E+04  0.12364664709E+04  0.25500000920E-02 0. -1.
</event>
<event>
 5   0  0.1240503E-02  0.9228713E+03  0.7818609E-02  0.9397434E-01
        2   -1    0    0  501    0  0.00000000000E+00  0.00000000000E+00  0.63247200867E+03  0.63247200867E+03  0.25500000920E-02 0. -1.
       -2   -1    0    0    0  501  0.00000000000E+00  0.00000000000E+00 -0.33665184781E+03  0.33665184782E+03  0.25500000920E-02 0.  1.
    10030    2    1    2    0    0  0.00000000000E+00  0.00000000000E+00  0.29582016086E+03  0.96912385649E+03  0.92287132453E+03 0.  0.
        1    1    3    3  502    0  0.26955636085E+03 -0.24615561540E+03  0.44431444342E+03  0.57503786251E+03  0.50400001928E-02 0. -1.
       -1    1    3    3    0  502 -0.26955636085E+03  0.24615561540E+03 -0.14849428256E+03  0.39408599398E+03  0.50400001928E-02 0.  1.
</event>
<event>
 5   0  0.7461157E-03  0.9786879E+03  0.7818609E-02  0.9332233E-01
        1   -1    0    0  501    0  0.00000000000E+00  0.00000000000E+00  0.86678212512E+03  0.86678212514E+03  0.50400001928E-02 0.  1.
       -1   -1    0    0    0  501  0.00000000000E+00  0.00000000000E+00 -0.27626032864E+03  0.27626032869E+03  0.50400001928E-02 0. -1.
    10030    2    1    2    0    0  0.00000000000E+00  0.00000000000E+00  0.59052179648E+03  0.11430424538E+04  0.97868792735E+03 0.  0.
        2    1    3    3  502    0 -0.41801621409E+03 -0.24105697353E+03  0.39022685940E+03  0.62058280796E+03  0.25500000920E-02 0. -1.
       -2    1    3    3    0  502  0.41801621409E+03  0.24105697353E+03  0.20029493708E+03  0.52245964586E+03  0.25500000920E-02 0.  1.
</event>
<event>
 5   0  0.1191822E-02  0.1021294E+04  0.7818609E-02  0.9285493E-01
       -2   -1    0    0    0  501  0.00000000000E+00  0.00000000000E+00  0.34523736223E+03  0.34523736224E+03  0.25500000920E-02 0.  1.
        2   -1    0    0  501    0  0.00000000000E+00  0.00000000000E+00 -0.75530755826E+03  0.75530755826E+03  0.25500000920E-02 0. -1.
    10030    2    1    2    0    0  0.00000000000E+00  0.00000000000E+00 -0.41007019603E+03  0.11005449205E+04  0.10212940597E+04 0.  0.
        4    1    3    3  502    0  0.28194772410E+03  0.42569352704E+03 -0.19747053271E+03  0.54745385401E+03  0.12699999809E+01 0.  1.
       -4    1    3    3    0  502 -0.28194772410E+03 -0.42569352704E+03 -0.21259966332E+03  0.55309106649E+03  0.12699999809E+01 0. -1.
</event>
<event>
 5   0  0.1221315E-02  0.9676266E+03  0.7818609E-02  0.9344782E-01
       -2   -1    0    0    0  501  0.00000000000E+00  0.00000000000E+00  0.23950659583E+03  0.23950659584E+03  0.25500000920E-02 0. -1.
        2   -1    0    0  501    0  0.00000000000E+00  0.00000000000E+00 -0.97732294156E+03  0.97732294157E+03  0.25500000920E-02 0.  1.
    10030    2    1    2    0    0  0.00000000000E+00  0.00000000000E+00 -0.73781634573E+03  0.12168295374E+04  0.96762656179E+03 0.  0.
        5    1    3    3  502    0 -0.81342081562E+02  0.38403320719E+01 -0.96861379620E+03  0.97204221028E+03  0.46999998093E+01 0.  1.
       -5    1    3    3    0  502  0.81342081562E+02 -0.38403320719E+01  0.23079745046E+03  0.24478732713E+03  0.46999998093E+01 0. -1.
</event>
<event>
 5   0  0.7224879E-03  0.9404340E+03  0.7818609E-02  0.9376402E-01
       -1   -1    0    0    0  501  0.00000000000E+00  0.00000000000E+00  0.27634314503E+03  0.27634314507E+03  0.50400001928E-02 0.  1.
        1   -1    0    0  501    0  0.00000000000E+00  0.00000000000E+00 -0.80010682866E+03  0.80010682868E+03  0.50400001928E-02 0. -1.
    10030    2    1    2    0    0  0.00000000000E+00  0.00000000000E+00 -0.52376368364E+03  0.10764499738E+04  0.94043402198E+03 0.  0.
        3    1    3    3  502    0  0.46420014473E+03  0.34159822812E+02 -0.33828422204E+03  0.57539976794E+03  0.10100000352E+00 0. -1.
       -3    1    3    3    0  502 -0.46420014473E+03 -0.34159822812E+02 -0.18547946160E+03  0.50105020581E+03  0.10100000352E+00 0.  1.
</event>
<event>
 5   0  0.1221315E-02  0.1013795E+04  0.7818609E-02  0.9293542E-01
       -2   -1    0    0    0  501  0.00000000000E+00  0.00000000000E+00  0.57343862552E+03  0.57343862553E+03  0.25500000920E-02 0.  1.
        2   -1    0    0  501    0  0.00000000000E+00  0.00000000000E+00 -0.44807803752E+03  0.44807803753E+03  0.25500000920E-02 0. -1.
    10030    2    1    2    0    0  0.00000000000E+00  0.00000000000E+00  0.12536058800E+03  0.10215166631E+04  0.10137953521E+04 0.  0.
        5    1    3    3  502    0 -0.14419410884E+02  0.12516640958E+03  0.55738663750E+03  0.57146872457E+03  0.46999998093E+01 0.  1.
       -5    1    3    3    0  502  0.14419410884E+02 -0.12516640958E+03 -0.43202604950E+03  0.45004793849E+03  0.46999998093E+01 0. -1.
</event>
<event>
 5   0  0.6967681E-03  0.9936552E+03  0.7818609E-02  0.9315531E-01
       -1   -1    0    0    0  501  0.00000000000E+00  0.00000000000E+00  0.30117914082E+03  0.30117914086E+03  0.50400001928E-02 0. -1.
        1   -1    0    0  501    0  0.00000000000E+00  0.00000000000E+00 -0.81957084659E+03  0.81957084661E+03  0.50400001928E-02 0.  1.
    10030    2    1    2    0    0  0.00000000000E+00  0.00000000000E+00 -0.51839170577E+03  0.11207499875E+04  0.99365515840E+03 0.  0.
        5    1    3    3  502    0  0.14850646792E+03 -0.40397735826E+03  0.20660599700E+02  0.43093018852E+03  0.46999998093E+01 0. -1.
       -5    1    3    3    0  502 -0.14850646792E+03  0.40397735826E+03 -0.53905230547E+03  0.68981979895E+03  0.46999998093E+01 0.  1.
</event>
<event>
 5   0  0.1221315E-02  0.9583935E+03  0.7818609E-02  0.9355393E-01
        2   -1    0    0  501    0  0.00000000000E+00  0.00000000000E+00  0.97482508353E+03  0.97482508353E+03  0.25500000920E-02 0.  1.
       -2   -1    0    0    0  501  0.00000000000E+00  0.00000000000E+00 -0.23555971711E+03  0.23555971712E+03  0.25500000920E-02 0. -1.
    10030    2    1    2    0    0  0.00000000000E+00  0.00000000000E+00  0.73926536642E+03  0.12103848006E+04  0.95839349103E+03 0.  0.
        5    1    3    3  502    0  0.21181874504E+03  0.12416604642E+03 -0.15004927347E+03  0.28778683482E+03  0.46999998093E+01 0. -1.
       -5    1    3    3    0  502 -0.21181874504E+03 -0.12416604642E+03  0.88931463988E+03  0.92259796582E+03  0.46999998093E+01 0.  1.
</event>
<event>
 5   0  0.1216322E-02  0.9714281E+03  0.7818609E-02  0.9340449E-01
       -2   -1    0    0    0  501  0.00000000000E+00  0.00000000000E+00  0.34520677965E+03  0.34520677966E+03  0.25500000920E-02 0. -1.
        2   -1    0    0  501    0  0.00000000000E+00  0.00000000000E+00 -0.68341114482E+03  0.68341114483E+03  0.25500000920E-02 0.  1.
    10030    2    1    2    0    0  0.00000000000E+00  0.00000000000E+00 -0.33820436517E+03  0.10286179245E+04  0.97142814555E+03 0.  0.
        2    1    3    3  502    0  0.37440092709E+03 -0.66511274909E+02 -0.48908189905E+03  0.61951667280E+03  0.25500000920E-02 0.  1.
       -2    1    3    3    0  502 -0.37440092709E+03  0.66511274909E+02  0.15087753388E+03  0.40910125169E+03  0.25500000920E-02 0. -1.
</event>
<event>
 5   0  0.7073004E-03  0.9381782E+03  0.7818609E-02  0.9379076E-01
       -1   -1    0    0    0  501  0.00000000000E+00  0.00000000000E+00  0.19169259840E+03  0.19169259846E+03  0.50400001928E-02 0.  1.
        1   -1    0    0  501    0  0.00000000000E+00  0.00000000000E+00 -0.11479033870E+04  0.11479033870E+04  0.50400001928E-02 0. -1.
    10030    2    1    2    0    0  0.00000000000E+00  0.00000000000E+00 -0.95621078863E+03  0.13395959855E+04  0.93817819847E+03 0.  0.
        1    1    3    3  502    0  0.39572543468E+02  0.44790258556E+03 -0.66893773216E+03  0.80601513750E+03  0.50400001928E-02 0.  1.
       -1    1    3    3    0  502 -0.39572543468E+02 -0.44790258556E+03 -0.28727305647E+03  0.53358084800E+03  0.50400001928E-02 0. -1.
</event>
<event>
 5   0  0.7073004E-03  0.1052937E+04  0.7818609E-02  0.9252317E-01
        1   -1    0    0  501    0  0.00000000000E+00  0.00000000000E+00  0.67780839476E+03  0.67780839478E+03  0.50400001928E-02 0.  1.
       -1   -1    0    0    0  501  0.00000000000E+00  0.00000000000E+00 -0.40891954221E+03  0.40891954224E+03  0.50400001928E-02 0. -1.
    10030    2    1    2    0    0  0.00000000000E+00  0.00000000000E+00  0.26888885255E+03  0.10867279370E+04  0.10529370323E+04 0.  0.
        1    1    3    3  502    0  0.40629982831E+03 -0.33068628037E+03  0.80457704966E+02  0.53000604602E+03  0.50400001928E-02 0. -1.
       -1    1    3    3    0  502 -0.40629982831E+03  0.33068628037E+03  0.18843114759E+03  0.55672189100E+03  0.50400001928E-02 0.  1.
</event>
<event>
 5   0  0.1191822E-02  0.9910502E+03  0.7818609E-02  0.9318416E-01
       -2   -1    0    0    0  501  0.00000000000E+00  0.00000000000E+00  0.29528220252E+03  0.29528220253E+03  0.25500000920E-02 0. -1.
        2   -1    0    0  501    0  0.00000000000E+00  0.00000000000E+00 -0.83156084338E+03  0.83156084338E+03  0.25500000920E-02 0.  1.
    10030    2    1    2    0    0  0.00000000000E+00  0.00000000000E+00 -0.53627864086E+03  0.11268430459E+04  0.99105018515E+03 0.  0.
        4    1    3    3  502    0 -0.24304099302E+03  0.79850306171E+02  0.21438903599E+03  0.33378026804E+03  0.12699999809E+01 0. -1.
       -4    1    3    3    0  502  0.24304099302E+03 -0.79850306171E+02 -0.75066767685E+03  0.79306277787E+03  0.12699999809E+01 0.  1.
</event>
<event>
 5   0  0.1191822E-02  0.9543881E+03  0.7818609E-02  0.9360036E-01
       -2   -1    0    0    0  501  0.00000000000E+00  0.00000000000E+00  0.18285129687E+03  0.18285129689E+03  0.25500000920E-02 0.  1.
        2   -1    0    0  501    0  0.00000000000E+00  0.00000000000E+00 -0.12453515850E+04  0.12453515850E+04  0.25500000920E-02 0. -1.
    10030    2    1    2    0    0  0.00000000000E+00  0.00000000000E+00 -0.10625002881E+04  0.14282028819E+04  0.95438808122E+03 0.  0.
        4    1    3    3  502    0 -0.21498368868E+03 -0.27039475733E+03 -0.38596235906E+02  0.34759544519E+03  0.12699999809E+01 0.  1.
       -4    1    3    3    0  502  0.21498368868E+03  0.27039475733E+03 -0.10239040522E+04  0.10806074367E+04  0.12699999809E+01 0. -1.
</event>
<event>
 5   0  0.1240503E-02  0.1004914E+04  0.7818609E-02  0.9303172E-01
       -2   -1    0    0    0  501  0.00000000000E+00  0.00000000000E+00  0.17017613789E+03  0.17017613791E+03  0.25500000920E-02 0. -1.
        2   -1    0    0  501    0  0.00000000000E+00  0.00000000000E+00 -0.14835383110E+04  0.14835383110E+04  0.25500000920E-02 0.  1.
    10030    2    1    2    0    0  0.00000000000E+00  0.00000000000E+00 -0.13133621731E+04  0.16537144489E+04  0.10049135688E+04 0.  0.
        1    1    3    3  502    0  0.75945070440E+02 -0.47129289120E+03 -0.91467332803E+03  0.10317518791E+04  0.50400001928E-02 0.  1.
       -1    1    3    3    0  502 -0.75945070440E+02  0.47129289120E+03 -0.39868884508E+03  0.62196256980E+03  0.50400001928E-02 0. -1.
</event>
<event>
 5   0  0.1221315E-02  0.1000292E+04  0.7818609E-02  0.9308225E-01
       -2   -1    0    0    0  501  0.00000000000E+00  0.00000000000E+00  0.18225330907E+03  0.18225330908E+03  0.25500000920E-02 0. -1.
        2   -1    0    0  501    0  0.00000000000E+00  0.00000000000E+00 -0.13725181766E+04  0.13725181766E+04  0.25500000920E-02 0.  1.
    10030    2    1    2    0    0  0.00000000000E+00  0.00000000000E+00 -0.11902648675E+04  0.15547714856E+04  0.10002919163E+04 0.  0.
        5    1    3    3  502    0 -0.25217221792E+03  0.19064760274E+03  0.72264691274E+01  0.31624618223E+03  0.46999998093E+01 0. -1.
       -5    1    3    3    0  502  0.25217221792E+03 -0.19064760274E+03 -0.11974913366E+04  0.12385253034E+04  0.46999998093E+01 0.  1.
</event>
<event>
 5   0  0.7224879E-03  0.9904701E+03  0.7818609E-02  0.9319059E-01
       -1   -1    0    0    0  501  0.00000000000E+00  0.00000000000E+00  0.20429620822E+03  0.20429620828E+03  0.50400001928E-02 0.  1.
        1   -1    0    0  501    0  0.00000000000E+00  0.00000000000E+00 -0.12005007646E+04  0.12005007646E+04  0.50400001928E-02 0. -1.
    10030    2    1    2    0    0  0.00000000000E+00  0.00000000000E+00 -0.99620455639E+03  0.14047969729E+04  0.99047009895E+03 0.  0.
        3    1    3    3  502    0 -0.46871470793E+03  0.21808017791E+02 -0.72275468372E+03  0.86170958571E+03  0.10100000352E+00 0. -1.
       -3    1    3    3    0  502  0.46871470793E+03 -0.21808017791E+02 -0.27344987267E+03  0.54308738719E+03  0.10100000352E+00 0.  1.
</event>
<event>
 5   0  0.7073004E-03  0.9990236E+03  0.7818609E-02  0.9309616E-01
        1   -1    0    0  501    0  0.00000000000E+00  0.00000000000E+00  0.11121867872E+04  0.11121867872E+04  0.50400001928E-02 0. -1.
       -1   -1    0    0    0  501  0.00000000000E+00  0.00000000000E+00 -0.22434363998E+03  0.22434364003E+03  0.50400001928E-02 0.  1.
    10030    2    1    2    0    0  0.00000000000E+00  0.00000000000E+00  0.88784314720E+03  0.13365304272E+04  0.99902358774E+03 0.  0.
        1    1    3    3  502    0 -0.25764217654E+03 -0.28560276794E+03  0.87027734978E+03  0.95148888472E+03  0.50400001928E-02 0. -1.
       -1    1    3    3    0  502  0.25764217654E+03  0.28560276794E+03  0.17565797418E+02  0.38504154250E+03  0.50400001928E-02 0.  1.
</event>
<event>
 5   0  0.1216322E-02  0.9718594E+03  0.7818609E-02  0.9339959E-01
       -2   -1    0    0    0  501  0.00000000000E+00  0.00000000000E+00  0.27985710859E+03  0.27985710860E+03  0.25500000920E-02 0. -1.
        2   -1    0    0  501    0  0.00000000000E+00  0.00000000000E+00 -0.84374365126E+03  0.84374365127E+03  0.25500000920E-02 0.  1.
    10030    2    1    2    0    0  0.00000000000E+00  0.00000000000E+00 -0.56388654267E+03  0.11236007599E+04  0.97185936976E+03 0.  0.
        2    1    3    3  502    0  0.30186577993E+03  0.33271678063E+03 -0.67810772894E+02  0.45433655601E+03  0.25500000920E-02 0. -1.
       -2    1    3    3    0  502 -0.30186577993E+03 -0.33271678063E+03 -0.49607576978E+03  0.66926420386E+03  0.25500000920E-02 0.  1.
</event>
<event>
 5   0  0.6967681E-03  0.9900902E+03  0.7818609E-02  0.9319481E-01
       -1   -1    0    0    0  501  0.00000000000E+00  0.00000000000E+00  0.21233894622E+03  0.21233894628E+03  0.50400001928E-02 0.  1.
        1   -1    0    0  501    0  0.00000000000E+00  0.00000000000E+00 -0.11541436650E+04  0.11541436650E+04  0.50400001928E-02 0. -1.
    10030    2    1    2    0    0  0.00000000000E+00  0.00000000000E+00 -0.94180471876E+03  0.13664826113E+04  0.99009019721E+03 0.  0.
        5    1    3    3  502    0 -0.80779629783E+02 -0.17783580961E+02  0.20270319011E+03  0.21898008499E+03  0.46999998093E+01 0.  1.
       -5    1    3    3    0  502  0.80779629783E+02  0.17783580961E+02 -0.11445079089E+04  0.11475025263E+04  0.46999998093E+01 0. -1.
</event>
<event>
 5   0  0.7073004E-03  0.7376635E+03  0.7818609E-02  0.9654906E-01
       -1   -1    0    0    0  501  0.00000000000E+00  0.00000000000E+00  0.27343351716E+03  0.27343351720E+03  0.50400001928E-02 0. -1.
        1   -1    0    0  501    0  0.00000000000E+00  0.00000000000E+00 -0.49751352595E+03  0.49751352598E+03  0.50400001928E-02 0.  1.
    10030    2    1    2    0    0  0.00000000000E+00  0.00000000000E+00 -0.22408000880E+03  0.77094704319E+03  0.73766353648E+03 0.  0.
        1    1    3    3  502    0  0.90833302969E+02 -0.14283768521E+03  0.23043996030E+03  0.28592983155E+03  0.50400001928E-02 0. -1.
       -1    1    3    3    0  502 -0.90833302969E+02  0.14283768521E+03 -0.45451996910E+03  0.48501721163E+03  0.50400001928E-02 0.  1.
</event>
<event>
 5   0  0.7461157E-03  0.9381041E+03  0.7818609E-02  0.9379164E-01
       -1   -1    0    0    0  501  0.00000000000E+00  0.00000000000E+00  0.63170533329E+03  0.63170533331E+03  0.50400001928E-02 0. -1.
        1   -1    0    0  501    0  0.00000000000E+00  0.00000000000E+00 -0.34827919007E+03  0.34827919010E+03  0.50400001928E-02 0.  1.
    10030    2    1    2    0    0  0.00000000000E+00  0.00000000000E+00  0.28342614322E+03  0.97998452341E+03  0.93810409202E+03 0.  0.
        2    1    3    3  502    0  0.42711991750E+03  0.85135464477E+02 -0.40218010270E+02  0.43737507884E+03  0.25500000920E-02 0.  1.
       -2    1    3    3    0  502 -0.42711991750E+03 -0.85135464477E+02  0.32364415349E+03  0.54260944457E+03  0.25500000920E-02 0. -1.
</event>
<event>
 5   0  0.1216322E-02  0.1011463E+04  0.7818609E-02  0.9296061E-01
       -2   -1    0    0    0  501  0.00000000000E+00  0.00000000000E+00  0.17497901299E+03  0.17497901301E+03  0.25500000920E-02 0.  1.
        2   -1    0    0  501    0  0.00000000000E+00  0.00000000000E+00 -0.14616849813E+04  0.14616849813E+04  0.25500000920E-02 0. -1.
    10030    2    1    2    0    0  0.00000000000E+00  0.00000000000E+00 -0.12867059683E+04  0.16366639943E+04  0.10114626940E+04 0.  0.
        2    1    3    3  502    0  0.12267649814E+03  0.40378642461E+03 -0.10943146788E+04  0.11728672628E+04  0.25500000920E-02 0.  1.
       -2    1    3    3    0  502 -0.12267649814E+03 -0.40378642461E+03 -0.19239128955E+03  0.46379673155E+03  0.25500000920E-02 0. -1.
</event>
<event>
 5   0  0.1245850E-02  0.9475580E+03  0.7818609E-02  0.9368009E-01
       -2   -1    0    0    0  501  0.00000000000E+00  0.00000000000E+00  0.41945697449E+03  0.41945697450E+03  0.25500000920E-02 0. -1.
        2   -1    0    0  501    0  0.00000000000E+00  0.00000000000E+00 -0.53513602652E+03  0.53513602652E+03  0.25500000920E-02 0.  1.
    10030    2    1    2    0    0  0.00000000000E+00  0.00000000000E+00 -0.11567905203E+03  0.95459300102E+03  0.94755799533E+03 0.  0.
        3    1    3    3  502    0 -0.24604055520E+03  0.29508379159E+03  0.22144810373E+03  0.44345199482E+03  0.10100000352E+00 0. -1.
       -3    1    3    3    0  502  0.24604055520E+03 -0.29508379159E+03 -0.33712715576E+03  0.51114100620E+03  0.10100000352E+00 0.  1.
</event>
<event>
 5   0  0.6967681E-03  0.9842621E+03  0.7818609E-02  0.9325976E-01
       -1   -1    0    0    0  501  0.00000000000E+00  0.00000000000E+00  0.16197257210E+03  0.16197257217E+03  0.50400001928E-02 0.  1.
        1   -1    0    0  501    0  0.00000000000E+00  0.00000000000E+00 -0.14952715456E+04  0.14952715456E+04  0.50400001928E-02 0. -1.
    10030    2    1    2    0    0  0.00000000000E+00  0.00000000000E+00 -0.13332989735E+04  0.16572441178E+04  0.98426211609E+03 0.  0.
        5    1    3    3  502    0 -0.27667328486E+03 -0.32570298964E+03 -0.10774976856E+04  0.11591608588E+04  0.46999998093E+01 0. -1.
       -5    1    3    3    0  502  0.27667328486E+03  0.32570298964E+03 -0.25580128789E+03  0.49808325901E+03  0.46999998093E+01 0.  1.
</event>
<event>
 5   0  0.7073004E-03  0.9912489E+03  0.7818609E-02  0.9318195E-01
        1   -1    0    0  501    0  0.00000000000E+00  0.00000000000E+00  0.48358460763E+03  0.48358460766E+03  0.50400001928E-02 0. -1.
       -1   -1    0    0    0  501  0.00000000000E+00  0.00000000000E+00 -0.50796409917E+03  0.50796409920E+03  0.50400001928E-02 0.  1.
    10030    2    1    2    0    0  0.00000000000E+00  0.00000000000E+00 -0.24379491537E+02  0.99154870686E+03  0.99124894878E+03 0.  0.
        1    1    3    3  502    0 -0.33341327537E+03 -0.24316674588E+03  0.26239124377E+03  0.48902315214E+03  0.50400001928E-02 0. -1.
       -1    1    3    3    0  502  0.33341327537E+03  0.24316674588E+03 -0.28677073531E+03  0.50252555472E+03  0.50400001928E-02 0.  1.
</event>
<event>
 5   0  0.7224879E-03  0.1005631E+04  0.7818609E-02  0.9302390E-01
        1   -1    0    0  501    0  0.00000000000E+00  0.00000000000E+00  0.11055988044E+04  0.11055988044E+04  0.50400001928E-02 0.  1.
       -1   -1    0    0    0  501  0.00000000000E+00  0.00000000000E+00 -0.22867558512E+03  0.22867558517E+03  0.50400001928E-02 0. -1.
    10030    2    1    2    0    0  0.00000000000E+00  0.00000000000E+00  0.87692321924E+03  0.13342743895E+04  0.10056310527E+04 0.  0.
        3    1    3    3  502    0  0.13250424484E+03  0.29578627834E+03  0.94850747396E+03  0.10023538974E+04  0.10100000352E+00 0.  1.
       -3    1    3    3    0  502 -0.13250424484E+03 -0.29578627834E+03 -0.71584254714E+02  0.33192049211E+03  0.10100000352E+00 0. -1.
</event>
<event>
 5   0  0.1221315E-02  0.9279237E+03  0.7818609E-02  0.9391333E-01
        2   -1    0    0  501    0  0.00000000000E+00  0.00000000000E+00  0.15425603293E+04  0.15425603293E+04  0.25500000920E-02 0. -1.
       -2   -1    0    0    0  501  0.00000000000E+00  0.00000000000E+00 -0.13954759870E+03  0.13954759872E+03  0.25500000920E-02 0.  1.
    10030    2    1    2    0    0  0.00000000000E+00  0.00000000000E+00  0.14030127306E+04  0.16821079280E+04  0.92792368182E+03 0.  0.
        5    1    3    3  502    0  0.65937114724E+02 -0.27095665132E+03  0.29380262637E+02  0.28044696437E+03  0.46999998093E+01 0.  1.
       -5    1    3    3    0  502 -0.65937114724E+02  0.27095665132E+03  0.13736324679E+04  0.14016609636E+04  0.46999998093E+01 0. -1.
</event>
<event>
 5   0  0.6967681E-03  0.8175997E+03  0.7818609E-02  0.9534886E-01
       -1   -1    0    0    0  501  0.00000000000E+00  0.00000000000E+00  0.44579005077E+03  0.44579005080E+03  0.50400001928E-02 0. -1.
        1   -1    0    0  501    0  0.00000000000E+00  0.00000000000E+00 -0.37487899002E+03  0.37487899005E+03  0.50400001928E-02 0.  1.
    10030    2    1    2    0    0  0.00000000000E+00  0.00000000000E+00  0.70911060757E+02  0.82066904085E+03  0.81759971629E+03 0.  0.
        5    1    3    3  502    0  0.79471069363E+01 -0.29001430953E+03 -0.25359039911E+03  0.38535910105E+03  0.46999998093E+01 0.  1.
       -5    1    3    3    0  502 -0.79471069363E+01  0.29001430953E+03  0.32450145987E+03  0.43530993981E+03  0.46999998093E+01 0. -1.
</event>
<event>
 5   0  0.1216322E-02  0.8791657E+03  0.7818609E-02  0.9452007E-01
       -2   -1    0    0    0  501  0.00000000000E+00  0.00000000000E+00  0.17101185279E+03  0.17101185281E+03  0.25500000920E-02 0. -1.
        2   -1    0    0  501    0  0.00000000000E+00  0.00000000000E+00 -0.11299396332E+04  0.11299396332E+04  0.25500000920E-02 0.  1.
    10030    2    1    2    0    0  0.00000000000E+00  0.00000000000E+00 -0.95892778040E+03  0.13009514860E+04  0.87916567320E+03 0.  0.
        2    1    3    3  502    0 -0.25464947663E+03 -0.19547669679E+03 -0.35104011529E+02  0.32293929239E+03  0.25500000920E-02 0. -1.
       -2    1    3    3    0  502  0.25464947663E+03  0.19547669679E+03 -0.92382376887E+03  0.97801219362E+03  0.25500000920E-02 0.  1.
</event>
<event>
 5   0  0.1216322E-02  0.1016670E+04  0.7818609E-02  0.9290448E-01
       -2   -1    0    0    0  501  0.00000000000E+00  0.00000000000E+00  0.32218875088E+03  0.32218875089E+03  0.25500000920E-02 0.  1.
        2   -1    0    0  501    0  0.00000000000E+00  0.00000000000E+00 -0.80202793685E+03  0.80202793685E+03  0.25500000920E-02 0. -1.
    10030    2    1    2    0    0  0.00000000000E+00  0.00000000000E+00 -0.47983918597E+03  0.11242166877E+04  0.10166698169E+04 0.  0.
        2    1    3    3  502    0 -0.30212966951E+03 -0.37464173363E+03 -0.59011207642E+02  0.48489286281E+03  0.25500000920E-02 0. -1.
       -2    1    3    3    0  502  0.30212966951E+03  0.37464173363E+03 -0.42082797832E+03  0.63932382493E+03  0.25500000920E-02 0.  1.
</event>
<event>
 5   0  0.1221315E-02  0.9763925E+03  0.7818609E-02  0.9334823E-01
        2   -1    0    0  501    0  0.00000000000E+00  0.00000000000E+00  0.26649025329E+04  0.26649025329E+04  0.25500000920E-02 0.  1.
       -2   -1    0    0    0  501  0.00000000000E+00  0.00000000000E+00 -0.89434999517E+02  0.89434999553E+02  0.25500000920E-02 0. -1.
    10030    2    1    2    0    0  0.00000000000E+00  0.00000000000E+00  0.25754675334E+04  0.27543375325E+04  0.97639245552E+03 0.  0.
        5    1    3    3  502    0  0.48736899383E+03  0.47177341197E+01  0.12098293443E+04  0.13043235509E+04  0.46999998093E+01 0.  1.
       -5    1    3    3    0  502 -0.48736899383E+03 -0.47177341197E+01  0.13656381891E+04  0.14500139816E+04  0.46999998093E+01 0. -1.
</event>
<event>
 5   0  0.1240503E-02  0.1009741E+04  0.7818609E-02  0.9297925E-01
       -2   -1    0    0    0  501  0.00000000000E+00  0.00000000000E+00  0.24329511739E+03  0.24329511741E+03  0.25500000920E-02 0.  1.
        2   -1    0    0  501    0  0.00000000000E+00  0.00000000000E+00 -0.10476753615E+04  0.10476753615E+04  0.25500000920E-02 0. -1.
    10030    2    1    2    0    0  0.00000000000E+00  0.00000000000E+00 -0.80438024414E+03  0.12909704789E+04  0.10097411551E+04 0.  0.
        1    1    3    3  502    0 -0.14671821557E+03 -0.36802214987E+03 -0.80228147886E+03  0.89477489288E+03  0.50400001928E-02 0.  1.
       -1    1    3    3    0  502  0.14671821557E+03  0.36802214987E+03 -0.20987652738E+01  0.39619558606E+03  0.50400001928E-02 0. -1.
</event>
<event>
 5   0  0.1216322E-02  0.1001732E+04  0.7818609E-02  0.9306648E-01
       -2   -1    0    0    0  501  0.00000000000E+00  0.00000000000E+00  0.17893920888E+03  0.17893920890E+03  0.25500000920E-02 0. -1.
        2   -1    0    0  501    0  0.00000000000E+00  0.00000000000E+00 -0.14019649941E+04  0.14019649941E+04  0.25500000920E-02 0.  1.
    10030    2    1    2    0    0  0.00000000000E+00  0.00000000000E+00 -0.12230257852E+04  0.15809042030E+04  0.10017315148E+04 0.  0.
        2    1    3    3  502    0 -0.54534264499E+01  0.89688063821E+02 -0.13891413320E+04  0.13920442985E+04  0.25500000920E-02 0.  1.
       -2    1    3    3    0  502  0.54534264499E+01 -0.89688063821E+02  0.16611554677E+03  0.18885990453E+03  0.25500000920E-02 0. -1.
</event>
<event>
 5   0  0.1240503E-02  0.1029512E+04  0.7818609E-02  0.9276756E-01
        2   -1    0    0  501    0  0.00000000000E+00  0.00000000000E+00  0.15428103656E+04  0.15428103656E+04  0.25500000920E-02 0. -1.
       -2   -1    0    0    0  501  0.00000000000E+00  0.00000000000E+00 -0.17174742054E+03  0.17174742056E+03  0.25500000920E-02 0.  1.
    10030    2    1    2    0    0  0.00000000000E+00  0.00000000000E+00  0.13710629451E+04  0.17145577862E+04  0.10295119246E+04 0.  0.
        1    1    3    3  502    0  0.27533555133E+03  0.39962932482E+03  0.97138288485E+03  0.10858627777E+04  0.50400001928E-02 0. -1.
       -1    1    3    3    0  502 -0.27533555133E+03 -0.39962932482E+03  0.39968006024E+03  0.62869500846E+03  0.50400001928E-02 0.  1.
</event>
<event>
 5   0  0.7241200E-03  0.9194618E+03  0.7818609E-02  0.9401575E-01
        1   -1    0    0  501    0  0.00000000000E+00  0.00000000000E+00  0.15323950758E+04  0.15323950758E+04  0.50400001928E-02 0. -1.
       -1   -1    0    0    0  501  0.00000000000E+00  0.00000000000E+00 -0.13792297264E+03  0.13792297273E+03  0.50400001928E-02 0.  1.
    10030    2    1    2    0    0  0.00000000000E+00  0.00000000000E+00  0.13944721032E+04  0.16703180486E+04  0.91946176474E+03 0.  0.
        4    1    3    3  502    0 -0.10597887277E+03  0.39728970042E+03  0.32369852294E+03  0.52330963510E+03  0.12699999809E+01 0.  1.
       -4    1    3    3    0  502  0.10597887277E+03 -0.39728970042E+03  0.10707735802E+04  0.11470084135E+04  0.12699999809E+01 0. -1.
</event>
<event>
 5   0  0.7241200E-03  0.1004304E+04  0.7818609E-02  0.9303837E-01
        1   -1    0    0  501    0  0.00000000000E+00  0.00000000000E+00  0.98591146853E+03  0.98591146855E+03  0.50400001928E-02 0. -1.
       -1   -1    0    0    0  501  0.00000000000E+00  0.00000000000E+00 -0.25576001715E+03  0.25576001720E+03  0.50400001928E-02 0.  1.
    10030    2    1    2    0    0  0.00000000000E+00  0.00000000000E+00  0.73015145138E+03  0.12416714857E+04  0.10043042052E+04 0.  0.
        4    1    3    3  502    0  0.36515089245E+02 -0.20425438842E+02  0.98375070564E+03  0.98464085536E+03  0.12699999809E+01 0. -1.
       -4    1    3    3    0  502 -0.36515089245E+02  0.20425438842E+02 -0.25359925426E+03  0.25703063039E+03  0.12699999809E+01 0.  1.
</event>
<event>
 5   0  0.7241200E-03  0.1015785E+04  0.7818609E-02  0.9291399E-01
        1   -1    0    0  501    0  0.00000000000E+00  0.00000000000E+00  0.53588007033E+03  0.53588007036E+03  0.50400001928E-02 0.  1.
       -1   -1    0    0    0  501  0.00000000000E+00  0.00000000000E+00 -0.48136672851E+03  0.48136672854E+03  0.50400001928E-02 0. -1.
    10030    2    1    2    0    0  0.00000000000E+00  0.00000000000E+00  0.54513341823E+02  0.10172467989E+04  0.10157850882E+04 0.  0.
        4    1    3    3  502    0 -0.18522559590E+03  0.27692342552E+03 -0.35664613850E+03  0.48805039288E+03  0.12699999809E+01 0. -1.
       -4    1    3    3    0  502  0.18522559590E+03 -0.27692342552E+03  0.41115948033E+03  0.52919640602E+03  0.12699999809E+01 0.  1.
</event>
<event>
 5   0  0.1191822E-02  0.1014137E+04  0.7818609E-02  0.9293174E-01
        2   -1    0    0  501    0  0.00000000000E+00  0.00000000000E+00  0.99671514580E+03  0.99671514580E+03  0.25500000920E-02 0.  1.
       -2   -1    0    0    0  501  0.00000000000E+00  0.00000000000E+00 -0.25796572933E+03  0.25796572934E+03  0.25500000920E-02 0. -1.
    10030    2    1    2    0    0  0.00000000000E+00  0.00000000000E+00  0.73874941647E+03  0.12546808751E+04  0.10141367749E+04 0.  0.
        4    1    3    3  502    0 -0.40541451146E+03  0.30277746861E+03  0.32868607476E+03  0.60338318691E+03  0.12699999809E+01 0.  1.
       -4    1    3    3    0  502  0.40541451146E+03 -0.30277746861E+03  0.41006334170E+03  0.65129768824E+03  0.12699999809E+01 0. -1.
</event>
<event>
 5   0  0.6967681E-03  0.9843982E+03  0.7818609E-02  0.9325824E-01
       -1   -1    0    0    0  501  0.00000000000E+00  0.00000000000E+00  0.17441387992E+03  0.17441388000E+03  0.50400001928E-02 0.  1.
        1   -1    0    0  501    0  0.00000000000E+00  0.00000000000E+00 -0.13889946669E+04  0.13889946669E+04  0.50400001928E-02 0. -1.
    10030    2    1    2    0    0  0.00000000000E+00  0.00000000000E+00 -0.12145807870E+04  0.15634085469E+04  0.98439818998E+03 0.  0.
        5    1    3    3  502    0 -0.20919496194E+03 -0.30132984998E+03 -0.86143175859E+02  0.37683543800E+03  0.46999998093E+01 0.  1.
       -5    1    3    3    0  502  0.20919496194E+03  0.30132984998E+03 -0.11284376111E+04  0.11865731089E+04  0.46999998093E+01 0. -1.
</event>
<event>
 5   0  0.7461157E-03  0.9915574E+03  0.7818609E-02  0.9317853E-01
       -1   -1    0    0    0  501  0.00000000000E+00  0.00000000000E+00  0.16448665592E+03  0.16448665599E+03  0.50400001928E-02 0. -1.
        1   -1    0    0  501    0  0.00000000000E+00  0.00000000000E+00 -0.14943248793E+04  0.14943248793E+04  0.50400001928E-02 0.  1.
    10030    2    1    2    0    0  0.00000000000E+00  0.00000000000E+00 -0.13298382234E+04  0.16588115353E+04  0.99155736559E+03 0.  0.
        2    1    3    3  502    0  0.24627847043E+03  0.12928683935E+03 -0.13514921958E+04  0.13798185849E+04  0.25500000920E-02 0.  1.
       -2    1    3    3    0  502 -0.24627847043E+03 -0.12928683935E+03  0.21653972482E+02  0.27899295037E+03  0.25500000920E-02 0. -1.
</event>
<event>
 5   0  0.7241200E-03  0.9929873E+03  0.7818609E-02  0.9316270E-01
        1   -1    0    0  501    0  0.00000000000E+00  0.00000000000E+00  0.82236069360E+03  0.82236069361E+03  0.50400001928E-02 0. -1.
       -1   -1    0    0    0  501  0.00000000000E+00  0.00000000000E+00 -0.29975405929E+03  0.29975405933E+03  0.50400001928E-02 0.  1.
    10030    2    1    2    0    0  0.00000000000E+00  0.00000000000E+00  0.52260663431E+03  0.11221147529E+04  0.99298732346E+03 0.  0.
        4    1    3    3  502    0 -0.37864087973E+03 -0.17331991226E+02  0.62368322189E+03  0.72982990340E+03  0.12699999809E+01 0. -1.
       -4    1    3    3    0  502  0.37864087973E+03  0.17331991226E+02 -0.10107658758E+03  0.39228484954E+03  0.12699999809E+01 0.  1.
</event>
<event>
 5   0  0.7241200E-03  0.1009149E+04  0.7818609E-02  0.9298566E-01
       -1   -1    0    0    0  501  0.00000000000E+00  0.00000000000E+00  0.33689800133E+03  0.33689800136E+03  0.50400001928E-02 0.  1.
        1   -1    0    0  501    0  0.00000000000E+00  0.00000000000E+00 -0.75570535410E+03  0.75570535412E+03  0.50400001928E-02 0. -1.
    10030    2    1    2    0    0  0.00000000000E+00  0.00000000000E+00 -0.41880735277E+03  0.10926033555E+04  0.10091493912E+04 0.  0.
        4    1    3    3  502    0 -0.47453739150E+03 -0.46099907844E+02 -0.30568185723E+02  0.47775199038E+03  0.12699999809E+01 0.  1.
       -4    1    3    3    0  502  0.47453739150E+03  0.46099907844E+02 -0.38823916705E+03  0.61485136510E+03  0.12699999809E+01 0. -1.
</event>
<event>
 5   0  0.1245850E-02  0.9913642E+03  0.7818609E-02  0.9318067E-01
        2   -1    0    0  501    0  0.00000000000E+00  0.00000000000E+00  0.24110079000E+03  0.24110079001E+03  0.25500000920E-02 0.  1.
       -2   -1    0    0    0  501  0.00000000000E+00  0.00000000000E+00 -0.10190788928E+04  0.10190788928E+04  0.25500000920E-02 0. -1.
    10030    2    1    2    0    0  0.00000000000E+00  0.00000000000E+00 -0.77797810283E+03  0.12601796828E+04  0.99136416344E+03 0.  0.
        3    1    3    3  502    0  0.27835597324E+03 -0.37724724116E+03 -0.59357502696E+03  0.75639199602E+03  0.10100000352E+00 0.  1.
       -3    1    3    3    0  502 -0.27835597324E+03  0.37724724116E+03 -0.18440307587E+03  0.50378768682E+03  0.10100000352E+00 0. -1.
</event>
<event>
 5   0  0.7461157E-03  0.9911940E+03  0.7818609E-02  0.9318256E-01
       -1   -1    0    0    0  501  0.00000000000E+00  0.00000000000E+00  0.46386182554E+03  0.46386182557E+03  0.50400001928E-02 0.  1.
        1   -1    0    0  501    0  0.00000000000E+00  0.00000000000E+00 -0.52950333180E+03  0.52950333183E+03  0.50400001928E-02 0. -1.
    10030    2    1    2    0    0  0.00000000000E+00  0.00000000000E+00 -0.65641506264E+02  0.99336515740E+03  0.99119399140E+03 0.  0.
        2    1    3    3  502    0  0.33577662598E+03 -0.33122005448E+03  0.11970893053E+03  0.48660342693E+03  0.25500000920E-02 0.  1.
       -2    1    3    3    0  502 -0.33577662598E+03  0.33122005448E+03 -0.18535043679E+03  0.50676173047E+03  0.25500000920E-02 0. -1.
</event>
<event>
 5   0  0.1245850E-02  0.9724157E+03  0.7818609E-02  0.9339327E-01
       -2   -1    0    0    0  501  0.00000000000E+00  0.00000000000E+00  0.18515904909E+03  0.18515904911E+03  0.25500000920E-02 0. -1.
        2   -1    0    0  501    0  0.00000000000E+00  0.00000000000E+00 -0.12767298874E+04  0.12767298874E+04  0.25500000920E-02 0.  1.
    10030    2    1    2    0    0  0.00000000000E+00  0.00000000000E+00 -0.10915708383E+04  0.14618889365E+04  0.97241573807E+03 0.  0.
        3    1    3    3  502    0  0.44397151291E+02  0.19104626476E+03 -0.12146163463E+04  0.12303506253E+04  0.10100000352E+00 0.  1.
       -3    1    3    3    0  502 -0.44397151291E+02 -0.19104626476E+03  0.12304550798E+03  0.23153831121E+03  0.10100000352E+00 0. -1.
</event>
<event>
 5   0  0.6967681E-03  0.1047599E+04  0.7818609E-02  0.9257827E-01
       -1   -1    0    0    0  501  0.00000000000E+00  0.00000000000E+00  0.34479814922E+03  0.34479814926E+03  0.50400001928E-02 0. -1.
        1   -1    0    0  501    0  0.00000000000E+00  0.00000000000E+00 -0.79572837021E+03  0.79572837023E+03  0.50400001928E-02 0.  1.
    10030    2    1    2    0    0  0.00000000000E+00  0.00000000000E+00 -0.45093022099E+03  0.11405265195E+04  0.10475985288E+04 0.  0.
        5    1    3    3  502    0  0.39057477524E+03 -0.33063276065E+03 -0.34707359834E+03  0.61834363434E+03  0.46999998093E+01 0.  1.
       -5    1    3    3    0  502 -0.39057477524E+03  0.33063276065E+03 -0.10385662265E+03  0.52218288514E+03  0.46999998093E+01 0. -1.
</event>
<event>
 5   0  0.1245850E-02  0.9936370E+03  0.7818609E-02  0.9315551E-01
        2   -1    0    0  501    0  0.00000000000E+00  0.00000000000E+00  0.11536958108E+04  0.11536958108E+04  0.25500000920E-02 0. -1.
       -2   -1    0    0    0  501  0.00000000000E+00  0.00000000000E+00 -0.21394600543E+03  0.21394600544E+03  0.25500000920E-02 0.  1.
    10030    2    1    2    0    0  0.00000000000E+00  0.00000000000E+00  0.93974980538E+03  0.13676418163E+04  0.99363697639E+03 0.  0.
        3    1    3    3  502    0 -0.37083529526E+03 -0.13130417473E+03  0.52235627245E+02  0.39684779634E+03  0.10100000352E+00 0.  1.
       -3    1    3    3    0  502  0.37083529526E+03  0.13130417473E+03  0.88751417813E+03  0.97079401991E+03  0.10100000352E+00 0. -1.
</event>
<event>
 5   0  0.7073004E-03  0.9959007E+03  0.7818609E-02  0.9313052E-01
       -1   -1    0    0    0  501  0.00000000000E+00  0.00000000000E+00  0.45914118483E+03  0.45914118486E+03  0.50400001928E-02 0.  1.
        1   -1    0    0  501    0  0.00000000000E+00  0.00000000000E+00 -0.54003984806E+03  0.54003984808E+03  0.50400001928E-02 0. -1.
    10030    2    1    2    0    0  0.00000000000E+00  0.00000000000E+00 -0.80898663227E+02  0.99918103294E+03  0.99590066918E+03 0.  0.
        1    1    3    3  502    0 -0.47124464811E+03  0.11392645702E+03 -0.15441830268E+03  0.50881801089E+03  0.50400001928E-02 0. -1.
       -1    1    3    3    0  502  0.47124464811E+03 -0.11392645702E+03  0.73519639455E+02  0.49036302205E+03  0.50400001928E-02 0.  1.
</event>
<event>
 5   0  0.6967681E-03  0.1023749E+04  0.7818609E-02  0.9282874E-01
        1   -1    0    0  501    0  0.00000000000E+00  0.00000000000E+00  0.20166987147E+03  0.20166987153E+03  0.50400001928E-02 0.  1.
       -1   -1    0    0    0  501  0.00000000000E+00  0.00000000000E+00 -0.12992306463E+04  0.12992306464E+04  0.50400001928E-02 0. -1.
    10030    2    1    2    0    0  0.00000000000E+00  0.00000000000E+00 -0.10975607749E+04  0.15009005179E+04  0.10237493395E+04 0.  0.
        5    1    3    3  502    0  0.43283248783E+03 -0.14039111357E+03 -0.20514139008E+03  0.49915799824E+03  0.46999998093E+01 0.  1.
       -5    1    3    3    0  502 -0.43283248783E+03  0.14039111357E+03 -0.89241938480E+03  0.10017425196E+04  0.46999998093E+01 0. -1.
</event>
<event>
 5   0  0.1221315E-02  0.9587004E+03  0.7818609E-02  0.9355039E-01
        2   -1    0    0  501    0  0.00000000000E+00  0.00000000000E+00  0.12067332241E+04  0.12067332241E+04  0.25500000920E-02 0. -1.
       -2   -1    0    0    0  501  0.00000000000E+00  0.00000000000E+00 -0.19041209079E+03  0.19041209081E+03  0.25500000920E-02 0.  1.
    10030    2    1    2    0    0  0.00000000000E+00  0.00000000000E+00  0.10163211333E+04  0.13971453149E+04  0.95870036246E+03 0.  0.
        5    1    3    3  502    0  0.27813870429E+03  0.30911235247E+03  0.85561421852E+03  0.95131980228E+03  0.46999998093E+01 0. -1.
       -5    1    3    3    0  502 -0.27813870429E+03 -0.30911235247E+03  0.16070691483E+03  0.44582551267E+03  0.46999998093E+01 0.  1.
</event>
<event>
 5   0  0.7073004E-03  0.1019835E+04  0.7818609E-02  0.9287053E-01
        1   -1    0    0  501    0  0.00000000000E+00  0.00000000000E+00  0.14693677531E+04  0.14693677532E+04  0.50400001928E-02 0. -1.
       -1   -1    0    0    0  501  0.00000000000E+00  0.00000000000E+00 -0.17695778975E+03  0.17695778982E+03  0.50400001928E-02 0.  1.
    10030    2    1    2    0    0  0.00000000000E+00  0.00000000000E+00  0.12924099634E+04  0.16463255430E+04  0.10198354181E+04 0.  0.
        1    1    3    3  502    0  0.37650801695E+03  0.33990105135E+03  0.56193487679E+03  0.75700846582E+03  0.50400001928E-02 0. -1.
       -1    1    3    3    0  502 -0.37650801695E+03 -0.33990105135E+03  0.73047508660E+03  0.88931707715E+03  0.50400001928E-02 0.  1.
</event>
<event>
 5   0  0.7461157E-03  0.8540415E+03  0.7818609E-02  0.9484929E-01
       -1   -1    0    0    0  501  0.00000000000E+00  0.00000000000E+00  0.12995411534E+03  0.12995411544E+03  0.50400001928E-02 0.  1.
        1   -1    0    0  501    0  0.00000000000E+00  0.00000000000E+00 -0.14031624358E+04  0.14031624358E+04  0.50400001928E-02 0. -1.
    10030    2    1    2    0    0  0.00000000000E+00  0.00000000000E+00 -0.12732083204E+04  0.15331165512E+04  0.85404152851E+03 0.  0.
        2    1    3    3  502    0  0.38118167221E+03  0.18662518211E+03 -0.55205544067E+03  0.69634304434E+03  0.25500000920E-02 0.  1.
       -2    1    3    3    0  502 -0.38118167221E+03 -0.18662518211E+03 -0.72115287976E+03  0.83677350688E+03  0.25500000920E-02 0. -1.
</event>
<event>
 5   0  0.1216322E-02  0.1044506E+04  0.7818609E-02  0.9261035E-01
        2   -1    0    0  501    0  0.00000000000E+00  0.00000000000E+00  0.90092916325E+03  0.90092916326E+03  0.25500000920E-02 0. -1.
       -2   -1    0    0    0  501  0.00000000000E+00  0.00000000000E+00 -0.30274071614E+03  0.30274071615E+03  0.25500000920E-02 0.  1.
    10030    2    1    2    0    0  0.00000000000E+00  0.00000000000E+00  0.59818844711E+03  0.12036698794E+04  0.10445055100E+04 0.  0.
        2    1    3    3  502    0 -0.31494818946E+03  0.14711083836E+03 -0.15006004103E+03  0.37861851081E+03  0.25500000920E-02 0.  1.
       -2    1    3    3    0  502  0.31494818946E+03 -0.14711083836E+03  0.74824848815E+03  0.82505136860E+03  0.25500000920E-02 0. -1.
</event>
<event>
 5   0  0.1216322E-02  0.9951442E+03  0.7818609E-02  0.9313887E-01
       -2   -1    0    0    0  501  0.00000000000E+00  0.00000000000E+00  0.36522284264E+03  0.36522284265E+03  0.25500000920E-02 0.  1.
        2   -1    0    0  501    0  0.00000000000E+00  0.00000000000E+00 -0.67788206061E+03  0.67788206061E+03  0.25500000920E-02 0. -1.
    10030    2    1    2    0    0  0.00000000000E+00  0.00000000000E+00 -0.31265921797E+03  0.10431049033E+04  0.99514423710E+03 0.  0.
        2    1    3    3  502    0 -0.18490923497E+03  0.33675023454E+03  0.17511523241E+03  0.42220550715E+03  0.25500000920E-02 0.  1.
       -2    1    3    3    0  502  0.18490923497E+03 -0.33675023454E+03 -0.48777445038E+03  0.62089939611E+03  0.25500000920E-02 0. -1.
</event>
<event>
 5   0  0.1191822E-02  0.6502772E+03  0.7818609E-02  0.9806259E-01
       -2   -1    0    0    0  501  0.00000000000E+00  0.00000000000E+00  0.91848904424E+02  0.91848904459E+02  0.25500000920E-02 0.  1.
        2   -1    0    0  501    0  0.00000000000E+00  0.00000000000E+00 -0.11509677030E+04  0.11509677030E+04  0.25500000920E-02 0. -1.
    10030    2    1    2    0    0  0.00000000000E+00  0.00000000000E+00 -0.10591187986E+04  0.12428166075E+04  0.65027724109E+03 0.  0.
        4    1    3    3  502    0 -0.14275449931E+03 -0.29197354704E+03 -0.54729461033E+03  0.63652211481E+03  0.12699999809E+01 0.  1.
       -4    1    3    3    0  502  0.14275449931E+03  0.29197354704E+03 -0.51182418824E+03  0.60629449265E+03  0.12699999809E+01 0. -1.
</event>
<event>
 5   0  0.1240503E-02  0.1048442E+04  0.7818609E-02  0.9256954E-01
        2   -1    0    0  501    0  0.00000000000E+00  0.00000000000E+00  0.52176444598E+03  0.52176444599E+03  0.25500000920E-02 0. -1.
       -2   -1    0    0    0  501  0.00000000000E+00  0.00000000000E+00 -0.52668944236E+03  0.52668944237E+03  0.25500000920E-02 0.  1.
    10030    2    1    2    0    0  0.00000000000E+00  0.00000000000E+00 -0.49249963839E+01  0.10484538884E+04  0.10484423210E+04 0.  0.
        1    1    3    3  502    0  0.19665781937E+03  0.26754924739E+03  0.40319075072E+03  0.52232143283E+03  0.50400001928E-02 0. -1.
       -1    1    3    3    0  502 -0.19665781937E+03 -0.26754924739E+03 -0.40811574711E+03  0.52613245553E+03  0.50400001928E-02 0.  1.
</event>
<event>
 5   0  0.4782125E-03  0.1052903E+04  0.7818609E-02  0.9252352E-01
        4   -1    0    0  501    0  0.00000000000E+00  0.00000000000E+00  0.51763950472E+03  0.51764106266E+03  0.12699999809E+01 0. -1.
       -4   -1    0    0    0  501  0.00000000000E+00  0.00000000000E+00 -0.53540999565E+03  0.53541150188E+03  0.12699999809E+01 0.  1.
    10030    2    1    2    0    0  0.00000000000E+00  0.00000000000E+00 -0.17770490924E+02  0.10530525645E+04  0.10529026134E+04 0.  0.
        4    1    3    3  502    0 -0.31543804798E+02 -0.48228454585E+03  0.19984514940E+03  0.52300391148E+03  0.12699999809E+01 0. -1.
       -4    1    3    3    0  502  0.31543804798E+02  0.48228454585E+03 -0.21761564032E+03  0.53004865305E+03  0.12699999809E+01 0.  1.
</event>
<event>
 5   0  0.1191822E-02  0.9930990E+03  0.7818609E-02  0.9316146E-01
       -2   -1    0    0    0  501  0.00000000000E+00  0.00000000000E+00  0.85641600660E+03  0.85641600660E+03  0.25500000920E-02 0. -1.
        2   -1    0    0  501    0  0.00000000000E+00  0.00000000000E+00 -0.28789909463E+03  0.28789909464E+03  0.25500000920E-02 0.  1.
    10030    2    1    2    0    0  0.00000000000E+00  0.00000000000E+00  0.56851691197E+03  0.11443151012E+04  0.99309897379E+03 0.  0.
        4    1    3    3  502    0  0.17011756137E+03 -0.17690643191E+03  0.78163739367E+03  0.81926460831E+03  0.12699999809E+01 0. -1.
       -4    1    3    3    0  502 -0.17011756137E+03  0.17690643191E+03 -0.21312048171E+03  0.32505049294E+03  0.12699999809E+01 0.  1.
</event>
<event>
 5   0  0.1245850E-02  0.9941667E+03  0.7818609E-02  0.9314966E-01
       -2   -1    0    0    0  501  0.00000000000E+00  0.00000000000E+00  0.10779749214E+03  0.10779749217E+03  0.25500000920E-02 0. -1.
        2   -1    0    0  501    0  0.00000000000E+00  0.00000000000E+00 -0.22921855400E+04  0.22921855400E+04  0.25500000920E-02 0.  1.
    10030    2    1    2    0    0  0.00000000000E+00  0.00000000000E+00 -0.21843880478E+04  0.23999830321E+04  0.99416669180E+03 0.  0.
        3    1    3    3  502    0  0.98171506915E+02 -0.32823681904E+03 -0.22274583238E+03  0.40864748890E+03  0.10100000352E+00 0. -1.
       -3    1    3    3    0  502 -0.98171506915E+02  0.32823681904E+03 -0.19616422154E+04  0.19913355432E+04  0.10100000352E+00 0.  1.
</event>
<event>
 5   0  0.4782125E-03  0.9957574E+03  0.7818609E-02  0.9313210E-01
        3   -1    0    0  501    0  0.00000000000E+00  0.00000000000E+00  0.97356458857E+03  0.97356459381E+03  0.10100000352E+00 0. -1.
       -3   -1    0    0    0  501  0.00000000000E+00  0.00000000000E+00 -0.25461402230E+03  0.25461404233E+03  0.10100000352E+00 0.  1.
    10030    2    1    2    0    0  0.00000000000E+00  0.00000000000E+00  0.71895056627E+03  0.12281786361E+04  0.99575742303E+03 0.  0.
        2    1    3    3  502    0  0.35750375545E+03  0.33506412999E+03  0.46845125329E+03  0.67788161436E+03  0.25500000920E-02 0.  1.
       -2    1    3    3    0  502 -0.35750375545E+03 -0.33506412999E+03  0.25049931298E+03  0.55029702178E+03  0.25500000920E-02 0. -1.
</event>
<event>
 5   0  0.4782125E-03  0.1021142E+04  0.7818609E-02  0.9285656E-01
       -3   -1    0    0    0  501  0.00000000000E+00  0.00000000000E+00  0.30253767873E+03  0.30253769559E+03  0.10100000352E+00 0. -1.
        3   -1    0    0  501    0  0.00000000000E+00  0.00000000000E+00 -0.86165395197E+03  0.86165395789E+03  0.10100000352E+00 0.  1.
    10030    2    1    2    0    0  0.00000000000E+00  0.00000000000E+00 -0.55911627324E+03  0.11641916535E+04  0.10211421052E+04 0.  0.
        2    1    3    3  502    0  0.47280094811E+03  0.10221257737E+03 -0.46583136053E+03  0.67155565962E+03  0.25500000920E-02 0. -1.
       -2    1    3    3    0  502 -0.47280094811E+03 -0.10221257737E+03 -0.93284912711E+02  0.49263599387E+03  0.25500000920E-02 0.  1.
</event>
<event>
 5   0  0.7224879E-03  0.9675904E+03  0.7818609E-02  0.9344823E-01
        1   -1    0    0  501    0  0.00000000000E+00  0.00000000000E+00  0.67195484864E+03  0.67195484866E+03  0.50400001928E-02 0. -1.
       -1   -1    0    0    0  501  0.00000000000E+00  0.00000000000E+00 -0.34832369910E+03  0.34832369913E+03  0.50400001928E-02 0.  1.
    10030    2    1    2    0    0  0.00000000000E+00  0.00000000000E+00  0.32363114954E+03  0.10202785478E+04  0.96759040618E+03 0.  0.
        3    1    3    3  502    0 -0.11903500914E+03 -0.40881446403E+03 -0.80385606498E+02  0.43331334544E+03  0.10100000352E+00 0.  1.
       -3    1    3    3    0  502  0.11903500914E+03  0.40881446403E+03  0.40401675604E+03  0.58696520235E+03  0.10100000352E+00 0. -1.
</event>
<event>
 5   0  0.1221315E-02  0.7411744E+03  0.7818609E-02  0.9649299E-01
        2   -1    0    0  501    0  0.00000000000E+00  0.00000000000E+00  0.11478797468E+04  0.11478797468E+04  0.25500000920E-02 0. -1.
       -2   -1    0    0    0  501  0.00000000000E+00  0.00000000000E+00 -0.11964220038E+03  0.11964220041E+03  0.25500000920E-02 0.  1.
    10030    2    1    2    0    0  0.00000000000E+00  0.00000000000E+00  0.10282375464E+04  0.12675219472E+04  0.74117436195E+03 0.  0.
        5    1    3    3  502    0  0.16100739126E+03  0.30908350583E+03  0.29876993513E+03  0.45906596231E+03  0.46999998093E+01 0.  1.
       -5    1    3    3    0  502 -0.16100739126E+03 -0.30908350583E+03  0.72946761127E+03  0.80845598489E+03  0.46999998093E+01 0. -1.
</event>
<event>
 5   0  0.7241200E-03  0.1006891E+04  0.7818609E-02  0.9301019E-01
       -1   -1    0    0    0  501  0.00000000000E+00  0.00000000000E+00  0.66641709357E+03  0.66641709359E+03  0.50400001928E-02 0. -1.
        1   -1    0    0  501    0  0.00000000000E+00  0.00000000000E+00 -0.38032845754E+03  0.38032845758E+03  0.50400001928E-02 0.  1.
    10030    2    1    2    0    0  0.00000000000E+00  0.00000000000E+00  0.28608863603E+03  0.10467455512E+04  0.10068910275E+04 0.  0.
        4    1    3    3  502    0  0.37756239992E+03  0.76487065423E+02  0.47999093110E+03  0.61546449438E+03  0.12699999809E+01 0. -1.
       -4    1    3    3    0  502 -0.37756239992E+03 -0.76487065423E+02 -0.19390229507E+03  0.43128105679E+03  0.12699999809E+01 0.  1.
</event>
<event>
 5   0  0.1240503E-02  0.9954106E+03  0.7818609E-02  0.9313593E-01
        2   -1    0    0  501    0  0.00000000000E+00  0.00000000000E+00  0.28967617609E+04  0.28967617609E+04  0.25500000920E-02 0. -1.
       -2   -1    0    0    0  501  0.00000000000E+00  0.00000000000E+00 -0.85512924464E+02  0.85512924502E+02  0.25500000920E-02 0.  1.
    10030    2    1    2    0    0  0.00000000000E+00  0.00000000000E+00  0.28112488364E+04  0.29822746854E+04  0.99541060815E+03 0.  0.
        1    1    3    3  502    0  0.16888931335E+03  0.24956846083E+02  0.49576752825E+01  0.17079526604E+03  0.50400001928E-02 0.  1.
       -1    1    3    3    0  502 -0.16888931335E+03 -0.24956846083E+02  0.28062911611E+04  0.28114794193E+04  0.50400001928E-02 0. -1.
</event>
<event>
 5   0  0.4782125E-03  0.1030752E+04  0.7818609E-02  0.9275445E-01
       -3   -1    0    0    0  501  0.00000000000E+00  0.00000000000E+00  0.18232717201E+04  0.18232717229E+04  0.10100000352E+00 0.  1.
        3   -1    0    0  501    0  0.00000000000E+00  0.00000000000E+00 -0.14567893857E+03  0.14567897359E+03  0.10100000352E+00 0. -1.
    10030    2    1    2    0    0  0.00000000000E+00  0.00000000000E+00  0.16775927815E+04  0.19689506965E+04  0.10307518152E+04 0.  0.
        1    1    3    3  502    0 -0.26470839387E+02  0.47787197788E+03  0.47360175875E+03  0.67332084366E+03  0.50400001928E-02 0. -1.
       -1    1    3    3    0  502  0.26470839387E+02 -0.47787197788E+03  0.12039910228E+04  0.12956298528E+04  0.50400001928E-02 0.  1.
</event>
<event>
 5   0  0.1216322E-02  0.1036059E+04  0.7818609E-02  0.9269857E-01
        2   -1    0    0  501    0  0.00000000000E+00  0.00000000000E+00  0.53570076408E+03  0.53570076408E+03  0.25500000920E-02 0. -1.
       -2   -1    0    0    0  501  0.00000000000E+00  0.00000000000E+00 -0.50094115518E+03  0.50094115518E+03  0.25500000920E-02 0.  1.
    10030    2    1    2    0    0  0.00000000000E+00  0.00000000000E+00  0.34759608901E+02  0.10366419193E+04  0.10360589937E+04 0.  0.
        2    1    3    3  502    0 -0.49689478853E+03  0.11016836243E+03  0.11393830144E+03  0.52155865968E+03  0.25500000920E-02 0. -1.
       -2    1    3    3    0  502  0.49689478853E+03 -0.11016836243E+03 -0.79178692540E+02  0.51508325959E+03  0.25500000920E-02 0.  1.
</event>
<event>
 5   0  0.6967681E-03  0.7180725E+03  0.7818609E-02  0.9686815E-01
        1   -1    0    0  501    0  0.00000000000E+00  0.00000000000E+00  0.12644807195E+04  0.12644807195E+04  0.50400001928E-02 0.  1.
       -1   -1    0    0    0  501  0.00000000000E+00  0.00000000000E+00 -0.10194463499E+03  0.10194463512E+03  0.50400001928E-02 0. -1.
    10030    2    1    2    0    0  0.00000000000E+00  0.00000000000E+00  0.11625360845E+04  0.13664253546E+04  0.71807249075E+03 0.  0.
        5    1    3    3  502    0  0.49739882049E+02  0.30052855409E+03  0.94278770889E+03  0.99078868672E+03  0.46999998093E+01 0.  1.
       -5    1    3    3    0  502 -0.49739882049E+02 -0.30052855409E+03  0.21974837558E+03  0.37563666788E+03  0.46999998093E+01 0. -1.
</event>
<event>
 5   0  0.1191822E-02  0.1025936E+04  0.7818609E-02  0.9280547E-01
        2   -1    0    0  501    0  0.00000000000E+00  0.00000000000E+00  0.12375998505E+04  0.12375998505E+04  0.25500000920E-02 0.  1.
       -2   -1    0    0    0  501  0.00000000000E+00  0.00000000000E+00 -0.21261819757E+03  0.21261819759E+03  0.25500000920E-02 0. -1.
    10030    2    1    2    0    0  0.00000000000E+00  0.00000000000E+00  0.10249816529E+04  0.14502180481E+04  0.10259361570E+04 0.  0.
        4    1    3    3  502    0  0.69548113322E+02  0.24839443088E+03  0.11392524699E+04  0.11680901234E+04  0.12699999809E+01 0.  1.
       -4    1    3    3    0  502 -0.69548113322E+02 -0.24839443088E+03 -0.11427081698E+03  0.28212792466E+03  0.12699999809E+01 0. -1.
</event>
<event>
 5   0  0.1221315E-02  0.9950214E+03  0.7818609E-02  0.9314022E-01
       -2   -1    0    0    0  501  0.00000000000E+00  0.00000000000E+00  0.41274933342E+03  0.41274933343E+03  0.25500000920E-02 0.  1.
        2   -1    0    0  501    0  0.00000000000E+00  0.00000000000E+00 -0.59967850041E+03  0.59967850042E+03  0.25500000920E-02 0. -1.
    10030    2    1    2    0    0  0.00000000000E+00  0.00000000000E+00 -0.18692916699E+03  0.10124278338E+04  0.99502140946E+03 0.  0.
        5    1    3    3  502    0 -0.13510283424E+03  0.46488323837E+03 -0.21003581968E+03  0.52773699575E+03  0.46999998093E+01 0. -1.
       -5    1    3    3    0  502  0.13510283424E+03 -0.46488323837E+03  0.23106652690E+02  0.48469083810E+03  0.46999998093E+01 0.  1.
</event>
<event>
 5   0  0.7241200E-03  0.1081093E+04  0.7818609E-02  0.9223818E-01
        1   -1    0    0  501    0  0.00000000000E+00  0.00000000000E+00  0.75852176669E+03  0.75852176671E+03  0.50400001928E-02 0. -1.
       -1   -1    0    0    0  501  0.00000000000E+00  0.00000000000E+00 -0.38521080874E+03  0.38521080878E+03  0.50400001928E-02 0.  1.
    10030    2    1    2    0    0  0.00000000000E+00  0.00000000000E+00  0.37331095795E+03  0.11437325755E+04  0.10810934894E+04 0.  0.
        4    1    3    3  502    0  0.51086822965E+03 -0.16668936419E+03  0.12480912375E+03  0.55167981880E+03  0.12699999809E+01 0. -1.
       -4    1    3    3    0  502 -0.51086822965E+03  0.16668936419E+03  0.24850183419E+03  0.59205275668E+03  0.12699999809E+01 0.  1.
</event>
<event>
 5   0  0.1240503E-02  0.9922912E+03  0.7818609E-02  0.9317040E-01
        2   -1    0    0  501    0  0.00000000000E+00  0.00000000000E+00  0.33796892223E+03  0.33796892224E+03  0.25500000920E-02 0.  1.
       -2   -1    0    0    0  501  0.00000000000E+00  0.00000000000E+00 -0.72835238929E+03  0.72835238929E+03  0.25500000920E-02 0. -1.
    10030    2    1    2    0    0  0.00000000000E+00  0.00000000000E+00 -0.39038346706E+03  0.10663213115E+04  0.99229123148E+03 0.  0.
        1    1    3    3  502    0  0.39088593189E+03  0.81995355324E+02  0.12112469317E+03  0.41735625234E+03  0.50400001928E-02 0.  1.
       -1    1    3    3    0  502 -0.39088593189E+03 -0.81995355324E+02 -0.51150816023E+03  0.64896505919E+03  0.50400001928E-02 0. -1.
</event>
<event>
 5   0  0.6967681E-03  0.9922355E+03  0.7818609E-02  0.9317102E-01
        1   -1    0    0  501    0  0.00000000000E+00  0.00000000000E+00  0.56573724895E+03  0.56573724897E+03  0.50400001928E-02 0.  1.
       -1   -1    0    0    0  501  0.00000000000E+00  0.00000000000E+00 -0.43506562322E+03  0.43506562325E+03  0.50400001928E-02 0. -1.
    10030    2    1    2    0    0  0.00000000000E+00  0.00000000000E+00  0.13067162573E+03  0.10008028722E+04  0.99223551401E+03 0.  0.
        5    1    3    3  502    0  0.13778368515E+03 -0.36431679009E+02 -0.41395036635E+03  0.43782257471E+03  0.46999998093E+01 0. -1.
       -5    1    3    3    0  502 -0.13778368515E+03  0.36431679009E+02  0.54462199208E+03  0.56298029751E+03  0.46999998093E+01 0.  1.
</event>
<event>
 5   0  0.7224879E-03  0.1002349E+04  0.7818609E-02  0.9305972E-01
       -1   -1    0    0    0  501  0.00000000000E+00  0.00000000000E+00  0.15304686360E+03  0.15304686368E+03  0.50400001928E-02 0. -1.
        1   -1    0    0  501    0  0.00000000000E+00  0.00000000000E+00 -0.16411708753E+04  0.16411708753E+04  0.50400001928E-02 0.  1.
    10030    2    1    2    0    0  0.00000000000E+00  0.00000000000E+00 -0.14881240117E+04  0.17942177390E+04  0.10023493506E+04 0.  0.
        3    1    3    3  502    0 -0.13668587494E+03  0.47987777229E+03 -0.82821810512E+03  0.96690792974E+03  0.10100000352E+00 0.  1.
       -3    1    3    3    0  502  0.13668587494E+03 -0.47987777229E+03 -0.65990590658E+03  0.82730980925E+03  0.10100000352E+00 0. -1.
</event>
<event>
 5   0  0.7224879E-03  0.9925385E+03  0.7818609E-02  0.9316767E-01
        1   -1    0    0  501    0  0.00000000000E+00  0.00000000000E+00  0.94307914712E+03  0.94307914713E+03  0.50400001928E-02 0.  1.
       -1   -1    0    0    0  501  0.00000000000E+00  0.00000000000E+00 -0.26114790519E+03  0.26114790524E+03  0.50400001928E-02 0. -1.
    10030    2    1    2    0    0  0.00000000000E+00  0.00000000000E+00  0.68193124193E+03  0.12042270524E+04  0.99253845010E+03 0.  0.
        3    1    3    3  502    0  0.22348587061E+03 -0.41018263125E+03  0.54430283653E+03  0.71725958578E+03  0.10100000352E+00 0.  1.
       -3    1    3    3    0  502 -0.22348587061E+03  0.41018263125E+03  0.13762840540E+03  0.48696746659E+03  0.10100000352E+00 0. -1.
</event>
<event>
 5   0  0.7241200E-03  0.9888822E+03  0.7818609E-02  0.9320823E-01
       -1   -1    0    0    0  501  0.00000000000E+00  0.00000000000E+00  0.20551444660E+03  0.20551444666E+03  0.50400001928E-02 0. -1.
        1   -1    0    0  501    0  0.00000000000E+00  0.00000000000E+00 -0.11895612677E+04  0.11895612677E+04  0.50400001928E-02 0.  1.
    10030    2    1    2    0    0  0.00000000000E+00  0.00000000000E+00 -0.98404682108E+03  0.13950757143E+04  0.98888224915E+03 0.  0.
        4    1    3    3  502    0  0.30916818541E+03  0.35194888809E+03 -0.71516191082E+03  0.85493342331E+03  0.12699999809E+01 0. -1.
       -4    1    3    3    0  502 -0.30916818541E+03 -0.35194888809E+03 -0.26888491026E+03  0.54014229104E+03  0.12699999809E+01 0.  1.
</event>
<event>
 5   0  0.1245850E-02  0.9921557E+03  0.7818609E-02  0.9317190E-01
        2   -1    0    0  501    0  0.00000000000E+00  0.00000000000E+00  0.10017832561E+04  0.10017832561E+04  0.25500000920E-02 0.  1.
       -2   -1    0    0    0  501  0.00000000000E+00  0.00000000000E+00 -0.24565516336E+03  0.24565516337E+03  0.25500000920E-02 0. -1.
    10030    2    1    2    0    0  0.00000000000E+00  0.00000000000E+00  0.75612809273E+03  0.12474384195E+04  0.99215569229E+03 0.  0.
        3    1    3    3  502    0 -0.23101715253E+03  0.27006787959E+03 -0.57092260541E+02  0.35995155335E+03  0.10100000352E+00 0. -1.
       -3    1    3    3    0  502  0.23101715253E+03 -0.27006787959E+03  0.81322035327E+03  0.88748686612E+03  0.10100000352E+00 0.  1.
</event>
<event>
 5   0  0.6967681E-03  0.9912974E+03  0.7818609E-02  0.9318141E-01
       -1   -1    0    0    0  501  0.00000000000E+00  0.00000000000E+00  0.34419888496E+03  0.34419888500E+03  0.50400001928E-02 0.  1.
        1   -1    0    0  501    0  0.00000000000E+00  0.00000000000E+00 -0.71373745333E+03  0.71373745335E+03  0.50400001928E-02 0. -1.
    10030    2    1    2    0    0  0.00000000000E+00  0.00000000000E+00 -0.36953856837E+03  0.10579363383E+04  0.99129740365E+03 0.  0.
        5    1    3    3  502    0 -0.45654297691E+03 -0.81959806521E+02  0.16031188945E+01  0.46386804119E+03  0.46999998093E+01 0.  1.
       -5    1    3    3    0  502  0.45654297691E+03  0.81959806521E+02 -0.37114168727E+03  0.59406829715E+03  0.46999998093E+01 0. -1.
</event>
<event>
 5   0  0.1245850E-02  0.9634946E+03  0.7818609E-02  0.9349515E-01
        2   -1    0    0  501    0  0.00000000000E+00  0.00000000000E+00  0.12450191321E+04  0.12450191321E+04  0.25500000920E-02 0.  1.
       -2   -1    0    0    0  501  0.00000000000E+00  0.00000000000E+00 -0.18640715977E+03  0.18640715978E+03  0.25500000920E-02 0. -1.
    10030    2    1    2    0    0  0.00000000000E+00  0.00000000000E+00  0.10586119723E+04  0.14314262919E+04  0.96349463990E+03 0.  0.
        3    1    3    3  502    0 -0.62404673478E+02 -0.43555147931E+03  0.23787007641E+03  0.50018158488E+03  0.10100000352E+00 0. -1.
       -3    1    3    3    0  502  0.62404673478E+02  0.43555147931E+03  0.82074189589E+03  0.93124470698E+03  0.10100000352E+00 0.  1.
</event>
<event>
 5   0  0.1221315E-02  0.1009558E+04  0.7818609E-02  0.9298124E-01
       -2   -1    0    0    0  501  0.00000000000E+00  0.00000000000E+00  0.32381302742E+03  0.32381302743E+03  0.25500000920E-02 0.  1.
        2   -1    0    0  501    0  0.00000000000E+00  0.00000000000E+00 -0.78687891865E+03  0.78687891865E+03  0.25500000920E-02 0. -1.
    10030    2    1    2    0    0  0.00000000000E+00  0.00000000000E+00 -0.46306589123E+03  0.11106919461E+04  0.10095576157E+04 0.  0.
        5    1    3    3  502    0 -0.18141127659E+03  0.46209984552E+02  0.28418385943E+03  0.34033508474E+03  0.46999998093E+01 0.  1.
       -5    1    3    3    0  502  0.18141127659E+03 -0.46209984552E+02 -0.74724975066E+03  0.77035686134E+03  0.46999998093E+01 0. -1.
</event>
<event>
 5   0  0.7461157E-03  0.1008746E+04  0.7818609E-02  0.9299005E-01
       -1   -1    0    0    0  501  0.00000000000E+00  0.00000000000E+00  0.47664866616E+03  0.47664866619E+03  0.50400001928E-02 0.  1.
        1   -1    0    0  501    0  0.00000000000E+00  0.00000000000E+00 -0.53370945022E+03  0.53370945025E+03  0.50400001928E-02 0. -1.
    10030    2    1    2    0    0  0.00000000000E+00  0.00000000000E+00 -0.57060784062E+02  0.10103581164E+04  0.10087455528E+04 0.  0.
        2    1    3    3  502    0  0.14288837119E+03  0.49883013144E+02 -0.51042995452E+03  0.53239472208E+03  0.25500000920E-02 0. -1.
       -2    1    3    3    0  502 -0.14288837119E+03 -0.49883013144E+02  0.45336917045E+03  0.47796339436E+03  0.25500000920E-02 0.  1.
</event>
<event>
 5   0  0.7241200E-03  0.1001377E+04  0.7818609E-02  0.9307035E-01
        1   -1    0    0  501    0  0.00000000000E+00  0.00000000000E+00  0.11470354455E+04  0.11470354455E+04  0.50400001928E-02 0. -1.
       -1   -1    0    0    0  501  0.00000000000E+00  0.00000000000E+00 -0.21855397468E+03  0.21855397474E+03  0.50400001928E-02 0.  1.
    10030    2    1    2    0    0  0.00000000000E+00  0.00000000000E+00  0.92848147081E+03  0.13655894202E+04  0.10013773629E+04 0.  0.
        4    1    3    3  502    0  0.28712851643E+03 -0.24231248741E+03  0.91556404132E+03  0.98965511829E+03  0.12699999809E+01 0.  1.
       -4    1    3    3    0  502 -0.28712851643E+03  0.24231248741E+03  0.12917429497E+02  0.37593430195E+03  0.12699999809E+01 0. -1.
</event>
<event>
 5   0  0.1216322E-02  0.9799164E+03  0.7818609E-02  0.9330851E-01
       -2   -1    0    0    0  501  0.00000000000E+00  0.00000000000E+00  0.12080856181E+03  0.12080856184E+03  0.25500000920E-02 0.  1.
        2   -1    0    0  501    0  0.00000000000E+00  0.00000000000E+00 -0.19871026702E+04  0.19871026702E+04  0.25500000920E-02 0. -1.
    10030    2    1    2    0    0  0.00000000000E+00  0.00000000000E+00 -0.18662941084E+04  0.21079112320E+04  0.97991635519E+03 0.  0.
        2    1    3    3  502    0  0.46585391357E+03  0.10275881686E+02 -0.12589079764E+04  0.13423765327E+04  0.25500000920E-02 0. -1.
       -2    1    3    3    0  502 -0.46585391357E+03 -0.10275881686E+02 -0.60738613196E+03  0.76553469931E+03  0.25500000920E-02 0.  1.
</event>
<event>
 5   0  0.1245850E-02  0.1018749E+04  0.7818609E-02  0.9288217E-01
        2   -1    0    0  501    0  0.00000000000E+00  0.00000000000E+00  0.31761615045E+04  0.31761615045E+04  0.25500000920E-02 0. -1.
       -2   -1    0    0    0  501  0.00000000000E+00  0.00000000000E+00 -0.81690485932E+02  0.81690485972E+02  0.25500000920E-02 0.  1.
    10030    2    1    2    0    0  0.00000000000E+00  0.00000000000E+00  0.30944710186E+04  0.32578519905E+04  0.10187485986E+04 0.  0.
        3    1    3    3  502    0  0.19854231310E+02 -0.16711275193E+03  0.97780598053E+01  0.16857189271E+03  0.10100000352E+00 0.  1.
       -3    1    3    3    0  502 -0.19854231310E+02  0.16711275193E+03  0.30846929588E+04  0.30892800978E+04  0.10100000352E+00 0. -1.
</event>
<event>
 5   0  0.7073004E-03  0.9990646E+03  0.7818609E-02  0.9309571E-01
       -1   -1    0    0    0  501  0.00000000000E+00  0.00000000000E+00  0.17537411731E+03  0.17537411739E+03  0.50400001928E-02 0. -1.
        1   -1    0    0  501    0  0.00000000000E+00  0.00000000000E+00 -0.14228583081E+04  0.14228583081E+04  0.50400001928E-02 0.  1.
    10030    2    1    2    0    0  0.00000000000E+00  0.00000000000E+00 -0.12474841908E+04  0.15982324255E+04  0.99906460235E+03 0.  0.
        1    1    3    3  502    0  0.27935466566E+03  0.36226365253E+03 -0.94472016327E+03  0.10496524044E+04  0.50400001928E-02 0.  1.
       -1    1    3    3    0  502 -0.27935466566E+03 -0.36226365253E+03 -0.30276402755E+03  0.54858002112E+03  0.50400001928E-02 0. -1.
</event>
<event>
 5   0  0.1221315E-02  0.9923352E+03  0.7818609E-02  0.9316992E-01
       -2   -1    0    0    0  501  0.00000000000E+00  0.00000000000E+00  0.17912465037E+03  0.17912465038E+03  0.25500000920E-02 0.  1.
        2   -1    0    0  501    0  0.00000000000E+00  0.00000000000E+00 -0.13743629393E+04  0.13743629393E+04  0.25500000920E-02 0. -1.
    10030    2    1    2    0    0  0.00000000000E+00  0.00000000000E+00 -0.11952382890E+04  0.15534875897E+04  0.99233518732E+03 0.  0.
        5    1    3    3  502    0  0.16706308481E+03 -0.46491431676E+03 -0.66944061189E+03  0.83200253550E+03  0.46999998093E+01 0.  1.
       -5    1    3    3    0  502 -0.16706308481E+03  0.46491431676E+03 -0.52579767708E+03  0.72148505422E+03  0.46999998093E+01 0. -1.
</event>
<event>
 5   0  0.7241200E-03  0.1007093E+04  0.7818609E-02  0.9300800E-01
       -1   -1    0    0    0  501  0.00000000000E+00  0.00000000000E+00  0.16999928936E+03  0.16999928943E+03  0.50400001928E-02 0.  1.
        1   -1    0    0  501    0  0.00000000000E+00  0.00000000000E+00 -0.14915294379E+04  0.14915294379E+04  0.50400001928E-02 0. -1.
    10030    2    1    2    0    0  0.00000000000E+00  0.00000000000E+00 -0.13215301486E+04  0.16615287274E+04  0.10070927357E+04 0.  0.
        4    1    3    3  502    0  0.20886007273E+03 -0.24907313794E+03 -0.26284073186E+02  0.32611719278E+03  0.12699999809E+01 0.  1.
       -4    1    3    3    0  502 -0.20886007273E+03  0.24907313794E+03 -0.12952460754E+04  0.13354115346E+04  0.12699999809E+01 0. -1.
</event>
<event>
 5   0  0.6967681E-03  0.9972412E+03  0.7818609E-02  0.9311576E-01
        1   -1    0    0  501    0  0.00000000000E+00  0.00000000000E+00  0.34794117318E+03  0.34794117322E+03  0.50400001928E-02 0. -1.
       -1   -1    0    0    0  501  0.00000000000E+00  0.00000000000E+00 -0.71455330289E+03  0.71455330291E+03  0.50400001928E-02 0.  1.
    10030    2    1    2    0    0  0.00000000000E+00  0.00000000000E+00 -0.36661212971E+03  0.10624944761E+04  0.99724122366E+03 0.  0.
        5    1    3    3  502    0  0.24267583260E+03 -0.10331827339E+03 -0.63411701548E+03  0.68679888225E+03  0.46999998093E+01 0.  1.
       -5    1    3    3    0  502 -0.24267583260E+03  0.10331827339E+03  0.26750488578E+03  0.37569559387E+03  0.46999998093E+01 0. -1.
</event>
<event>
 5   0  0.1216322E-02  0.1053540E+04  0.7818609E-02  0.9251697E-01
        2   -1    0    0  501    0  0.00000000000E+00  0.00000000000E+00  0.43849036806E+03  0.43849036806E+03  0.25500000920E-02 0.  1.
       -2   -1    0    0    0  501  0.00000000000E+00  0.00000000000E+00 -0.63282210076E+03  0.63282210077E+03  0.25500000920E-02 0. -1.
    10030    2    1    2    0    0  0.00000000000E+00  0.00000000000E+00 -0.19433173271E+03  0.10713124688E+04  0.10535395501E+04 0.  0.
        2    1    3    3  502    0  0.83215945267E+02 -0.48247806757E+03  0.10047452070E+03  0.49980507055E+03  0.25500000920E-02 0.  1.
       -2    1    3    3    0  502 -0.83215945267E+02  0.48247806757E+03 -0.29480625340E+03  0.57150739828E+03  0.25500000920E-02 0. -1.
</event>
<event>
 5   0  0.7073004E-03  0.1009183E+04  0.7818609E-02  0.9298530E-01
        1   -1    0    0  501    0  0.00000000000E+00  0.00000000000E+00  0.56623054162E+03  0.56623054165E+03  0.50400001928E-02 0.  1.
       -1   -1    0    0    0  501  0.00000000000E+00  0.00000000000E+00 -0.44966270279E+03  0.44966270281E+03  0.50400001928E-02 0. -1.
    10030    2    1    2    0    0  0.00000000000E+00  0.00000000000E+00  0.11656783884E+03  0.10158932445E+04  0.10091833446E+04 0.  0.
        1    1    3    3  502    0 -0.43017832429E+03  0.21735882685E+03  0.20865753119E+03  0.52520111923E+03  0.50400001928E-02 0.  1.
       -1    1    3    3    0  502  0.43017832429E+03 -0.21735882685E+03 -0.92089692352E+02  0.49069212523E+03  0.50400001928E-02 0. -1.
</event>
<event>
 5   0  0.7461157E-03  0.9960506E+03  0.7818609E-02  0.9312887E-01
        1   -1    0    0  501    0  0.00000000000E+00  0.00000000000E+00  0.21188830971E+04  0.21188830971E+04  0.50400001928E-02 0. -1.
       -1   -1    0    0    0  501  0.00000000000E+00  0.00000000000E+00 -0.11705658090E+03  0.11705658101E+03  0.50400001928E-02 0.  1.
    10030    2    1    2    0    0  0.00000000000E+00  0.00000000000E+00  0.20018265162E+04  0.22359396781E+04  0.99605062283E+03 0.  0.
        2    1    3    3  502    0 -0.25292652623E+03  0.31313720254E+03  0.16592288596E+04  0.17073567711E+04  0.25500000920E-02 0.  1.
       -2    1    3    3    0  502  0.25292652623E+03 -0.31313720254E+03  0.34259765662E+03  0.52858290704E+03  0.25500000920E-02 0. -1.
</event>
<event>
 5   0  0.1221315E-02  0.9801261E+03  0.7818609E-02  0.9330615E-01
       -2   -1    0    0    0  501  0.00000000000E+00  0.00000000000E+00  0.12828824233E+03  0.12828824235E+03  0.25500000920E-02 0. -1.
        2   -1    0    0  501    0  0.00000000000E+00  0.00000000000E+00 -0.18720483817E+04  0.18720483817E+04  0.25500000920E-02 0.  1.
    10030    2    1    2    0    0  0.00000000000E+00  0.00000000000E+00 -0.17437601394E+04  0.20003366241E+04  0.98012610712E+03 0.  0.
        5    1    3    3  502    0 -0.38371993967E+03 -0.28830951499E+03 -0.10736745262E+04  0.11760792689E+04  0.46999998093E+01 0.  1.
       -5    1    3    3    0  502  0.38371993967E+03  0.28830951499E+03 -0.67008561322E+03  0.82425735519E+03  0.46999998093E+01 0. -1.
</event>
<event>
 5   0  0.1191822E-02  0.1018573E+04  0.7818609E-02  0.9288405E-01
        2   -1    0    0  501    0  0.00000000000E+00  0.00000000000E+00  0.73487306260E+03  0.73487306261E+03  0.25500000920E-02 0. -1.
       -2   -1    0    0    0  501  0.00000000000E+00  0.00000000000E+00 -0.35294922138E+03  0.35294922139E+03  0.25500000920E-02 0.  1.
    10030    2    1    2    0    0  0.00000000000E+00  0.00000000000E+00  0.38192384122E+03  0.10878222840E+04  0.10185732674E+04 0.  0.
        4    1    3    3  502    0 -0.21071739247E+03  0.10783521406E+03 -0.29062886054E+03  0.37482929496E+03  0.12699999809E+01 0.  1.
       -4    1    3    3    0  502  0.21071739247E+03 -0.10783521406E+03  0.67255270176E+03  0.71299298904E+03  0.12699999809E+01 0. -1.
</event>
<event>
 5   0  0.7461157E-03  0.1047567E+04  0.7818609E-02  0.9257860E-01
        1   -1    0    0  501    0  0.00000000000E+00  0.00000000000E+00  0.16278812249E+04  0.16278812249E+04  0.50400001928E-02 0.  1.
       -1   -1    0    0    0  501  0.00000000000E+00  0.00000000000E+00 -0.16853143250E+03  0.16853143258E+03  0.50400001928E-02 0. -1.
    10030    2    1    2    0    0  0.00000000000E+00  0.00000000000E+00  0.14593497924E+04  0.17964126575E+04  0.10475670000E+04 0.  0.
        2    1    3    3  502    0 -0.26365997486E+03 -0.44171304357E+03  0.56058966662E+03  0.76084674510E+03  0.25500000920E-02 0. -1.
       -2    1    3    3    0  502  0.26365997486E+03  0.44171304357E+03  0.89876012575E+03  0.10355659124E+04  0.25500000920E-02 0.  1.
</event>
<event>
 5   0  0.7224879E-03  0.9970999E+03  0.7818609E-02  0.9311731E-01
        1   -1    0    0  501    0  0.00000000000E+00  0.00000000000E+00  0.82487246338E+03  0.82487246340E+03  0.50400001928E-02 0. -1.
       -1   -1    0    0    0  501  0.00000000000E+00  0.00000000000E+00 -0.30132178038E+03  0.30132178043E+03  0.50400001928E-02 0.  1.
    10030    2    1    2    0    0  0.00000000000E+00  0.00000000000E+00  0.52355068300E+03  0.11261942438E+04  0.99709987321E+03 0.  0.
        3    1    3    3  502    0 -0.17804963902E+02 -0.48606201293E+03  0.38539287251E+03  0.62056504376E+03  0.10100000352E+00 0.  1.
       -3    1    3    3    0  502  0.17804963902E+02  0.48606201293E+03  0.13815781049E+03  0.50562920006E+03  0.10100000352E+00 0. -1.
</event>
<event>
 5   0  0.7461157E-03  0.1009728E+04  0.7818609E-02  0.9297940E-01
       -1   -1    0    0    0  501  0.00000000000E+00  0.00000000000E+00  0.15836498914E+03  0.15836498922E+03  0.50400001928E-02 0.  1.
        1   -1    0    0  501    0  0.00000000000E+00  0.00000000000E+00 -0.16094941057E+04  0.16094941057E+04  0.50400001928E-02 0. -1.
    10030    2    1    2    0    0  0.00000000000E+00  0.00000000000E+00 -0.14511291165E+04  0.17678590949E+04  0.10097277190E+04 0.  0.
        2    1    3    3  502    0  0.44091995463E+03  0.16894457504E+03 -0.10384430766E+04  0.11407526897E+04  0.25500000920E-02 0. -1.
       -2    1    3    3    0  502 -0.44091995463E+03 -0.16894457504E+03 -0.41268603995E+03  0.62710640516E+03  0.25500000920E-02 0.  1.
</event>
<event>
 5   0  0.1245850E-02  0.9859614E+03  0.7818609E-02  0.9324078E-01
        2   -1    0    0  501    0  0.00000000000E+00  0.00000000000E+00  0.49315270752E+03  0.49315270753E+03  0.25500000920E-02 0.  1.
       -2   -1    0    0    0  501  0.00000000000E+00  0.00000000000E+00 -0.49280872032E+03  0.49280872032E+03  0.25500000920E-02 0. -1.
    10030    2    1    2    0    0  0.00000000000E+00  0.00000000000E+00  0.34398720744E+00  0.98596142785E+03  0.98596136785E+03 0.  0.
        3    1    3    3  502    0  0.17055328174E+03  0.33433490956E+03 -0.31945545092E+03  0.49286920069E+03  0.10100000352E+00 0. -1.
       -3    1    3    3    0  502 -0.17055328174E+03 -0.33433490956E+03  0.31979943813E+03  0.49309222717E+03  0.10100000352E+00 0.  1.
</event>
<event>
 5   0  0.6967681E-03  0.1057789E+04  0.7818609E-02  0.9247339E-01
        1   -1    0    0  501    0  0.00000000000E+00  0.00000000000E+00  0.16318709940E+04  0.16318709940E+04  0.50400001928E-02 0. -1.
       -1   -1    0    0    0  501  0.00000000000E+00  0.00000000000E+00 -0.17141635777E+03  0.17141635784E+03  0.50400001928E-02 0.  1.
    10030    2    1    2    0    0  0.00000000000E+00  0.00000000000E+00  0.14604546362E+04  0.18032873518E+04  0.10577889812E+04 0.  0.
        5    1    3    3  502    0  0.62894035957E+02  0.14180558344E+03  0.15921785372E+04  0.15997246850E+04  0.46999998093E+01 0. -1.
       -5    1    3    3    0  502 -0.62894035957E+02 -0.14180558344E+03 -0.13172390100E+03  0.20356266688E+03  0.46999998093E+01 0.  1.
</event>
<event>
 5   0  0.7241200E-03  0.7935842E+03  0.7818609E-02  0.9569350E-01
       -1   -1    0    0    0  501  0.00000000000E+00  0.00000000000E+00  0.26662124342E+03  0.26662124347E+03  0.50400001928E-02 0. -1.
        1   -1    0    0  501    0  0.00000000000E+00  0.00000000000E+00 -0.59051550377E+03  0.59051550379E+03  0.50400001928E-02 0.  1.
    10030    2    1    2    0    0  0.00000000000E+00  0.00000000000E+00 -0.32389426035E+03  0.85713674726E+03  0.79358421835E+03 0.  0.
        4    1    3    3  502    0 -0.29111763227E+03 -0.14386087631E+03 -0.40823667410E+03  0.52163610164E+03  0.12699999809E+01 0.  1.
       -4    1    3    3    0  502  0.29111763227E+03  0.14386087631E+03  0.84342413753E+02  0.33550064562E+03  0.12699999809E+01 0. -1.
</event>
<event>
 5   0  0.7224879E-03  0.1003721E+04  0.7818609E-02  0.9304473E-01
        1   -1    0    0  501    0  0.00000000000E+00  0.00000000000E+00  0.27571153011E+04  0.27571153011E+04  0.50400001928E-02 0.  1.
       -1   -1    0    0    0  501  0.00000000000E+00  0.00000000000E+00 -0.91350528626E+02  0.91350528765E+02  0.50400001928E-02 0. -1.
    10030    2    1    2    0    0  0.00000000000E+00  0.00000000000E+00  0.26657647725E+04  0.28484658299E+04  0.10037209581E+04 0.  0.
        3    1    3    3  502    0  0.45256720821E+03 -0.12372245524E+03  0.18384727520E+04  0.18973946332E+04  0.10100000352E+00 0.  1.
       -3    1    3    3    0  502 -0.45256720821E+03  0.12372245524E+03  0.82729202045E+03  0.95107119670E+03  0.10100000352E+00 0. -1.
</event>
<event>
 5   0  0.1240503E-02  0.9968700E+03  0.7818609E-02  0.9311984E-01
       -2   -1    0    0    0  501  0.00000000000E+00  0.00000000000E+00  0.32115711864E+03  0.32115711865E+03  0.25500000920E-02 0. -1.
        2   -1    0    0  501    0  0.00000000000E+00  0.00000000000E+00 -0.77356987708E+03  0.77356987708E+03  0.25500000920E-02 0.  1.
    10030    2    1    2    0    0  0.00000000000E+00  0.00000000000E+00 -0.45241275844E+03  0.10947269957E+04  0.99687004728E+03 0.  0.
        1    1    3    3  502    0 -0.22073366847E+03  0.32365574153E+03  0.11220121966E+03  0.40751135584E+03  0.50400001928E-02 0. -1.
       -1    1    3    3    0  502  0.22073366847E+03 -0.32365574153E+03 -0.56461397810E+03  0.68721563989E+03  0.50400001928E-02 0.  1.
</event>
<event>
 5   0  0.7073004E-03  0.1005252E+04  0.7818609E-02  0.9302803E-01
        1   -1    0    0  501    0  0.00000000000E+00  0.00000000000E+00  0.93151902256E+03  0.93151902257E+03  0.50400001928E-02 0. -1.
       -1   -1    0    0    0  501  0.00000000000E+00  0.00000000000E+00 -0.27120539833E+03  0.27120539838E+03  0.50400001928E-02 0.  1.
    10030    2    1    2    0    0  0.00000000000E+00  0.00000000000E+00  0.66031362422E+03  0.12027244210E+04  0.10052521825E+04 0.  0.
        1    1    3    3  502    0  0.28973331087E+03  0.40214657211E+03  0.23030074790E+03  0.54653974366E+03  0.50400001928E-02 0. -1.
       -1    1    3    3    0  502 -0.28973331087E+03 -0.40214657211E+03  0.43001287633E+03  0.65618467730E+03  0.50400001928E-02 0.  1.
</event>
<event>
 5   0  0.1245850E-02  0.1051487E+04  0.7818609E-02  0.9253810E-01
        2   -1    0    0  501    0  0.00000000000E+00  0.00000000000E+00  0.49573534841E+03  0.49573534842E+03  0.25500000920E-02 0. -1.
       -2   -1    0    0    0  501  0.00000000000E+00  0.00000000000E+00 -0.55756777028E+03  0.55756777029E+03  0.25500000920E-02 0.  1.
    10030    2    1    2    0    0  0.00000000000E+00  0.00000000000E+00 -0.61832421869E+02  0.10533031187E+04  0.10514866673E+04 0.  0.
        3    1    3    3  502    0  0.40510759998E+03 -0.14938434673E+02 -0.36626417769E+03  0.54633760849E+03  0.10100000352E+00 0.  1.
       -3    1    3    3    0  502 -0.40510759998E+03  0.14938434673E+02  0.30443175582E+03  0.50696551021E+03  0.10100000352E+00 0. -1.
</event>
<event>
 5   0  0.1245850E-02  0.9973188E+03  0.7818609E-02  0.9311490E-01
        2   -1    0    0  501    0  0.00000000000E+00  0.00000000000E+00  0.10887781660E+04  0.10887781660E+04  0.25500000920E-02 0. -1.
       -2   -1    0    0    0  501  0.00000000000E+00  0.00000000000E+00 -0.22838556540E+03  0.22838556541E+03  0.25500000920E-02 0.  1.
    10030    2    1    2    0    0  0.00000000000E+00  0.00000000000E+00  0.86039260057E+03  0.13171637314E+04  0.99731883977E+03 0.  0.
        3    1    3    3  502    0 -0.23190194836E+03 -0.26479935156E+03 -0.36302337275E+02  0.35385742911E+03  0.10100000352E+00 0.  1.
       -3    1    3    3    0  502  0.23190194836E+03  0.26479935156E+03  0.89669493785E+03  0.96330630228E+03  0.10100000352E+00 0. -1.
</event>
<event>
 5   0  0.1191822E-02  0.9949918E+03  0.7818609E-02  0.9314055E-01
       -2   -1    0    0    0  501  0.00000000000E+00  0.00000000000E+00  0.75776976431E+03  0.75776976432E+03  0.25500000920E-02 0. -1.
        2   -1    0    0  501    0  0.00000000000E+00  0.00000000000E+00 -0.32661919080E+03  0.32661919081E+03  0.25500000920E-02 0.  1.
    10030    2    1    2    0    0  0.00000000000E+00  0.00000000000E+00  0.43115057352E+03  0.10843889551E+04  0.99499175321E+03 0.  0.
        4    1    3    3  502    0 -0.25048189171E+03  0.29875670542E+03 -0.12122767451E+03  0.40828238889E+03  0.12699999809E+01 0.  1.
       -4    1    3    3    0  502  0.25048189171E+03 -0.29875670542E+03  0.55237824803E+03  0.67610656623E+03  0.12699999809E+01 0. -1.
</event>
<event>
 5   0  0.7224879E-03  0.1052144E+04  0.7818609E-02  0.9253134E-01
        1   -1    0    0  501    0  0.00000000000E+00  0.00000000000E+00  0.15270736867E+04  0.15270736867E+04  0.50400001928E-02 0. -1.
       -1   -1    0    0    0  501  0.00000000000E+00  0.00000000000E+00 -0.18122999531E+03  0.18122999538E+03  0.50400001928E-02 0.  1.
    10030    2    1    2    0    0  0.00000000000E+00  0.00000000000E+00  0.13458436914E+04  0.17083036821E+04  0.10521436349E+04 0.  0.
        3    1    3    3  502    0 -0.51707708455E+03  0.96486465065E+02  0.65903068498E+03  0.84320804269E+03  0.10100000352E+00 0. -1.
       -3    1    3    3    0  502  0.51707708455E+03 -0.96486465065E+02  0.68681300639E+03  0.86509563937E+03  0.10100000352E+00 0.  1.
</event>
<event>
 5   0  0.1191822E-02  0.9812299E+03  0.7818609E-02  0.9329374E-01
       -2   -1    0    0    0  501  0.00000000000E+00  0.00000000000E+00  0.10372116258E+03  0.10372116261E+03  0.25500000920E-02 0. -1.
        2   -1    0    0  501    0  0.00000000000E+00  0.00000000000E+00 -0.23206743079E+04  0.23206743079E+04  0.25500000920E-02 0.  1.
    10030    2    1    2    0    0  0.00000000000E+00  0.00000000000E+00 -0.22169531453E+04  0.24243954705E+04  0.98122991641E+03 0.  0.
        4    1    3    3  502    0 -0.10981968317E+01 -0.16606002505E+03  0.32164889820E+02  0.16915475456E+03  0.12699999809E+01 0. -1.
       -4    1    3    3    0  502  0.10981968317E+01  0.16606002505E+03 -0.22491180351E+04  0.22552407159E+04  0.12699999809E+01 0.  1.
</event>
<event>
 5   0  0.6967681E-03  0.1004161E+04  0.7818609E-02  0.9303992E-01
        1   -1    0    0  501    0  0.00000000000E+00  0.00000000000E+00  0.67589295913E+03  0.67589295915E+03  0.50400001928E-02 0. -1.
       -1   -1    0    0    0  501  0.00000000000E+00  0.00000000000E+00 -0.37296592252E+03  0.37296592255E+03  0.50400001928E-02 0.  1.
    10030    2    1    2    0    0  0.00000000000E+00  0.00000000000E+00  0.30292703661E+03  0.10488588817E+04  0.10041614234E+04 0.  0.
        5    1    3    3  502    0  0.42069335269E+03 -0.49530883878E+01 -0.13469379450E+03  0.44178268228E+03  0.46999998093E+01 0.  1.
       -5    1    3    3    0  502 -0.42069335269E+03  0.49530883878E+01  0.43762083111E+03  0.60707619942E+03  0.46999998093E+01 0. -1.
</event>
<event>
 5   0  0.1240503E-02  0.1134588E+04  0.7818609E-02  0.9172121E-01
        2   -1    0    0  501    0  0.00000000000E+00  0.00000000000E+00  0.15101889800E+04  0.15101889800E+04  0.25500000920E-02 0.  1.
       -2   -1    0    0    0  501  0.00000000000E+00  0.00000000000E+00 -0.21310086747E+03  0.21310086749E+03  0.25500000920E-02 0. -1.
    10030    2    1    2    0    0  0.00000000000E+00  0.00000000000E+00  0.12970881125E+04  0.17232898475E+04  0.11345881750E+04 0.  0.
        1    1    3    3  502    0 -0.10700107519E+03  0.55710834924E+03  0.65144139108E+03  0.86382569360E+03  0.50400001928E-02 0.  1.
       -1    1    3    3    0  502  0.10700107519E+03 -0.55710834924E+03  0.64564672144E+03  0.85946415389E+03  0.50400001928E-02 0. -1.
</event>
<event>
 5   0  0.7461157E-03  0.9881410E+03  0.7818609E-02  0.9321648E-01
        1   -1    0    0  501    0  0.00000000000E+00  0.00000000000E+00  0.64546582716E+03  0.64546582718E+03  0.50400001928E-02 0. -1.
       -1   -1    0    0    0  501  0.00000000000E+00  0.00000000000E+00 -0.37818523788E+03  0.37818523792E+03  0.50400001928E-02 0.  1.
    10030    2    1    2    0    0  0.00000000000E+00  0.00000000000E+00  0.26728058927E+03  0.10236510651E+04  0.98814097661E+03 0.  0.
        2    1    3    3  502    0 -0.55197339526E+01  0.25786695216E+03  0.57018611350E+03  0.62580990446E+03  0.25500000920E-02 0. -1.
       -2    1    3    3    0  502  0.55197339526E+01 -0.25786695216E+03 -0.30290552423E+03  0.39784116063E+03  0.25500000920E-02 0.  1.
</event>
<event>
 5   0  0.1221315E-02  0.9634296E+03  0.7818609E-02  0.9349590E-01
        2   -1    0    0  501    0  0.00000000000E+00  0.00000000000E+00  0.72824623320E+03  0.72824623320E+03  0.25500000920E-02 0. -1.
       -2   -1    0    0    0  501  0.00000000000E+00  0.00000000000E+00 -0.31864102422E+03  0.31864102423E+03  0.25500000920E-02 0.  1.
    10030    2    1    2    0    0  0.00000000000E+00  0.00000000000E+00  0.40960520898E+03  0.10468872574E+04  0.96342955246E+03 0.  0.
        5    1    3    3  502    0 -0.41290941859E+03 -0.20908855189E+03  0.59768301561E+02  0.46669749341E+03  0.46999998093E+01 0.  1.
       -5    1    3    3    0  502  0.41290941859E+03  0.20908855189E+03  0.34983690741E+03  0.58018976402E+03  0.46999998093E+01 0. -1.
</event>
<event>
 5   0  0.7224879E-03  0.9904809E+03  0.7818609E-02  0.9319047E-01
        1   -1    0    0  501    0  0.00000000000E+00  0.00000000000E+00  0.39492950817E+03  0.39492950820E+03  0.50400001928E-02 0.  1.
       -1   -1    0    0    0  501  0.00000000000E+00  0.00000000000E+00 -0.62103012063E+03  0.62103012065E+03  0.50400001928E-02 0. -1.
    10030    2    1    2    0    0  0.00000000000E+00  0.00000000000E+00 -0.22610061246E+03  0.10159596289E+04  0.99048093395E+03 0.  0.
        3    1    3    3  502    0 -0.23348058977E+03  0.22935232912E+03 -0.49429318546E+03  0.59282496579E+03  0.10100000352E+00 0. -1.
       -3    1    3    3    0  502  0.23348058977E+03 -0.22935232912E+03  0.26819257300E+03  0.42313466306E+03  0.10100000352E+00 0.  1.
</event>
<event>
 5   0  0.7224879E-03  0.9689911E+03  0.7818609E-02  0.9343224E-01
       -1   -1    0    0    0  501  0.00000000000E+00  0.00000000000E+00  0.28003132754E+03  0.28003132758E+03  0.50400001928E-02 0. -1.
        1   -1    0    0  501    0  0.00000000000E+00  0.00000000000E+00 -0.83824884672E+03  0.83824884673E+03  0.50400001928E-02 0.  1.
    10030    2    1    2    0    0  0.00000000000E+00  0.00000000000E+00 -0.55821751918E+03  0.11182801743E+04  0.96899109880E+03 0.  0.
        3    1    3    3  502    0 -0.12952263998E+03 -0.34812225039E+03  0.79898148473E+02  0.37993280960E+03  0.10100000352E+00 0. -1.
       -3    1    3    3    0  502  0.12952263998E+03  0.34812225039E+03 -0.63811566765E+03  0.73834736472E+03  0.10100000352E+00 0.  1.
</event>
<event>
 5   0  0.6967681E-03  0.9801694E+03  0.7818609E-02  0.9330566E-01
        1   -1    0    0  501    0  0.00000000000E+00  0.00000000000E+00  0.11108734852E+04  0.11108734852E+04  0.50400001928E-02 0.  1.
       -1   -1    0    0    0  501  0.00000000000E+00  0.00000000000E+00 -0.21621095195E+03  0.21621095201E+03  0.50400001928E-02 0. -1.
    10030    2    1    2    0    0  0.00000000000E+00  0.00000000000E+00  0.89466253327E+03  0.13270844372E+04  0.98016940124E+03 0.  0.
        5    1    3    3  502    0 -0.24238319445E+03  0.28810855380E+03  0.22608544900E+02  0.37721265624E+03  0.46999998093E+01 0. -1.
       -5    1    3    3    0  502  0.24238319445E+03 -0.28810855380E+03  0.87205398837E+03  0.94987178101E+03  0.46999998093E+01 0.  1.
</event>
<event>
 5   0  0.7073004E-03  0.1001945E+04  0.7818609E-02  0.9306414E-01
        1   -1    0    0  501    0  0.00000000000E+00  0.00000000000E+00  0.37391241344E+03  0.37391241347E+03  0.50400001928E-02 0.  1.
       -1   -1    0    0    0  501  0.00000000000E+00  0.00000000000E+00 -0.67120975383E+03  0.67120975384E+03  0.50400001928E-02 0. -1.
    10030    2    1    2    0    0  0.00000000000E+00  0.00000000000E+00 -0.29729734039E+03  0.10451221673E+04  0.10019454257E+04 0.  0.
        1    1    3    3  502    0 -0.39963034382E+03 -0.29152875841E+03 -0.65985743518E+02  0.49904663815E+03  0.50400001928E-02 0. -1.
       -1    1    3    3    0  502  0.39963034382E+03  0.29152875841E+03 -0.23131159687E+03  0.54607552916E+03  0.50400001928E-02 0.  1.
</event>
<event>
 5   0  0.7461157E-03  0.1004203E+04  0.7818609E-02  0.9303947E-01
        1   -1    0    0  501    0  0.00000000000E+00  0.00000000000E+00  0.81124556364E+03  0.81124556365E+03  0.50400001928E-02 0.  1.
       -1   -1    0    0    0  501  0.00000000000E+00  0.00000000000E+00 -0.31076399388E+03  0.31076399392E+03  0.50400001928E-02 0. -1.
    10030    2    1    2    0    0  0.00000000000E+00  0.00000000000E+00  0.50048156976E+03  0.11220095576E+04  0.10042029903E+04 0.  0.
        2    1    3    3  502    0 -0.45299773281E+03 -0.12700850967E+03  0.44622599364E+03  0.64842558930E+03  0.25500000920E-02 0.  1.
       -2    1    3    3    0  502  0.45299773281E+03  0.12700850967E+03  0.54255576121E+02  0.47358396827E+03  0.25500000920E-02 0. -1.
</event>
<event>
 5   0  0.6967681E-03  0.9783857E+03  0.7818609E-02  0.9332574E-01
       -1   -1    0    0    0  501  0.00000000000E+00  0.00000000000E+00  0.20483160797E+03  0.20483160803E+03  0.50400001928E-02 0. -1.
        1   -1    0    0  501    0  0.00000000000E+00  0.00000000000E+00 -0.11683237502E+04  0.11683237502E+04  0.50400001928E-02 0.  1.
    10030    2    1    2    0    0  0.00000000000E+00  0.00000000000E+00 -0.96349214225E+03  0.13731553583E+04  0.97838567535E+03 0.  0.
        5    1    3    3  502    0  0.35431156363E+03 -0.48058778479E+02 -0.95027078486E+03  0.10153240787E+04  0.46999998093E+01 0.  1.
       -5    1    3    3    0  502 -0.35431156363E+03  0.48058778479E+02 -0.13221357391E+02  0.35783127952E+03  0.46999998093E+01 0. -1.
</event>
<event>
 5   0  0.1221315E-02  0.9992800E+03  0.7818609E-02  0.9309335E-01
        2   -1    0    0  501    0  0.00000000000E+00  0.00000000000E+00  0.13977330441E+04  0.13977330441E+04  0.25500000920E-02 0. -1.
       -2   -1    0    0    0  501  0.00000000000E+00  0.00000000000E+00 -0.17860356661E+03  0.17860356663E+03  0.25500000920E-02 0.  1.
    10030    2    1    2    0    0  0.00000000000E+00  0.00000000000E+00  0.12191294775E+04  0.15763366107E+04  0.99927995449E+03 0.  0.
        5    1    3    3  502    0  0.19424761974E+03 -0.54090735916E+01  0.13356419519E+04  0.13497121580E+04  0.46999998093E+01 0. -1.
       -5    1    3    3    0  502 -0.19424761974E+03  0.54090735916E+01 -0.11651247444E+03  0.22662445268E+03  0.46999998093E+01 0.  1.
</event>
<event>
 5   0  0.6967681E-03  0.9850535E+03  0.7818609E-02  0.9325091E-01
        1   -1    0    0  501    0  0.00000000000E+00  0.00000000000E+00  0.12614773289E+04  0.12614773289E+04  0.50400001928E-02 0.  1.
       -1   -1    0    0    0  501  0.00000000000E+00  0.00000000000E+00 -0.19230041343E+03  0.19230041350E+03  0.50400001928E-02 0. -1.
    10030    2    1    2    0    0  0.00000000000E+00  0.00000000000E+00  0.10691769154E+04  0.14537777424E+04  0.98505352531E+03 0.  0.
        5    1    3    3  502    0  0.38608284943E+03  0.15056383185E+03  0.92736915951E+03  0.10157583778E+04  0.46999998093E+01 0.  1.
       -5    1    3    3    0  502 -0.38608284943E+03 -0.15056383185E+03  0.14180775591E+03  0.43801936455E+03  0.46999998093E+01 0. -1.
</event>
<event>
 5   0  0.1240503E-02  0.9912044E+03  0.7818609E-02  0.9318245E-01
        2   -1    0    0  501    0  0.00000000000E+00  0.00000000000E+00  0.14916867565E+04  0.14916867565E+04  0.25500000920E-02 0. -1.
       -2   -1    0    0    0  501  0.00000000000E+00  0.00000000000E+00 -0.16466026130E+03  0.16466026132E+03  0.25500000920E-02 0.  1.
    10030    2    1    2    0    0  0.00000000000E+00  0.00000000000E+00  0.13270264952E+04  0.16563470178E+04  0.99120438076E+03 0.  0.
        1    1    3    3  502    0 -0.52987972061E+01  0.48693345625E+03  0.50954785564E+03  0.70482003752E+03  0.50400001928E-02 0.  1.
       -1    1    3    3    0  502  0.52987972061E+01 -0.48693345625E+03  0.81747863953E+03  0.95152698027E+03  0.50400001928E-02 0. -1.
</event>
<event>
 5   0  0.7073004E-03  0.9320808E+03  0.7818609E-02  0.9386344E-01
        1   -1    0    0  501    0  0.00000000000E+00  0.00000000000E+00  0.10851854401E+04  0.10851854401E+04  0.50400001928E-02 0. -1.
       -1   -1    0    0    0  501  0.00000000000E+00  0.00000000000E+00 -0.20014429409E+03  0.20014429415E+03  0.50400001928E-02 0.  1.
    10030    2    1    2    0    0  0.00000000000E+00  0.00000000000E+00  0.88504114601E+03  0.12853297343E+04  0.93208084179E+03 0.  0.
        1    1    3    3  502    0 -0.16871926935E+03 -0.19133873014E+02 -0.15596943101E+03  0.23056183635E+03  0.50400001928E-02 0.  1.
       -1    1    3    3    0  502  0.16871926935E+03  0.19133873014E+02  0.10410105770E+04  0.10547678979E+04  0.50400001928E-02 0. -1.
</event>
<event>
 5   0  0.1191822E-02  0.1034866E+04  0.7818609E-02  0.9271110E-01
        2   -1    0    0  501    0  0.00000000000E+00  0.00000000000E+00  0.20860195980E+04  0.20860195980E+04  0.25500000920E-02 0. -1.
       -2   -1    0    0    0  501  0.00000000000E+00  0.00000000000E+00 -0.12834812831E+03  0.12834812833E+03  0.25500000920E-02 0.  1.
    10030    2    1    2    0    0  0.00000000000E+00  0.00000000000E+00  0.19576714697E+04  0.22143677264E+04  0.10348656165E+04 0.  0.
        4    1    3    3  502    0  0.13067870414E+03  0.15764488425E+03  0.19956316176E+04  0.20061096678E+04  0.12699999809E+01 0. -1.
       -4    1    3    3    0  502 -0.13067870414E+03 -0.15764488425E+03 -0.37960147831E+02  0.20825805859E+03  0.12699999809E+01 0.  1.
</event>
<event>
 5   0  0.1245850E-02  0.9794127E+03  0.7818609E-02  0.9331417E-01
        2   -1    0    0  501    0  0.00000000000E+00  0.00000000000E+00  0.95173931887E+03  0.95173931887E+03  0.25500000920E-02 0. -1.
       -2   -1    0    0    0  501  0.00000000000E+00  0.00000000000E+00 -0.25197265704E+03  0.25197265705E+03  0.25500000920E-02 0.  1.
    10030    2    1    2    0    0  0.00000000000E+00  0.00000000000E+00  0.69976666183E+03  0.12037119759E+04  0.97941265051E+03 0.  0.
        3    1    3    3  502    0 -0.47416562405E+03 -0.64175985307E+02  0.22180214073E+03  0.52739718994E+03  0.10100000352E+00 0.  1.
       -3    1    3    3    0  502  0.47416562405E+03  0.64175985307E+02  0.47796452110E+03  0.67631478599E+03  0.10100000352E+00 0. -1.
</event>
<event>
 5   0  0.7224879E-03  0.9768637E+03  0.7818609E-02  0.9334291E-01
        1   -1    0    0  501    0  0.00000000000E+00  0.00000000000E+00  0.80273029270E+03  0.80273029272E+03  0.50400001928E-02 0. -1.
       -1   -1    0    0    0  501  0.00000000000E+00  0.00000000000E+00 -0.29719282236E+03  0.29719282240E+03  0.50400001928E-02 0.  1.
    10030    2    1    2    0    0  0.00000000000E+00  0.00000000000E+00  0.50553747034E+03  0.10999231151E+04  0.97686371888E+03 0.  0.
        3    1    3    3  502    0  0.69573874381E+02 -0.25527818579E+03 -0.20950932785E+03  0.33749317740E+03  0.10100000352E+00 0.  1.
       -3    1    3    3    0  502 -0.69573874381E+02  0.25527818579E+03  0.71504679819E+03  0.76242993772E+03  0.10100000352E+00 0. -1.
</event>
<event>
 5   0  0.6967681E-03  0.9945175E+03  0.7818609E-02  0.9314578E-01
        1   -1    0    0  501    0  0.00000000000E+00  0.00000000000E+00  0.70503755584E+03  0.70503755586E+03  0.50400001928E-02 0. -1.
       -1   -1    0    0    0  501  0.00000000000E+00  0.00000000000E+00 -0.35071357515E+03  0.35071357519E+03  0.50400001928E-02 0.  1.
    10030    2    1    2    0    0  0.00000000000E+00  0.00000000000E+00  0.35432398069E+03  0.10557511310E+04  0.99451745456E+03 0.  0.
        5    1    3    3  502    0  0.42647701180E+03  0.21126978605E+03  0.24330428789E+02  0.47658328113E+03  0.46999998093E+01 0.  1.
       -5    1    3    3    0  502 -0.42647701180E+03 -0.21126978605E+03  0.32999355190E+03  0.57916784992E+03  0.46999998093E+01 0. -1.
</event>
<event>
 5   0  0.4782125E-03  0.9852367E+03  0.7818609E-02  0.9324887E-01
       -3   -1    0    0    0  501  0.00000000000E+00  0.00000000000E+00  0.41616872175E+03  0.41616873401E+03  0.10100000352E+00 0.  1.
        3   -1    0    0  501    0  0.00000000000E+00  0.00000000000E+00 -0.58311162107E+03  0.58311162981E+03  0.10100000352E+00 0. -1.
    10030    2    1    2    0    0  0.00000000000E+00  0.00000000000E+00 -0.16694289931E+03  0.99928036382E+03  0.98523667912E+03 0.  0.
        4    1    3    3  502    0  0.25825817333E+03 -0.88580040624E+02  0.33240676371E+03  0.43016226839E+03  0.12699999809E+01 0.  1.
       -4    1    3    3    0  502 -0.25825817333E+03  0.88580040624E+02 -0.49934966302E+03  0.56911809543E+03  0.12699999809E+01 0. -1.
</event>
<event>
 5   0  0.7461157E-03  0.9779606E+03  0.7818609E-02  0.9333053E-01
        1   -1    0    0  501    0  0.00000000000E+00  0.00000000000E+00  0.39445077274E+03  0.39445077277E+03  0.50400001928E-02 0.  1.
       -1   -1    0    0    0  501  0.00000000000E+00  0.00000000000E+00 -0.60616363191E+03  0.60616363193E+03  0.50400001928E-02 0. -1.
    10030    2    1    2    0    0  0.00000000000E+00  0.00000000000E+00 -0.21171285917E+03  0.10006144047E+04  0.97796055757E+03 0.  0.
        2    1    3    3  502    0 -0.26618875120E+03  0.40984795237E+03 -0.12266617344E+03  0.50386385606E+03  0.25500000920E-02 0. -1.
       -2    1    3    3    0  502  0.26618875120E+03 -0.40984795237E+03 -0.89046685738E+02  0.49675054864E+03  0.25500000920E-02 0.  1.
</event>
<event>
 5   0  0.1245850E-02  0.1024997E+04  0.7818609E-02  0.9281546E-01
       -2   -1    0    0    0  501  0.00000000000E+00  0.00000000000E+00  0.17380681340E+03  0.17380681342E+03  0.25500000920E-02 0.  1.
        2   -1    0    0  501    0  0.00000000000E+00  0.00000000000E+00 -0.15111864507E+04  0.15111864507E+04  0.25500000920E-02 0. -1.
    10030    2    1    2    0    0  0.00000000000E+00  0.00000000000E+00 -0.13373796373E+04  0.16849932641E+04  0.10249965882E+04 0.  0.
        3    1    3    3  502    0 -0.19086033435E+03 -0.47546249286E+03 -0.64775075328E+03  0.82587728987E+03  0.10100000352E+00 0.  1.
       -3    1    3    3    0  502  0.19086033435E+03  0.47546249286E+03 -0.68962888403E+03  0.85911597426E+03  0.10100000352E+00 0. -1.
</event>
<event>
 5   0  0.1216322E-02  0.1014595E+04  0.7818609E-02  0.9292680E-01
        2   -1    0    0  501    0  0.00000000000E+00  0.00000000000E+00  0.14504190290E+04  0.14504190290E+04  0.25500000920E-02 0. -1.
       -2   -1    0    0    0  501  0.00000000000E+00  0.00000000000E+00 -0.17743204829E+03  0.17743204831E+03  0.25500000920E-02 0.  1.
    10030    2    1    2    0    0  0.00000000000E+00  0.00000000000E+00  0.12729869807E+04  0.16278510773E+04  0.10145951295E+04 0.  0.
        2    1    3    3  502    0 -0.20900176916E+03  0.46189285247E+03  0.60761044299E+03  0.79133886364E+03  0.25500000920E-02 0.  1.
       -2    1    3    3    0  502  0.20900176916E+03 -0.46189285247E+03  0.66537653773E+03  0.83651221368E+03  0.25500000920E-02 0. -1.
</event>
<event>
 5   0  0.1245850E-02  0.1017546E+04  0.7818609E-02  0.9289507E-01
        2   -1    0    0  501    0  0.00000000000E+00  0.00000000000E+00  0.49961211536E+03  0.49961211536E+03  0.25500000920E-02 0.  1.
       -2   -1    0    0    0  501  0.00000000000E+00  0.00000000000E+00 -0.51810229225E+03  0.51810229226E+03  0.25500000920E-02 0. -1.
    10030    2    1    2    0    0  0.00000000000E+00  0.00000000000E+00 -0.18490176895E+02  0.10177144076E+04  0.10175464259E+04 0.  0.
        3    1    3    3  502    0 -0.22760738579E+03 -0.40095299450E+02 -0.46257195927E+03  0.51709339853E+03  0.10100000352E+00 0. -1.
       -3    1    3    3    0  502  0.22760738579E+03  0.40095299450E+02  0.44408178238E+03  0.50062100909E+03  0.10100000352E+00 0.  1.
</event>
<event>
 5   0  0.1216322E-02  0.1000922E+04  0.7818609E-02  0.9307534E-01
       -2   -1    0    0    0  501  0.00000000000E+00  0.00000000000E+00  0.20201018572E+03  0.20201018574E+03  0.25500000920E-02 0.  1.
        2   -1    0    0  501    0  0.00000000000E+00  0.00000000000E+00 -0.12398447127E+04  0.12398447127E+04  0.25500000920E-02 0. -1.
    10030    2    1    2    0    0  0.00000000000E+00  0.00000000000E+00 -0.10378345270E+04  0.14418548985E+04  0.10009220963E+04 0.  0.
        2    1    3    3  502    0  0.17790599746E+02  0.36911185415E+02 -0.12374243186E+04  0.12381025342E+04  0.25500000920E-02 0. -1.
       -2    1    3    3    0  502 -0.17790599746E+02 -0.36911185415E+02  0.19958979154E+03  0.20375236426E+03  0.25500000920E-02 0.  1.
</event>
<event>
 5   0  0.1245850E-02  0.9965472E+03  0.7818609E-02  0.9312340E-01
        2   -1    0    0  501    0  0.00000000000E+00  0.00000000000E+00  0.13146869974E+04  0.13146869974E+04  0.25500000920E-02 0.  1.
       -2   -1    0    0    0  501  0.00000000000E+00  0.00000000000E+00 -0.18884845213E+03  0.18884845215E+03  0.25500000920E-02 0. -1.
    10030    2    1    2    0    0  0.00000000000E+00  0.00000000000E+00  0.11258385452E+04  0.15035354495E+04  0.99654724827E+03 0.  0.
        3    1    3    3  502    0 -0.38674638871E+03  0.14300109994E+03  0.14086289466E+03  0.43573437901E+03  0.10100000352E+00 0. -1.
       -3    1    3    3    0  502  0.38674638871E+03 -0.14300109994E+03  0.98497565057E+03  0.10678010705E+04  0.10100000352E+00 0.  1.
</event>
<event>
 5   0  0.1221315E-02  0.1011610E+04  0.7818609E-02  0.9295902E-01
       -2   -1    0    0    0  501  0.00000000000E+00  0.00000000000E+00  0.46492526260E+03  0.46492526261E+03  0.25500000920E-02 0. -1.
        2   -1    0    0  501    0  0.00000000000E+00  0.00000000000E+00 -0.55027900791E+03  0.55027900792E+03  0.25500000920E-02 0.  1.
    10030    2    1    2    0    0  0.00000000000E+00  0.00000000000E+00 -0.85353745309E+02  0.10152042705E+04  0.10116098304E+04 0.  0.
        5    1    3    3  502    0  0.75200340163E+02 -0.40738272850E+03  0.24852781282E+03  0.48311897332E+03  0.46999998093E+01 0. -1.
       -5    1    3    3    0  502 -0.75200340163E+02  0.40738272850E+03 -0.33388155813E+03  0.53208529720E+03  0.46999998093E+01 0.  1.
</event>
<event>
 5   0  0.1191822E-02  0.1008284E+04  0.7818609E-02  0.9299506E-01
       -2   -1    0    0    0  501  0.00000000000E+00  0.00000000000E+00  0.32284957946E+03  0.32284957947E+03  0.25500000920E-02 0.  1.
        2   -1    0    0  501    0  0.00000000000E+00  0.00000000000E+00 -0.78723650789E+03  0.78723650789E+03  0.25500000920E-02 0. -1.
    10030    2    1    2    0    0  0.00000000000E+00  0.00000000000E+00 -0.46438692843E+03  0.11100860874E+04  0.10082836417E+04 0.  0.
        4    1    3    3  502    0  0.29085798024E+03  0.38606253854E+03 -0.74502548633E+02  0.48907554732E+03  0.12699999809E+01 0.  1.
       -4    1    3    3    0  502 -0.29085798024E+03 -0.38606253854E+03 -0.38988437980E+03  0.62101054004E+03  0.12699999809E+01 0. -1.
</event>
<event>
 5   0  0.1191822E-02  0.1036874E+04  0.7818609E-02  0.9269002E-01
       -2   -1    0    0    0  501  0.00000000000E+00  0.00000000000E+00  0.11457031153E+04  0.11457031153E+04  0.25500000920E-02 0.  1.
        2   -1    0    0  501    0  0.00000000000E+00  0.00000000000E+00 -0.23459540032E+03  0.23459540033E+03  0.25500000920E-02 0. -1.
    10030    2    1    2    0    0  0.00000000000E+00  0.00000000000E+00  0.91110771498E+03  0.13802985156E+04  0.10368735333E+04 0.  0.
        4    1    3    3  502    0 -0.12269155459E+03 -0.39373034845E+03  0.87377115104E+03  0.96620621099E+03  0.12699999809E+01 0.  1.
       -4    1    3    3    0  502  0.12269155459E+03  0.39373034845E+03  0.37336563938E+02  0.41409230464E+03  0.12699999809E+01 0. -1.
</event>
<event>
 5   0  0.7073004E-03  0.1000333E+04  0.7818609E-02  0.9308179E-01
       -1   -1    0    0    0  501  0.00000000000E+00  0.00000000000E+00  0.34453428523E+03  0.34453428527E+03  0.50400001928E-02 0.  1.
        1   -1    0    0  501    0  0.00000000000E+00  0.00000000000E+00 -0.72610083138E+03  0.72610083140E+03  0.50400001928E-02 0. -1.
    10030    2    1    2    0    0  0.00000000000E+00  0.00000000000E+00 -0.38156654615E+03  0.10706351167E+04  0.10003332064E+04 0.  0.
        1    1    3    3  502    0  0.22832667938E+02  0.41021258884E+03  0.11451998863E+03  0.42650970281E+03  0.50400001928E-02 0.  1.
       -1    1    3    3    0  502 -0.22832667938E+02 -0.41021258884E+03 -0.49608653478E+03  0.64412541386E+03  0.50400001928E-02 0. -1.
</event>
<event>
 5   0  0.1216322E-02  0.1036062E+04  0.7818609E-02  0.9269853E-01
        2   -1    0    0  501    0  0.00000000000E+00  0.00000000000E+00  0.78962305345E+03  0.78962305345E+03  0.25500000920E-02 0.  1.
       -2   -1    0    0    0  501  0.00000000000E+00  0.00000000000E+00 -0.33985365069E+03  0.33985365070E+03  0.25500000920E-02 0. -1.
    10030    2    1    2    0    0  0.00000000000E+00  0.00000000000E+00  0.44976940276E+03  0.11294767042E+04  0.10360623097E+04 0.  0.
        2    1    3    3  502    0 -0.32937691142E+03 -0.38795143769E+03  0.33035935524E+03  0.60673945922E+03  0.25500000920E-02 0.  1.
       -2    1    3    3    0  502  0.32937691142E+03  0.38795143769E+03  0.11941004752E+03  0.52273724493E+03  0.25500000920E-02 0. -1.
</event>
<event>
 5   0  0.6967681E-03  0.9942296E+03  0.7818609E-02  0.9314896E-01
        1   -1    0    0  501    0  0.00000000000E+00  0.00000000000E+00  0.10784948065E+04  0.10784948065E+04  0.50400001928E-02 0.  1.
       -1   -1    0    0    0  501  0.00000000000E+00  0.00000000000E+00 -0.22913707575E+03  0.22913707580E+03  0.50400001928E-02 0. -1.
    10030    2    1    2    0    0  0.00000000000E+00  0.00000000000E+00  0.84935773074E+03  0.13076318823E+04  0.99422964391E+03 0.  0.
        5    1    3    3  502    0 -0.11426556180E+03 -0.20256932588E+03 -0.15313614195E+03  0.27850263620E+03  0.46999998093E+01 0. -1.
       -5    1    3    3    0  502  0.11426556180E+03  0.20256932588E+03  0.10024938727E+04  0.10291292461E+04  0.46999998093E+01 0.  1.
</event>
<event>
 5   0  0.7241200E-03  0.9818314E+03  0.7818609E-02  0.9328699E-01
       -1   -1    0    0    0  501  0.00000000000E+00  0.00000000000E+00  0.87757087669E+03  0.87757087671E+03  0.50400001928E-02 0.  1.
        1   -1    0    0  501    0  0.00000000000E+00  0.00000000000E+00 -0.27461964442E+03  0.27461964447E+03  0.50400001928E-02 0. -1.
    10030    2    1    2    0    0  0.00000000000E+00  0.00000000000E+00  0.60295123227E+03  0.11521905212E+04  0.98183135445E+03 0.  0.
        4    1    3    3  502    0  0.28565350628E+03 -0.39914964625E+03  0.29109660415E+03  0.57066383414E+03  0.12699999809E+01 0. -1.
       -4    1    3    3    0  502 -0.28565350628E+03  0.39914964625E+03  0.31185462812E+03  0.58152668703E+03  0.12699999809E+01 0.  1.
</event>
<event>
 5   0  0.6967681E-03  0.1002213E+04  0.7818609E-02  0.9306121E-01
        1   -1    0    0  501    0  0.00000000000E+00  0.00000000000E+00  0.13579856656E+04  0.13579856656E+04  0.50400001928E-02 0. -1.
       -1   -1    0    0    0  501  0.00000000000E+00  0.00000000000E+00 -0.18491182162E+03  0.18491182169E+03  0.50400001928E-02 0.  1.
    10030    2    1    2    0    0  0.00000000000E+00  0.00000000000E+00  0.11730738440E+04  0.15428974873E+04  0.10022127583E+04 0.  0.
        5    1    3    3  502    0  0.86798892588E+01  0.92605076401E+02 -0.17147202461E+03  0.19513017674E+03  0.46999998093E+01 0.  1.
       -5    1    3    3    0  502 -0.86798892588E+01 -0.92605076401E+02  0.13445458686E+04  0.13477673105E+04  0.46999998093E+01 0. -1.
</event>
<event>
 5   0  0.1240503E-02  0.1008294E+04  0.7818609E-02  0.9299494E-01
        2   -1    0    0  501    0  0.00000000000E+00  0.00000000000E+00  0.49438435209E+03  0.49438435209E+03  0.25500000920E-02 0. -1.
       -2   -1    0    0    0  501  0.00000000000E+00  0.00000000000E+00 -0.51410286704E+03  0.51410286704E+03  0.25500000920E-02 0.  1.
    10030    2    1    2    0    0  0.00000000000E+00  0.00000000000E+00 -0.19718514951E+02  0.10084872191E+04  0.10082944269E+04 0.  0.
        1    1    3    3  502    0 -0.13662741109E+03  0.20427164397E+03  0.43041857090E+03  0.49563504738E+03  0.50400001928E-02 0. -1.
       -1    1    3    3    0  502  0.13662741109E+03 -0.20427164397E+03 -0.45013708585E+03  0.51285217176E+03  0.50400001928E-02 0.  1.
</event>
<event>
 5   0  0.1245850E-02  0.9705429E+03  0.7818609E-02  0.9341456E-01
        2   -1    0    0  501    0  0.00000000000E+00  0.00000000000E+00  0.13871941125E+04  0.13871941125E+04  0.25500000920E-02 0. -1.
       -2   -1    0    0    0  501  0.00000000000E+00  0.00000000000E+00 -0.16975876981E+03  0.16975876983E+03  0.25500000920E-02 0.  1.
    10030    2    1    2    0    0  0.00000000000E+00  0.00000000000E+00  0.12174353427E+04  0.15569528823E+04  0.97054287085E+03 0.  0.
        3    1    3    3  502    0 -0.63409040851E+02 -0.42157097733E+03  0.23681264839E+03  0.48767103259E+03  0.10100000352E+00 0. -1.
       -3    1    3    3    0  502  0.63409040851E+02  0.42157097733E+03  0.98062269433E+03  0.10692818498E+04  0.10100000352E+00 0.  1.
</event>
<event>
 5   0  0.1221315E-02  0.1041658E+04  0.7818609E-02  0.9263999E-01
       -2   -1    0    0    0  501  0.00000000000E+00  0.00000000000E+00  0.25031575659E+03  0.25031575661E+03  0.25500000920E-02 0.  1.
        2   -1    0    0  501    0  0.00000000000E+00  0.00000000000E+00 -0.10836830244E+04  0.10836830244E+04  0.25500000920E-02 0. -1.
    10030    2    1    2    0    0  0.00000000000E+00  0.00000000000E+00 -0.83336726782E+03  0.13339987810E+04  0.10416581707E+04 0.  0.
        5    1    3    3  502    0 -0.42440153274E+03 -0.30174565894E+03 -0.42768101119E+03  0.67386960238E+03  0.46999998093E+01 0. -1.
       -5    1    3    3    0  502  0.42440153274E+03  0.30174565894E+03 -0.40568625663E+03  0.66012917864E+03  0.46999998093E+01 0.  1.
</event>
<event>
 5   0  0.6967681E-03  0.9812696E+03  0.7818609E-02  0.9329330E-01
       -1   -1    0    0    0  501  0.00000000000E+00  0.00000000000E+00  0.60683220681E+03  0.60683220683E+03  0.50400001928E-02 0.  1.
        1   -1    0    0  501    0  0.00000000000E+00  0.00000000000E+00 -0.39668709290E+03  0.39668709293E+03  0.50400001928E-02 0. -1.
    10030    2    1    2    0    0  0.00000000000E+00  0.00000000000E+00  0.21014511390E+03  0.10035192998E+04  0.98126959399E+03 0.  0.
        5    1    3    3  502    0  0.21066712015E+03  0.30668870668E+03 -0.22196236997E+03  0.43327587285E+03  0.46999998093E+01 0. -1.
       -5    1    3    3    0  502 -0.21066712015E+03 -0.30668870668E+03  0.43210748387E+03  0.57024342691E+03  0.46999998093E+01 0.  1.
</event>
<event>
 5   0  0.1245850E-02  0.9170272E+03  0.7818609E-02  0.9404543E-01
       -2   -1    0    0    0  501  0.00000000000E+00  0.00000000000E+00  0.33170724484E+03  0.33170724485E+03  0.25500000920E-02 0. -1.
        2   -1    0    0  501    0  0.00000000000E+00  0.00000000000E+00 -0.63379595398E+03  0.63379595399E+03  0.25500000920E-02 0.  1.
    10030    2    1    2    0    0  0.00000000000E+00  0.00000000000E+00 -0.30208870915E+03  0.96550319883E+03  0.91702717450E+03 0.  0.
        3    1    3    3  502    0 -0.44897456626E+03  0.35521218111E+02 -0.24158303945E+03  0.51107953709E+03  0.10100000352E+00 0.  1.
       -3    1    3    3    0  502  0.44897456626E+03 -0.35521218111E+02 -0.60505669693E+02  0.45442366174E+03  0.10100000352E+00 0. -1.
</event>
<event>
 5   0  0.1191822E-02  0.9929214E+03  0.7818609E-02  0.9316343E-01
        2   -1    0    0  501    0  0.00000000000E+00  0.00000000000E+00  0.39100422136E+03  0.39100422137E+03  0.25500000920E-02 0.  1.
       -2   -1    0    0    0  501  0.00000000000E+00  0.00000000000E+00 -0.63035956065E+03  0.63035956065E+03  0.25500000920E-02 0. -1.
    10030    2    1    2    0    0  0.00000000000E+00  0.00000000000E+00 -0.23935533928E+03  0.10213637820E+04  0.99292144542E+03 0.  0.
        4    1    3    3  502    0 -0.31426229033E+03  0.29156547152E+03  0.13789560832E+03  0.45031991184E+03  0.12699999809E+01 0.  1.
       -4    1    3    3    0  502  0.31426229033E+03 -0.29156547152E+03 -0.37725094760E+03  0.57104387018E+03  0.12699999809E+01 0. -1.
</event>
<event>
 5   0  0.1221315E-02  0.9990204E+03  0.7818609E-02  0.9309620E-01
       -2   -1    0    0    0  501  0.00000000000E+00  0.00000000000E+00  0.73838898529E+03  0.73838898530E+03  0.25500000920E-02 0.  1.
        2   -1    0    0  501    0  0.00000000000E+00  0.00000000000E+00 -0.33791190394E+03  0.33791190395E+03  0.25500000920E-02 0. -1.
    10030    2    1    2    0    0  0.00000000000E+00  0.00000000000E+00  0.40047708135E+03  0.10763008892E+04  0.99902037592E+03 0.  0.
        5    1    3    3  502    0 -0.73218223982E+02  0.48662934862E+03  0.29240954578E+03  0.57244603564E+03  0.46999998093E+01 0. -1.
       -5    1    3    3    0  502  0.73218223982E+02 -0.48662934862E+03  0.10806753557E+03  0.50385485360E+03  0.46999998093E+01 0.  1.
</event>
<event>
 5   0  0.6967681E-03  0.1040633E+04  0.7818609E-02  0.9265068E-01
        1   -1    0    0  501    0  0.00000000000E+00  0.00000000000E+00  0.93686683908E+03  0.93686683909E+03  0.50400001928E-02 0. -1.
       -1   -1    0    0    0  501  0.00000000000E+00  0.00000000000E+00 -0.28897317562E+03  0.28897317566E+03  0.50400001928E-02 0.  1.
    10030    2    1    2    0    0  0.00000000000E+00  0.00000000000E+00  0.64789366346E+03  0.12258400148E+04  0.10406332412E+04 0.  0.
        5    1    3    3  502    0 -0.21114273020E+03  0.75317268808E+02 -0.22914144437E+03  0.32059606208E+03  0.46999998093E+01 0.  1.
       -5    1    3    3    0  502  0.21114273020E+03 -0.75317268808E+02  0.87703510783E+03  0.90524395268E+03  0.46999998093E+01 0. -1.
</event>
<event>
 5   0  0.1245850E-02  0.7577864E+03  0.7818609E-02  0.9623213E-01
       -2   -1    0    0    0  501  0.00000000000E+00  0.00000000000E+00  0.95211437647E+02  0.95211437681E+02  0.25500000920E-02 0.  1.
        2   -1    0    0  501    0  0.00000000000E+00  0.00000000000E+00 -0.15078025931E+04  0.15078025931E+04  0.25500000920E-02 0. -1.
    10030    2    1    2    0    0  0.00000000000E+00  0.00000000000E+00 -0.14125911555E+04  0.16030140308E+04  0.75778638839E+03 0.  0.
        3    1    3    3  502    0 -0.69576747106E+02  0.35460663457E+03 -0.46535221132E+03  0.58918543753E+03  0.10100000352E+00 0.  1.
       -3    1    3    3    0  502  0.69576747106E+02 -0.35460663457E+03 -0.94723894415E+03  0.10138285933E+04  0.10100000352E+00 0. -1.
</event>
<event>
 5   0  0.1240503E-02  0.1000564E+04  0.7818609E-02  0.9307927E-01
       -2   -1    0    0    0  501  0.00000000000E+00  0.00000000000E+00  0.25216022452E+03  0.25216022453E+03  0.25500000920E-02 0. -1.
        2   -1    0    0  501    0  0.00000000000E+00  0.00000000000E+00 -0.99255101377E+03  0.99255101377E+03  0.25500000920E-02 0.  1.
    10030    2    1    2    0    0  0.00000000000E+00  0.00000000000E+00 -0.74039078925E+03  0.12447112383E+04  0.10005636142E+04 0.  0.
        1    1    3    3  502    0 -0.16007360693E+03 -0.20357186294E+03 -0.90267941559E+03  0.93909274855E+03  0.50400001928E-02 0.  1.
       -1    1    3    3    0  502  0.16007360693E+03  0.20357186294E+03  0.16228862634E+03  0.30561848976E+03  0.50400001928E-02 0. -1.
</event>
<event>
 5   0  0.1191822E-02  0.1001195E+04  0.7818609E-02  0.9307235E-01
       -2   -1    0    0    0  501  0.00000000000E+00  0.00000000000E+00  0.19421713988E+03  0.19421713989E+03  0.25500000920E-02 0. -1.
        2   -1    0    0  501    0  0.00000000000E+00  0.00000000000E+00 -0.12902977532E+04  0.12902977532E+04  0.25500000920E-02 0.  1.
    10030    2    1    2    0    0  0.00000000000E+00  0.00000000000E+00 -0.10960806133E+04  0.14845148931E+04  0.10011951642E+04 0.  0.
        4    1    3    3  502    0 -0.20118494296E+03 -0.16473711036E+03 -0.11823053080E+04  0.12105623284E+04  0.12699999809E+01 0.  1.
       -4    1    3    3    0  502  0.20118494296E+03  0.16473711036E+03  0.86224694688E+02  0.27395256465E+03  0.12699999809E+01 0. -1.
</event>
<event>
 5   0  0.1240503E-02  0.9534072E+03  0.7818609E-02  0.9361177E-01
        2   -1    0    0  501    0  0.00000000000E+00  0.00000000000E+00  0.83590501233E+03  0.83590501233E+03  0.25500000920E-02 0. -1.
       -2   -1    0    0    0  501  0.00000000000E+00  0.00000000000E+00 -0.27185660577E+03  0.27185660578E+03  0.25500000920E-02 0.  1.
    10030    2    1    2    0    0  0.00000000000E+00  0.00000000000E+00  0.56404840656E+03  0.11077616181E+04  0.95340715207E+03 0.  0.
        1    1    3    3  502    0 -0.69119375248E+02 -0.33868997007E+03  0.66343457524E+03  0.74808677271E+03  0.50400001928E-02 0. -1.
       -1    1    3    3    0  502  0.69119375248E+02  0.33868997007E+03 -0.99386168680E+02  0.35967484540E+03  0.50400001928E-02 0.  1.
</event>
<event>
 5   0  0.1245850E-02  0.9955718E+03  0.7818609E-02  0.9313415E-01
        2   -1    0    0  501    0  0.00000000000E+00  0.00000000000E+00  0.57339886233E+03  0.57339886233E+03  0.25500000920E-02 0.  1.
       -2   -1    0    0    0  501  0.00000000000E+00  0.00000000000E+00 -0.43214385110E+03  0.43214385111E+03  0.25500000920E-02 0. -1.
    10030    2    1    2    0    0  0.00000000000E+00  0.00000000000E+00  0.14125501123E+03  0.10055427134E+04  0.99557178061E+03 0.  0.
        3    1    3    3  502    0 -0.57728063744E+02 -0.38054551050E+03  0.38945234041E+03  0.54755871882E+03  0.10100000352E+00 0.  1.
       -3    1    3    3    0  502  0.57728063744E+02  0.38054551050E+03 -0.24819732918E+03  0.45798399461E+03  0.10100000352E+00 0. -1.
</event>
<event>
 5   0  0.1216322E-02  0.1003986E+04  0.7818609E-02  0.9304183E-01
        2   -1    0    0  501    0  0.00000000000E+00  0.00000000000E+00  0.97386976965E+03  0.97386976965E+03  0.25500000920E-02 0.  1.
       -2   -1    0    0    0  501  0.00000000000E+00  0.00000000000E+00 -0.25875863746E+03  0.25875863747E+03  0.25500000920E-02 0. -1.
    10030    2    1    2    0    0  0.00000000000E+00  0.00000000000E+00  0.71511113219E+03  0.12326284071E+04  0.10039864833E+04 0.  0.
        2    1    3    3  502    0 -0.22732604097E+02  0.41772017545E+03  0.69821648043E+03  0.81394911992E+03  0.25500000920E-02 0.  1.
       -2    1    3    3    0  502  0.22732604097E+02 -0.41772017545E+03  0.16894651760E+02  0.41867928720E+03  0.25500000920E-02 0. -1.
</event>
<event>
 5   0  0.1240503E-02  0.1015071E+04  0.7818609E-02  0.9292167E-01
       -2   -1    0    0    0  501  0.00000000000E+00  0.00000000000E+00  0.13997182190E+03  0.13997182192E+03  0.25500000920E-02 0. -1.
        2   -1    0    0  501    0  0.00000000000E+00  0.00000000000E+00 -0.18403167957E+04  0.18403167957E+04  0.25500000920E-02 0.  1.
    10030    2    1    2    0    0  0.00000000000E+00  0.00000000000E+00 -0.17003449738E+04  0.19802886176E+04  0.10150714158E+04 0.  0.
        1    1    3    3  502    0  0.25242800059E+03 -0.13346786894E+03 -0.16687520893E+04  0.16930053465E+04  0.50400001928E-02 0.  1.
       -1    1    3    3    0  502 -0.25242800059E+03  0.13346786894E+03 -0.31592884495E+02  0.28728327118E+03  0.50400001928E-02 0. -1.
</event>
<event>
 5   0  0.1216322E-02  0.1021755E+04  0.7818609E-02  0.9285001E-01
        2   -1    0    0  501    0  0.00000000000E+00  0.00000000000E+00  0.57734221344E+03  0.57734221344E+03  0.25500000920E-02 0. -1.
       -2   -1    0    0    0  501  0.00000000000E+00  0.00000000000E+00 -0.45206450969E+03  0.45206450970E+03  0.25500000920E-02 0.  1.
    10030    2    1    2    0    0  0.00000000000E+00  0.00000000000E+00  0.12527770374E+03  0.10294067231E+04  0.10217552048E+04 0.  0.
        2    1    3    3  502    0  0.42969982682E+03  0.87949269936E+02  0.32655261983E+03  0.54682138654E+03  0.25500000920E-02 0. -1.
       -2    1    3    3    0  502 -0.42969982682E+03 -0.87949269936E+02 -0.20127491609E+03  0.48258533660E+03  0.25500000920E-02 0.  1.
</event>
<event>
 5   0  0.7073004E-03  0.9979021E+03  0.7818609E-02  0.9310849E-01
       -1   -1    0    0    0  501  0.00000000000E+00  0.00000000000E+00  0.18564542072E+03  0.18564542079E+03  0.50400001928E-02 0.  1.
        1   -1    0    0  501    0  0.00000000000E+00  0.00000000000E+00 -0.13410088632E+04  0.13410088632E+04  0.50400001928E-02 0. -1.
    10030    2    1    2    0    0  0.00000000000E+00  0.00000000000E+00 -0.11553634424E+04  0.15266542840E+04  0.99790210872E+03 0.  0.
        1    1    3    3  502    0  0.44268319833E+03 -0.14652697551E+03 -0.84926415313E+03  0.96885921085E+03  0.50400001928E-02 0. -1.
       -1    1    3    3    0  502 -0.44268319833E+03  0.14652697551E+03 -0.30609928932E+03  0.55779507311E+03  0.50400001928E-02 0.  1.
</event>
<event>
 5   0  0.7461157E-03  0.9925487E+03  0.7818609E-02  0.9316755E-01
       -1   -1    0    0    0  501  0.00000000000E+00  0.00000000000E+00  0.74397264639E+03  0.74397264641E+03  0.50400001928E-02 0. -1.
        1   -1    0    0  501    0  0.00000000000E+00  0.00000000000E+00 -0.33104470738E+03  0.33104470742E+03  0.50400001928E-02 0.  1.
    10030    2    1    2    0    0  0.00000000000E+00  0.00000000000E+00  0.41292793902E+03  0.10750173538E+04  0.99254865282E+03 0.  0.
        2    1    3    3  502    0  0.42955736586E+03  0.23176433239E+03  0.30366451314E+03  0.57484465108E+03  0.25500000920E-02 0.  1.
       -2    1    3    3    0  502 -0.42955736586E+03 -0.23176433239E+03  0.10926342588E+03  0.50017270275E+03  0.25500000920E-02 0. -1.
</event>
<event>
 5   0  0.7241200E-03  0.1003046E+04  0.7818609E-02  0.9305211E-01
       -1   -1    0    0    0  501  0.00000000000E+00  0.00000000000E+00  0.38607141325E+03  0.38607141329E+03  0.50400001928E-02 0.  1.
        1   -1    0    0  501    0  0.00000000000E+00  0.00000000000E+00 -0.65149894790E+03  0.65149894792E+03  0.50400001928E-02 0. -1.
    10030    2    1    2    0    0  0.00000000000E+00  0.00000000000E+00 -0.26542753464E+03  0.10375703612E+04  0.10030456013E+04 0.  0.
        4    1    3    3  502    0 -0.21684064416E+03  0.38900432898E+03  0.10583000378E+03  0.45776176722E+03  0.12699999809E+01 0.  1.
       -4    1    3    3    0  502  0.21684064416E+03 -0.38900432898E+03 -0.37125753842E+03  0.57980859399E+03  0.12699999809E+01 0. -1.
</event>
<event>
 5   0  0.6967681E-03  0.1038394E+04  0.7818609E-02  0.9267409E-01
       -1   -1    0    0    0  501  0.00000000000E+00  0.00000000000E+00  0.50911662329E+03  0.50911662332E+03  0.50400001928E-02 0.  1.
        1   -1    0    0  501    0  0.00000000000E+00  0.00000000000E+00 -0.52947702279E+03  0.52947702281E+03  0.50400001928E-02 0. -1.
    10030    2    1    2    0    0  0.00000000000E+00  0.00000000000E+00 -0.20360399497E+02  0.10385936461E+04  0.10383940562E+04 0.  0.
        5    1    3    3  502    0  0.17908707660E+02  0.28720265631E+03 -0.44239446251E+03  0.52776987226E+03  0.46999998093E+01 0. -1.
       -5    1    3    3    0  502 -0.17908707660E+02 -0.28720265631E+03  0.42203406302E+03  0.51082377387E+03  0.46999998093E+01 0.  1.
</event>
<event>
 5   0  0.1245850E-02  0.1013267E+04  0.7818609E-02  0.9294112E-01
        2   -1    0    0  501    0  0.00000000000E+00  0.00000000000E+00  0.11706182156E+04  0.11706182156E+04  0.25500000920E-02 0.  1.
       -2   -1    0    0    0  501  0.00000000000E+00  0.00000000000E+00 -0.21926667642E+03  0.21926667644E+03  0.25500000920E-02 0. -1.
    10030    2    1    2    0    0  0.00000000000E+00  0.00000000000E+00  0.95135153921E+03  0.13898848921E+04  0.10132671228E+04 0.  0.
        3    1    3    3  502    0 -0.13275916081E+03 -0.22293747958E+03 -0.12120720282E+03  0.28638664563E+03  0.10100000352E+00 0. -1.
       -3    1    3    3    0  502  0.13275916081E+03  0.22293747958E+03  0.10725587420E+04  0.11034982464E+04  0.10100000352E+00 0.  1.
</event>
<event>
 5   0  0.4782125E-03  0.9980432E+03  0.7818609E-02  0.9310694E-01
        3   -1    0    0  501    0  0.00000000000E+00  0.00000000000E+00  0.38955806261E+03  0.38955807570E+03  0.10100000352E+00 0. -1.
       -3   -1    0    0    0  501  0.00000000000E+00  0.00000000000E+00 -0.63924376145E+03  0.63924376943E+03  0.10100000352E+00 0.  1.
    10030    2    1    2    0    0  0.00000000000E+00  0.00000000000E+00 -0.24968569884E+03  0.10288018451E+04  0.99804322970E+03 0.  0.
        4    1    3    3  502    0  0.32142391950E+03 -0.28922487044E+02  0.26750680982E+03  0.41917937984E+03  0.12699999809E+01 0. -1.
       -4    1    3    3    0  502 -0.32142391950E+03  0.28922487044E+02 -0.51719250866E+03  0.60962246529E+03  0.12699999809E+01 0.  1.
</event>
<event>
 5   0  0.1245850E-02  0.9976740E+03  0.7818609E-02  0.9311100E-01
        2   -1    0    0  501    0  0.00000000000E+00  0.00000000000E+00  0.29108101187E+03  0.29108101188E+03  0.25500000920E-02 0.  1.
       -2   -1    0    0    0  501  0.00000000000E+00  0.00000000000E+00 -0.85487663000E+03  0.85487663000E+03  0.25500000920E-02 0. -1.
    10030    2    1    2    0    0  0.00000000000E+00  0.00000000000E+00 -0.56379561813E+03  0.11459576419E+04  0.99767400385E+03 0.  0.
        3    1    3    3  502    0  0.41197861171E+03  0.17129738072E+03 -0.53814560022E+03  0.69904925891E+03  0.10100000352E+00 0. -1.
       -3    1    3    3    0  502 -0.41197861171E+03 -0.17129738072E+03 -0.25650017915E+02  0.44690838297E+03  0.10100000352E+00 0.  1.
</event>
<event>
 5   0  0.7224879E-03  0.1001314E+04  0.7818609E-02  0.9307105E-01
        1   -1    0    0  501    0  0.00000000000E+00  0.00000000000E+00  0.25973047334E+03  0.25973047339E+03  0.50400001928E-02 0. -1.
       -1   -1    0    0    0  501  0.00000000000E+00  0.00000000000E+00 -0.96506745535E+03  0.96506745537E+03  0.50400001928E-02 0.  1.
    10030    2    1    2    0    0  0.00000000000E+00  0.00000000000E+00 -0.70533698202E+03  0.12247979288E+04  0.10013139908E+04 0.  0.
        3    1    3    3  502    0 -0.41711796040E+03 -0.13814783594E+03 -0.59140449903E+02  0.44336195199E+03  0.10100000352E+00 0. -1.
       -3    1    3    3    0  502  0.41711796040E+03  0.13814783594E+03 -0.64619653211E+03  0.78143597676E+03  0.10100000352E+00 0.  1.
</event>
<event>
 5   0  0.7241200E-03  0.1033285E+04  0.7818609E-02  0.9272774E-01
        1   -1    0    0  501    0  0.00000000000E+00  0.00000000000E+00  0.71680235726E+03  0.71680235727E+03  0.50400001928E-02 0.  1.
       -1   -1    0    0    0  501  0.00000000000E+00  0.00000000000E+00 -0.37237516770E+03  0.37237516773E+03  0.50400001928E-02 0. -1.
    10030    2    1    2    0    0  0.00000000000E+00  0.00000000000E+00  0.34442718955E+03  0.10891775250E+04  0.10332848552E+04 0.  0.
        4    1    3    3  502    0 -0.22738380990E+03  0.46157574634E+03  0.22122852601E+03  0.56008860034E+03  0.12699999809E+01 0.  1.
       -4    1    3    3    0  502  0.22738380990E+03 -0.46157574634E+03  0.12319866354E+03  0.52908892467E+03  0.12699999809E+01 0. -1.
</event>
<event>
 5   0  0.6967681E-03  0.9404456E+03  0.7818609E-02  0.9376388E-01
       -1   -1    0    0    0  501  0.00000000000E+00  0.00000000000E+00  0.18885237924E+03  0.18885237931E+03  0.50400001928E-02 0.  1.
        1   -1    0    0  501    0  0.00000000000E+00  0.00000000000E+00 -0.11708058279E+04  0.11708058279E+04  0.50400001928E-02 0. -1.
    10030    2    1    2    0    0  0.00000000000E+00  0.00000000000E+00 -0.98195344863E+03  0.13596582072E+04  0.94044556732E+03 0.  0.
        5    1    3    3  502    0  0.36841979941E+03  0.25787226438E+03 -0.29244848760E+03  0.53645080038E+03  0.46999998093E+01 0.  1.
       -5    1    3    3    0  502 -0.36841979941E+03 -0.25787226438E+03 -0.68950496103E+03  0.82320740680E+03  0.46999998093E+01 0. -1.
</event>
<event>
 5   0  0.1191822E-02  0.8371626E+03  0.7818609E-02  0.9507731E-01
       -2   -1    0    0    0  501  0.00000000000E+00  0.00000000000E+00  0.15180657933E+03  0.15180657935E+03  0.25500000920E-02 0.  1.
        2   -1    0    0  501    0  0.00000000000E+00  0.00000000000E+00 -0.11541680404E+04  0.11541680404E+04  0.25500000920E-02 0. -1.
    10030    2    1    2    0    0  0.00000000000E+00  0.00000000000E+00 -0.10023614610E+04  0.13059746197E+04  0.83716259400E+03 0.  0.
        4    1    3    3  502    0  0.91176625882E+02 -0.17795379695E+03  0.72484023349E+02  0.21268821664E+03  0.12699999809E+01 0.  1.
       -4    1    3    3    0  502 -0.91176625882E+02  0.17795379695E+03 -0.10748454844E+04  0.10932864031E+04  0.12699999809E+01 0. -1.
</event>
<event>
 5   0  0.1191822E-02  0.1012304E+04  0.7818609E-02  0.9295152E-01
        2   -1    0    0  501    0  0.00000000000E+00  0.00000000000E+00  0.80762294051E+03  0.80762294052E+03  0.25500000920E-02 0. -1.
       -2   -1    0    0    0  501  0.00000000000E+00  0.00000000000E+00 -0.31721453870E+03  0.31721453871E+03  0.25500000920E-02 0.  1.
    10030    2    1    2    0    0  0.00000000000E+00  0.00000000000E+00  0.49040840182E+03  0.11248374792E+04  0.10123037855E+04 0.  0.
        4    1    3    3  502    0 -0.22848633285E+03 -0.16971813906E+03  0.71027443475E+03  0.76518078686E+03  0.12699999809E+01 0. -1.
       -4    1    3    3    0  502  0.22848633285E+03  0.16971813906E+03 -0.21986603293E+03  0.35965669236E+03  0.12699999809E+01 0.  1.
</event>
<event>
 5   0  0.1245850E-02  0.1000451E+04  0.7818609E-02  0.9308050E-01
        2   -1    0    0  501    0  0.00000000000E+00  0.00000000000E+00  0.19729584582E+03  0.19729584584E+03  0.25500000920E-02 0.  1.
       -2   -1    0    0    0  501  0.00000000000E+00  0.00000000000E+00 -0.12682756491E+04  0.12682756491E+04  0.25500000920E-02 0. -1.
    10030    2    1    2    0    0  0.00000000000E+00  0.00000000000E+00 -0.10709798032E+04  0.14655714949E+04  0.10004509322E+04 0.  0.
        3    1    3    3  502    0  0.22214571246E+03  0.36911318396E+03 -0.16306746065E+03  0.46063463511E+03  0.10100000352E+00 0.  1.
       -3    1    3    3    0  502 -0.22214571246E+03 -0.36911318396E+03 -0.90791234259E+03  0.10049368598E+04  0.10100000352E+00 0. -1.
</event>
<event>
 5   0  0.7073004E-03  0.1084729E+04  0.7818609E-02  0.9220205E-01
       -1   -1    0    0    0  501  0.00000000000E+00  0.00000000000E+00  0.71743315725E+03  0.71743315727E+03  0.50400001928E-02 0. -1.
        1   -1    0    0  501    0  0.00000000000E+00  0.00000000000E+00 -0.41001620505E+03  0.41001620508E+03  0.50400001928E-02 0.  1.
    10030    2    1    2    0    0  0.00000000000E+00  0.00000000000E+00  0.30741695220E+03  0.11274493623E+04  0.10847289441E+04 0.  0.
        1    1    3    3  502    0  0.27109590102E+03 -0.25967108574E+03  0.56058053268E+03  0.67466480119E+03  0.50400001928E-02 0. -1.
       -1    1    3    3    0  502 -0.27109590102E+03  0.25967108574E+03 -0.25316358048E+03  0.45278456116E+03  0.50400001928E-02 0.  1.
</event>
<event>
 5   0  0.1191822E-02  0.9855403E+03  0.7818609E-02  0.9324548E-01
        2   -1    0    0  501    0  0.00000000000E+00  0.00000000000E+00  0.13493873816E+04  0.13493873816E+04  0.25500000920E-02 0.  1.
       -2   -1    0    0    0  501  0.00000000000E+00  0.00000000000E+00 -0.17995011264E+03  0.17995011266E+03  0.25500000920E-02 0. -1.
    10030    2    1    2    0    0  0.00000000000E+00  0.00000000000E+00  0.11694372690E+04  0.15293374943E+04  0.98554028095E+03 0.  0.
        4    1    3    3  502    0 -0.24352729044E+03 -0.34571865245E+03  0.19216577427E+03  0.46449566795E+03  0.12699999809E+01 0.  1.
       -4    1    3    3    0  502  0.24352729044E+03  0.34571865245E+03  0.97727149474E+03  0.10648418264E+04  0.12699999809E+01 0. -1.
</event>
<event>
 5   0  0.7241200E-03  0.1096811E+04  0.7818609E-02  0.9208306E-01
        1   -1    0    0  501    0  0.00000000000E+00  0.00000000000E+00  0.14903175098E+04  0.14903175098E+04  0.50400001928E-02 0.  1.
       -1   -1    0    0    0  501  0.00000000000E+00  0.00000000000E+00 -0.20180155586E+03  0.20180155593E+03  0.50400001928E-02 0. -1.
    10030    2    1    2    0    0  0.00000000000E+00  0.00000000000E+00  0.12885159539E+04  0.16921190657E+04  0.10968106350E+04 0.  0.
        4    1    3    3  502    0 -0.17690126417E+03 -0.19077185049E+03 -0.10052894241E+03  0.27891869311E+03  0.12699999809E+01 0. -1.
       -4    1    3    3    0  502  0.17690126417E+03  0.19077185049E+03  0.13890448963E+04  0.14132003726E+04  0.12699999809E+01 0.  1.
</event>
<event>
 5   0  0.1240503E-02  0.1012848E+04  0.7818609E-02  0.9294565E-01
        2   -1    0    0  501    0  0.00000000000E+00  0.00000000000E+00  0.87939159894E+03  0.87939159895E+03  0.25500000920E-02 0.  1.
       -2   -1    0    0    0  501  0.00000000000E+00  0.00000000000E+00 -0.29163931371E+03  0.29163931372E+03  0.25500000920E-02 0. -1.
    10030    2    1    2    0    0  0.00000000000E+00  0.00000000000E+00  0.58775228523E+03  0.11710309127E+04  0.10128477919E+04 0.  0.
        1    1    3    3  502    0  0.38943006556E+03  0.22213453086E+03  0.56616895342E+03  0.72218197817E+03  0.50400001928E-02 0.  1.
       -1    1    3    3    0  502 -0.38943006556E+03 -0.22213453086E+03  0.21583331816E+02  0.44884893450E+03  0.50400001928E-02 0. -1.
</event>
<event>
 5   0  0.1221315E-02  0.1015923E+04  0.7818609E-02  0.9291251E-01
       -2   -1    0    0    0  501  0.00000000000E+00  0.00000000000E+00  0.29466809329E+03  0.29466809330E+03  0.25500000920E-02 0.  1.
        2   -1    0    0  501    0  0.00000000000E+00  0.00000000000E+00 -0.87564521333E+03  0.87564521333E+03  0.25500000920E-02 0. -1.
    10030    2    1    2    0    0  0.00000000000E+00  0.00000000000E+00 -0.58097712003E+03  0.11703133066E+04  0.10159226455E+04 0.  0.
        5    1    3    3  502    0 -0.12791539986E+03 -0.40579853988E+03 -0.61008068495E+03  0.74381135824E+03  0.46999998093E+01 0. -1.
       -5    1    3    3    0  502  0.12791539986E+03  0.40579853988E+03  0.29103564918E+02  0.42650194839E+03  0.46999998093E+01 0.  1.
</event>
<event>
 5   0  0.7241200E-03  0.8326225E+03  0.7818609E-02  0.9513962E-01
       -1   -1    0    0    0  501  0.00000000000E+00  0.00000000000E+00  0.46275944736E+03  0.46275944739E+03  0.50400001928E-02 0.  1.
        1   -1    0    0  501    0  0.00000000000E+00  0.00000000000E+00 -0.37452520507E+03  0.37452520511E+03  0.50400001928E-02 0. -1.
    10030    2    1    2    0    0  0.00000000000E+00  0.00000000000E+00  0.88234242287E+02  0.83728465249E+03  0.83262254821E+03 0.  0.
        4    1    3    3  502    0 -0.16421464429E+01  0.36357410582E+03 -0.15981047573E+03  0.39715214732E+03  0.12699999809E+01 0. -1.
       -4    1    3    3    0  502  0.16421464429E+01 -0.36357410582E+03  0.24804471802E+03  0.44013250517E+03  0.12699999809E+01 0.  1.
</event>
<event>
 5   0  0.7073004E-03  0.7964142E+03  0.7818609E-02  0.9565222E-01
        1   -1    0    0  501    0  0.00000000000E+00  0.00000000000E+00  0.63802077046E+03  0.63802077048E+03  0.50400001928E-02 0. -1.
       -1   -1    0    0    0  501  0.00000000000E+00  0.00000000000E+00 -0.24853251148E+03  0.24853251153E+03  0.50400001928E-02 0.  1.
    10030    2    1    2    0    0  0.00000000000E+00  0.00000000000E+00  0.38948825898E+03  0.88655328201E+03  0.79641422511E+03 0.  0.
        1    1    3    3  502    0 -0.58617357013E+02 -0.39265108477E+03  0.22919947791E+03  0.45841386280E+03  0.50400001928E-02 0.  1.
       -1    1    3    3    0  502  0.58617357013E+02  0.39265108477E+03  0.16028878107E+03  0.42813941920E+03  0.50400001928E-02 0. -1.
</event>
<event>
 5   0  0.7241200E-03  0.9854426E+03  0.7818609E-02  0.9324657E-01
       -1   -1    0    0    0  501  0.00000000000E+00  0.00000000000E+00  0.41301133767E+03  0.41301133770E+03  0.50400001928E-02 0. -1.
        1   -1    0    0  501    0  0.00000000000E+00  0.00000000000E+00 -0.58781499855E+03  0.58781499858E+03  0.50400001928E-02 0.  1.
    10030    2    1    2    0    0  0.00000000000E+00  0.00000000000E+00 -0.17480366088E+03  0.10008263363E+04  0.98544255821E+03 0.  0.
        4    1    3    3  502    0  0.51832966268E+02  0.17892060357E+03  0.37586979401E+03  0.41949845496E+03  0.12699999809E+01 0. -1.
       -4    1    3    3    0  502 -0.51832966268E+02 -0.17892060357E+03 -0.55067345489E+03  0.58132788131E+03  0.12699999809E+01 0.  1.
</event>
<event>
 5   0  0.1191822E-02  0.1001810E+04  0.7818609E-02  0.9306562E-01
        2   -1    0    0  501    0  0.00000000000E+00  0.00000000000E+00  0.17237848728E+04  0.17237848728E+04  0.25500000920E-02 0.  1.
       -2   -1    0    0    0  501  0.00000000000E+00  0.00000000000E+00 -0.14555506950E+03  0.14555506952E+03  0.25500000920E-02 0. -1.
    10030    2    1    2    0    0  0.00000000000E+00  0.00000000000E+00  0.15782298033E+04  0.18693399424E+04  0.10018096166E+04 0.  0.
        4    1    3    3  502    0  0.41545768967E+03 -0.54188524639E+02  0.13013635401E+04  0.13671467238E+04  0.12699999809E+01 0.  1.
       -4    1    3    3    0  502 -0.41545768967E+03  0.54188524639E+02  0.27686626324E+03  0.50219321852E+03  0.12699999809E+01 0. -1.
</event>
<event>
 5   0  0.7073004E-03  0.9912283E+03  0.7818609E-02  0.9318218E-01
       -1   -1    0    0    0  501  0.00000000000E+00  0.00000000000E+00  0.28783953219E+03  0.28783953223E+03  0.50400001928E-02 0.  1.
        1   -1    0    0  501    0  0.00000000000E+00  0.00000000000E+00 -0.85336915217E+03  0.85336915219E+03  0.50400001928E-02 0. -1.
    10030    2    1    2    0    0  0.00000000000E+00  0.00000000000E+00 -0.56552961998E+03  0.11412086844E+04  0.99122828365E+03 0.  0.
        1    1    3    3  502    0  0.19834311260E+03  0.10770524733E+03  0.22523846714E+03  0.31886169059E+03  0.50400001928E-02 0.  1.
       -1    1    3    3    0  502 -0.19834311260E+03 -0.10770524733E+03 -0.79076808713E+03  0.82234699383E+03  0.50400001928E-02 0. -1.
</event>
<event>
 5   0  0.1240503E-02  0.1014825E+04  0.7818609E-02  0.9292432E-01
       -2   -1    0    0    0  501  0.00000000000E+00  0.00000000000E+00  0.27574229750E+03  0.27574229751E+03  0.25500000920E-02 0.  1.
        2   -1    0    0  501    0  0.00000000000E+00  0.00000000000E+00 -0.93372578737E+03  0.93372578737E+03  0.25500000920E-02 0. -1.
    10030    2    1    2    0    0  0.00000000000E+00  0.00000000000E+00 -0.65798348987E+03  0.12094680849E+04  0.10148254901E+04 0.  0.
        1    1    3    3  502    0 -0.49270721302E+03 -0.98900035886E+02 -0.41263939223E+03  0.65024063461E+03  0.50400001928E-02 0. -1.
       -1    1    3    3    0  502  0.49270721302E+03  0.98900035886E+02 -0.24534409764E+03  0.55922745026E+03  0.50400001928E-02 0.  1.
</event>
<event>
 5   0  0.4782125E-03  0.8997046E+03  0.7818609E-02  0.9425951E-01
       -3   -1    0    0    0  501  0.00000000000E+00  0.00000000000E+00  0.43858642295E+03  0.43858643458E+03  0.10100000352E+00 0. -1.
        3   -1    0    0  501    0  0.00000000000E+00  0.00000000000E+00 -0.46140758583E+03  0.46140759689E+03  0.10100000352E+00 0.  1.
    10030    2    1    2    0    0  0.00000000000E+00  0.00000000000E+00 -0.22821162880E+02  0.89999403147E+03  0.89970464665E+03 0.  0.
        2    1    3    3  502    0 -0.28126666572E+02 -0.11100503245E+02 -0.46038986309E+03  0.46138179048E+03  0.25500000920E-02 0.  1.
       -2    1    3    3    0  502  0.28126666572E+02  0.11100503245E+02  0.43756870021E+03  0.43861224100E+03  0.25500000920E-02 0. -1.
</event>
<event>
 5   0  0.6967681E-03  0.9977701E+03  0.7818609E-02  0.9310994E-01
        1   -1    0    0  501    0  0.00000000000E+00  0.00000000000E+00  0.17054596130E+04  0.17054596130E+04  0.50400001928E-02 0.  1.
       -1   -1    0    0    0  501  0.00000000000E+00  0.00000000000E+00 -0.14593502894E+03  0.14593502902E+03  0.50400001928E-02 0. -1.
    10030    2    1    2    0    0  0.00000000000E+00  0.00000000000E+00  0.15595245841E+04  0.18513946420E+04  0.99777010993E+03 0.  0.
        5    1    3    3  502    0  0.31737324568E+03  0.27616774009E+03  0.28232108078E+03  0.50667709677E+03  0.46999998093E+01 0. -1.
       -5    1    3    3    0  502 -0.31737324568E+03 -0.27616774009E+03  0.12772035033E+04  0.13447175453E+04  0.46999998093E+01 0.  1.
</event>
<event>
 5   0  0.1245850E-02  0.9658545E+03  0.7818609E-02  0.9346809E-01
       -2   -1    0    0    0  501  0.00000000000E+00  0.00000000000E+00  0.14138906079E+03  0.14138906081E+03  0.25500000920E-02 0.  1.
        2   -1    0    0  501    0  0.00000000000E+00  0.00000000000E+00 -0.16494822667E+04  0.16494822667E+04  0.25500000920E-02 0. -1.
    10030    2    1    2    0    0  0.00000000000E+00  0.00000000000E+00 -0.15080932059E+04  0.17908713275E+04  0.96585454080E+03 0.  0.
        3    1    3    3  502    0 -0.22982933328E+03  0.80495684975E+02 -0.15273047418E+04  0.15465965415E+04  0.10100000352E+00 0. -1.
       -3    1    3    3    0  502  0.22982933328E+03 -0.80495684975E+02  0.19211535928E+02  0.24427478595E+03  0.10100000352E+00 0.  1.
</event>
<event>
 5   0  0.7073004E-03  0.9867131E+03  0.7818609E-02  0.9323239E-01
        1   -1    0    0  501    0  0.00000000000E+00  0.00000000000E+00  0.21794437409E+03  0.21794437414E+03  0.50400001928E-02 0. -1.
       -1   -1    0    0    0  501  0.00000000000E+00  0.00000000000E+00 -0.11168019679E+04  0.11168019679E+04  0.50400001928E-02 0.  1.
    10030    2    1    2    0    0  0.00000000000E+00  0.00000000000E+00 -0.89885759381E+03  0.13347463421E+04  0.98671314153E+03 0.  0.
        1    1    3    3  502    0 -0.39594935730E+03 -0.23710107467E+03 -0.68531415777E+03  0.82622533732E+03  0.50400001928E-02 0.  1.
       -1    1    3    3    0  502  0.39594935730E+03  0.23710107467E+03 -0.21354343604E+03  0.50852100474E+03  0.50400001928E-02 0. -1.
</event>
<event>
 5   0  0.6967681E-03  0.9950940E+03  0.7818609E-02  0.9313942E-01
        1   -1    0    0  501    0  0.00000000000E+00  0.00000000000E+00  0.11016433600E+04  0.11016433601E+04  0.50400001928E-02 0. -1.
       -1   -1    0    0    0  501  0.00000000000E+00  0.00000000000E+00 -0.22471248830E+03  0.22471248836E+03  0.50400001928E-02 0.  1.
    10030    2    1    2    0    0  0.00000000000E+00  0.00000000000E+00  0.87693087174E+03  0.13263558484E+04  0.99509400702E+03 0.  0.
        5    1    3    3  502    0  0.42605948644E+02  0.40117698037E+03  0.50383043297E+02  0.40659411886E+03  0.46999998093E+01 0.  1.
       -5    1    3    3    0  502 -0.42605948644E+02 -0.40117698037E+03  0.82654782844E+03  0.91976172955E+03  0.46999998093E+01 0. -1.
</event>
<event>
 5   0  0.4782125E-03  0.1011858E+04  0.7818609E-02  0.9295634E-01
       -3   -1    0    0    0  501  0.00000000000E+00  0.00000000000E+00  0.41152737077E+03  0.41152738316E+03  0.10100000352E+00 0. -1.
        3   -1    0    0  501    0  0.00000000000E+00  0.00000000000E+00 -0.62198543798E+03  0.62198544618E+03  0.10100000352E+00 0.  1.
    10030    2    1    2    0    0  0.00000000000E+00  0.00000000000E+00 -0.21045806721E+03  0.10335128293E+04  0.10118577817E+04 0.  0.
        1    1    3    3  502    0 -0.36137480686E+02 -0.40158434859E+03  0.20690580857E+03  0.45319523407E+03  0.50400001928E-02 0. -1.
       -1    1    3    3    0  502  0.36137480686E+02  0.40158434859E+03 -0.41736387578E+03  0.58031759527E+03  0.50400001928E-02 0.  1.
</event>
<event>
 5   0  0.1221315E-02  0.9877804E+03  0.7818609E-02  0.9322049E-01
       -2   -1    0    0    0  501  0.00000000000E+00  0.00000000000E+00  0.15344278690E+03  0.15344278692E+03  0.25500000920E-02 0.  1.
        2   -1    0    0  501    0  0.00000000000E+00  0.00000000000E+00 -0.15896969265E+04  0.15896969265E+04  0.25500000920E-02 0. -1.
    10030    2    1    2    0    0  0.00000000000E+00  0.00000000000E+00 -0.14362541396E+04  0.17431397134E+04  0.98778039410E+03 0.  0.
        5    1    3    3  502    0 -0.11810965996E+02 -0.75791499386E+02  0.14282697024E+03  0.16218965356E+03  0.46999998093E+01 0.  1.
       -5    1    3    3    0  502  0.11810965996E+02  0.75791499386E+02 -0.15790811098E+04  0.15809500599E+04  0.46999998093E+01 0. -1.
</event>
<event>
 5   0  0.7073004E-03  0.9871666E+03  0.7818609E-02  0.9322733E-01
        1   -1    0    0  501    0  0.00000000000E+00  0.00000000000E+00  0.79570769518E+03  0.79570769520E+03  0.50400001928E-02 0.  1.
       -1   -1    0    0    0  501  0.00000000000E+00  0.00000000000E+00 -0.30617332629E+03  0.30617332633E+03  0.50400001928E-02 0. -1.
    10030    2    1    2    0    0  0.00000000000E+00  0.00000000000E+00  0.48953436890E+03  0.11018810215E+04  0.98716659550E+03 0.  0.
        1    1    3    3  502    0  0.16016381064E+03 -0.40139855827E+02  0.76396583965E+03  0.78160569243E+03  0.50400001928E-02 0.  1.
       -1    1    3    3    0  502 -0.16016381064E+03  0.40139855827E+02 -0.27443147075E+03  0.32027532910E+03  0.50400001928E-02 0. -1.
</event>
<event>
 5   0  0.6967681E-03  0.9963428E+03  0.7818609E-02  0.9312565E-01
       -1   -1    0    0    0  501  0.00000000000E+00  0.00000000000E+00  0.11195545921E+04  0.11195545921E+04  0.50400001928E-02 0. -1.
        1   -1    0    0  501    0  0.00000000000E+00  0.00000000000E+00 -0.22167273417E+03  0.22167273422E+03  0.50400001928E-02 0.  1.
    10030    2    1    2    0    0  0.00000000000E+00  0.00000000000E+00  0.89788185791E+03  0.13412273263E+04  0.99634276736E+03 0.  0.
        5    1    3    3  502    0  0.50515285279E+02 -0.38737781582E+02  0.11140267864E+04  0.11158540140E+04  0.46999998093E+01 0. -1.
       -5    1    3    3    0  502 -0.50515285279E+02  0.38737781582E+02 -0.21614492851E+03  0.22537331228E+03  0.46999998093E+01 0.  1.
</event>
<event>
 5   0  0.7224879E-03  0.9975599E+03  0.7818609E-02  0.9311225E-01
       -1   -1    0    0    0  501  0.00000000000E+00  0.00000000000E+00  0.11633999911E+03  0.11633999921E+03  0.50400001928E-02 0.  1.
        1   -1    0    0  501    0  0.00000000000E+00  0.00000000000E+00 -0.21383998747E+04  0.21383998747E+04  0.50400001928E-02 0. -1.
    10030    2    1    2    0    0  0.00000000000E+00  0.00000000000E+00 -0.20220598756E+04  0.22547398739E+04  0.99755990224E+03 0.  0.
        3    1    3    3  502    0 -0.33495830746E+03 -0.99696510843E+02 -0.18153917234E+04  0.18487248528E+04  0.10100000352E+00 0. -1.
       -3    1    3    3    0  502  0.33495830746E+03  0.99696510843E+02 -0.20666815224E+03  0.40601502110E+03  0.10100000352E+00 0.  1.
</event>
<event>
 5   0  0.1191822E-02  0.1004768E+04  0.7818609E-02  0.9303331E-01
        2   -1    0    0  501    0  0.00000000000E+00  0.00000000000E+00  0.72763099714E+03  0.72763099714E+03  0.25500000920E-02 0. -1.
       -2   -1    0    0    0  501  0.00000000000E+00  0.00000000000E+00 -0.34686472712E+03  0.34686472713E+03  0.25500000920E-02 0.  1.
    10030    2    1    2    0    0  0.00000000000E+00  0.00000000000E+00  0.38076627002E+03  0.10744957243E+04  0.10047676891E+04 0.  0.
        4    1    3    3  502    0 -0.37190898353E+03 -0.19885997800E+02 -0.17017371113E+03  0.40947826535E+03  0.12699999809E+01 0.  1.
       -4    1    3    3    0  502  0.37190898353E+03  0.19885997800E+02  0.55093998115E+03  0.66501745892E+03  0.12699999809E+01 0. -1.
</event>
<event>
 5   0  0.7461157E-03  0.9826993E+03  0.7818609E-02  0.9327726E-01
        1   -1    0    0  501    0  0.00000000000E+00  0.00000000000E+00  0.84110039618E+03  0.84110039619E+03  0.50400001928E-02 0.  1.
       -1   -1    0    0    0  501  0.00000000000E+00  0.00000000000E+00 -0.28703407522E+03  0.28703407526E+03  0.50400001928E-02 0. -1.
    10030    2    1    2    0    0  0.00000000000E+00  0.00000000000E+00  0.55406632096E+03  0.11281344715E+04  0.98269929157E+03 0.  0.
        2    1    3    3  502    0  0.74314452146E+02  0.92711535920E+02  0.82435914396E+03  0.83287818132E+03  0.25500000920E-02 0.  1.
       -2    1    3    3    0  502 -0.74314452146E+02 -0.92711535920E+02 -0.27029282300E+03  0.29525629013E+03  0.25500000920E-02 0. -1.
</event>
<event>
 5   0  0.6967681E-03  0.9976094E+03  0.7818609E-02  0.9311171E-01
        1   -1    0    0  501    0  0.00000000000E+00  0.00000000000E+00  0.43757737840E+03  0.43757737843E+03  0.50400001928E-02 0. -1.
       -1   -1    0    0    0  501  0.00000000000E+00  0.00000000000E+00 -0.56859920339E+03  0.56859920341E+03  0.50400001928E-02 0.  1.
    10030    2    1    2    0    0  0.00000000000E+00  0.00000000000E+00 -0.13102182499E+03  0.10061765818E+04  0.99760944022E+03 0.  0.
        5    1    3    3  502    0 -0.21931147173E+03  0.41070675956E+03  0.11492904354E+03  0.47959184629E+03  0.46999998093E+01 0. -1.
       -5    1    3    3    0  502  0.21931147173E+03 -0.41070675956E+03 -0.24595086853E+03  0.52658473555E+03  0.46999998093E+01 0.  1.
</event>
<event>
 5   0  0.1240503E-02  0.8747379E+03  0.7818609E-02  0.9457723E-01
        2   -1    0    0  501    0  0.00000000000E+00  0.00000000000E+00  0.64798636423E+03  0.64798636424E+03  0.25500000920E-02 0.  1.
       -2   -1    0    0    0  501  0.00000000000E+00  0.00000000000E+00 -0.29520926895E+03  0.29520926896E+03  0.25500000920E-02 0. -1.
    10030    2    1    2    0    0  0.00000000000E+00  0.00000000000E+00  0.35277709528E+03  0.94319563320E+03  0.87473785989E+03 0.  0.
        1    1    3    3  502    0 -0.12190314094E+03 -0.35563039382E+03 -0.64617183793E+02  0.38145606987E+03  0.50400001928E-02 0. -1.
       -1    1    3    3    0  502  0.12190314094E+03  0.35563039382E+03  0.41739427907E+03  0.56173956333E+03  0.50400001928E-02 0.  1.
</event>
<event>
 5   0  0.1191822E-02  0.1006438E+04  0.7818609E-02  0.9301511E-01
        2   -1    0    0  501    0  0.00000000000E+00  0.00000000000E+00  0.78350503629E+03  0.78350503629E+03  0.25500000920E-02 0. -1.
       -2   -1    0    0    0  501  0.00000000000E+00  0.00000000000E+00 -0.32320090799E+03  0.32320090800E+03  0.25500000920E-02 0.  1.
    10030    2    1    2    0    0  0.00000000000E+00  0.00000000000E+00  0.46030412829E+03  0.11067059443E+04  0.10064383521E+04 0.  0.
        4    1    3    3  502    0 -0.20214116316E+03 -0.31267487061E+03 -0.14210233600E+03  0.39852391566E+03  0.12699999809E+01 0.  1.
       -4    1    3    3    0  502  0.20214116316E+03  0.31267487061E+03  0.60240646430E+03  0.70818202863E+03  0.12699999809E+01 0. -1.
</event>
<event>
 5   0  0.1191822E-02  0.1044355E+04  0.7818609E-02  0.9261192E-01
       -2   -1    0    0    0  501  0.00000000000E+00  0.00000000000E+00  0.36290954887E+03  0.36290954888E+03  0.25500000920E-02 0. -1.
        2   -1    0    0  501    0  0.00000000000E+00  0.00000000000E+00 -0.75134174064E+03  0.75134174065E+03  0.25500000920E-02 0.  1.
    10030    2    1    2    0    0  0.00000000000E+00  0.00000000000E+00 -0.38843219177E+03  0.11142512895E+04  0.10443545225E+04 0.  0.
        4    1    3    3  502    0  0.27395869638E+03  0.10556025127E+03  0.26650809151E+03  0.39651545961E+03  0.12699999809E+01 0. -1.
       -4    1    3    3    0  502 -0.27395869638E+03 -0.10556025127E+03 -0.65494028328E+03  0.71773582991E+03  0.12699999809E+01 0.  1.
</event>
<event>
 5   0  0.1216322E-02  0.9996541E+03  0.7818609E-02  0.9308924E-01
       -2   -1    0    0    0  501  0.00000000000E+00  0.00000000000E+00  0.23379574168E+03  0.23379574169E+03  0.25500000920E-02 0. -1.
        2   -1    0    0  501    0  0.00000000000E+00  0.00000000000E+00 -0.10685698105E+04  0.10685698105E+04  0.25500000920E-02 0.  1.
    10030    2    1    2    0    0  0.00000000000E+00  0.00000000000E+00 -0.83477406886E+03  0.13023655522E+04  0.99965408297E+03 0.  0.
        2    1    3    3  502    0  0.71328052669E+02 -0.35953556410E+03 -0.86010223229E+03  0.93494885579E+03  0.25500000920E-02 0.  1.
       -2    1    3    3    0  502 -0.71328052669E+02  0.35953556410E+03  0.25328163431E+02  0.36741669644E+03  0.25500000920E-02 0. -1.
</event>
<event>
 5   0  0.1245850E-02  0.1012715E+04  0.7818609E-02  0.9294708E-01
       -2   -1    0    0    0  501  0.00000000000E+00  0.00000000000E+00  0.27621117383E+03  0.27621117384E+03  0.25500000920E-02 0. -1.
        2   -1    0    0  501    0  0.00000000000E+00  0.00000000000E+00 -0.92826758713E+03  0.92826758713E+03  0.25500000920E-02 0.  1.
    10030    2    1    2    0    0  0.00000000000E+00  0.00000000000E+00 -0.65205641330E+03  0.12044787610E+04  0.10127149251E+04 0.  0.
        3    1    3    3  502    0  0.28985116306E+02 -0.24698151709E+03 -0.85063792235E+03  0.88624200526E+03  0.10100000352E+00 0.  1.
       -3    1    3    3    0  502 -0.28985116306E+02  0.24698151709E+03  0.19858150905E+03  0.31823675571E+03  0.10100000352E+00 0. -1.
</event>
<event>
 5   0  0.7224879E-03  0.9851791E+03  0.7818609E-02  0.9324951E-01
        1   -1    0    0  501    0  0.00000000000E+00  0.00000000000E+00  0.31760989561E+03  0.31760989565E+03  0.50400001928E-02 0. -1.
       -1   -1    0    0    0  501  0.00000000000E+00  0.00000000000E+00 -0.76397004654E+03  0.76397004656E+03  0.50400001928E-02 0.  1.
    10030    2    1    2    0    0  0.00000000000E+00  0.00000000000E+00 -0.44636015093E+03  0.10815799422E+04  0.98517906344E+03 0.  0.
        3    1    3    3  502    0  0.16111890408E+03 -0.90939621647E+02 -0.72437661387E+03  0.74763012577E+03  0.10100000352E+00 0.  1.
       -3    1    3    3    0  502 -0.16111890408E+03  0.90939621647E+02  0.27801646294E+03  0.33394981644E+03  0.10100000352E+00 0. -1.
</event>
<event>
 5   0  0.7241200E-03  0.9674365E+03  0.7818609E-02  0.9344999E-01
        1   -1    0    0  501    0  0.00000000000E+00  0.00000000000E+00  0.45729792362E+03  0.45729792365E+03  0.50400001928E-02 0.  1.
       -1   -1    0    0    0  501  0.00000000000E+00  0.00000000000E+00 -0.51166500243E+03  0.51166500245E+03  0.50400001928E-02 0. -1.
    10030    2    1    2    0    0  0.00000000000E+00  0.00000000000E+00 -0.54367078803E+02  0.96896292610E+03  0.96743649554E+03 0.  0.
        4    1    3    3  502    0  0.11601902741E+03 -0.34419282484E+03  0.29277725223E+03  0.46652893556E+03  0.12699999809E+01 0.  1.
       -4    1    3    3    0  502 -0.11601902741E+03  0.34419282484E+03 -0.34714433103E+03  0.50243399055E+03  0.12699999809E+01 0. -1.
</event>
<event>
 5   0  0.1245850E-02  0.1001399E+04  0.7818609E-02  0.9307012E-01
       -2   -1    0    0    0  501  0.00000000000E+00  0.00000000000E+00  0.25017711813E+03  0.25017711814E+03  0.25500000920E-02 0. -1.
        2   -1    0    0  501    0  0.00000000000E+00  0.00000000000E+00 -0.10020893047E+04  0.10020893047E+04  0.25500000920E-02 0.  1.
    10030    2    1    2    0    0  0.00000000000E+00  0.00000000000E+00 -0.75191218653E+03  0.12522664228E+04  0.10013986506E+04 0.  0.
        3    1    3    3  502    0 -0.12903946647E+03 -0.11679767243E+03 -0.96304294057E+03  0.97864426417E+03  0.10100000352E+00 0.  1.
       -3    1    3    3    0  502  0.12903946647E+03  0.11679767243E+03  0.21113075405E+03  0.27362215864E+03  0.10100000352E+00 0. -1.
</event>
<event>
 5   0  0.1216322E-02  0.9398423E+03  0.7818609E-02  0.9377103E-01
        2   -1    0    0  501    0  0.00000000000E+00  0.00000000000E+00  0.11816932010E+04  0.11816932010E+04  0.25500000920E-02 0. -1.
       -2   -1    0    0    0  501  0.00000000000E+00  0.00000000000E+00 -0.18687243278E+03  0.18687243280E+03  0.25500000920E-02 0.  1.
    10030    2    1    2    0    0  0.00000000000E+00  0.00000000000E+00  0.99482076823E+03  0.13685656338E+04  0.93984229163E+03 0.  0.
        2    1    3    3  502    0  0.19351863245E+03  0.39683966294E+03  0.73173403360E+03  0.85461445993E+03  0.25500000920E-02 0. -1.
       -2    1    3    3    0  502 -0.19351863245E+03 -0.39683966294E+03  0.26308673463E+03  0.51395117387E+03  0.25500000920E-02 0.  1.
</event>
<event>
 5   0  0.7073004E-03  0.9729003E+03  0.7818609E-02  0.9338777E-01
       -1   -1    0    0    0  501  0.00000000000E+00  0.00000000000E+00  0.36623418297E+03  0.36623418300E+03  0.50400001928E-02 0.  1.
        1   -1    0    0  501    0  0.00000000000E+00  0.00000000000E+00 -0.64612691440E+03  0.64612691442E+03  0.50400001928E-02 0. -1.
    10030    2    1    2    0    0  0.00000000000E+00  0.00000000000E+00 -0.27989273144E+03  0.10123610974E+04  0.97290032915E+03 0.  0.
        1    1    3    3  502    0  0.53312947141E+02  0.23107720740E+03  0.30200972633E+03  0.38399065215E+03  0.50400001928E-02 0.  1.
       -1    1    3    3    0  502 -0.53312947141E+02 -0.23107720740E+03 -0.58190245777E+03  0.62837044527E+03  0.50400001928E-02 0. -1.
</event>
<event>
 5   0  0.1240503E-02  0.9936186E+03  0.7818609E-02  0.9315572E-01
       -2   -1    0    0    0  501  0.00000000000E+00  0.00000000000E+00  0.12009013075E+03  0.12009013078E+03  0.25500000920E-02 0. -1.
        2   -1    0    0  501    0  0.00000000000E+00  0.00000000000E+00 -0.20552853894E+04  0.20552853894E+04  0.25500000920E-02 0.  1.
    10030    2    1    2    0    0  0.00000000000E+00  0.00000000000E+00 -0.19351952587E+04  0.21753755202E+04  0.99361862136E+03 0.  0.
        1    1    3    3  502    0  0.19281440511E+03  0.11850269963E+03  0.67590023509E+00  0.22631999802E+03  0.50400001928E-02 0. -1.
       -1    1    3    3    0  502 -0.19281440511E+03 -0.11850269963E+03 -0.19358711589E+04  0.19490555222E+04  0.50400001928E-02 0.  1.
</event>
<event>
 5   0  0.7461157E-03  0.1020349E+04  0.7818609E-02  0.9286504E-01
        1   -1    0    0  501    0  0.00000000000E+00  0.00000000000E+00  0.12112710668E+04  0.12112710668E+04  0.50400001928E-02 0. -1.
       -1   -1    0    0    0  501  0.00000000000E+00  0.00000000000E+00 -0.21488009592E+03  0.21488009597E+03  0.50400001928E-02 0.  1.
    10030    2    1    2    0    0  0.00000000000E+00  0.00000000000E+00  0.99639097090E+03  0.14261511628E+04  0.10203490443E+04 0.  0.
        2    1    3    3  502    0 -0.35153535622E+03  0.16130710717E+03  0.96319579753E+03  0.10379514603E+04  0.25500000920E-02 0. -1.
       -2    1    3    3    0  502  0.35153535622E+03 -0.16130710717E+03  0.33195173367E+02  0.38819970252E+03  0.25500000920E-02 0.  1.
</event>
<event>
 5   0  0.1221315E-02  0.1019386E+04  0.7818609E-02  0.9287534E-01
       -2   -1    0    0    0  501  0.00000000000E+00  0.00000000000E+00  0.59691854101E+03  0.59691854102E+03  0.25500000920E-02 0.  1.
        2   -1    0    0  501    0  0.00000000000E+00  0.00000000000E+00 -0.43521370222E+03  0.43521370223E+03  0.25500000920E-02 0. -1.
    10030    2    1    2    0    0  0.00000000000E+00  0.00000000000E+00  0.16170483879E+03  0.10321322432E+04  0.10193863412E+04 0.  0.
        5    1    3    3  502    0  0.20490853160E+03  0.29635447739E+03  0.44584772306E+03  0.57325017640E+03  0.46999998093E+01 0.  1.
       -5    1    3    3    0  502 -0.20490853160E+03 -0.29635447739E+03 -0.28414288427E+03  0.45888206684E+03  0.46999998093E+01 0. -1.
</event>
<event>
 5   0  0.7461157E-03  0.9843567E+03  0.7818609E-02  0.9325870E-01
        1   -1    0    0  501    0  0.00000000000E+00  0.00000000000E+00  0.12139520315E+04  0.12139520315E+04  0.50400001928E-02 0. -1.
       -1   -1    0    0    0  501  0.00000000000E+00  0.00000000000E+00 -0.19954622685E+03  0.19954622691E+03  0.50400001928E-02 0.  1.
    10030    2    1    2    0    0  0.00000000000E+00  0.00000000000E+00  0.10144058046E+04  0.14134982584E+04  0.98435673921E+03 0.  0.
        2    1    3    3  502    0  0.13356477252E+02  0.19868206625E+02  0.12131154487E+04  0.12133516527E+04  0.25500000920E-02 0. -1.
       -2    1    3    3    0  502 -0.13356477252E+02 -0.19868206625E+02 -0.19870964409E+03  0.20014660572E+03  0.25500000920E-02 0.  1.
</event>
<event>
 5   0  0.7224879E-03  0.9736841E+03  0.7818609E-02  0.9337888E-01
       -1   -1    0    0    0  501  0.00000000000E+00  0.00000000000E+00  0.36802169901E+03  0.36802169905E+03  0.50400001928E-02 0. -1.
        1   -1    0    0  501    0  0.00000000000E+00  0.00000000000E+00 -0.64402506963E+03  0.64402506965E+03  0.50400001928E-02 0.  1.
    10030    2    1    2    0    0  0.00000000000E+00  0.00000000000E+00 -0.27600337062E+03  0.10120467687E+04  0.97368413843E+03 0.  0.
        3    1    3    3  502    0  0.83073030593E+02  0.84547414576E+02 -0.62879835865E+03  0.63987247149E+03  0.10100000352E+00 0.  1.
       -3    1    3    3    0  502 -0.83073030593E+02 -0.84547414576E+02  0.35279498803E+03  0.37217429721E+03  0.10100000352E+00 0. -1.
</event>
<event>
 5   0  0.6967681E-03  0.9585726E+03  0.7818609E-02  0.9355186E-01
        1   -1    0    0  501    0  0.00000000000E+00  0.00000000000E+00  0.50357234969E+03  0.50357234972E+03  0.50400001928E-02 0. -1.
       -1   -1    0    0    0  501  0.00000000000E+00  0.00000000000E+00 -0.45617148601E+03  0.45617148603E+03  0.50400001928E-02 0.  1.
    10030    2    1    2    0    0  0.00000000000E+00  0.00000000000E+00  0.47400863684E+02  0.95974383575E+03  0.95857257857E+03 0.  0.
        5    1    3    3  502    0  0.61989800717E+02  0.38394390905E+03 -0.25670890395E+03  0.46602275916E+03  0.46999998093E+01 0.  1.
       -5    1    3    3    0  502 -0.61989800717E+02 -0.38394390905E+03  0.30410976764E+03  0.49372107658E+03  0.46999998093E+01 0. -1.
</event>
<event>
 5   0  0.1240503E-02  0.8555286E+03  0.7818609E-02  0.9482947E-01
       -2   -1    0    0    0  501  0.00000000000E+00  0.00000000000E+00  0.37911994242E+03  0.37911994243E+03  0.25500000920E-02 0. -1.
        2   -1    0    0  501    0  0.00000000000E+00  0.00000000000E+00 -0.48265013225E+03  0.48265013226E+03  0.25500000920E-02 0.  1.
    10030    2    1    2    0    0  0.00000000000E+00  0.00000000000E+00 -0.10353018983E+03  0.86177007469E+03  0.85552858598E+03 0.  0.
        1    1    3    3  502    0  0.27221078521E+03  0.32777557630E+03 -0.13451431647E+02  0.42628216130E+03  0.50400001928E-02 0.  1.
       -1    1    3    3    0  502 -0.27221078521E+03 -0.32777557630E+03 -0.90078758182E+02  0.43548791339E+03  0.50400001928E-02 0. -1.
</event>
<event>
 5   0  0.7224879E-03  0.9988178E+03  0.7818609E-02  0.9309842E-01
        1   -1    0    0  501    0  0.00000000000E+00  0.00000000000E+00  0.28817436358E+03  0.28817436363E+03  0.50400001928E-02 0.  1.
       -1   -1    0    0    0  501  0.00000000000E+00  0.00000000000E+00 -0.86548026573E+03  0.86548026575E+03  0.50400001928E-02 0. -1.
    10030    2    1    2    0    0  0.00000000000E+00  0.00000000000E+00 -0.57730590215E+03  0.11536546294E+04  0.99881775076E+03 0.  0.
        3    1    3    3  502    0 -0.74106847178E+02  0.40383670993E+03 -0.61703901625E+03  0.74115657648E+03  0.10100000352E+00 0.  1.
       -3    1    3    3    0  502  0.74106847178E+02 -0.40383670993E+03  0.39733114101E+02  0.41249805290E+03  0.10100000352E+00 0. -1.
</event>
<event>
 5   0  0.1216322E-02  0.1009592E+04  0.7818609E-02  0.9298087E-01
       -2   -1    0    0    0  501  0.00000000000E+00  0.00000000000E+00  0.31507190583E+03  0.31507190584E+03  0.25500000920E-02 0. -1.
        2   -1    0    0  501    0  0.00000000000E+00  0.00000000000E+00 -0.80876427356E+03  0.80876427357E+03  0.25500000920E-02 0.  1.
    10030    2    1    2    0    0  0.00000000000E+00  0.00000000000E+00 -0.49369236774E+03  0.11238361794E+04  0.10095918008E+04 0.  0.
        2    1    3    3  502    0 -0.50002637427E+03 -0.59950246355E+02 -0.28538293806E+03  0.57884698180E+03  0.25500000920E-02 0. -1.
       -2    1    3    3    0  502  0.50002637427E+03  0.59950246355E+02 -0.20830942967E+03  0.54498919760E+03  0.25500000920E-02 0.  1.
</event>
<event>
 5   0  0.7241200E-03  0.9980066E+03  0.7818609E-02  0.9310734E-01
        1   -1    0    0  501    0  0.00000000000E+00  0.00000000000E+00  0.18555320207E+04  0.18555320207E+04  0.50400001928E-02 0. -1.
       -1   -1    0    0    0  501  0.00000000000E+00  0.00000000000E+00 -0.13419563310E+03  0.13419563319E+03  0.50400001928E-02 0.  1.
    10030    2    1    2    0    0  0.00000000000E+00  0.00000000000E+00  0.17213363876E+04  0.19897276539E+04  0.99800660188E+03 0.  0.
        4    1    3    3  502    0  0.17628986732E+03  0.46681170369E+03  0.86739894738E+03  0.10006866797E+04  0.12699999809E+01 0. -1.
       -4    1    3    3    0  502 -0.17628986732E+03 -0.46681170369E+03  0.85393744019E+03  0.98904097421E+03  0.12699999809E+01 0.  1.
</event>
<event>
 5   0  0.6967681E-03  0.9904754E+03  0.7818609E-02  0.9319053E-01
       -1   -1    0    0    0  501  0.00000000000E+00  0.00000000000E+00  0.28701693345E+03  0.28701693349E+03  0.50400001928E-02 0. -1.
        1   -1    0    0  501    0  0.00000000000E+00  0.00000000000E+00 -0.85451538489E+03  0.85451538490E+03  0.50400001928E-02 0.  1.
    10030    2    1    2    0    0  0.00000000000E+00  0.00000000000E+00 -0.56749845144E+03  0.11415323184E+04  0.99047541188E+03 0.  0.
        5    1    3    3  502    0 -0.27055862450E+03  0.40035196038E+03 -0.15879554119E+03  0.50864700468E+03  0.46999998093E+01 0.  1.
       -5    1    3    3    0  502  0.27055862450E+03 -0.40035196038E+03 -0.40870291025E+03  0.63288531371E+03  0.46999998093E+01 0. -1.
</event>
<event>
 5   0  0.1221315E-02  0.1011741E+04  0.7818609E-02  0.9295760E-01
        2   -1    0    0  501    0  0.00000000000E+00  0.00000000000E+00  0.40811887640E+03  0.40811887640E+03  0.25500000920E-02 0.  1.
       -2   -1    0    0    0  501  0.00000000000E+00  0.00000000000E+00 -0.62703547545E+03  0.62703547546E+03  0.25500000920E-02 0. -1.
    10030    2    1    2    0    0  0.00000000000E+00  0.00000000000E+00 -0.21891659906E+03  0.10351543519E+04  0.10117411007E+04 0.  0.
        5    1    3    3  502    0 -0.43430951721E+03 -0.19182947595E+03 -0.28802396371E+03  0.55534061463E+03  0.46999998093E+01 0. -1.
       -5    1    3    3    0  502  0.43430951721E+03  0.19182947595E+03  0.69107364654E+02  0.47981373723E+03  0.46999998093E+01 0.  1.
</event>
<event>
 5   0  0.6967681E-03  0.1002079E+04  0.7818609E-02  0.9306267E-01
       -1   -1    0    0    0  501  0.00000000000E+00  0.00000000000E+00  0.34080618020E+03  0.34080618024E+03  0.50400001928E-02 0. -1.
        1   -1    0    0  501    0  0.00000000000E+00  0.00000000000E+00 -0.73660828157E+03  0.73660828158E+03  0.50400001928E-02 0.  1.
    10030    2    1    2    0    0  0.00000000000E+00  0.00000000000E+00 -0.39580210137E+03  0.10774144618E+04  0.10020791481E+04 0.  0.
        5    1    3    3  502    0  0.20347933264E+03  0.14031400275E+03  0.27066820983E+03  0.36657226844E+03  0.46999998093E+01 0. -1.
       -5    1    3    3    0  502 -0.20347933264E+03 -0.14031400275E+03 -0.66647031120E+03  0.71084219338E+03  0.46999998093E+01 0.  1.
</event>
<event>
 5   0  0.7461157E-03  0.1007196E+04  0.7818609E-02  0.9300688E-01
        1   -1    0    0  501    0  0.00000000000E+00  0.00000000000E+00  0.43879834125E+03  0.43879834128E+03  0.50400001928E-02 0. -1.
       -1   -1    0    0    0  501  0.00000000000E+00  0.00000000000E+00 -0.57796651711E+03  0.57796651713E+03  0.50400001928E-02 0.  1.
    10030    2    1    2    0    0  0.00000000000E+00  0.00000000000E+00 -0.13916817586E+03  0.10167648584E+04  0.10071956097E+04 0.  0.
        2    1    3    3  502    0 -0.68280630836E+02 -0.17068820546E+03 -0.54288181490E+03  0.57316435076E+03  0.25500000920E-02 0.  1.
       -2    1    3    3    0  502  0.68280630836E+02  0.17068820546E+03  0.40371363904E+03  0.44360050765E+03  0.25500000920E-02 0. -1.
</event>
<event>
 5   0  0.1240503E-02  0.9946727E+03  0.7818609E-02  0.9314407E-01
        2   -1    0    0  501    0  0.00000000000E+00  0.00000000000E+00  0.12114151409E+04  0.12114151409E+04  0.25500000920E-02 0. -1.
       -2   -1    0    0    0  501  0.00000000000E+00  0.00000000000E+00 -0.20417728257E+03  0.20417728258E+03  0.25500000920E-02 0.  1.
    10030    2    1    2    0    0  0.00000000000E+00  0.00000000000E+00  0.10072378583E+04  0.14155924235E+04  0.99467271309E+03 0.  0.
        1    1    3    3  502    0  0.97873498907E+02 -0.48699407527E+03  0.46872937675E+03  0.68297121447E+03  0.50400001928E-02 0.  1.
       -1    1    3    3    0  502 -0.97873498907E+02  0.48699407527E+03  0.53850848158E+03  0.73262120901E+03  0.50400001928E-02 0. -1.
</event>
<event>
 5   0  0.7241200E-03  0.1012443E+04  0.7818609E-02  0.9295002E-01
        1   -1    0    0  501    0  0.00000000000E+00  0.00000000000E+00  0.14306810579E+04  0.14306810579E+04  0.50400001928E-02 0.  1.
       -1   -1    0    0    0  501  0.00000000000E+00  0.00000000000E+00 -0.17911765608E+03  0.17911765615E+03  0.50400001928E-02 0. -1.
    10030    2    1    2    0    0  0.00000000000E+00  0.00000000000E+00  0.12515634018E+04  0.16097987140E+04  0.10124430606E+04 0.  0.
        4    1    3    3  502    0 -0.19736557976E+03 -0.15046813694E+03  0.13273091582E+04  0.13503129440E+04  0.12699999809E+01 0.  1.
       -4    1    3    3    0  502  0.19736557976E+03  0.15046813694E+03 -0.75745756464E+02  0.25948577000E+03  0.12699999809E+01 0. -1.
</event>
<event>
 5   0  0.1240503E-02  0.1006218E+04  0.7818609E-02  0.9301751E-01
        2   -1    0    0  501    0  0.00000000000E+00  0.00000000000E+00  0.71873871396E+03  0.71873871396E+03  0.25500000920E-02 0.  1.
       -2   -1    0    0    0  501  0.00000000000E+00  0.00000000000E+00 -0.35217058959E+03  0.35217058960E+03  0.25500000920E-02 0. -1.
    10030    2    1    2    0    0  0.00000000000E+00  0.00000000000E+00  0.36656812437E+03  0.10709093036E+04  0.10062179419E+04 0.  0.
        1    1    3    3  502    0 -0.20623755336E+03  0.45227819480E+03  0.10064442211E+03  0.50716742170E+03  0.50400001928E-02 0. -1.
       -1    1    3    3    0  502  0.20623755336E+03 -0.45227819480E+03  0.26592370226E+03  0.56374188185E+03  0.50400001928E-02 0.  1.
</event>
<event>
 5   0  0.1240503E-02  0.9825521E+03  0.7818609E-02  0.9327891E-01
        2   -1    0    0  501    0  0.00000000000E+00  0.00000000000E+00  0.41051495559E+03  0.41051495559E+03  0.25500000920E-02 0.  1.
       -2   -1    0    0    0  501  0.00000000000E+00  0.00000000000E+00 -0.58792541545E+03  0.58792541545E+03  0.25500000920E-02 0. -1.
    10030    2    1    2    0    0  0.00000000000E+00  0.00000000000E+00 -0.17741045986E+03  0.99844037105E+03  0.98255213768E+03 0.  0.
        1    1    3    3  502    0  0.45626290685E+03 -0.66508329322E+02  0.83603762273E+02  0.46860301655E+03  0.50400001928E-02 0. -1.
       -1    1    3    3    0  502 -0.45626290685E+03  0.66508329322E+02 -0.26101422214E+03  0.52983735449E+03  0.50400001928E-02 0.  1.
</event>
<event>
 5   0  0.7241200E-03  0.9847064E+03  0.7818609E-02  0.9325479E-01
        1   -1    0    0  501    0  0.00000000000E+00  0.00000000000E+00  0.36437672246E+03  0.36437672250E+03  0.50400001928E-02 0. -1.
       -1   -1    0    0    0  501  0.00000000000E+00  0.00000000000E+00 -0.66527760795E+03  0.66527760797E+03  0.50400001928E-02 0.  1.
    10030    2    1    2    0    0  0.00000000000E+00  0.00000000000E+00 -0.30090088549E+03  0.10296543305E+04  0.98470640160E+03 0.  0.
        4    1    3    3  502    0  0.69658488579E+02 -0.17878846592E+03  0.32366954053E+03  0.37627277997E+03  0.12699999809E+01 0. -1.
       -4    1    3    3    0  502 -0.69658488579E+02  0.17878846592E+03 -0.62457042601E+03  0.65338155050E+03  0.12699999809E+01 0.  1.
</event>
<event>
 5   0  0.7224879E-03  0.9988195E+03  0.7818609E-02  0.9309841E-01
       -1   -1    0    0    0  501  0.00000000000E+00  0.00000000000E+00  0.97273578087E+03  0.97273578088E+03  0.50400001928E-02 0.  1.
        1   -1    0    0  501    0  0.00000000000E+00  0.00000000000E+00 -0.25640064238E+03  0.25640064243E+03  0.50400001928E-02 0. -1.
    10030    2    1    2    0    0  0.00000000000E+00  0.00000000000E+00  0.71633513848E+03  0.12291364233E+04  0.99881946141E+03 0.  0.
        3    1    3    3  502    0 -0.17374368294E+03  0.12641764839E+03 -0.19661088647E+03  0.29124584128E+03  0.10100000352E+00 0. -1.
       -3    1    3    3    0  502  0.17374368294E+03 -0.12641764839E+03  0.91294602495E+03  0.93789058203E+03  0.10100000352E+00 0.  1.
</event>
<event>
 5   0  0.4782125E-03  0.1006087E+04  0.7818609E-02  0.9301893E-01
       -3   -1    0    0    0  501  0.00000000000E+00  0.00000000000E+00  0.16196419288E+04  0.16196419320E+04  0.10100000352E+00 0. -1.
        3   -1    0    0  501    0  0.00000000000E+00  0.00000000000E+00 -0.15624000924E+03  0.15624004188E+03  0.10100000352E+00 0.  1.
    10030    2    1    2    0    0  0.00000000000E+00  0.00000000000E+00  0.14634019196E+04  0.17758819739E+04  0.10060872760E+04 0.  0.
        3    1    3    3  502    0 -0.24693946553E+03 -0.14183427687E+03 -0.26040349826E+00  0.28477383963E+03  0.10100000352E+00 0.  1.
       -3    1    3    3    0  502  0.24693946553E+03  0.14183427687E+03  0.14636623231E+04  0.14911081342E+04  0.10100000352E+00 0. -1.
</event>
<event>
 5   0  0.1191822E-02  0.6890279E+03  0.7818609E-02  0.9736182E-01
        2   -1    0    0  501    0  0.00000000000E+00  0.00000000000E+00  0.10576648849E+04  0.10576648849E+04  0.25500000920E-02 0. -1.
       -2   -1    0    0    0  501  0.00000000000E+00  0.00000000000E+00 -0.11221879035E+03  0.11221879038E+03  0.25500000920E-02 0.  1.
    10030    2    1    2    0    0  0.00000000000E+00  0.00000000000E+00  0.94544609455E+03  0.11698836753E+04  0.68902793558E+03 0.  0.
        4    1    3    3  502    0  0.16955619082E+03 -0.20525994181E+03  0.10148452970E+03  0.28492396920E+03  0.12699999809E+01 0.  1.
       -4    1    3    3    0  502 -0.16955619082E+03  0.20525994181E+03  0.84396156484E+03  0.88495970608E+03  0.12699999809E+01 0. -1.
</event>
<event>
 5   0  0.7241200E-03  0.9968357E+03  0.7818609E-02  0.9312022E-01
        1   -1    0    0  501    0  0.00000000000E+00  0.00000000000E+00  0.64076529668E+03  0.64076529670E+03  0.50400001928E-02 0. -1.
       -1   -1    0    0    0  501  0.00000000000E+00  0.00000000000E+00 -0.38769322238E+03  0.38769322241E+03  0.50400001928E-02 0.  1.
    10030    2    1    2    0    0  0.00000000000E+00  0.00000000000E+00  0.25307207431E+03  0.10284585191E+04  0.99683571904E+03 0.  0.
        4    1    3    3  502    0  0.35830242927E+03  0.30570671596E+03 -0.41674468736E+02  0.47283781707E+03  0.12699999809E+01 0.  1.
       -4    1    3    3    0  502 -0.35830242927E+03 -0.30570671596E+03  0.29474654304E+03  0.55562070205E+03  0.12699999809E+01 0. -1.
</event>
<event>
 5   0  0.7073004E-03  0.9980432E+03  0.7818609E-02  0.9310694E-01
        1   -1    0    0  501    0  0.00000000000E+00  0.00000000000E+00  0.69861009456E+03  0.69861009457E+03  0.50400001928E-02 0. -1.
       -1   -1    0    0    0  501  0.00000000000E+00  0.00000000000E+00 -0.35645428305E+03  0.35645428308E+03  0.50400001928E-02 0.  1.
    10030    2    1    2    0    0  0.00000000000E+00  0.00000000000E+00  0.34215581151E+03  0.10550643777E+04  0.99804320630E+03 0.  0.
        1    1    3    3  502    0  0.27441494445E+03 -0.63737316921E+02 -0.26434867480E+03  0.38632399511E+03  0.50400001928E-02 0.  1.
       -1    1    3    3    0  502 -0.27441494445E+03  0.63737316921E+02  0.60650448631E+03  0.66874038254E+03  0.50400001928E-02 0. -1.
</event>
<event>
 5   0  0.6967681E-03  0.9892128E+03  0.7818609E-02  0.9320456E-01
       -1   -1    0    0    0  501  0.00000000000E+00  0.00000000000E+00  0.33420887214E+03  0.33420887218E+03  0.50400001928E-02 0. -1.
        1   -1    0    0  501    0  0.00000000000E+00  0.00000000000E+00 -0.73198381478E+03  0.73198381480E+03  0.50400001928E-02 0.  1.
    10030    2    1    2    0    0  0.00000000000E+00  0.00000000000E+00 -0.39777494264E+03  0.10661926870E+04  0.98921278842E+03 0.  0.
        5    1    3    3  502    0  0.30960891882E+03 -0.35851730323E+03 -0.35215420133E+03  0.59027706277E+03  0.46999998093E+01 0.  1.
       -5    1    3    3    0  502 -0.30960891882E+03  0.35851730323E+03 -0.45620741309E+02  0.47591562420E+03  0.46999998093E+01 0. -1.
</event>
<event>
 5   0  0.1191822E-02  0.1005493E+04  0.7818609E-02  0.9302541E-01
       -2   -1    0    0    0  501  0.00000000000E+00  0.00000000000E+00  0.17876368687E+03  0.17876368688E+03  0.25500000920E-02 0. -1.
        2   -1    0    0  501    0  0.00000000000E+00  0.00000000000E+00 -0.14139002263E+04  0.14139002263E+04  0.25500000920E-02 0.  1.
    10030    2    1    2    0    0  0.00000000000E+00  0.00000000000E+00 -0.12351365394E+04  0.15926639132E+04  0.10054929484E+04 0.  0.
        4    1    3    3  502    0  0.13384631863E+03  0.78657510486E+02  0.13984210326E+03  0.20894800241E+03  0.12699999809E+01 0. -1.
       -4    1    3    3    0  502 -0.13384631863E+03 -0.78657510486E+02 -0.13749786427E+04  0.13837159108E+04  0.12699999809E+01 0.  1.
</event>
<event>
 5   0  0.1216322E-02  0.9867332E+03  0.7818609E-02  0.9323216E-01
       -2   -1    0    0    0  501  0.00000000000E+00  0.00000000000E+00  0.28341614994E+03  0.28341614995E+03  0.25500000920E-02 0. -1.
        2   -1    0    0  501    0  0.00000000000E+00  0.00000000000E+00 -0.85884524598E+03  0.85884524599E+03  0.25500000920E-02 0.  1.
    10030    2    1    2    0    0  0.00000000000E+00  0.00000000000E+00 -0.57542909604E+03  0.11422613959E+04  0.98673322234E+03 0.  0.
        2    1    3    3  502    0  0.12635672272E+03 -0.38715227625E+03  0.34672976967E+02  0.40872377190E+03  0.25500000920E-02 0. -1.
       -2    1    3    3    0  502 -0.12635672272E+03  0.38715227625E+03 -0.61010207301E+03  0.73353762404E+03  0.25500000920E-02 0.  1.
</event>
<event>
 5   0  0.6967681E-03  0.1001228E+04  0.7818609E-02  0.9307199E-01
        1   -1    0    0  501    0  0.00000000000E+00  0.00000000000E+00  0.79714558862E+03  0.79714558864E+03  0.50400001928E-02 0.  1.
       -1   -1    0    0    0  501  0.00000000000E+00  0.00000000000E+00 -0.31438959817E+03  0.31438959821E+03  0.50400001928E-02 0. -1.
    10030    2    1    2    0    0  0.00000000000E+00  0.00000000000E+00  0.48275599045E+03  0.11115351868E+04  0.10012278089E+04 0.  0.
        5    1    3    3  502    0 -0.80521913040E+02 -0.49068749941E+03  0.30548205493E+03  0.58360892423E+03  0.46999998093E+01 0.  1.
       -5    1    3    3    0  502  0.80521913040E+02  0.49068749941E+03  0.17727393552E+03  0.52792626262E+03  0.46999998093E+01 0. -1.
</event>
<event>
 5   0  0.7073004E-03  0.1016551E+04  0.7818609E-02  0.9290576E-01
       -1   -1    0    0    0  501  0.00000000000E+00  0.00000000000E+00  0.18154852987E+03  0.18154852994E+03  0.50400001928E-02 0.  1.
        1   -1    0    0  501    0  0.00000000000E+00  0.00000000000E+00 -0.14230031231E+04  0.14230031231E+04  0.50400001928E-02 0. -1.
    10030    2    1    2    0    0  0.00000000000E+00  0.00000000000E+00 -0.12414545932E+04  0.16045516530E+04  0.10165512777E+04 0.  0.
        1    1    3    3  502    0 -0.24575830677E+02  0.10990982044E+03  0.16160565354E+03  0.19697849468E+03  0.50400001928E-02 0.  1.
       -1    1    3    3    0  502  0.24575830677E+02 -0.10990982044E+03 -0.14030602468E+04  0.14075731584E+04  0.50400001928E-02 0. -1.
</event>
<event>
 5   0  0.1245850E-02  0.1010811E+04  0.7818609E-02  0.9296767E-01
       -2   -1    0    0    0  501  0.00000000000E+00  0.00000000000E+00  0.31921433825E+03  0.31921433826E+03  0.25500000920E-02 0. -1.
        2   -1    0    0  501    0  0.00000000000E+00  0.00000000000E+00 -0.80019746648E+03  0.80019746649E+03  0.25500000920E-02 0.  1.
    10030    2    1    2    0    0  0.00000000000E+00  0.00000000000E+00 -0.48098312823E+03  0.11194118047E+04  0.10108105752E+04 0.  0.
        3    1    3    3  502    0 -0.52163404559E+01 -0.29988755970E+02  0.31819829632E+03  0.31965090595E+03  0.10100000352E+00 0. -1.
       -3    1    3    3    0  502  0.52163404559E+01  0.29988755970E+02 -0.79918142455E+03  0.79976089880E+03  0.10100000352E+00 0.  1.
</event>
<event>
 5   0  0.1191822E-02  0.9583227E+03  0.7818609E-02  0.9355475E-01
        2   -1    0    0  501    0  0.00000000000E+00  0.00000000000E+00  0.41062592651E+03  0.41062592652E+03  0.25500000920E-02 0. -1.
       -2   -1    0    0    0  501  0.00000000000E+00  0.00000000000E+00 -0.55913567379E+03  0.55913567379E+03  0.25500000920E-02 0.  1.
    10030    2    1    2    0    0  0.00000000000E+00  0.00000000000E+00 -0.14850974728E+03  0.96976160031E+03  0.95832270995E+03 0.  0.
        4    1    3    3  502    0  0.14773011357E+03 -0.19153774029E+03 -0.49281394360E+03  0.54897913286E+03  0.12699999809E+01 0.  1.
       -4    1    3    3    0  502 -0.14773011357E+03  0.19153774029E+03  0.34430419632E+03  0.42078246745E+03  0.12699999809E+01 0. -1.
</event>
<event>
 5   0  0.1191822E-02  0.9837287E+03  0.7818609E-02  0.9326573E-01
        2   -1    0    0  501    0  0.00000000000E+00  0.00000000000E+00  0.18250169046E+03  0.18250169048E+03  0.25500000920E-02 0. -1.
       -2   -1    0    0    0  501  0.00000000000E+00  0.00000000000E+00 -0.13256344438E+04  0.13256344438E+04  0.25500000920E-02 0.  1.
    10030    2    1    2    0    0  0.00000000000E+00  0.00000000000E+00 -0.11431327533E+04  0.15081361343E+04  0.98372867588E+03 0.  0.
        4    1    3    3  502    0 -0.28381538749E+03  0.21861144803E+03 -0.10882552367E+04  0.11457064250E+04  0.12699999809E+01 0.  1.
       -4    1    3    3    0  502  0.28381538749E+03 -0.21861144803E+03 -0.54877516665E+02  0.36242970922E+03  0.12699999809E+01 0. -1.
</event>
<event>
 5   0  0.7224879E-03  0.9963441E+03  0.7818609E-02  0.9312564E-01
       -1   -1    0    0    0  501  0.00000000000E+00  0.00000000000E+00  0.85297002301E+03  0.85297002303E+03  0.50400001928E-02 0.  1.
        1   -1    0    0  501    0  0.00000000000E+00  0.00000000000E+00 -0.29095441760E+03  0.29095441764E+03  0.50400001928E-02 0. -1.
    10030    2    1    2    0    0  0.00000000000E+00  0.00000000000E+00  0.56201560542E+03  0.11439244407E+04  0.99634410984E+03 0.  0.
        3    1    3    3  502    0 -0.10671728403E+02 -0.41567442365E+03  0.59601250591E+03  0.72672555319E+03  0.10100000352E+00 0.  1.
       -3    1    3    3    0  502  0.10671728403E+02  0.41567442365E+03 -0.33996900495E+02  0.41719888747E+03  0.10100000352E+00 0. -1.
</event>
<event>
 5   0  0.7224879E-03  0.9976644E+03  0.7818609E-02  0.9311110E-01
       -1   -1    0    0    0  501  0.00000000000E+00  0.00000000000E+00  0.19824913398E+03  0.19824913404E+03  0.50400001928E-02 0.  1.
        1   -1    0    0  501    0  0.00000000000E+00  0.00000000000E+00 -0.12551558705E+04  0.12551558705E+04  0.50400001928E-02 0. -1.
    10030    2    1    2    0    0  0.00000000000E+00  0.00000000000E+00 -0.10569067365E+04  0.14534050046E+04  0.99766440127E+03 0.  0.
        3    1    3    3  502    0 -0.18963976605E+03 -0.43579312088E+03 -0.74917133859E+03  0.88720718541E+03  0.10100000352E+00 0. -1.
       -3    1    3    3    0  502  0.18963976605E+03  0.43579312088E+03 -0.30773539795E+03  0.56619781916E+03  0.10100000352E+00 0.  1.
</event>
<event>
 5   0  0.7073004E-03  0.1137247E+04  0.7818609E-02  0.9169630E-01
        1   -1    0    0  501    0  0.00000000000E+00  0.00000000000E+00  0.11356228195E+04  0.11356228195E+04  0.50400001928E-02 0. -1.
       -1   -1    0    0    0  501  0.00000000000E+00  0.00000000000E+00 -0.28471848054E+03  0.28471848058E+03  0.50400001928E-02 0.  1.
    10030    2    1    2    0    0  0.00000000000E+00  0.00000000000E+00  0.85090433897E+03  0.14203413001E+04  0.11372472091E+04 0.  0.
        1    1    3    3  502    0  0.86755278302E+02  0.56169525454E+03  0.40364891336E+03  0.69710865908E+03  0.50400001928E-02 0.  1.
       -1    1    3    3    0  502 -0.86755278302E+02 -0.56169525454E+03  0.44725542561E+03  0.72323264103E+03  0.50400001928E-02 0. -1.
</event>
<event>
 5   0  0.4782125E-03  0.9327898E+03  0.7818609E-02  0.9385496E-01
        4   -1    0    0  501    0  0.00000000000E+00  0.00000000000E+00  0.37895027206E+03  0.37895240017E+03  0.12699999809E+01 0.  1.
       -4   -1    0    0    0  501  0.00000000000E+00  0.00000000000E+00 -0.57401338804E+03  0.57401479297E+03  0.12699999809E+01 0. -1.
    10030    2    1    2    0    0  0.00000000000E+00  0.00000000000E+00 -0.19506311598E+03  0.95296719314E+03  0.93278982198E+03 0.  0.
        5    1    3    3  502    0 -0.32204680002E+03 -0.16982603801E+03  0.20022986117E+03  0.41553473006E+03  0.46999998093E+01 0.  1.
       -5    1    3    3    0  502  0.32204680002E+03  0.16982603801E+03 -0.39529297715E+03  0.53743246308E+03  0.46999998093E+01 0. -1.
</event>
<event>
 5   0  0.1245850E-02  0.1001282E+04  0.7818609E-02  0.9307139E-01
       -2   -1    0    0    0  501  0.00000000000E+00  0.00000000000E+00  0.91351728914E+03  0.91351728914E+03  0.25500000920E-02 0.  1.
        2   -1    0    0  501    0  0.00000000000E+00  0.00000000000E+00 -0.27436985101E+03  0.27436985102E+03  0.25500000920E-02 0. -1.
    10030    2    1    2    0    0  0.00000000000E+00  0.00000000000E+00  0.63914743813E+03  0.11878871402E+04  0.10012823828E+04 0.  0.
        3    1    3    3  502    0  0.23541848447E+03  0.44183613782E+03  0.32045897768E+03  0.59441988702E+03  0.10100000352E+00 0. -1.
       -3    1    3    3    0  502 -0.23541848447E+03 -0.44183613782E+03  0.31868846045E+03  0.59346725313E+03  0.10100000352E+00 0.  1.
</event>
<event>
 5   0  0.1245850E-02  0.9865643E+03  0.7818609E-02  0.9323405E-01
       -2   -1    0    0    0  501  0.00000000000E+00  0.00000000000E+00  0.18911735395E+03  0.18911735396E+03  0.25500000920E-02 0. -1.
        2   -1    0    0  501    0  0.00000000000E+00  0.00000000000E+00 -0.12866469876E+04  0.12866469876E+04  0.25500000920E-02 0.  1.
    10030    2    1    2    0    0  0.00000000000E+00  0.00000000000E+00 -0.10975296336E+04  0.14757643415E+04  0.98656428836E+03 0.  0.
        3    1    3    3  502    0  0.19229437241E+02  0.98170837566E+02  0.17378465164E+03  0.20052032304E+03  0.10100000352E+00 0. -1.
       -3    1    3    3    0  502 -0.19229437241E+02 -0.98170837566E+02 -0.12713142853E+04  0.12752440185E+04  0.10100000352E+00 0.  1.
</event>
<event>
 5   0  0.7224879E-03  0.1007128E+04  0.7818609E-02  0.9300761E-01
        1   -1    0    0  501    0  0.00000000000E+00  0.00000000000E+00  0.31928977236E+04  0.31928977236E+04  0.50400001928E-02 0.  1.
       -1   -1    0    0    0  501  0.00000000000E+00  0.00000000000E+00 -0.79419002747E+02  0.79419002907E+02  0.50400001928E-02 0. -1.
    10030    2    1    2    0    0  0.00000000000E+00  0.00000000000E+00  0.31134787209E+04  0.32723167265E+04  0.10071281018E+04 0.  0.
        3    1    3    3  502    0 -0.14138678893E+03 -0.45776189603E+03  0.20605217229E+04  0.21154871681E+04  0.10100000352E+00 0.  1.
       -3    1    3    3    0  502  0.14138678893E+03  0.45776189603E+03  0.10529569980E+04  0.11568295584E+04  0.10100000352E+00 0. -1.
</event>
<event>
 5   0  0.1216322E-02  0.9668522E+03  0.7818609E-02  0.9345667E-01
       -2   -1    0    0    0  501  0.00000000000E+00  0.00000000000E+00  0.31844617484E+04  0.31844617484E+04  0.25500000920E-02 0. -1.
        2   -1    0    0  501    0  0.00000000000E+00  0.00000000000E+00 -0.73387855208E+02  0.73387855252E+02  0.25500000920E-02 0.  1.
    10030    2    1    2    0    0  0.00000000000E+00  0.00000000000E+00  0.31110738932E+04  0.32578496037E+04  0.96685224886E+03 0.  0.
        2    1    3    3  502    0  0.36068430640E+03  0.21983325572E+03  0.23477806938E+04  0.23854756372E+04  0.25500000920E-02 0. -1.
       -2    1    3    3    0  502 -0.36068430640E+03 -0.21983325572E+03  0.76329319939E+03  0.87237396651E+03  0.25500000920E-02 0.  1.
</event>
<event>
 5   0  0.1240503E-02  0.9816577E+03  0.7818609E-02  0.9328894E-01
        2   -1    0    0  501    0  0.00000000000E+00  0.00000000000E+00  0.67108786894E+03  0.67108786895E+03  0.25500000920E-02 0. -1.
       -2   -1    0    0    0  501  0.00000000000E+00  0.00000000000E+00 -0.35898870978E+03  0.35898870979E+03  0.25500000920E-02 0.  1.
    10030    2    1    2    0    0  0.00000000000E+00  0.00000000000E+00  0.31209915916E+03  0.10300765787E+04  0.98165771678E+03 0.  0.
        1    1    3    3  502    0 -0.15522665182E+03  0.46233776429E+03  0.21410900896E+03  0.53262950488E+03  0.50400001928E-02 0. -1.
       -1    1    3    3    0  502  0.15522665182E+03 -0.46233776429E+03  0.97990150197E+02  0.49744707386E+03  0.50400001928E-02 0.  1.
</event>
<event>
 5   0  0.1191822E-02  0.1001030E+04  0.7818609E-02  0.9307416E-01
       -2   -1    0    0    0  501  0.00000000000E+00  0.00000000000E+00  0.44021864806E+03  0.44021864806E+03  0.25500000920E-02 0.  1.
        2   -1    0    0  501    0  0.00000000000E+00  0.00000000000E+00 -0.56906998545E+03  0.56906998545E+03  0.25500000920E-02 0. -1.
    10030    2    1    2    0    0  0.00000000000E+00  0.00000000000E+00 -0.12885133739E+03  0.10092886335E+04  0.10010299089E+04 0.  0.
        4    1    3    3  502    0 -0.77656094308E+02 -0.13255050360E+03  0.41585875014E+03  0.44332856659E+03  0.12699999809E+01 0.  1.
       -4    1    3    3    0  502  0.77656094308E+02  0.13255050360E+03 -0.54471008753E+03  0.56596006692E+03  0.12699999809E+01 0. -1.
</event>
<event>
 5   0  0.6967681E-03  0.1044908E+04  0.7818609E-02  0.9260618E-01
        1   -1    0    0  501    0  0.00000000000E+00  0.00000000000E+00  0.10030915357E+04  0.10030915358E+04  0.50400001928E-02 0.  1.
       -1   -1    0    0    0  501  0.00000000000E+00  0.00000000000E+00 -0.27211666393E+03  0.27211666397E+03  0.50400001928E-02 0. -1.
    10030    2    1    2    0    0  0.00000000000E+00  0.00000000000E+00  0.73097487181E+03  0.12752081997E+04  0.10449075028E+04 0.  0.
        5    1    3    3  502    0 -0.72208956514E+02 -0.30312915744E+03  0.87723429622E+03  0.93094764619E+03  0.46999998093E+01 0.  1.
       -5    1    3    3    0  502  0.72208956514E+02  0.30312915744E+03 -0.14625942441E+03  0.34426055353E+03  0.46999998093E+01 0. -1.
</event>
<event>
 5   0  0.1240503E-02  0.9999952E+03  0.7818609E-02  0.9308550E-01
       -2   -1    0    0    0  501  0.00000000000E+00  0.00000000000E+00  0.32640163371E+03  0.32640163372E+03  0.25500000920E-02 0.  1.
        2   -1    0    0  501    0  0.00000000000E+00  0.00000000000E+00 -0.76592020583E+03  0.76592020583E+03  0.25500000920E-02 0. -1.
    10030    2    1    2    0    0  0.00000000000E+00  0.00000000000E+00 -0.43951857211E+03  0.10923218396E+04  0.99999521296E+03 0.  0.
        1    1    3    3  502    0  0.47938798799E+03  0.11384044594E+03 -0.31260783417E+03  0.58352047793E+03  0.50400001928E-02 0. -1.
       -1    1    3    3    0  502 -0.47938798799E+03 -0.11384044594E+03 -0.12691073795E+03  0.50880136162E+03  0.50400001928E-02 0.  1.
</event>
<event>
 5   0  0.1245850E-02  0.9849899E+03  0.7818609E-02  0.9325162E-01
        2   -1    0    0  501    0  0.00000000000E+00  0.00000000000E+00  0.11131170670E+04  0.11131170670E+04  0.25500000920E-02 0.  1.
       -2   -1    0    0    0  501  0.00000000000E+00  0.00000000000E+00 -0.21790276859E+03  0.21790276861E+03  0.25500000920E-02 0. -1.
    10030    2    1    2    0    0  0.00000000000E+00  0.00000000000E+00  0.89521429843E+03  0.13310198356E+04  0.98498993027E+03 0.  0.
        3    1    3    3  502    0 -0.17492383525E+03  0.26690540821E+03  0.95450688312E+03  0.10064393897E+04  0.10100000352E+00 0.  1.
       -3    1    3    3    0  502  0.17492383525E+03 -0.26690540821E+03 -0.59292584686E+02  0.32458044591E+03  0.10100000352E+00 0. -1.
</event>
<event>
 5   0  0.7241200E-03  0.1001065E+04  0.7818609E-02  0.9307377E-01
       -1   -1    0    0    0  501  0.00000000000E+00  0.00000000000E+00  0.32710731950E+03  0.32710731954E+03  0.50400001928E-02 0. -1.
        1   -1    0    0  501    0  0.00000000000E+00  0.00000000000E+00 -0.76590438170E+03  0.76590438172E+03  0.50400001928E-02 0.  1.
    10030    2    1    2    0    0  0.00000000000E+00  0.00000000000E+00 -0.43879706220E+03  0.10930117013E+04  0.10010652912E+04 0.  0.
        4    1    3    3  502    0 -0.15128115673E+03  0.17930109339E+03  0.26336209374E+03  0.35269827869E+03  0.12699999809E+01 0. -1.
       -4    1    3    3    0  502  0.15128115673E+03 -0.17930109339E+03 -0.70215915594E+03  0.74031342257E+03  0.12699999809E+01 0.  1.
</event>
<event>
 5   0  0.1221315E-02  0.1014395E+04  0.7818609E-02  0.9292896E-01
       -2   -1    0    0    0  501  0.00000000000E+00  0.00000000000E+00  0.24703975870E+03  0.24703975872E+03  0.25500000920E-02 0.  1.
        2   -1    0    0  501    0  0.00000000000E+00  0.00000000000E+00 -0.10413267280E+04  0.10413267280E+04  0.25500000920E-02 0. -1.
    10030    2    1    2    0    0  0.00000000000E+00  0.00000000000E+00 -0.79428696929E+03  0.12883664867E+04  0.10143946049E+04 0.  0.
        5    1    3    3  502    0  0.29910974114E+03  0.82184292241E+02  0.11248498203E+03  0.32999372164E+03  0.46999998093E+01 0.  1.
       -5    1    3    3    0  502 -0.29910974114E+03 -0.82184292241E+02 -0.90677195132E+03  0.95837276508E+03  0.46999998093E+01 0. -1.
</event>
<event>
 5   0  0.1216322E-02  0.1041943E+04  0.7818609E-02  0.9263702E-01
       -2   -1    0    0    0  501  0.00000000000E+00  0.00000000000E+00  0.19778119407E+03  0.19778119408E+03  0.25500000920E-02 0.  1.
        2   -1    0    0  501    0  0.00000000000E+00  0.00000000000E+00 -0.13722800342E+04  0.13722800342E+04  0.25500000920E-02 0. -1.
    10030    2    1    2    0    0  0.00000000000E+00  0.00000000000E+00 -0.11744988401E+04  0.15700612283E+04  0.10419427696E+04 0.  0.
        2    1    3    3  502    0  0.39804277703E+03 -0.30699365659E+03 -0.79346369633E+03  0.93929111299E+03  0.25500000920E-02 0.  1.
       -2    1    3    3    0  502 -0.39804277703E+03  0.30699365659E+03 -0.38103514381E+03  0.63077011530E+03  0.25500000920E-02 0. -1.
</event>
<event>
 5   0  0.1216322E-02  0.1003744E+04  0.7818609E-02  0.9304448E-01
        2   -1    0    0  501    0  0.00000000000E+00  0.00000000000E+00  0.10192685169E+04  0.10192685169E+04  0.25500000920E-02 0. -1.
       -2   -1    0    0    0  501  0.00000000000E+00  0.00000000000E+00 -0.24711380285E+03  0.24711380286E+03  0.25500000920E-02 0.  1.
    10030    2    1    2    0    0  0.00000000000E+00  0.00000000000E+00  0.77215471402E+03  0.12663823197E+04  0.10037436313E+04 0.  0.
        2    1    3    3  502    0 -0.28963264437E+03 -0.38808917989E+03  0.55238221325E+03  0.73459266927E+03  0.25500000920E-02 0. -1.
       -2    1    3    3    0  502  0.28963264437E+03  0.38808917989E+03  0.21977250077E+03  0.53178965045E+03  0.25500000920E-02 0.  1.
</event>
<event>
 5   0  0.7224879E-03  0.9918141E+03  0.7818609E-02  0.9317569E-01
       -1   -1    0    0    0  501  0.00000000000E+00  0.00000000000E+00  0.32309849654E+03  0.32309849658E+03  0.50400001928E-02 0. -1.
        1   -1    0    0  501    0  0.00000000000E+00  0.00000000000E+00 -0.76114194091E+03  0.76114194092E+03  0.50400001928E-02 0.  1.
    10030    2    1    2    0    0  0.00000000000E+00  0.00000000000E+00 -0.43804344436E+03  0.10842404375E+04  0.99181412935E+03 0.  0.
        3    1    3    3  502    0  0.30810883293E+03  0.13103548751E+02  0.20552578050E+03  0.37059899160E+03  0.10100000352E+00 0. -1.
       -3    1    3    3    0  502 -0.30810883293E+03 -0.13103548751E+02 -0.64356922486E+03  0.71364144591E+03  0.10100000352E+00 0.  1.
</event>
<event>
 5   0  0.7461157E-03  0.1005857E+04  0.7818609E-02  0.9302144E-01
       -1   -1    0    0    0  501  0.00000000000E+00  0.00000000000E+00  0.48606645338E+03  0.48606645341E+03  0.50400001928E-02 0. -1.
        1   -1    0    0  501    0  0.00000000000E+00  0.00000000000E+00 -0.52037580932E+03  0.52037580934E+03  0.50400001928E-02 0.  1.
    10030    2    1    2    0    0  0.00000000000E+00  0.00000000000E+00 -0.34309355934E+02  0.10064422628E+04  0.10058572942E+04 0.  0.
        2    1    3    3  502    0 -0.34877890517E+03  0.19282751933E+03  0.28979407731E+03  0.49275732785E+03  0.25500000920E-02 0. -1.
       -2    1    3    3    0  502  0.34877890517E+03 -0.19282751933E+03 -0.32410343324E+03  0.51368493490E+03  0.25500000920E-02 0.  1.
</event>
<event>
 5   0  0.1240503E-02  0.9979408E+03  0.7818609E-02  0.9310806E-01
       -2   -1    0    0    0  501  0.00000000000E+00  0.00000000000E+00  0.14263107539E+03  0.14263107541E+03  0.25500000920E-02 0.  1.
        2   -1    0    0  501    0  0.00000000000E+00  0.00000000000E+00 -0.17455625546E+04  0.17455625546E+04  0.25500000920E-02 0. -1.
    10030    2    1    2    0    0  0.00000000000E+00  0.00000000000E+00 -0.16029314792E+04  0.18881936300E+04  0.99794080855E+03 0.  0.
        1    1    3    3  502    0  0.10420667527E+03  0.43716557071E+03 -0.12116553483E+04  0.12923163121E+04  0.50400001928E-02 0. -1.
       -1    1    3    3    0  502 -0.10420667527E+03 -0.43716557071E+03 -0.39127613094E+03  0.59587731796E+03  0.50400001928E-02 0.  1.
</event>
<event>
 5   0  0.4782125E-03  0.1013289E+04  0.7818609E-02  0.9294089E-01
        4   -1    0    0  501    0  0.00000000000E+00  0.00000000000E+00  0.35582749475E+03  0.35582976115E+03  0.12699999809E+01 0.  1.
       -4   -1    0    0    0  501  0.00000000000E+00  0.00000000000E+00 -0.72137959158E+03  0.72138070950E+03  0.12699999809E+01 0. -1.
    10030    2    1    2    0    0  0.00000000000E+00  0.00000000000E+00 -0.36555209683E+03  0.10772104707E+04  0.10132887360E+04 0.  0.
        1    1    3    3  502    0 -0.23784716646E+03  0.70950218684E+02 -0.65232124951E+03  0.69794571473E+03  0.50400001928E-02 0. -1.
       -1    1    3    3    0  502  0.23784716646E+03 -0.70950218684E+02  0.28676915269E+03  0.37926475592E+03  0.50400001928E-02 0.  1.
</event>
<event>
 5   0  0.6967681E-03  0.9952849E+03  0.7818609E-02  0.9313731E-01
        1   -1    0    0  501    0  0.00000000000E+00  0.00000000000E+00  0.13744402439E+04  0.13744402439E+04  0.50400001928E-02 0.  1.
       -1   -1    0    0    0  501  0.00000000000E+00  0.00000000000E+00 -0.18018099351E+03  0.18018099358E+03  0.50400001928E-02 0. -1.
    10030    2    1    2    0    0  0.00000000000E+00  0.00000000000E+00  0.11942592503E+04  0.15546212375E+04  0.99528490138E+03 0.  0.
        5    1    3    3  502    0  0.31114157777E+03  0.25712376171E+02 -0.81389240771E+01  0.31234362453E+03  0.46999998093E+01 0. -1.
       -5    1    3    3    0  502 -0.31114157777E+03 -0.25712376171E+02  0.12023981744E+04  0.12422776129E+04  0.46999998093E+01 0.  1.
</event>
<event>
 5   0  0.1221315E-02  0.1000042E+04  0.7818609E-02  0.9308499E-01
        2   -1    0    0  501    0  0.00000000000E+00  0.00000000000E+00  0.44682123875E+03  0.44682123876E+03  0.25500000920E-02 0. -1.
       -2   -1    0    0    0  501  0.00000000000E+00  0.00000000000E+00 -0.55955449599E+03  0.55955449600E+03  0.25500000920E-02 0.  1.
    10030    2    1    2    0    0  0.00000000000E+00  0.00000000000E+00 -0.11273325724E+03  0.10063757348E+04  0.10000416652E+04 0.  0.
        5    1    3    3  502    0 -0.49413418525E+03  0.70006444304E+02 -0.25689985836E+02  0.49975149889E+03  0.46999998093E+01 0. -1.
       -5    1    3    3    0  502  0.49413418525E+03 -0.70006444304E+02 -0.87043271405E+02  0.50662423587E+03  0.46999998093E+01 0.  1.
</event>
<event>
 5   0  0.4782125E-03  0.7254662E+03  0.7818609E-02  0.9674646E-01
       -4   -1    0    0    0  501  0.00000000000E+00  0.00000000000E+00  0.34049882285E+03  0.34050119127E+03  0.12699999809E+01 0.  1.
        4   -1    0    0  501    0  0.00000000000E+00  0.00000000000E+00 -0.38641450944E+03  0.38641659644E+03  0.12699999809E+01 0. -1.
    10030    2    1    2    0    0  0.00000000000E+00  0.00000000000E+00 -0.45915686596E+02  0.72691778772E+03  0.72546620860E+03 0.  0.
        5    1    3    3  502    0 -0.42784960809E+01  0.36267267306E+03 -0.21098964057E+02  0.36334147794E+03  0.46999998093E+01 0. -1.
       -5    1    3    3    0  502  0.42784960809E+01 -0.36267267306E+03 -0.24816722539E+02  0.36357630977E+03  0.46999998093E+01 0.  1.
</event>
<event>
 5   0  0.7224879E-03  0.1011914E+04  0.7818609E-02  0.9295574E-01
       -1   -1    0    0    0  501  0.00000000000E+00  0.00000000000E+00  0.42231526453E+03  0.42231526456E+03  0.50400001928E-02 0. -1.
        1   -1    0    0  501    0  0.00000000000E+00  0.00000000000E+00 -0.60616383067E+03  0.60616383069E+03  0.50400001928E-02 0.  1.
    10030    2    1    2    0    0  0.00000000000E+00  0.00000000000E+00 -0.18384856614E+03  0.10284790953E+04  0.10119135112E+04 0.  0.
        3    1    3    3  502    0  0.12915350905E+03 -0.54724662367E+02 -0.58600668144E+03  0.60256058489E+03  0.10100000352E+00 0.  1.
       -3    1    3    3    0  502 -0.12915350905E+03  0.54724662367E+02  0.40215811530E+03  0.42591851037E+03  0.10100000352E+00 0. -1.
</event>
<event>
 5   0  0.7224879E-03  0.9889053E+03  0.7818609E-02  0.9320798E-01
        1   -1    0    0  501    0  0.00000000000E+00  0.00000000000E+00  0.25308150446E+03  0.25308150451E+03  0.50400001928E-02 0.  1.
       -1   -1    0    0    0  501  0.00000000000E+00  0.00000000000E+00 -0.96602634220E+03  0.96602634222E+03  0.50400001928E-02 0. -1.
    10030    2    1    2    0    0  0.00000000000E+00  0.00000000000E+00 -0.71294483774E+03  0.12191078467E+04  0.98890525345E+03 0.  0.
        3    1    3    3  502    0  0.31013526558E+03  0.37846067810E+03 -0.26871904159E+03  0.55823498756E+03  0.10100000352E+00 0. -1.
       -3    1    3    3    0  502 -0.31013526558E+03 -0.37846067810E+03 -0.44422579615E+03  0.66087285917E+03  0.10100000352E+00 0.  1.
</event>
<event>
 5   0  0.1216322E-02  0.9772260E+03  0.7818609E-02  0.9333882E-01
       -2   -1    0    0    0  501  0.00000000000E+00  0.00000000000E+00  0.19770878112E+03  0.19770878113E+03  0.25500000920E-02 0. -1.
        2   -1    0    0  501    0  0.00000000000E+00  0.00000000000E+00 -0.12075470731E+04  0.12075470731E+04  0.25500000920E-02 0.  1.
    10030    2    1    2    0    0  0.00000000000E+00  0.00000000000E+00 -0.10098382920E+04  0.14052558542E+04  0.97722599223E+03 0.  0.
        2    1    3    3  502    0 -0.32554215227E+03  0.18087603797E+01 -0.10288775232E+04  0.10791524092E+04  0.25500000920E-02 0.  1.
       -2    1    3    3    0  502  0.32554215227E+03 -0.18087603797E+01  0.19039231239E+02  0.32610344502E+03  0.25500000920E-02 0. -1.
</event>
<event>
 5   0  0.1240503E-02  0.9973474E+03  0.7818609E-02  0.9311459E-01
       -2   -1    0    0    0  501  0.00000000000E+00  0.00000000000E+00  0.40907743853E+03  0.40907743854E+03  0.25500000920E-02 0.  1.
        2   -1    0    0  501    0  0.00000000000E+00  0.00000000000E+00 -0.60789337836E+03  0.60789337837E+03  0.25500000920E-02 0. -1.
    10030    2    1    2    0    0  0.00000000000E+00  0.00000000000E+00 -0.19881593983E+03  0.10169708169E+04  0.99734741415E+03 0.  0.
        1    1    3    3  502    0  0.23203447317E+02 -0.49392740930E+03 -0.33539921894E+02  0.49560832520E+03  0.50400001928E-02 0.  1.
       -1    1    3    3    0  502 -0.23203447317E+02  0.49392740930E+03 -0.16527601793E+03  0.52136249170E+03  0.50400001928E-02 0. -1.
</event>
<event>
 5   0  0.7073004E-03  0.1014706E+04  0.7818609E-02  0.9292561E-01
       -1   -1    0    0    0  501  0.00000000000E+00  0.00000000000E+00  0.25676132293E+03  0.25676132298E+03  0.50400001928E-02 0. -1.
        1   -1    0    0  501    0  0.00000000000E+00  0.00000000000E+00 -0.10025147697E+04  0.10025147697E+04  0.50400001928E-02 0.  1.
    10030    2    1    2    0    0  0.00000000000E+00  0.00000000000E+00 -0.74575344674E+03  0.12592760927E+04  0.10147059053E+04 0.  0.
        1    1    3    3  502    0  0.44504961813E+03  0.44015567467E+02 -0.75546844208E+02  0.45355689662E+03  0.50400001928E-02 0. -1.
       -1    1    3    3    0  502 -0.44504961813E+03 -0.44015567467E+02 -0.67020660253E+03  0.80571919604E+03  0.50400001928E-02 0.  1.
</event>
<event>
 5   0  0.1240503E-02  0.1017860E+04  0.7818609E-02  0.9289171E-01
       -2   -1    0    0    0  501  0.00000000000E+00  0.00000000000E+00  0.15704528370E+03  0.15704528372E+03  0.25500000920E-02 0.  1.
        2   -1    0    0  501    0  0.00000000000E+00  0.00000000000E+00 -0.16492672277E+04  0.16492672277E+04  0.25500000920E-02 0. -1.
    10030    2    1    2    0    0  0.00000000000E+00  0.00000000000E+00 -0.14922219440E+04  0.18063125115E+04  0.10178597933E+04 0.  0.
        1    1    3    3  502    0  0.18997678944E+03 -0.28351473235E+02  0.90249570585E+02  0.21222622736E+03  0.50400001928E-02 0.  1.
       -1    1    3    3    0  502 -0.18997678944E+03  0.28351473235E+02 -0.15824715146E+04  0.15940862841E+04  0.50400001928E-02 0. -1.
</event>
<event>
 5   0  0.1240503E-02  0.9946507E+03  0.7818609E-02  0.9314431E-01
       -2   -1    0    0    0  501  0.00000000000E+00  0.00000000000E+00  0.30267727720E+03  0.30267727721E+03  0.25500000920E-02 0. -1.
        2   -1    0    0  501    0  0.00000000000E+00  0.00000000000E+00 -0.81714928309E+03  0.81714928309E+03  0.25500000920E-02 0.  1.
    10030    2    1    2    0    0  0.00000000000E+00  0.00000000000E+00 -0.51447200589E+03  0.11198265603E+04  0.99465073283E+03 0.  0.
        1    1    3    3  502    0 -0.13739493670E+03 -0.36598079339E+03 -0.60335577936E+03  0.71892802579E+03  0.50400001928E-02 0.  1.
       -1    1    3    3    0  502  0.13739493670E+03  0.36598079339E+03  0.88883773473E+02  0.40089853451E+03  0.50400001928E-02 0. -1.
</event>
<event>
 5   0  0.1221315E-02  0.9859426E+03  0.7818609E-02  0.9324098E-01
        2   -1    0    0  501    0  0.00000000000E+00  0.00000000000E+00  0.10867102285E+04  0.10867102285E+04  0.25500000920E-02 0. -1.
       -2   -1    0    0    0  501  0.00000000000E+00  0.00000000000E+00 -0.22362973471E+03  0.22362973473E+03  0.25500000920E-02 0.  1.
    10030    2    1    2    0    0  0.00000000000E+00  0.00000000000E+00  0.86308049374E+03  0.13103399632E+04  0.98594263547E+03 0.  0.
        5    1    3    3  502    0  0.20445983759E+03 -0.42077661798E+03  0.22504143991E+03  0.51915559046E+03  0.46999998093E+01 0.  1.
       -5    1    3    3    0  502 -0.20445983759E+03  0.42077661798E+03  0.63803905383E+03  0.79118437272E+03  0.46999998093E+01 0. -1.
</event>
<event>
 5   0  0.1245850E-02  0.9923339E+03  0.7818609E-02  0.9316993E-01
       -2   -1    0    0    0  501  0.00000000000E+00  0.00000000000E+00  0.38345869172E+03  0.38345869173E+03  0.25500000920E-02 0. -1.
        2   -1    0    0  501    0  0.00000000000E+00  0.00000000000E+00 -0.64200306924E+03  0.64200306924E+03  0.25500000920E-02 0.  1.
    10030    2    1    2    0    0  0.00000000000E+00  0.00000000000E+00 -0.25854437752E+03  0.10254617610E+04  0.99233392972E+03 0.  0.
        3    1    3    3  502    0 -0.24635880748E+03  0.15085513166E+02  0.31551688924E+03  0.40058850748E+03  0.10100000352E+00 0. -1.
       -3    1    3    3    0  502  0.24635880748E+03 -0.15085513166E+02 -0.57406126676E+03  0.62487325349E+03  0.10100000352E+00 0.  1.
</event>
<event>
 5   0  0.7241200E-03  0.1001357E+04  0.7818609E-02  0.9307058E-01
       -1   -1    0    0    0  501  0.00000000000E+00  0.00000000000E+00  0.18430448169E+03  0.18430448175E+03  0.50400001928E-02 0. -1.
        1   -1    0    0  501    0  0.00000000000E+00  0.00000000000E+00 -0.13601352530E+04  0.13601352530E+04  0.50400001928E-02 0.  1.
    10030    2    1    2    0    0  0.00000000000E+00  0.00000000000E+00 -0.11758307713E+04  0.15444397348E+04  0.10013571249E+04 0.  0.
        4    1    3    3  502    0  0.46474265460E+03 -0.15910970466E+03 -0.43857213306E+03  0.65852013023E+03  0.12699999809E+01 0. -1.
       -4    1    3    3    0  502 -0.46474265460E+03  0.15910970466E+03 -0.73725863825E+03  0.88591960453E+03  0.12699999809E+01 0.  1.
</event>
<event>
 5   0  0.7073004E-03  0.1052724E+04  0.7818609E-02  0.9252537E-01
        1   -1    0    0  501    0  0.00000000000E+00  0.00000000000E+00  0.32445126220E+03  0.32445126223E+03  0.50400001928E-02 0.  1.
       -1   -1    0    0    0  501  0.00000000000E+00  0.00000000000E+00 -0.85392417098E+03  0.85392417099E+03  0.50400001928E-02 0. -1.
    10030    2    1    2    0    0  0.00000000000E+00  0.00000000000E+00 -0.52947290878E+03  0.11783754332E+04  0.10527236582E+04 0.  0.
        1    1    3    3  502    0  0.27628259666E+03 -0.24029483671E+03 -0.68800075558E+03  0.77937072147E+03  0.50400001928E-02 0. -1.
       -1    1    3    3    0  502 -0.27628259666E+03  0.24029483671E+03  0.15852784680E+03  0.39900471176E+03  0.50400001928E-02 0.  1.
</event>
<event>
 5   0  0.7073004E-03  0.1008897E+04  0.7818609E-02  0.9298840E-01
       -1   -1    0    0    0  501  0.00000000000E+00  0.00000000000E+00  0.10002497355E+03  0.10002497368E+03  0.50400001928E-02 0.  1.
        1   -1    0    0  501    0  0.00000000000E+00  0.00000000000E+00 -0.25440498439E+04  0.25440498439E+04  0.50400001928E-02 0. -1.
    10030    2    1    2    0    0  0.00000000000E+00  0.00000000000E+00 -0.24440248703E+04  0.26440748175E+04  0.10088974547E+04 0.  0.
        1    1    3    3  502    0 -0.13178813362E+03 -0.35834602040E+03 -0.20860220651E+04  0.21206763164E+04  0.50400001928E-02 0. -1.
       -1    1    3    3    0  502  0.13178813362E+03  0.35834602040E+03 -0.35800280517E+03  0.52339850118E+03  0.50400001928E-02 0.  1.
</event>
<event>
 5   0  0.1221315E-02  0.1004427E+04  0.7818609E-02  0.9303702E-01
        2   -1    0    0  501    0  0.00000000000E+00  0.00000000000E+00  0.35634876213E+03  0.35634876214E+03  0.25500000920E-02 0.  1.
       -2   -1    0    0    0  501  0.00000000000E+00  0.00000000000E+00 -0.70778549621E+03  0.70778549621E+03  0.25500000920E-02 0. -1.
    10030    2    1    2    0    0  0.00000000000E+00  0.00000000000E+00 -0.35143673408E+03  0.10641342584E+04  0.10044271709E+04 0.  0.
        5    1    3    3  502    0  0.82824959646E+02 -0.25454746116E+02 -0.69978285511E+03  0.70514257589E+03  0.46999998093E+01 0. -1.
       -5    1    3    3    0  502 -0.82824959646E+02  0.25454746116E+02  0.34834612103E+03  0.35899168246E+03  0.46999998093E+01 0.  1.
</event>
<event>
 5   0  0.1240503E-02  0.1006776E+04  0.7818609E-02  0.9301144E-01
        2   -1    0    0  501    0  0.00000000000E+00  0.00000000000E+00  0.56966822505E+03  0.56966822505E+03  0.25500000920E-02 0.  1.
       -2   -1    0    0    0  501  0.00000000000E+00  0.00000000000E+00 -0.44481918401E+03  0.44481918401E+03  0.25500000920E-02 0. -1.
    10030    2    1    2    0    0  0.00000000000E+00  0.00000000000E+00  0.12484904104E+03  0.10144874091E+04  0.10067757546E+04 0.  0.
        1    1    3    3  502    0  0.31232767688E+03 -0.21212482219E+03  0.39792201271E+03  0.54853208308E+03  0.50400001928E-02 0.  1.
       -1    1    3    3    0  502 -0.31232767688E+03  0.21212482219E+03 -0.27307297167E+03  0.46595532599E+03  0.50400001928E-02 0. -1.
</event>
<event>
 5   0  0.6967681E-03  0.9975757E+03  0.7818609E-02  0.9311208E-01
       -1   -1    0    0    0  501  0.00000000000E+00  0.00000000000E+00  0.69306247191E+03  0.69306247193E+03  0.50400001928E-02 0. -1.
        1   -1    0    0  501    0  0.00000000000E+00  0.00000000000E+00 -0.35897096145E+03  0.35897096149E+03  0.50400001928E-02 0.  1.
    10030    2    1    2    0    0  0.00000000000E+00  0.00000000000E+00  0.33409151046E+03  0.10520334334E+04  0.99757566513E+03 0.  0.
        5    1    3    3  502    0  0.41488081073E+02 -0.21790119581E+03 -0.30406813089E+03  0.37640631003E+03  0.46999998093E+01 0.  1.
       -5    1    3    3    0  502 -0.41488081073E+02  0.21790119581E+03  0.63815964135E+03  0.67562712339E+03  0.46999998093E+01 0. -1.
</event>
<event>
 5   0  0.7224879E-03  0.6295252E+03  0.7818609E-02  0.9845976E-01
       -1   -1    0    0    0  501  0.00000000000E+00  0.00000000000E+00  0.27215792015E+03  0.27215792019E+03  0.50400001928E-02 0. -1.
        1   -1    0    0  501    0  0.00000000000E+00  0.00000000000E+00 -0.36403679683E+03  0.36403679687E+03  0.50400001928E-02 0.  1.
    10030    2    1    2    0    0  0.00000000000E+00  0.00000000000E+00 -0.91878876686E+02  0.63619471706E+03  0.62952521001E+03 0.  0.
        3    1    3    3  502    0  0.16770426637E+03 -0.11484561763E+03  0.19694250279E+03  0.28302048769E+03  0.10100000352E+00 0. -1.
       -3    1    3    3    0  502 -0.16770426637E+03  0.11484561763E+03 -0.28882137948E+03  0.35317422937E+03  0.10100000352E+00 0.  1.
</event>
<event>
 5   0  0.1240503E-02  0.9992126E+03  0.7818609E-02  0.9309409E-01
        2   -1    0    0  501    0  0.00000000000E+00  0.00000000000E+00  0.19265719151E+04  0.19265719151E+04  0.25500000920E-02 0. -1.
       -2   -1    0    0    0  501  0.00000000000E+00  0.00000000000E+00 -0.12955989505E+03  0.12955989508E+03  0.25500000920E-02 0.  1.
    10030    2    1    2    0    0  0.00000000000E+00  0.00000000000E+00  0.17970120201E+04  0.20561318102E+04  0.99921260033E+03 0.  0.
        1    1    3    3  502    0 -0.43656747682E+03 -0.22293691721E+03  0.10971022666E+04  0.12016344761E+04  0.50400001928E-02 0. -1.
       -1    1    3    3    0  502  0.43656747682E+03  0.22293691721E+03  0.69990975351E+03  0.85449733408E+03  0.50400001928E-02 0.  1.
</event>
<event>
 5   0  0.7073004E-03  0.9932259E+03  0.7818609E-02  0.9316006E-01
        1   -1    0    0  501    0  0.00000000000E+00  0.00000000000E+00  0.25927912256E+04  0.25927912256E+04  0.50400001928E-02 0. -1.
       -1   -1    0    0    0  501  0.00000000000E+00  0.00000000000E+00 -0.95119274005E+02  0.95119274138E+02  0.50400001928E-02 0.  1.
    10030    2    1    2    0    0  0.00000000000E+00  0.00000000000E+00  0.24976719516E+04  0.26879104997E+04  0.99322589417E+03 0.  0.
        1    1    3    3  502    0 -0.35139436290E+03 -0.16676017098E+03  0.20844362489E+04  0.21204153906E+04  0.50400001928E-02 0. -1.
       -1    1    3    3    0  502  0.35139436290E+03  0.16676017098E+03  0.41323570269E+03  0.56749510915E+03  0.50400001928E-02 0.  1.
</event>
<event>
 5   0  0.7461157E-03  0.9891501E+03  0.7818609E-02  0.9320525E-01
       -1   -1    0    0    0  501  0.00000000000E+00  0.00000000000E+00  0.42196574943E+03  0.42196574946E+03  0.50400001928E-02 0.  1.
        1   -1    0    0  501    0  0.00000000000E+00  0.00000000000E+00 -0.57967853097E+03  0.57967853100E+03  0.50400001928E-02 0. -1.
    10030    2    1    2    0    0  0.00000000000E+00  0.00000000000E+00 -0.15771278154E+03  0.10016442805E+04  0.98915011152E+03 0.  0.
        2    1    3    3  502    0 -0.15417741885E+03 -0.42390920523E+03  0.12652258319E+03  0.46848442325E+03  0.25500000920E-02 0.  1.
       -2    1    3    3    0  502  0.15417741885E+03  0.42390920523E+03 -0.28423536473E+03  0.53315985721E+03  0.25500000920E-02 0. -1.
</event>
<event>
 5   0  0.7241200E-03  0.9860237E+03  0.7818609E-02  0.9324008E-01
       -1   -1    0    0    0  501  0.00000000000E+00  0.00000000000E+00  0.19757963984E+03  0.19757963990E+03  0.50400001928E-02 0.  1.
        1   -1    0    0  501    0  0.00000000000E+00  0.00000000000E+00 -0.12301910332E+04  0.12301910333E+04  0.50400001928E-02 0. -1.
    10030    2    1    2    0    0  0.00000000000E+00  0.00000000000E+00 -0.10326113934E+04  0.14277706732E+04  0.98602373467E+03 0.  0.
        4    1    3    3  502    0  0.19387242225E+03 -0.40636239997E+03 -0.80714341421E+03  0.92422887870E+03  0.12699999809E+01 0. -1.
       -4    1    3    3    0  502 -0.19387242225E+03  0.40636239997E+03 -0.22546797920E+03  0.50354179446E+03  0.12699999809E+01 0.  1.
</event>
<event>
 5   0  0.7461157E-03  0.9419827E+03  0.7818609E-02  0.9374571E-01
        1   -1    0    0  501    0  0.00000000000E+00  0.00000000000E+00  0.36587261877E+03  0.36587261880E+03  0.50400001928E-02 0. -1.
       -1   -1    0    0    0  501  0.00000000000E+00  0.00000000000E+00 -0.60631169546E+03  0.60631169548E+03  0.50400001928E-02 0.  1.
    10030    2    1    2    0    0  0.00000000000E+00  0.00000000000E+00 -0.24043907669E+03  0.97218431428E+03  0.94198269163E+03 0.  0.
        2    1    3    3  502    0  0.41512493918E+03 -0.13212973161E+03  0.64533546143E+02  0.44039931845E+03  0.25500000920E-02 0. -1.
       -2    1    3    3    0  502 -0.41512493918E+03  0.13212973161E+03 -0.30497262284E+03  0.53178499583E+03  0.25500000920E-02 0.  1.
</event>
<event>
 5   0  0.7073004E-03  0.9948321E+03  0.7818609E-02  0.9314231E-01
        1   -1    0    0  501    0  0.00000000000E+00  0.00000000000E+00  0.46235877324E+03  0.46235877326E+03  0.50400001928E-02 0. -1.
       -1   -1    0    0    0  501  0.00000000000E+00  0.00000000000E+00 -0.53513146270E+03  0.53513146273E+03  0.50400001928E-02 0.  1.
    10030    2    1    2    0    0  0.00000000000E+00  0.00000000000E+00 -0.72772689469E+02  0.99749023599E+03  0.99483209969E+03 0.  0.
        1    1    3    3  502    0 -0.43830169565E+03 -0.23323476706E+03 -0.60417470550E+01  0.49653130386E+03  0.50400001928E-02 0. -1.
       -1    1    3    3    0  502  0.43830169565E+03  0.23323476706E+03 -0.66730942414E+02  0.50095893213E+03  0.50400001928E-02 0.  1.
</event>
<event>
 5   0  0.7224879E-03  0.9922293E+03  0.7818609E-02  0.9317109E-01
       -1   -1    0    0    0  501  0.00000000000E+00  0.00000000000E+00  0.77923336013E+03  0.77923336014E+03  0.50400001928E-02 0. -1.
        1   -1    0    0  501    0  0.00000000000E+00  0.00000000000E+00 -0.31586143918E+03  0.31586143922E+03  0.50400001928E-02 0.  1.
    10030    2    1    2    0    0  0.00000000000E+00  0.00000000000E+00  0.46337192095E+03  0.10950947994E+04  0.99222934973E+03 0.  0.
        3    1    3    3  502    0  0.47429020637E+03  0.78182429789E+02  0.36715486295E+03  0.60486890792E+03  0.10100000352E+00 0. -1.
       -3    1    3    3    0  502 -0.47429020637E+03 -0.78182429789E+02  0.96217058003E+02  0.49022589144E+03  0.10100000352E+00 0.  1.
</event>
<event>
 5   0  0.7241200E-03  0.1020337E+04  0.7818609E-02  0.9286517E-01
        1   -1    0    0  501    0  0.00000000000E+00  0.00000000000E+00  0.80416687397E+03  0.80416687399E+03  0.50400001928E-02 0. -1.
       -1   -1    0    0    0  501  0.00000000000E+00  0.00000000000E+00 -0.32365393375E+03  0.32365393379E+03  0.50400001928E-02 0.  1.
    10030    2    1    2    0    0  0.00000000000E+00  0.00000000000E+00  0.48051294022E+03  0.11278208078E+04  0.10203367526E+04 0.  0.
        4    1    3    3  502    0 -0.29752174934E+03  0.48647689078E+02  0.69517459416E+03  0.75773024108E+03  0.12699999809E+01 0. -1.
       -4    1    3    3    0  502  0.29752174934E+03 -0.48647689078E+02 -0.21466165394E+03  0.37009056670E+03  0.12699999809E+01 0.  1.
</event>
<event>
 5   0  0.1245850E-02  0.9847078E+03  0.7818609E-02  0.9325478E-01
        2   -1    0    0  501    0  0.00000000000E+00  0.00000000000E+00  0.29882531390E+04  0.29882531390E+04  0.25500000920E-02 0.  1.
       -2   -1    0    0    0  501  0.00000000000E+00  0.00000000000E+00 -0.81121759913E+02  0.81121759953E+02  0.25500000920E-02 0. -1.
    10030    2    1    2    0    0  0.00000000000E+00  0.00000000000E+00  0.29071313791E+04  0.30693748990E+04  0.98470778157E+03 0.  0.
        3    1    3    3  502    0  0.43818608635E+03 -0.38356691553E+01  0.75385700038E+03  0.87196453245E+03  0.10100000352E+00 0.  1.
       -3    1    3    3    0  502 -0.43818608635E+03  0.38356691553E+01  0.21532743788E+04  0.21974103666E+04  0.10100000352E+00 0. -1.
</event>
<event>
 5   0  0.7461157E-03  0.1036947E+04  0.7818609E-02  0.9268925E-01
        1   -1    0    0  501    0  0.00000000000E+00  0.00000000000E+00  0.54039740253E+03  0.54039740255E+03  0.50400001928E-02 0.  1.
       -1   -1    0    0    0  501  0.00000000000E+00  0.00000000000E+00 -0.49743902501E+03  0.49743902503E+03  0.50400001928E-02 0. -1.
    10030    2    1    2    0    0  0.00000000000E+00  0.00000000000E+00  0.42958377520E+02  0.10378364276E+04  0.10369469746E+04 0.  0.
        2    1    3    3  502    0  0.47659144187E+03  0.91364264065E+02  0.20419515732E+03  0.52648123755E+03  0.25500000920E-02 0.  1.
       -2    1    3    3    0  502 -0.47659144187E+03 -0.91364264065E+02 -0.16123677980E+03  0.51135519003E+03  0.25500000920E-02 0. -1.
</event>
<event>
 5   0  0.7224879E-03  0.1002181E+04  0.7818609E-02  0.9306156E-01
        1   -1    0    0  501    0  0.00000000000E+00  0.00000000000E+00  0.85664974322E+03  0.85664974324E+03  0.50400001928E-02 0.  1.
       -1   -1    0    0    0  501  0.00000000000E+00  0.00000000000E+00 -0.29310873720E+03  0.29310873724E+03  0.50400001928E-02 0. -1.
    10030    2    1    2    0    0  0.00000000000E+00  0.00000000000E+00  0.56354100602E+03  0.11497584805E+04  0.10021806713E+04 0.  0.
        3    1    3    3  502    0 -0.44785579663E+03  0.48958639104E+02  0.53343519342E+03  0.69822981796E+03  0.10100000352E+00 0. -1.
       -3    1    3    3    0  502  0.44785579663E+03 -0.48958639104E+02  0.30105812607E+02  0.45152866251E+03  0.10100000352E+00 0.  1.
</event>
<event>
 5   0  0.4782125E-03  0.1005113E+04  0.7818609E-02  0.9302955E-01
       -4   -1    0    0    0  501  0.00000000000E+00  0.00000000000E+00  0.12946781873E+04  0.12946788102E+04  0.12699999809E+01 0.  1.
        4   -1    0    0  501    0  0.00000000000E+00  0.00000000000E+00 -0.19507492187E+03  0.19507905588E+03  0.12699999809E+01 0. -1.
    10030    2    1    2    0    0  0.00000000000E+00  0.00000000000E+00  0.10996032654E+04  0.14897578661E+04  0.10051125102E+04 0.  0.
        5    1    3    3  502    0 -0.27802468594E+02 -0.20631035824E+03  0.12277330330E+04  0.12452660083E+04  0.46999998093E+01 0.  1.
       -5    1    3    3    0  502  0.27802468594E+02  0.20631035824E+03 -0.12812976756E+03  0.24449185776E+03  0.46999998093E+01 0. -1.
</event>
<event>
 5   0  0.1240503E-02  0.9868213E+03  0.7818609E-02  0.9323118E-01
       -2   -1    0    0    0  501  0.00000000000E+00  0.00000000000E+00  0.34469808619E+03  0.34469808620E+03  0.25500000920E-02 0.  1.
        2   -1    0    0  501    0  0.00000000000E+00  0.00000000000E+00 -0.70628205913E+03  0.70628205914E+03  0.25500000920E-02 0. -1.
    10030    2    1    2    0    0  0.00000000000E+00  0.00000000000E+00 -0.36158397294E+03  0.10509801453E+04  0.98682130926E+03 0.  0.
        1    1    3    3  502    0 -0.59457768885E+02  0.20098028444E+03  0.29493248653E+03  0.36181966868E+03  0.50400001928E-02 0.  1.
       -1    1    3    3    0  502  0.59457768885E+02 -0.20098028444E+03 -0.65651645947E+03  0.68916047666E+03  0.50400001928E-02 0. -1.
</event>
<event>
 5   0  0.4782125E-03  0.1087695E+04  0.7818609E-02  0.9217269E-01
        3   -1    0    0  501    0  0.00000000000E+00  0.00000000000E+00  0.14415661618E+04  0.14415661653E+04  0.10100000352E+00 0. -1.
       -3   -1    0    0    0  501  0.00000000000E+00  0.00000000000E+00 -0.20517274441E+03  0.20517276927E+03  0.10100000352E+00 0.  1.
    10030    2    1    2    0    0  0.00000000000E+00  0.00000000000E+00  0.12363934174E+04  0.16467389346E+04  0.10876950106E+04 0.  0.
        5    1    3    3  502    0  0.24402224855E+03 -0.34039692595E+03  0.93018678243E+02  0.42905884151E+03  0.46999998093E+01 0.  1.
       -5    1    3    3    0  502 -0.24402224855E+03  0.34039692595E+03  0.11433747391E+04  0.12176800931E+04  0.46999998093E+01 0. -1.
</event>
<event>
 5   0  0.7073004E-03  0.1018374E+04  0.7818609E-02  0.9288619E-01
       -1   -1    0    0    0  501  0.00000000000E+00  0.00000000000E+00  0.16431168046E+03  0.16431168054E+03  0.50400001928E-02 0.  1.
        1   -1    0    0  501    0  0.00000000000E+00  0.00000000000E+00 -0.15779228422E+04  0.15779228422E+04  0.50400001928E-02 0. -1.
    10030    2    1    2    0    0  0.00000000000E+00  0.00000000000E+00 -0.14136111617E+04  0.17422345227E+04  0.10183735148E+04 0.  0.
        1    1    3    3  502    0  0.49606540630E+02  0.50219790457E+03 -0.82293369122E+03  0.96534108190E+03  0.50400001928E-02 0. -1.
       -1    1    3    3    0  502 -0.49606540630E+02 -0.50219790457E+03 -0.59067747051E+03  0.77689344084E+03  0.50400001928E-02 0.  1.
</event>
<event>
 5   0  0.1216322E-02  0.9951775E+03  0.7818609E-02  0.9313850E-01
       -2   -1    0    0    0  501  0.00000000000E+00  0.00000000000E+00  0.28173842330E+03  0.28173842331E+03  0.25500000920E-02 0.  1.
        2   -1    0    0  501    0  0.00000000000E+00  0.00000000000E+00 -0.87880999824E+03  0.87880999824E+03  0.25500000920E-02 0. -1.
    10030    2    1    2    0    0  0.00000000000E+00  0.00000000000E+00 -0.59707157494E+03  0.11605484215E+04  0.99517745813E+03 0.  0.
        2    1    3    3  502    0 -0.37699988700E+03  0.11992338123E+03 -0.65048808844E+03  0.76134439341E+03  0.25500000920E-02 0. -1.
       -2    1    3    3    0  502  0.37699988700E+03 -0.11992338123E+03  0.53416513505E+02  0.39920402814E+03  0.25500000920E-02 0.  1.
</event>
<event>
 5   0  0.6967681E-03  0.1011454E+04  0.7818609E-02  0.9296070E-01
        1   -1    0    0  501    0  0.00000000000E+00  0.00000000000E+00  0.44181859241E+03  0.44181859243E+03  0.50400001928E-02 0.  1.
       -1   -1    0    0    0  501  0.00000000000E+00  0.00000000000E+00 -0.57888008177E+03  0.57888008179E+03  0.50400001928E-02 0. -1.
    10030    2    1    2    0    0  0.00000000000E+00  0.00000000000E+00 -0.13706148937E+03  0.10206986742E+04  0.10114543646E+04 0.  0.
        5    1    3    3  502    0 -0.34497418095E+02  0.31113948468E+03 -0.46932568854E+03  0.56416889554E+03  0.46999998093E+01 0. -1.
       -5    1    3    3    0  502  0.34497418095E+02 -0.31113948468E+03  0.33226419917E+03  0.45652977869E+03  0.46999998093E+01 0.  1.
</event>
<event>
 5   0  0.7241200E-03  0.1015711E+04  0.7818609E-02  0.9291479E-01
       -1   -1    0    0    0  501  0.00000000000E+00  0.00000000000E+00  0.79638410667E+03  0.79638410668E+03  0.50400001928E-02 0. -1.
        1   -1    0    0  501    0  0.00000000000E+00  0.00000000000E+00 -0.32386028845E+03  0.32386028848E+03  0.50400001928E-02 0.  1.
    10030    2    1    2    0    0  0.00000000000E+00  0.00000000000E+00  0.47252381822E+03  0.11202443952E+04  0.10157109560E+04 0.  0.
        4    1    3    3  502    0  0.21902209156E+03 -0.35381134869E+03  0.55736488708E+03  0.69556479015E+03  0.12699999809E+01 0. -1.
       -4    1    3    3    0  502 -0.21902209156E+03  0.35381134869E+03 -0.84841068860E+02  0.42467960501E+03  0.12699999809E+01 0.  1.
</event>
<event>
 5   0  0.7224879E-03  0.1000190E+04  0.7818609E-02  0.9308336E-01
        1   -1    0    0  501    0  0.00000000000E+00  0.00000000000E+00  0.74287933073E+03  0.74287933075E+03  0.50400001928E-02 0. -1.
       -1   -1    0    0    0  501  0.00000000000E+00  0.00000000000E+00 -0.33665661255E+03  0.33665661259E+03  0.50400001928E-02 0.  1.
    10030    2    1    2    0    0  0.00000000000E+00  0.00000000000E+00  0.40622271818E+03  0.10795359433E+04  0.10001904600E+04 0.  0.
        3    1    3    3  502    0  0.25421631466E+03  0.10266866623E+03  0.65453532259E+03  0.70963602529E+03  0.10100000352E+00 0. -1.
       -3    1    3    3    0  502 -0.25421631466E+03 -0.10266866623E+03 -0.24831260441E+03  0.36989991805E+03  0.10100000352E+00 0.  1.
</event>
<event>
 5   0  0.4782125E-03  0.9798839E+03  0.7818609E-02  0.9330887E-01
       -3   -1    0    0    0  501  0.00000000000E+00  0.00000000000E+00  0.14599197106E+04  0.14599197141E+04  0.10100000352E+00 0. -1.
        3   -1    0    0  501    0  0.00000000000E+00  0.00000000000E+00 -0.16442212456E+03  0.16442215559E+03  0.10100000352E+00 0.  1.
    10030    2    1    2    0    0  0.00000000000E+00  0.00000000000E+00  0.12954975860E+04  0.16243418696E+04  0.97988392891E+03 0.  0.
        4    1    3    3  502    0 -0.22142852263E+03  0.32398781128E+03  0.16149821575E+03  0.42436067099E+03  0.12699999809E+01 0.  1.
       -4    1    3    3    0  502  0.22142852263E+03 -0.32398781128E+03  0.11339993702E+04  0.11999811986E+04  0.12699999809E+01 0. -1.
</event>
<event>
 5   0  0.1245850E-02  0.1008465E+04  0.7818609E-02  0.9299309E-01
       -2   -1    0    0    0  501  0.00000000000E+00  0.00000000000E+00  0.27663939919E+03  0.27663939920E+03  0.25500000920E-02 0. -1.
        2   -1    0    0  501    0  0.00000000000E+00  0.00000000000E+00 -0.91906819322E+03  0.91906819322E+03  0.25500000920E-02 0.  1.
    10030    2    1    2    0    0  0.00000000000E+00  0.00000000000E+00 -0.64242879403E+03  0.11957075924E+04  0.10084651165E+04 0.  0.
        3    1    3    3  502    0 -0.11795392169E+03 -0.21714513355E+03 -0.84235051572E+03  0.87784938241E+03  0.10100000352E+00 0.  1.
       -3    1    3    3    0  502  0.11795392169E+03  0.21714513355E+03  0.19992172169E+03  0.31785821001E+03  0.10100000352E+00 0. -1.
</event>
<event>
 5   0  0.1191822E-02  0.9967606E+03  0.7818609E-02  0.9312105E-01
        2   -1    0    0  501    0  0.00000000000E+00  0.00000000000E+00  0.19778054658E+04  0.19778054658E+04  0.25500000920E-02 0. -1.
       -2   -1    0    0    0  501  0.00000000000E+00  0.00000000000E+00 -0.12558511941E+03  0.12558511944E+03  0.25500000920E-02 0.  1.
    10030    2    1    2    0    0  0.00000000000E+00  0.00000000000E+00  0.18522203464E+04  0.21033905852E+04  0.99676062446E+03 0.  0.
        4    1    3    3  502    0 -0.40018166031E+03 -0.23642282000E+03  0.54662004656E+03  0.71752087027E+03  0.12699999809E+01 0.  1.
       -4    1    3    3    0  502  0.40018166031E+03  0.23642282000E+03  0.13056002998E+04  0.13858697150E+04  0.12699999809E+01 0. -1.
</event>
<event>
 5   0  0.7241200E-03  0.1037596E+04  0.7818609E-02  0.9268245E-01
        1   -1    0    0  501    0  0.00000000000E+00  0.00000000000E+00  0.48976127155E+03  0.48976127157E+03  0.50400001928E-02 0. -1.
       -1   -1    0    0    0  501  0.00000000000E+00  0.00000000000E+00 -0.54955625836E+03  0.54955625838E+03  0.50400001928E-02 0.  1.
    10030    2    1    2    0    0  0.00000000000E+00  0.00000000000E+00 -0.59794986810E+02  0.10393175300E+04  0.10375960137E+04 0.  0.
        4    1    3    3  502    0  0.19558777785E+03  0.83703362721E+02 -0.50385157277E+03  0.54692673372E+03  0.12699999809E+01 0.  1.
       -4    1    3    3    0  502 -0.19558777785E+03 -0.83703362721E+02  0.44405658596E+03  0.49239079623E+03  0.12699999809E+01 0. -1.
</event>
<event>
 5   0  0.6967681E-03  0.9892415E+03  0.7818609E-02  0.9320424E-01
        1   -1    0    0  501    0  0.00000000000E+00  0.00000000000E+00  0.14424566756E+04  0.14424566756E+04  0.50400001928E-02 0. -1.
       -1   -1    0    0    0  501  0.00000000000E+00  0.00000000000E+00 -0.16960627911E+03  0.16960627919E+03  0.50400001928E-02 0.  1.
    10030    2    1    2    0    0  0.00000000000E+00  0.00000000000E+00  0.12728503965E+04  0.16120629548E+04  0.98924154703E+03 0.  0.
        5    1    3    3  502    0  0.23157312132E+02  0.35911785689E+03  0.83500695505E+02  0.36945412758E+03  0.46999998093E+01 0.  1.
       -5    1    3    3    0  502 -0.23157312132E+02 -0.35911785689E+03  0.11893497010E+04  0.12426088272E+04  0.46999998093E+01 0. -1.
</event>
<event>
 5   0  0.1245850E-02  0.1116948E+04  0.7818609E-02  0.9188829E-01
       -2   -1    0    0    0  501  0.00000000000E+00  0.00000000000E+00  0.24039328897E+03  0.24039328898E+03  0.25500000920E-02 0.  1.
        2   -1    0    0  501    0  0.00000000000E+00  0.00000000000E+00 -0.12974282109E+04  0.12974282109E+04  0.25500000920E-02 0. -1.
    10030    2    1    2    0    0  0.00000000000E+00  0.00000000000E+00 -0.10570349219E+04  0.15378214999E+04  0.11169476887E+04 0.  0.
        3    1    3    3  502    0  0.32132379220E+03  0.51900103695E+02  0.96301845177E+02  0.33943579037E+03  0.10100000352E+00 0.  1.
       -3    1    3    3    0  502 -0.32132379220E+03 -0.51900103695E+02 -0.11533367671E+04  0.11983857095E+04  0.10100000352E+00 0. -1.
</event>
<event>
 5   0  0.7241200E-03  0.9958779E+03  0.7818609E-02  0.9313077E-01
       -1   -1    0    0    0  501  0.00000000000E+00  0.00000000000E+00  0.71128778565E+03  0.71128778566E+03  0.50400001928E-02 0.  1.
        1   -1    0    0  501    0  0.00000000000E+00  0.00000000000E+00 -0.34858348969E+03  0.34858348972E+03  0.50400001928E-02 0. -1.
    10030    2    1    2    0    0  0.00000000000E+00  0.00000000000E+00  0.36270429596E+03  0.10598712754E+04  0.99587786103E+03 0.  0.
        4    1    3    3  502    0  0.16724321223E+03 -0.45259909088E+03  0.50464227662E+02  0.48514377278E+03  0.12699999809E+01 0.  1.
       -4    1    3    3    0  502 -0.16724321223E+03  0.45259909088E+03  0.31224006830E+03  0.57472750260E+03  0.12699999809E+01 0. -1.
</event>
<event>
 5   0  0.1245850E-02  0.1006961E+04  0.7818609E-02  0.9300943E-01
        2   -1    0    0  501    0  0.00000000000E+00  0.00000000000E+00  0.12719162486E+04  0.12719162486E+04  0.25500000920E-02 0. -1.
       -2   -1    0    0    0  501  0.00000000000E+00  0.00000000000E+00 -0.19929984725E+03  0.19929984727E+03  0.25500000920E-02 0.  1.
    10030    2    1    2    0    0  0.00000000000E+00  0.00000000000E+00  0.10726164014E+04  0.14712160959E+04  0.10069611990E+04 0.  0.
        3    1    3    3  502    0  0.11051025129E+03  0.49099319315E+03  0.51534474248E+03  0.72032426389E+03  0.10100000352E+00 0.  1.
       -3    1    3    3    0  502 -0.11051025129E+03 -0.49099319315E+03  0.55727165890E+03  0.75089183200E+03  0.10100000352E+00 0. -1.
</event>
<event>
 5   0  0.6967681E-03  0.8690068E+03  0.7818609E-02  0.9465176E-01
        1   -1    0    0  501    0  0.00000000000E+00  0.00000000000E+00  0.87637992689E+03  0.87637992690E+03  0.50400001928E-02 0. -1.
       -1   -1    0    0    0  501  0.00000000000E+00  0.00000000000E+00 -0.21542391697E+03  0.21542391703E+03  0.50400001928E-02 0.  1.
    10030    2    1    2    0    0  0.00000000000E+00  0.00000000000E+00  0.66095600992E+03  0.10918038439E+04  0.86900678166E+03 0.  0.
        5    1    3    3  502    0  0.21408798067E+02 -0.48632160959E+02 -0.21129434795E+03  0.21792387476E+03  0.46999998093E+01 0.  1.
       -5    1    3    3    0  502 -0.21408798067E+02  0.48632160959E+02  0.87225035787E+03  0.87387996917E+03  0.46999998093E+01 0. -1.
</event>
<event>
 5   0  0.7461157E-03  0.9708203E+03  0.7818609E-02  0.9341141E-01
       -1   -1    0    0    0  501  0.00000000000E+00  0.00000000000E+00  0.17884957676E+03  0.17884957683E+03  0.50400001928E-02 0.  1.
        1   -1    0    0  501    0  0.00000000000E+00  0.00000000000E+00 -0.13174367006E+04  0.13174367006E+04  0.50400001928E-02 0. -1.
    10030    2    1    2    0    0  0.00000000000E+00  0.00000000000E+00 -0.11385871238E+04  0.14962862774E+04  0.97082026424E+03 0.  0.
        2    1    3    3  502    0 -0.35524763332E+03 -0.16596475101E+02 -0.10784850205E+04  0.11356083230E+04  0.25500000920E-02 0. -1.
       -2    1    3    3    0  502  0.35524763332E+03  0.16596475101E+02 -0.60102103389E+02  0.36067795442E+03  0.25500000920E-02 0.  1.
</event>
<event>
 5   0  0.1221315E-02  0.9838622E+03  0.7818609E-02  0.9326424E-01
       -2   -1    0    0    0  501  0.00000000000E+00  0.00000000000E+00  0.61623879823E+03  0.61623879823E+03  0.25500000920E-02 0.  1.
        2   -1    0    0  501    0  0.00000000000E+00  0.00000000000E+00 -0.39269872588E+03  0.39269872588E+03  0.25500000920E-02 0. -1.
    10030    2    1    2    0    0  0.00000000000E+00  0.00000000000E+00  0.22354007235E+03  0.10089375241E+04  0.98386216698E+03 0.  0.
        5    1    3    3  502    0  0.33696281300E+03  0.31016214218E+03 -0.72331551136E+02  0.46367923727E+03  0.46999998093E+01 0. -1.
       -5    1    3    3    0  502 -0.33696281300E+03 -0.31016214218E+03  0.29587162349E+03  0.54525828684E+03  0.46999998093E+01 0.  1.
</event>
<event>
 5   0  0.7073004E-03  0.9869888E+03  0.7818609E-02  0.9322931E-01
       -1   -1    0    0    0  501  0.00000000000E+00  0.00000000000E+00  0.23158405603E+03  0.23158405609E+03  0.50400001928E-02 0. -1.
        1   -1    0    0  501    0  0.00000000000E+00  0.00000000000E+00 -0.10516127535E+04  0.10516127535E+04  0.50400001928E-02 0.  1.
    10030    2    1    2    0    0  0.00000000000E+00  0.00000000000E+00 -0.82002869742E+03  0.12831968096E+04  0.98698884870E+03 0.  0.
        1    1    3    3  502    0 -0.42326637893E+03  0.13772973164E+03 -0.13295656361E+03  0.46454424369E+03  0.50400001928E-02 0. -1.
       -1    1    3    3    0  502  0.42326637893E+03 -0.13772973164E+03 -0.68707213381E+03  0.81865256587E+03  0.50400001928E-02 0.  1.
</event>
<event>
 5   0  0.7073004E-03  0.1001528E+04  0.7818609E-02  0.9306871E-01
        1   -1    0    0  501    0  0.00000000000E+00  0.00000000000E+00  0.43061856152E+03  0.43061856155E+03  0.50400001928E-02 0.  1.
       -1   -1    0    0    0  501  0.00000000000E+00  0.00000000000E+00 -0.58233537189E+03  0.58233537191E+03  0.50400001928E-02 0. -1.
    10030    2    1    2    0    0  0.00000000000E+00  0.00000000000E+00 -0.15171681037E+03  0.10129539335E+04  0.10015276735E+04 0.  0.
        1    1    3    3  502    0  0.45972639738E+02  0.31419589791E+03 -0.46748639764E+03  0.56513368142E+03  0.50400001928E-02 0. -1.
       -1    1    3    3    0  502 -0.45972639738E+02 -0.31419589791E+03  0.31576958727E+03  0.44782025204E+03  0.50400001928E-02 0.  1.
</event>
<event>
 5   0  0.1245850E-02  0.9507025E+03  0.7818609E-02  0.9364330E-01
        2   -1    0    0  501    0  0.00000000000E+00  0.00000000000E+00  0.51598012509E+03  0.51598012510E+03  0.25500000920E-02 0.  1.
       -2   -1    0    0    0  501  0.00000000000E+00  0.00000000000E+00 -0.43792152537E+03  0.43792152537E+03  0.25500000920E-02 0. -1.
    10030    2    1    2    0    0  0.00000000000E+00  0.00000000000E+00  0.78058599729E+02  0.95390165047E+03  0.95070248437E+03 0.  0.
        3    1    3    3  502    0  0.86839714439E+02 -0.90527406266E+02 -0.42101379224E+03  0.43930509984E+03  0.10100000352E+00 0. -1.
       -3    1    3    3    0  502 -0.86839714439E+02  0.90527406266E+02  0.49907239197E+03  0.51459655063E+03  0.10100000352E+00 0.  1.
</event>
<event>
 5   0  0.7241200E-03  0.1007658E+04  0.7818609E-02  0.9300186E-01
       -1   -1    0    0    0  501  0.00000000000E+00  0.00000000000E+00  0.27498632065E+03  0.27498632069E+03  0.50400001928E-02 0. -1.
        1   -1    0    0  501    0  0.00000000000E+00  0.00000000000E+00 -0.92311307089E+03  0.92311307091E+03  0.50400001928E-02 0.  1.
    10030    2    1    2    0    0  0.00000000000E+00  0.00000000000E+00 -0.64812675025E+03  0.11980993916E+04  0.10076576144E+04 0.  0.
        4    1    3    3  502    0  0.96902914286E+02  0.21085227446E+03  0.20766183505E+03  0.31140633757E+03  0.12699999809E+01 0. -1.
       -4    1    3    3    0  502 -0.96902914286E+02 -0.21085227446E+03 -0.85578858530E+03  0.88669305403E+03  0.12699999809E+01 0.  1.
</event>
<event>
 5   0  0.7073004E-03  0.1003845E+04  0.7818609E-02  0.9304338E-01
       -1   -1    0    0    0  501  0.00000000000E+00  0.00000000000E+00  0.15444405843E+03  0.15444405851E+03  0.50400001928E-02 0. -1.
        1   -1    0    0  501    0  0.00000000000E+00  0.00000000000E+00 -0.16311811869E+04  0.16311811869E+04  0.50400001928E-02 0.  1.
    10030    2    1    2    0    0  0.00000000000E+00  0.00000000000E+00 -0.14767371285E+04  0.17856252455E+04  0.10038450929E+04 0.  0.
        1    1    3    3  502    0  0.49257615551E+03  0.73214248236E+02 -0.62679108872E+03  0.80053648515E+03  0.50400001928E-02 0. -1.
       -1    1    3    3    0  502 -0.49257615551E+03 -0.73214248236E+02 -0.84994603978E+03  0.98508876031E+03  0.50400001928E-02 0.  1.
</event>
<event>
 5   0  0.1221315E-02  0.1000508E+04  0.7818609E-02  0.9307988E-01
        2   -1    0    0  501    0  0.00000000000E+00  0.00000000000E+00  0.31345362222E+03  0.31345362223E+03  0.25500000920E-02 0.  1.
       -2   -1    0    0    0  501  0.00000000000E+00  0.00000000000E+00 -0.79837591738E+03  0.79837591739E+03  0.25500000920E-02 0. -1.
    10030    2    1    2    0    0  0.00000000000E+00  0.00000000000E+00 -0.48492229517E+03  0.11118295396E+04  0.10005075176E+04 0.  0.
        5    1    3    3  502    0  0.10853234798E+03  0.34427958128E+03 -0.62729295813E+03  0.72375841685E+03  0.46999998093E+01 0. -1.
       -5    1    3    3    0  502 -0.10853234798E+03 -0.34427958128E+03  0.14237066297E+03  0.38807112276E+03  0.46999998093E+01 0.  1.
</event>
<event>
 5   0  0.6967681E-03  0.1003772E+04  0.7818609E-02  0.9304417E-01
        1   -1    0    0  501    0  0.00000000000E+00  0.00000000000E+00  0.14131687765E+03  0.14131687774E+03  0.50400001928E-02 0. -1.
       -1   -1    0    0    0  501  0.00000000000E+00  0.00000000000E+00 -0.17824446270E+04  0.17824446270E+04  0.50400001928E-02 0.  1.
    10030    2    1    2    0    0  0.00000000000E+00  0.00000000000E+00 -0.16411277494E+04  0.19237615048E+04  0.10037719051E+04 0.  0.
        5    1    3    3  502    0 -0.28210058752E+03 -0.40651902981E+03 -0.65988395143E+03  0.82480748204E+03  0.46999998093E+01 0. -1.
       -5    1    3    3    0  502  0.28210058752E+03  0.40651902981E+03 -0.98124379795E+03  0.10989540227E+04  0.46999998093E+01 0.  1.
</event>
<event>
 5   0  0.1245850E-02  0.9987136E+03  0.7818609E-02  0.9309957E-01
       -2   -1    0    0    0  501  0.00000000000E+00  0.00000000000E+00  0.22171546920E+03  0.22171546922E+03  0.25500000920E-02 0.  1.
        2   -1    0    0  501    0  0.00000000000E+00  0.00000000000E+00 -0.11246721552E+04  0.11246721552E+04  0.25500000920E-02 0. -1.
    10030    2    1    2    0    0  0.00000000000E+00  0.00000000000E+00 -0.90295668597E+03  0.13463876244E+04  0.99871360178E+03 0.  0.
        3    1    3    3  502    0  0.81667096481E+02 -0.46971899554E+03 -0.65167219009E+03  0.80745408721E+03  0.10100000352E+00 0. -1.
       -3    1    3    3    0  502 -0.81667096481E+02  0.46971899554E+03 -0.25128449588E+03  0.53893353718E+03  0.10100000352E+00 0.  1.
</event>
<event>
 5   0  0.7461157E-03  0.9823671E+03  0.7818609E-02  0.9328098E-01
       -1   -1    0    0    0  501  0.00000000000E+00  0.00000000000E+00  0.16152918728E+03  0.16152918736E+03  0.50400001928E-02 0. -1.
        1   -1    0    0  501    0  0.00000000000E+00  0.00000000000E+00 -0.14936080098E+04  0.14936080098E+04  0.50400001928E-02 0.  1.
    10030    2    1    2    0    0  0.00000000000E+00  0.00000000000E+00 -0.13320788225E+04  0.16551371972E+04  0.98236711673E+03 0.  0.
        2    1    3    3  502    0 -0.31905874030E+03 -0.36318055211E+03 -0.81255993751E+03  0.94549047867E+03  0.25500000920E-02 0.  1.
       -2    1    3    3    0  502  0.31905874030E+03  0.36318055211E+03 -0.51951888503E+03  0.70964671851E+03  0.25500000920E-02 0. -1.
</event>
<event>
 5   0  0.7241200E-03  0.9910946E+03  0.7818609E-02  0.9318366E-01
        1   -1    0    0  501    0  0.00000000000E+00  0.00000000000E+00  0.61233305527E+03  0.61233305529E+03  0.50400001928E-02 0.  1.
       -1   -1    0    0    0  501  0.00000000000E+00  0.00000000000E+00 -0.40103523304E+03  0.40103523307E+03  0.50400001928E-02 0. -1.
    10030    2    1    2    0    0  0.00000000000E+00  0.00000000000E+00  0.21129782223E+03  0.10133682884E+04  0.99109460607E+03 0.  0.
        4    1    3    3  502    0 -0.25547519774E+03  0.17491459786E+03  0.50125884907E+03  0.58917292867E+03  0.12699999809E+01 0.  1.
       -4    1    3    3    0  502  0.25547519774E+03 -0.17491459786E+03 -0.28996102684E+03  0.42419535970E+03  0.12699999809E+01 0. -1.
</event>
<event>
 5   0  0.7073004E-03  0.7679783E+03  0.7818609E-02  0.9607560E-01
       -1   -1    0    0    0  501  0.00000000000E+00  0.00000000000E+00  0.20858039098E+03  0.20858039104E+03  0.50400001928E-02 0.  1.
        1   -1    0    0  501    0  0.00000000000E+00  0.00000000000E+00 -0.70691055459E+03  0.70691055461E+03  0.50400001928E-02 0. -1.
    10030    2    1    2    0    0  0.00000000000E+00  0.00000000000E+00 -0.49833016361E+03  0.91549094565E+03  0.76797833276E+03 0.  0.
        1    1    3    3  502    0 -0.19988921620E+03  0.44578470287E+01 -0.63996365664E+03  0.67046927819E+03  0.50400001928E-02 0. -1.
       -1    1    3    3    0  502  0.19988921620E+03 -0.44578470287E+01  0.14163349302E+03  0.24502166746E+03  0.50400001928E-02 0.  1.
</event>
<event>
 5   0  0.7241200E-03  0.1013985E+04  0.7818609E-02  0.9293338E-01
        1   -1    0    0  501    0  0.00000000000E+00  0.00000000000E+00  0.14466276766E+04  0.14466276766E+04  0.50400001928E-02 0.  1.
       -1   -1    0    0    0  501  0.00000000000E+00  0.00000000000E+00 -0.17768300000E+03  0.17768300007E+03  0.50400001928E-02 0. -1.
    10030    2    1    2    0    0  0.00000000000E+00  0.00000000000E+00  0.12689446766E+04  0.16243106767E+04  0.10139845078E+04 0.  0.
        4    1    3    3  502    0 -0.19317731318E+03  0.35680555645E+03  0.11214416788E+04  0.11925857333E+04  0.12699999809E+01 0.  1.
       -4    1    3    3    0  502  0.19317731318E+03 -0.35680555645E+03  0.14750299775E+03  0.43172494332E+03  0.12699999809E+01 0. -1.
</event>
<event>
 5   0  0.1216322E-02  0.1000008E+04  0.7818609E-02  0.9308536E-01
        2   -1    0    0  501    0  0.00000000000E+00  0.00000000000E+00  0.16068874510E+04  0.16068874510E+04  0.25500000920E-02 0. -1.
       -2   -1    0    0    0  501  0.00000000000E+00  0.00000000000E+00 -0.15558273560E+03  0.15558273562E+03  0.25500000920E-02 0.  1.
    10030    2    1    2    0    0  0.00000000000E+00  0.00000000000E+00  0.14513047154E+04  0.17624701866E+04  0.10000078909E+04 0.  0.
        2    1    3    3  502    0 -0.10167618889E+03 -0.35398767960E+03  0.13216613426E+04  0.13720182321E+04  0.25500000920E-02 0. -1.
       -2    1    3    3    0  502  0.10167618889E+03  0.35398767960E+03  0.12964337284E+03  0.39045195456E+03  0.25500000920E-02 0.  1.
</event>
<event>
 5   0  0.1240503E-02  0.9723654E+03  0.7818609E-02  0.9339384E-01
        2   -1    0    0  501    0  0.00000000000E+00  0.00000000000E+00  0.50973341924E+03  0.50973341924E+03  0.25500000920E-02 0.  1.
       -2   -1    0    0    0  501  0.00000000000E+00  0.00000000000E+00 -0.46372005000E+03  0.46372005001E+03  0.25500000920E-02 0. -1.
    10030    2    1    2    0    0  0.00000000000E+00  0.00000000000E+00  0.46013369236E+02  0.97345346925E+03  0.97236537713E+03 0.  0.
        1    1    3    3  502    0 -0.36425941726E+03 -0.22176140153E+03  0.25674292266E+03  0.49777502010E+03  0.50400001928E-02 0.  1.
       -1    1    3    3    0  502  0.36425941726E+03  0.22176140153E+03 -0.21072955342E+03  0.47567844915E+03  0.50400001928E-02 0. -1.
</event>
<event>
 5   0  0.1245850E-02  0.1027345E+04  0.7818609E-02  0.9279051E-01
        2   -1    0    0  501    0  0.00000000000E+00  0.00000000000E+00  0.13298010774E+04  0.13298010774E+04  0.25500000920E-02 0. -1.
       -2   -1    0    0    0  501  0.00000000000E+00  0.00000000000E+00 -0.19842032255E+03  0.19842032256E+03  0.25500000920E-02 0.  1.
    10030    2    1    2    0    0  0.00000000000E+00  0.00000000000E+00  0.11313807549E+04  0.15282214000E+04  0.10273452365E+04 0.  0.
        3    1    3    3  502    0 -0.36955024099E+03  0.33939173540E+03  0.72935686328E+03  0.88527711757E+03  0.10100000352E+00 0. -1.
       -3    1    3    3    0  502  0.36955024099E+03 -0.33939173540E+03  0.40202389157E+03  0.64294428240E+03  0.10100000352E+00 0.  1.
</event>
<event>
 5   0  0.1240503E-02  0.9970893E+03  0.7818609E-02  0.9311743E-01
        2   -1    0    0  501    0  0.00000000000E+00  0.00000000000E+00  0.80091377541E+03  0.80091377541E+03  0.25500000920E-02 0. -1.
       -2   -1    0    0    0  501  0.00000000000E+00  0.00000000000E+00 -0.31032897479E+03  0.31032897480E+03  0.25500000920E-02 0.  1.
    10030    2    1    2    0    0  0.00000000000E+00  0.00000000000E+00  0.49058480062E+03  0.11112427502E+04  0.99708926546E+03 0.  0.
        1    1    3    3  502    0  0.90853586757E+02  0.32989698531E+03  0.64937700211E+03  0.73401422741E+03  0.50400001928E-02 0. -1.
       -1    1    3    3    0  502 -0.90853586757E+02 -0.32989698531E+03 -0.15879220149E+03  0.37722852281E+03  0.50400001928E-02 0.  1.
</event>
<event>
 5   0  0.1191822E-02  0.1028039E+04  0.7818609E-02  0.9278315E-01
        2   -1    0    0  501    0  0.00000000000E+00  0.00000000000E+00  0.71113622669E+03  0.71113622670E+03  0.25500000920E-02 0. -1.
       -2   -1    0    0    0  501  0.00000000000E+00  0.00000000000E+00 -0.37154086359E+03  0.37154086359E+03  0.25500000920E-02 0.  1.
    10030    2    1    2    0    0  0.00000000000E+00  0.00000000000E+00  0.33959536311E+03  0.10826770903E+04  0.10280392362E+04 0.  0.
        4    1    3    3  502    0 -0.24149289702E+03  0.76564501189E+02  0.64081919781E+03  0.68908040122E+03  0.12699999809E+01 0. -1.
       -4    1    3    3    0  502  0.24149289702E+03 -0.76564501189E+02 -0.30122383471E+03  0.39359668907E+03  0.12699999809E+01 0.  1.
</event>
<event>
 5   0  0.7224879E-03  0.9998921E+03  0.7818609E-02  0.9308663E-01
       -1   -1    0    0    0  501  0.00000000000E+00  0.00000000000E+00  0.68739334066E+03  0.68739334068E+03  0.50400001928E-02 0. -1.
        1   -1    0    0  501    0  0.00000000000E+00  0.00000000000E+00 -0.36361428261E+03  0.36361428265E+03  0.50400001928E-02 0.  1.
    10030    2    1    2    0    0  0.00000000000E+00  0.00000000000E+00  0.32377905805E+03  0.10510076233E+04  0.99989206710E+03 0.  0.
        3    1    3    3  502    0 -0.48634529367E+03 -0.11568867989E+03  0.15609300497E+03  0.52371810330E+03  0.10100000352E+00 0. -1.
       -3    1    3    3    0  502  0.48634529367E+03  0.11568867989E+03  0.16768605308E+03  0.52728952002E+03  0.10100000352E+00 0.  1.
</event>
<event>
 5   0  0.7073004E-03  0.9652928E+03  0.7818609E-02  0.9347452E-01
        1   -1    0    0  501    0  0.00000000000E+00  0.00000000000E+00  0.54499936988E+03  0.54499936990E+03  0.50400001928E-02 0.  1.
       -1   -1    0    0    0  501  0.00000000000E+00  0.00000000000E+00 -0.42742718155E+03  0.42742718158E+03  0.50400001928E-02 0. -1.
    10030    2    1    2    0    0  0.00000000000E+00  0.00000000000E+00  0.11757218832E+03  0.97242655148E+03  0.96529279421E+03 0.  0.
        1    1    3    3  502    0 -0.86139016902E+02  0.17717699919E+03  0.50265088795E+03  0.53987918505E+03  0.50400001928E-02 0.  1.
       -1    1    3    3    0  502  0.86139016902E+02 -0.17717699919E+03 -0.38507869963E+03  0.43254736643E+03  0.50400001928E-02 0. -1.
</event>
<event>
 5   0  0.6967681E-03  0.1005931E+04  0.7818609E-02  0.9302064E-01
       -1   -1    0    0    0  501  0.00000000000E+00  0.00000000000E+00  0.57387764992E+03  0.57387764994E+03  0.50400001928E-02 0.  1.
        1   -1    0    0  501    0  0.00000000000E+00  0.00000000000E+00 -0.44081538791E+03  0.44081538794E+03  0.50400001928E-02 0. -1.
    10030    2    1    2    0    0  0.00000000000E+00  0.00000000000E+00  0.13306226201E+03  0.10146930379E+04  0.10059306117E+04 0.  0.
        5    1    3    3  502    0  0.20809628196E+03 -0.42573063443E+02 -0.39332978612E+03  0.44704243528E+03  0.46999998093E+01 0. -1.
       -5    1    3    3    0  502 -0.20809628196E+03  0.42573063443E+02  0.52639204813E+03  0.56765060260E+03  0.46999998093E+01 0.  1.
</event>
<event>
 5   0  0.7073004E-03  0.1005900E+04  0.7818609E-02  0.9302098E-01
        1   -1    0    0  501    0  0.00000000000E+00  0.00000000000E+00  0.12818901572E+04  0.12818901572E+04  0.50400001928E-02 0.  1.
       -1   -1    0    0    0  501  0.00000000000E+00  0.00000000000E+00 -0.19733241506E+03  0.19733241513E+03  0.50400001928E-02 0. -1.
    10030    2    1    2    0    0  0.00000000000E+00  0.00000000000E+00  0.10845577421E+04  0.14792225723E+04  0.10058995588E+04 0.  0.
        1    1    3    3  502    0  0.30605921879E+03  0.11103099489E+03 -0.21457488017E+02  0.32628293098E+03  0.50400001928E-02 0. -1.
       -1    1    3    3    0  502 -0.30605921879E+03 -0.11103099489E+03  0.11060152301E+04  0.11529396413E+04  0.50400001928E-02 0.  1.
</event>
<event>
 5   0  0.7241200E-03  0.1003979E+04  0.7818609E-02  0.9304192E-01
       -1   -1    0    0    0  501  0.00000000000E+00  0.00000000000E+00  0.56430283549E+03  0.56430283552E+03  0.50400001928E-02 0. -1.
        1   -1    0    0  501    0  0.00000000000E+00  0.00000000000E+00 -0.44655700230E+03  0.44655700233E+03  0.50400001928E-02 0.  1.
    10030    2    1    2    0    0  0.00000000000E+00  0.00000000000E+00  0.11774583319E+03  0.10108598378E+04  0.10039788496E+04 0.  0.
        4    1    3    3  502    0  0.36832996461E+03 -0.33867737812E+03  0.18317323073E+02  0.50070596811E+03  0.12699999809E+01 0.  1.
       -4    1    3    3    0  502 -0.36832996461E+03  0.33867737812E+03  0.99428510120E+02  0.51015386973E+03  0.12699999809E+01 0. -1.
</event>
<event>
 5   0  0.7224879E-03  0.1016666E+04  0.7818609E-02  0.9290453E-01
       -1   -1    0    0    0  501  0.00000000000E+00  0.00000000000E+00  0.15594142045E+03  0.15594142053E+03  0.50400001928E-02 0.  1.
        1   -1    0    0  501    0  0.00000000000E+00  0.00000000000E+00 -0.16570471716E+04  0.16570471716E+04  0.50400001928E-02 0. -1.
    10030    2    1    2    0    0  0.00000000000E+00  0.00000000000E+00 -0.15011057511E+04  0.18129885921E+04  0.10166657066E+04 0.  0.
        3    1    3    3  502    0  0.47129083503E+03  0.16067495768E+03 -0.93302920904E+03  0.10575797882E+04  0.10100000352E+00 0. -1.
       -3    1    3    3    0  502 -0.47129083503E+03 -0.16067495768E+03 -0.56807654206E+03  0.75540880393E+03  0.10100000352E+00 0.  1.
</event>
<event>
 5   0  0.1191822E-02  0.1001181E+04  0.7818609E-02  0.9307251E-01
       -2   -1    0    0    0  501  0.00000000000E+00  0.00000000000E+00  0.10886789788E+03  0.10886789791E+03  0.25500000920E-02 0.  1.
        2   -1    0    0  501    0  0.00000000000E+00  0.00000000000E+00 -0.23017876647E+04  0.23017876647E+04  0.25500000920E-02 0. -1.
    10030    2    1    2    0    0  0.00000000000E+00  0.00000000000E+00 -0.21929197668E+04  0.24106555626E+04  0.10011808717E+04 0.  0.
        4    1    3    3  502    0  0.33722716428E+03 -0.18608569434E+03 -0.32656544553E+03  0.50497192900E+03  0.12699999809E+01 0.  1.
       -4    1    3    3    0  502 -0.33722716428E+03  0.18608569434E+03 -0.18663543213E+04  0.19056836336E+04  0.12699999809E+01 0. -1.
</event>
<event>
 5   0  0.7461157E-03  0.9745613E+03  0.7818609E-02  0.9336894E-01
       -1   -1    0    0    0  501  0.00000000000E+00  0.00000000000E+00  0.23844864998E+03  0.23844865003E+03  0.50400001928E-02 0.  1.
        1   -1    0    0  501    0  0.00000000000E+00  0.00000000000E+00 -0.99578023987E+03  0.99578023988E+03  0.50400001928E-02 0. -1.
    10030    2    1    2    0    0  0.00000000000E+00  0.00000000000E+00 -0.75733158989E+03  0.12342288899E+04  0.97456134525E+03 0.  0.
        2    1    3    3  502    0 -0.22456039353E+03 -0.38530616203E+03 -0.62733535614E+03  0.76969984923E+03  0.25500000920E-02 0. -1.
       -2    1    3    3    0  502  0.22456039353E+03  0.38530616203E+03 -0.12999623375E+03  0.46452904068E+03  0.25500000920E-02 0.  1.
</event>
<event>
 5   0  0.7224879E-03  0.9554092E+03  0.7818609E-02  0.9358850E-01
       -1   -1    0    0    0  501  0.00000000000E+00  0.00000000000E+00  0.99472345554E+03  0.99472345555E+03  0.50400001928E-02 0. -1.
        1   -1    0    0  501    0  0.00000000000E+00  0.00000000000E+00 -0.22941219429E+03  0.22941219435E+03  0.50400001928E-02 0.  1.
    10030    2    1    2    0    0  0.00000000000E+00  0.00000000000E+00  0.76531126125E+03  0.12241356499E+04  0.95540921220E+03 0.  0.
        3    1    3    3  502    0 -0.19568674096E+03  0.43384900699E+03  0.33008584115E+03  0.57920198047E+03  0.10100000352E+00 0.  1.
       -3    1    3    3    0  502  0.19568674096E+03 -0.43384900699E+03  0.43522542010E+03  0.64493366943E+03  0.10100000352E+00 0. -1.
</event>
<event>
 5   0  0.1221315E-02  0.1013624E+04  0.7818609E-02  0.9293727E-01
        2   -1    0    0  501    0  0.00000000000E+00  0.00000000000E+00  0.75939993341E+03  0.75939993341E+03  0.25500000920E-02 0. -1.
       -2   -1    0    0    0  501  0.00000000000E+00  0.00000000000E+00 -0.33823887713E+03  0.33823887714E+03  0.25500000920E-02 0.  1.
    10030    2    1    2    0    0  0.00000000000E+00  0.00000000000E+00  0.42116105628E+03  0.10976388105E+04  0.10136243501E+04 0.  0.
        5    1    3    3  502    0 -0.11054511950E+03 -0.26288607753E+03  0.66423987231E+03  0.72288727418E+03  0.46999998093E+01 0. -1.
       -5    1    3    3    0  502  0.11054511950E+03  0.26288607753E+03 -0.24307881603E+03  0.37475153637E+03  0.46999998093E+01 0.  1.
</event>
<event>
 5   0  0.7461157E-03  0.1027914E+04  0.7818609E-02  0.9278448E-01
        1   -1    0    0  501    0  0.00000000000E+00  0.00000000000E+00  0.99889083863E+03  0.99889083864E+03  0.50400001928E-02 0. -1.
       -1   -1    0    0    0  501  0.00000000000E+00  0.00000000000E+00 -0.26444531191E+03  0.26444531196E+03  0.50400001928E-02 0.  1.
    10030    2    1    2    0    0  0.00000000000E+00  0.00000000000E+00  0.73444552671E+03  0.12633361506E+04  0.10279143922E+04 0.  0.
        2    1    3    3  502    0 -0.36398777574E+03  0.15963089449E+03 -0.33264970569E+02  0.39884292853E+03  0.25500000920E-02 0.  1.
       -2    1    3    3    0  502  0.36398777574E+03 -0.15963089449E+03  0.76771049728E+03  0.86449322207E+03  0.25500000920E-02 0. -1.
</event>
<event>
 5   0  0.7224879E-03  0.9759679E+03  0.7818609E-02  0.9335303E-01
       -1   -1    0    0    0  501  0.00000000000E+00  0.00000000000E+00  0.44947616959E+03  0.44947616962E+03  0.50400001928E-02 0.  1.
        1   -1    0    0  501    0  0.00000000000E+00  0.00000000000E+00 -0.52979080347E+03  0.52979080349E+03  0.50400001928E-02 0. -1.
    10030    2    1    2    0    0  0.00000000000E+00  0.00000000000E+00 -0.80314633875E+02  0.97926697311E+03  0.97596791147E+03 0.  0.
        3    1    3    3  502    0 -0.17785280021E+03  0.30253084127E+03  0.30006377858E+03  0.46173023497E+03  0.10100000352E+00 0.  1.
       -3    1    3    3    0  502  0.17785280021E+03 -0.30253084127E+03 -0.38037841246E+03  0.51753673815E+03  0.10100000352E+00 0. -1.
</event>
<event>
 5   0  0.6967681E-03  0.1013573E+04  0.7818609E-02  0.9293782E-01
        1   -1    0    0  501    0  0.00000000000E+00  0.00000000000E+00  0.12585132156E+04  0.12585132156E+04  0.50400001928E-02 0.  1.
       -1   -1    0    0    0  501  0.00000000000E+00  0.00000000000E+00 -0.20407630951E+03  0.20407630957E+03  0.50400001928E-02 0. -1.
    10030    2    1    2    0    0  0.00000000000E+00  0.00000000000E+00  0.10544369061E+04  0.14625895252E+04  0.10135733472E+04 0.  0.
        5    1    3    3  502    0  0.42535410532E+03  0.21881242833E+03  0.28573348806E+03  0.55719898591E+03  0.46999998093E+01 0. -1.
       -5    1    3    3    0  502 -0.42535410532E+03 -0.21881242833E+03  0.76870341803E+03  0.90539053927E+03  0.46999998093E+01 0.  1.
</event>
<event>
 5   0  0.1216322E-02  0.1025859E+04  0.7818609E-02  0.9280629E-01
       -2   -1    0    0    0  501  0.00000000000E+00  0.00000000000E+00  0.19789464342E+03  0.19789464344E+03  0.25500000920E-02 0.  1.
        2   -1    0    0  501    0  0.00000000000E+00  0.00000000000E+00 -0.13294793468E+04  0.13294793468E+04  0.25500000920E-02 0. -1.
    10030    2    1    2    0    0  0.00000000000E+00  0.00000000000E+00 -0.11315847033E+04  0.15273739902E+04  0.10258593301E+04 0.  0.
        2    1    3    3  502    0 -0.21358150129E+03  0.33730389382E+02 -0.12583055307E+04  0.12767488419E+04  0.25500000920E-02 0. -1.
       -2    1    3    3    0  502  0.21358150129E+03 -0.33730389382E+02  0.12672082732E+03  0.25062514827E+03  0.25500000920E-02 0.  1.
</event>
<event>
 5   0  0.1216322E-02  0.1007203E+04  0.7818609E-02  0.9300679E-01
       -2   -1    0    0    0  501  0.00000000000E+00  0.00000000000E+00  0.32833912028E+03  0.32833912029E+03  0.25500000920E-02 0. -1.
        2   -1    0    0  501    0  0.00000000000E+00  0.00000000000E+00 -0.77241674041E+03  0.77241674041E+03  0.25500000920E-02 0.  1.
    10030    2    1    2    0    0  0.00000000000E+00  0.00000000000E+00 -0.44407762013E+03  0.11007558607E+04  0.10072033222E+04 0.  0.
        2    1    3    3  502    0  0.78418811835E+02 -0.38026582899E+03 -0.57255129931E+03  0.69178508302E+03  0.25500000920E-02 0.  1.
       -2    1    3    3    0  502 -0.78418811835E+02  0.38026582899E+03  0.12847367918E+03  0.40897077768E+03  0.25500000920E-02 0. -1.
</event>
<event>
 5   0  0.1221315E-02  0.9922544E+03  0.7818609E-02  0.9317081E-01
        2   -1    0    0  501    0  0.00000000000E+00  0.00000000000E+00  0.50831882328E+03  0.50831882329E+03  0.25500000920E-02 0. -1.
       -2   -1    0    0    0  501  0.00000000000E+00  0.00000000000E+00 -0.48422793842E+03  0.48422793843E+03  0.25500000920E-02 0.  1.
    10030    2    1    2    0    0  0.00000000000E+00  0.00000000000E+00  0.24090884859E+02  0.99254676171E+03  0.99225435421E+03 0.  0.
        5    1    3    3  502    0 -0.40725036907E+03  0.21236440991E+03 -0.17554269920E+03  0.49172028120E+03  0.46999998093E+01 0.  1.
       -5    1    3    3    0  502  0.40725036907E+03 -0.21236440991E+03  0.19963358406E+03  0.50082648051E+03  0.46999998093E+01 0. -1.
</event>
<event>
 5   0  0.1191822E-02  0.1001787E+04  0.7818609E-02  0.9306587E-01
       -2   -1    0    0    0  501  0.00000000000E+00  0.00000000000E+00  0.14680498002E+03  0.14680498005E+03  0.25500000920E-02 0. -1.
        2   -1    0    0  501    0  0.00000000000E+00  0.00000000000E+00 -0.17090327331E+04  0.17090327331E+04  0.25500000920E-02 0.  1.
    10030    2    1    2    0    0  0.00000000000E+00  0.00000000000E+00 -0.15622277531E+04  0.18558377131E+04  0.10017874351E+04 0.  0.
        4    1    3    3  502    0 -0.11342703146E+03  0.18690144442E+02 -0.16842616336E+04  0.16881806409E+04  0.12699999809E+01 0.  1.
       -4    1    3    3    0  502  0.11342703146E+03 -0.18690144442E+02  0.12203388055E+03  0.16765707223E+03  0.12699999809E+01 0. -1.
</event>
<event>
 5   0  0.7073004E-03  0.9811514E+03  0.7818609E-02  0.9329463E-01
       -1   -1    0    0    0  501  0.00000000000E+00  0.00000000000E+00  0.33228898895E+03  0.33228898899E+03  0.50400001928E-02 0. -1.
        1   -1    0    0  501    0  0.00000000000E+00  0.00000000000E+00 -0.72426267930E+03  0.72426267932E+03  0.50400001928E-02 0.  1.
    10030    2    1    2    0    0  0.00000000000E+00  0.00000000000E+00 -0.39197369035E+03  0.10565516683E+04  0.98115139193E+03 0.  0.
        1    1    3    3  502    0  0.65136256852E+02  0.15198247977E+03  0.30137637519E+03  0.34375736451E+03  0.50400001928E-02 0. -1.
       -1    1    3    3    0  502 -0.65136256852E+02 -0.15198247977E+03 -0.69335006554E+03  0.71279430379E+03  0.50400001928E-02 0.  1.
</event>
<event>
 5   0  0.1191822E-02  0.1046809E+04  0.7818609E-02  0.9258645E-01
       -2   -1    0    0    0  501  0.00000000000E+00  0.00000000000E+00  0.85362777915E+03  0.85362777916E+03  0.25500000920E-02 0. -1.
        2   -1    0    0  501    0  0.00000000000E+00  0.00000000000E+00 -0.32092716373E+03  0.32092716374E+03  0.25500000920E-02 0.  1.
    10030    2    1    2    0    0  0.00000000000E+00  0.00000000000E+00  0.53270061542E+03  0.11745549429E+04  0.10468091365E+04 0.  0.
        4    1    3    3  502    0 -0.45785638374E+03 -0.51116989634E+01  0.55085192839E+03  0.71630863286E+03  0.12699999809E+01 0. -1.
       -4    1    3    3    0  502  0.45785638374E+03  0.51116989634E+01 -0.18151312972E+02  0.45824631003E+03  0.12699999809E+01 0.  1.
</event>
<event>
 5   0  0.7241200E-03  0.9378733E+03  0.7818609E-02  0.9379438E-01
        1   -1    0    0  501    0  0.00000000000E+00  0.00000000000E+00  0.10350382702E+04  0.10350382703E+04  0.50400001928E-02 0.  1.
       -1   -1    0    0    0  501  0.00000000000E+00  0.00000000000E+00 -0.21245742156E+03  0.21245742162E+03  0.50400001928E-02 0. -1.
    10030    2    1    2    0    0  0.00000000000E+00  0.00000000000E+00  0.82258084868E+03  0.12474956919E+04  0.93787325829E+03 0.  0.
        4    1    3    3  502    0 -0.26448689753E+03  0.89827481691E+01  0.92621826480E+03  0.96328391229E+03  0.12699999809E+01 0.  1.
       -4    1    3    3    0  502  0.26448689753E+03 -0.89827481691E+01 -0.10363741613E+03  0.28421177958E+03  0.12699999809E+01 0. -1.
</event>
<event>
 5   0  0.1240503E-02  0.1024166E+04  0.7818609E-02  0.9282430E-01
       -2   -1    0    0    0  501  0.00000000000E+00  0.00000000000E+00  0.10881608870E+03  0.10881608873E+03  0.25500000920E-02 0.  1.
        2   -1    0    0  501    0  0.00000000000E+00  0.00000000000E+00 -0.24098379133E+04  0.24098379133E+04  0.25500000920E-02 0. -1.
    10030    2    1    2    0    0  0.00000000000E+00  0.00000000000E+00 -0.23010218245E+04  0.25186540020E+04  0.10241662681E+04 0.  0.
        1    1    3    3  502    0 -0.34119880644E+03 -0.83735556670E+02 -0.23430280029E+03  0.42228671684E+03  0.50400001928E-02 0.  1.
       -1    1    3    3    0  502  0.34119880644E+03  0.83735556670E+02 -0.20667190243E+04  0.20963672851E+04  0.50400001928E-02 0. -1.
</event>
<event>
 5   0  0.7224879E-03  0.1012448E+04  0.7818609E-02  0.9294996E-01
        1   -1    0    0  501    0  0.00000000000E+00  0.00000000000E+00  0.15665816989E+04  0.15665816989E+04  0.50400001928E-02 0. -1.
       -1   -1    0    0    0  501  0.00000000000E+00  0.00000000000E+00 -0.16358083382E+03  0.16358083390E+03  0.50400001928E-02 0.  1.
    10030    2    1    2    0    0  0.00000000000E+00  0.00000000000E+00  0.14030008651E+04  0.17301625328E+04  0.10124480049E+04 0.  0.
        3    1    3    3  502    0 -0.34934174133E+01 -0.24316354750E+03 -0.57219929913E+02  0.24982963271E+03  0.10100000352E+00 0.  1.
       -3    1    3    3    0  502  0.34934174133E+01  0.24316354750E+03  0.14602207950E+04  0.14803329001E+04  0.10100000352E+00 0. -1.
</event>
<event>
 5   0  0.1245850E-02  0.9839863E+03  0.7818609E-02  0.9326285E-01
       -2   -1    0    0    0  501  0.00000000000E+00  0.00000000000E+00  0.49285400551E+03  0.49285400552E+03  0.25500000920E-02 0.  1.
        2   -1    0    0  501    0  0.00000000000E+00  0.00000000000E+00 -0.49113376207E+03  0.49113376207E+03  0.25500000920E-02 0. -1.
    10030    2    1    2    0    0  0.00000000000E+00  0.00000000000E+00  0.17202434465E+01  0.98398776759E+03  0.98398626390E+03 0.  0.
        3    1    3    3  502    0  0.20123536066E+03  0.43999658816E+03 -0.88384419025E+02  0.49183786322E+03  0.10100000352E+00 0.  1.
       -3    1    3    3    0  502 -0.20123536066E+03 -0.43999658816E+03  0.90104662472E+02  0.49214990437E+03  0.10100000352E+00 0. -1.
</event>
<event>
 5   0  0.6967681E-03  0.1000516E+04  0.7818609E-02  0.9307979E-01
        1   -1    0    0  501    0  0.00000000000E+00  0.00000000000E+00  0.46285291700E+03  0.46285291703E+03  0.50400001928E-02 0. -1.
       -1   -1    0    0    0  501  0.00000000000E+00  0.00000000000E+00 -0.54068560331E+03  0.54068560333E+03  0.50400001928E-02 0.  1.
    10030    2    1    2    0    0  0.00000000000E+00  0.00000000000E+00 -0.77832686301E+02  0.10035385204E+04  0.10005156844E+04 0.  0.
        5    1    3    3  502    0  0.15890388139E+03  0.43970426546E+03  0.13951303471E+03  0.48793059080E+03  0.46999998093E+01 0. -1.
       -5    1    3    3    0  502 -0.15890388139E+03 -0.43970426546E+03 -0.21734572101E+03  0.51560792956E+03  0.46999998093E+01 0.  1.
</event>
<event>
 5   0  0.1240503E-02  0.1000086E+04  0.7818609E-02  0.9308450E-01
       -2   -1    0    0    0  501  0.00000000000E+00  0.00000000000E+00  0.17090970275E+03  0.17090970276E+03  0.25500000920E-02 0. -1.
        2   -1    0    0  501    0  0.00000000000E+00  0.00000000000E+00 -0.14630134768E+04  0.14630134769E+04  0.25500000920E-02 0.  1.
    10030    2    1    2    0    0  0.00000000000E+00  0.00000000000E+00 -0.12921037741E+04  0.16339231796E+04  0.10000863932E+04 0.  0.
        1    1    3    3  502    0  0.18395255986E+03 -0.33559415009E+03 -0.12023488146E+03  0.40114636307E+03  0.50400001928E-02 0. -1.
       -1    1    3    3    0  502 -0.18395255986E+03  0.33559415009E+03 -0.11718688926E+04  0.12327768165E+04  0.50400001928E-02 0.  1.
</event>
<event>
 5   0  0.1245850E-02  0.1030377E+04  0.7818609E-02  0.9275841E-01
       -2   -1    0    0    0  501  0.00000000000E+00  0.00000000000E+00  0.43751005833E+03  0.43751005834E+03  0.25500000920E-02 0. -1.
        2   -1    0    0  501    0  0.00000000000E+00  0.00000000000E+00 -0.60665836984E+03  0.60665836984E+03  0.25500000920E-02 0.  1.
    10030    2    1    2    0    0  0.00000000000E+00  0.00000000000E+00 -0.16914831151E+03  0.10441684282E+04  0.10303768995E+04 0.  0.
        3    1    3    3  502    0  0.36854659761E+03  0.26434966297E+03  0.16305654580E+03  0.48196969433E+03  0.10100000352E+00 0. -1.
       -3    1    3    3    0  502 -0.36854659761E+03 -0.26434966297E+03 -0.33220485731E+03  0.56219873385E+03  0.10100000352E+00 0.  1.
</event>
<event>
 5   0  0.6967681E-03  0.1007295E+04  0.7818609E-02  0.9300579E-01
        1   -1    0    0  501    0  0.00000000000E+00  0.00000000000E+00  0.13186920697E+04  0.13186920697E+04  0.50400001928E-02 0.  1.
       -1   -1    0    0    0  501  0.00000000000E+00  0.00000000000E+00 -0.19235806044E+03  0.19235806050E+03  0.50400001928E-02 0. -1.
    10030    2    1    2    0    0  0.00000000000E+00  0.00000000000E+00  0.11263340092E+04  0.15110501302E+04  0.10072954857E+04 0.  0.
        5    1    3    3  502    0  0.15697954795E+03 -0.19444112881E+03 -0.92756913192E+02  0.26660057388E+03  0.46999998093E+01 0. -1.
       -5    1    3    3    0  502 -0.15697954795E+03  0.19444112881E+03  0.12190909224E+04  0.12444495563E+04  0.46999998093E+01 0.  1.
</event>
<event>
 5   0  0.7241200E-03  0.9732730E+03  0.7818609E-02  0.9338354E-01
       -1   -1    0    0    0  501  0.00000000000E+00  0.00000000000E+00  0.37352989649E+03  0.37352989653E+03  0.50400001928E-02 0. -1.
        1   -1    0    0  501    0  0.00000000000E+00  0.00000000000E+00 -0.63399227631E+03  0.63399227633E+03  0.50400001928E-02 0.  1.
    10030    2    1    2    0    0  0.00000000000E+00  0.00000000000E+00 -0.26046237982E+03  0.10075221729E+04  0.97327297173E+03 0.  0.
        4    1    3    3  502    0  0.16389144771E+03 -0.22361936220E+03 -0.54423904740E+03  0.61078947223E+03  0.12699999809E+01 0.  1.
       -4    1    3    3    0  502 -0.16389144771E+03  0.22361936220E+03  0.28377666758E+03  0.39673270062E+03  0.12699999809E+01 0. -1.
</event>
<event>
 5   0  0.7461157E-03  0.9899134E+03  0.7818609E-02  0.9319677E-01
        1   -1    0    0  501    0  0.00000000000E+00  0.00000000000E+00  0.72817475923E+03  0.72817475925E+03  0.50400001928E-02 0.  1.
       -1   -1    0    0    0  501  0.00000000000E+00  0.00000000000E+00 -0.33643317098E+03  0.33643317102E+03  0.50400001928E-02 0. -1.
    10030    2    1    2    0    0  0.00000000000E+00  0.00000000000E+00  0.39174158825E+03  0.10646079303E+04  0.98991341703E+03 0.  0.
        2    1    3    3  502    0 -0.18510523819E+03  0.17684160828E+03 -0.25970270935E+03  0.36466752101E+03  0.25500000920E-02 0. -1.
       -2    1    3    3    0  502  0.18510523819E+03 -0.17684160828E+03  0.65144429761E+03  0.69994040926E+03  0.25500000920E-02 0.  1.
</event>
<event>
 5   0  0.1191822E-02  0.1025181E+04  0.7818609E-02  0.9281350E-01
       -2   -1    0    0    0  501  0.00000000000E+00  0.00000000000E+00  0.34994638187E+03  0.34994638188E+03  0.25500000920E-02 0.  1.
        2   -1    0    0  501    0  0.00000000000E+00  0.00000000000E+00 -0.75082621426E+03  0.75082621427E+03  0.25500000920E-02 0. -1.
    10030    2    1    2    0    0  0.00000000000E+00  0.00000000000E+00 -0.40087983240E+03  0.11007725961E+04  0.10251807979E+04 0.  0.
        4    1    3    3  502    0  0.39862035813E+03 -0.78519397254E+02 -0.53602949052E+03  0.67260145203E+03  0.12699999809E+01 0. -1.
       -4    1    3    3    0  502 -0.39862035813E+03  0.78519397254E+02  0.13514965812E+03  0.42817114412E+03  0.12699999809E+01 0.  1.
</event>
<event>
 5   0  0.1240503E-02  0.1003945E+04  0.7818609E-02  0.9304229E-01
        2   -1    0    0  501    0  0.00000000000E+00  0.00000000000E+00  0.11697657613E+04  0.11697657613E+04  0.25500000920E-02 0.  1.
       -2   -1    0    0    0  501  0.00000000000E+00  0.00000000000E+00 -0.21540739552E+03  0.21540739553E+03  0.25500000920E-02 0. -1.
    10030    2    1    2    0    0  0.00000000000E+00  0.00000000000E+00  0.95435836582E+03  0.13851731569E+04  0.10039446121E+04 0.  0.
        1    1    3    3  502    0  0.30930794557E+03  0.37001839979E+03  0.66930970913E+03  0.82496091309E+03  0.50400001928E-02 0.  1.
       -1    1    3    3    0  502 -0.30930794557E+03 -0.37001839979E+03  0.28504865670E+03  0.56021224378E+03  0.50400001928E-02 0. -1.
</event>
<event>
 5   0  0.7073004E-03  0.9873968E+03  0.7818609E-02  0.9322477E-01
        1   -1    0    0  501    0  0.00000000000E+00  0.00000000000E+00  0.37471916646E+03  0.37471916649E+03  0.50400001928E-02 0. -1.
       -1   -1    0    0    0  501  0.00000000000E+00  0.00000000000E+00 -0.65045546533E+03  0.65045546535E+03  0.50400001928E-02 0.  1.
    10030    2    1    2    0    0  0.00000000000E+00  0.00000000000E+00 -0.27573629887E+03  0.10251746318E+04  0.98739683981E+03 0.  0.
        1    1    3    3  502    0  0.26093897429E+03  0.30150689080E+03 -0.44011163534E+03  0.59388029526E+03  0.50400001928E-02 0.  1.
       -1    1    3    3    0  502 -0.26093897429E+03 -0.30150689080E+03  0.16437533647E+03  0.43129433658E+03  0.50400001928E-02 0. -1.
</event>
<event>
 5   0  0.1221315E-02  0.1006680E+04  0.7818609E-02  0.9301249E-01
       -2   -1    0    0    0  501  0.00000000000E+00  0.00000000000E+00  0.15490036390E+03  0.15490036392E+03  0.25500000920E-02 0.  1.
        2   -1    0    0  501    0  0.00000000000E+00  0.00000000000E+00 -0.16355745790E+04  0.16355745790E+04  0.25500000920E-02 0. -1.
    10030    2    1    2    0    0  0.00000000000E+00  0.00000000000E+00 -0.14806742151E+04  0.17904749430E+04  0.10066798846E+04 0.  0.
        5    1    3    3  502    0  0.34373624381E+03  0.21547295059E+03 -0.12701844802E+04  0.13334068777E+04  0.46999998093E+01 0. -1.
       -5    1    3    3    0  502 -0.34373624381E+03 -0.21547295059E+03 -0.21048973489E+03  0.45706806522E+03  0.46999998093E+01 0.  1.
</event>
<event>
 5   0  0.7241200E-03  0.9909263E+03  0.7818609E-02  0.9318553E-01
       -1   -1    0    0    0  501  0.00000000000E+00  0.00000000000E+00  0.30725891539E+03  0.30725891543E+03  0.50400001928E-02 0. -1.
        1   -1    0    0  501    0  0.00000000000E+00  0.00000000000E+00 -0.79894739748E+03  0.79894739749E+03  0.50400001928E-02 0.  1.
    10030    2    1    2    0    0  0.00000000000E+00  0.00000000000E+00 -0.49168848209E+03  0.11062063129E+04  0.99092625524E+03 0.  0.
        4    1    3    3  502    0 -0.11352277412E+03 -0.12011130976E+03  0.27557886636E+03  0.32134011804E+03  0.12699999809E+01 0. -1.
       -4    1    3    3    0  502  0.11352277412E+03  0.12011130976E+03 -0.76726734845E+03  0.78486619488E+03  0.12699999809E+01 0.  1.
</event>
<event>
 5   0  0.7224879E-03  0.9953110E+03  0.7818609E-02  0.9313703E-01
        1   -1    0    0  501    0  0.00000000000E+00  0.00000000000E+00  0.56317770354E+03  0.56317770357E+03  0.50400001928E-02 0.  1.
       -1   -1    0    0    0  501  0.00000000000E+00  0.00000000000E+00 -0.43975636864E+03  0.43975636867E+03  0.50400001928E-02 0. -1.
    10030    2    1    2    0    0  0.00000000000E+00  0.00000000000E+00  0.12342133490E+03  0.10029340722E+04  0.99531097017E+03 0.  0.
        3    1    3    3  502    0  0.18162365952E+03  0.46327483164E+03  0.54567771487E+02  0.50058802943E+03  0.10100000352E+00 0. -1.
       -3    1    3    3    0  502 -0.18162365952E+03 -0.46327483164E+03  0.68853563416E+02  0.50234604280E+03  0.10100000352E+00 0.  1.
</event>
<event>
 5   0  0.4782125E-03  0.9955431E+03  0.7818609E-02  0.9313447E-01
       -3   -1    0    0    0  501  0.00000000000E+00  0.00000000000E+00  0.11518982487E+04  0.11518982531E+04  0.10100000352E+00 0.  1.
        3   -1    0    0  501    0  0.00000000000E+00  0.00000000000E+00 -0.21510274372E+03  0.21510276743E+03  0.10100000352E+00 0. -1.
    10030    2    1    2    0    0  0.00000000000E+00  0.00000000000E+00  0.93679550498E+03  0.13670010206E+04  0.99554305385E+03 0.  0.
        4    1    3    3  502    0 -0.59808255335E+02  0.47472934285E+03  0.65682028744E+03  0.81262505454E+03  0.12699999809E+01 0.  1.
       -4    1    3    3    0  502  0.59808255335E+02 -0.47472934285E+03  0.27997521754E+03  0.55437596602E+03  0.12699999809E+01 0. -1.
</event>
<event>
 5   0  0.7461157E-03  0.9743377E+03  0.7818609E-02  0.9337147E-01
        1   -1    0    0  501    0  0.00000000000E+00  0.00000000000E+00  0.56942263775E+03  0.56942263777E+03  0.50400001928E-02 0. -1.
       -1   -1    0    0    0  501  0.00000000000E+00  0.00000000000E+00 -0.41679671582E+03  0.41679671585E+03  0.50400001928E-02 0.  1.
    10030    2    1    2    0    0  0.00000000000E+00  0.00000000000E+00  0.15262592193E+03  0.98621935362E+03  0.97433769372E+03 0.  0.
        2    1    3    3  502    0 -0.28563908146E+03 -0.21450451697E+03  0.41161013851E+03  0.54499979705E+03  0.25500000920E-02 0. -1.
       -2    1    3    3    0  502  0.28563908146E+03  0.21450451697E+03 -0.25898421658E+03  0.44121955657E+03  0.25500000920E-02 0.  1.
</event>
<event>
 5   0  0.4782125E-03  0.1123785E+04  0.7818609E-02  0.9182315E-01
       -3   -1    0    0    0  501  0.00000000000E+00  0.00000000000E+00  0.81257789253E+03  0.81257789881E+03  0.10100000352E+00 0. -1.
        3   -1    0    0  501    0  0.00000000000E+00  0.00000000000E+00 -0.38854505553E+03  0.38854506866E+03  0.10100000352E+00 0.  1.
    10030    2    1    2    0    0  0.00000000000E+00  0.00000000000E+00  0.42403283700E+03  0.12011229675E+04  0.11237849154E+04 0.  0.
        3    1    3    3  502    0 -0.47498799399E+03  0.95463684053E+02  0.51620060579E+03  0.70794772761E+03  0.10100000352E+00 0.  1.
       -3    1    3    3    0  502  0.47498799399E+03 -0.95463684053E+02 -0.92167768788E+02  0.49317523986E+03  0.10100000352E+00 0. -1.
</event>
<event>
 5   0  0.1191822E-02  0.1007528E+04  0.7818609E-02  0.9300326E-01
       -2   -1    0    0    0  501  0.00000000000E+00  0.00000000000E+00  0.20879495815E+03  0.20879495816E+03  0.25500000920E-02 0.  1.
        2   -1    0    0  501    0  0.00000000000E+00  0.00000000000E+00 -0.12154424723E+04  0.12154424723E+04  0.25500000920E-02 0. -1.
    10030    2    1    2    0    0  0.00000000000E+00  0.00000000000E+00 -0.10066475142E+04  0.14242374305E+04  0.10075281835E+04 0.  0.
        4    1    3    3  502    0  0.27721788045E+02 -0.31301521152E+03 -0.10599100965E+04  0.11055125715E+04  0.12699999809E+01 0. -1.
       -4    1    3    3    0  502 -0.27721788045E+02  0.31301521152E+03  0.53262582311E+02  0.31872485901E+03  0.12699999809E+01 0.  1.
</event>
<event>
 5   0  0.7073004E-03  0.1022504E+04  0.7818609E-02  0.9284201E-01
       -1   -1    0    0    0  501  0.00000000000E+00  0.00000000000E+00  0.32441083878E+03  0.32441083882E+03  0.50400001928E-02 0. -1.
        1   -1    0    0  501    0  0.00000000000E+00  0.00000000000E+00 -0.80570286732E+03  0.80570286733E+03  0.50400001928E-02 0.  1.
    10030    2    1    2    0    0  0.00000000000E+00  0.00000000000E+00 -0.48129202854E+03  0.11301137062E+04  0.10225042651E+04 0.  0.
        1    1    3    3  502    0  0.26130509897E+03 -0.43795391552E+03 -0.20087643441E+03  0.54811981244E+03  0.50400001928E-02 0. -1.
       -1    1    3    3    0  502 -0.26130509897E+03  0.43795391552E+03 -0.28041559413E+03  0.58199389371E+03  0.50400001928E-02 0.  1.
</event>
<event>
 5   0  0.7224879E-03  0.1024573E+04  0.7818609E-02  0.9281996E-01
       -1   -1    0    0    0  501  0.00000000000E+00  0.00000000000E+00  0.45747325395E+03  0.45747325398E+03  0.50400001928E-02 0. -1.
        1   -1    0    0  501    0  0.00000000000E+00  0.00000000000E+00 -0.57366762693E+03  0.57366762695E+03  0.50400001928E-02 0.  1.
    10030    2    1    2    0    0  0.00000000000E+00  0.00000000000E+00 -0.11619437298E+03  0.10311408809E+04  0.10245732692E+04 0.  0.
        3    1    3    3  502    0  0.45746639441E+03  0.22523468408E+03 -0.10772270471E+03  0.52116250464E+03  0.10100000352E+00 0.  1.
       -3    1    3    3    0  502 -0.45746639441E+03 -0.22523468408E+03 -0.84716682645E+01  0.50997837630E+03  0.10100000352E+00 0. -1.
</event>
<event>
 5   0  0.1216322E-02  0.1018101E+04  0.7818609E-02  0.9288912E-01
       -2   -1    0    0    0  501  0.00000000000E+00  0.00000000000E+00  0.32751544854E+03  0.32751544855E+03  0.25500000920E-02 0.  1.
        2   -1    0    0  501    0  0.00000000000E+00  0.00000000000E+00 -0.79120669412E+03  0.79120669412E+03  0.25500000920E-02 0. -1.
    10030    2    1    2    0    0  0.00000000000E+00  0.00000000000E+00 -0.46369124558E+03  0.11187221427E+04  0.10181010074E+04 0.  0.
        2    1    3    3  502    0 -0.29336222238E+03  0.13738721503E+03 -0.66333251172E+03  0.73820502672E+03  0.25500000920E-02 0. -1.
       -2    1    3    3    0  502  0.29336222238E+03 -0.13738721503E+03  0.19964126614E+03  0.38051711594E+03  0.25500000920E-02 0.  1.
</event>
<event>
 5   0  0.1191822E-02  0.1026864E+04  0.7818609E-02  0.9279562E-01
        2   -1    0    0  501    0  0.00000000000E+00  0.00000000000E+00  0.52831269200E+03  0.52831269201E+03  0.25500000920E-02 0. -1.
       -2   -1    0    0    0  501  0.00000000000E+00  0.00000000000E+00 -0.49897010164E+03  0.49897010165E+03  0.25500000920E-02 0.  1.
    10030    2    1    2    0    0  0.00000000000E+00  0.00000000000E+00  0.29342590358E+02  0.10272827937E+04  0.10268636475E+04 0.  0.
        4    1    3    3  502    0 -0.67964680443E+02  0.25533923726E+03  0.45507058970E+03  0.52622065560E+03  0.12699999809E+01 0. -1.
       -4    1    3    3    0  502  0.67964680443E+02 -0.25533923726E+03 -0.42572799934E+03  0.50106213806E+03  0.12699999809E+01 0.  1.
</event>
<event>
 5   0  0.6967681E-03  0.9884871E+03  0.7818609E-02  0.9321263E-01
       -1   -1    0    0    0  501  0.00000000000E+00  0.00000000000E+00  0.39177179556E+03  0.39177179559E+03  0.50400001928E-02 0.  1.
        1   -1    0    0  501    0  0.00000000000E+00  0.00000000000E+00 -0.62351779753E+03  0.62351779755E+03  0.50400001928E-02 0. -1.
    10030    2    1    2    0    0  0.00000000000E+00  0.00000000000E+00 -0.23174600197E+03  0.10152895931E+04  0.98848710084E+03 0.  0.
        5    1    3    3  502    0 -0.95143071963E+02  0.45610206251E+03 -0.28518593378E+03  0.54629149947E+03  0.46999998093E+01 0.  1.
       -5    1    3    3    0  502  0.95143071963E+02 -0.45610206251E+03  0.53439931807E+02  0.46899809368E+03  0.46999998093E+01 0. -1.
</event>
<event>
 5   0  0.1191822E-02  0.1027385E+04  0.7818609E-02  0.9279009E-01
       -2   -1    0    0    0  501  0.00000000000E+00  0.00000000000E+00  0.38587665206E+03  0.38587665207E+03  0.25500000920E-02 0.  1.
        2   -1    0    0  501    0  0.00000000000E+00  0.00000000000E+00 -0.68384592248E+03  0.68384592249E+03  0.25500000920E-02 0. -1.
    10030    2    1    2    0    0  0.00000000000E+00  0.00000000000E+00 -0.29796927042E+03  0.10697225746E+04  0.10273853709E+04 0.  0.
        4    1    3    3  502    0 -0.16587860401E+03  0.46137549619E+03  0.10614359626E+02  0.49040527860E+03  0.12699999809E+01 0.  1.
       -4    1    3    3    0  502  0.16587860401E+03 -0.46137549619E+03 -0.30858363005E+03  0.57931729595E+03  0.12699999809E+01 0. -1.
</event>
<event>
 5   0  0.7461157E-03  0.1006899E+04  0.7818609E-02  0.9301010E-01
        1   -1    0    0  501    0  0.00000000000E+00  0.00000000000E+00  0.42794735804E+03  0.42794735807E+03  0.50400001928E-02 0.  1.
       -1   -1    0    0    0  501  0.00000000000E+00  0.00000000000E+00 -0.59227278030E+03  0.59227278032E+03  0.50400001928E-02 0. -1.
    10030    2    1    2    0    0  0.00000000000E+00  0.00000000000E+00 -0.16432542226E+03  0.10202201384E+04  0.10068993427E+04 0.  0.
        2    1    3    3  502    0 -0.43537458342E+03 -0.16889786324E+03  0.10843234811E+03  0.47941119117E+03  0.25500000920E-02 0. -1.
       -2    1    3    3    0  502  0.43537458342E+03  0.16889786324E+03 -0.27275777037E+03  0.54080894722E+03  0.25500000920E-02 0.  1.
</event>
<event>
 5   0  0.1221315E-02  0.1007931E+04  0.7818609E-02  0.9299889E-01
        2   -1    0    0  501    0  0.00000000000E+00  0.00000000000E+00  0.65686585102E+03  0.65686585103E+03  0.25500000920E-02 0. -1.
       -2   -1    0    0    0  501  0.00000000000E+00  0.00000000000E+00 -0.38665587704E+03  0.38665587705E+03  0.25500000920E-02 0.  1.
    10030    2    1    2    0    0  0.00000000000E+00  0.00000000000E+00  0.27020997398E+03  0.10435217281E+04  0.10079306360E+04 0.  0.
        5    1    3    3  502    0  0.16541134169E+03 -0.19510641595E+03  0.58463929497E+03  0.63816347493E+03  0.46999998093E+01 0. -1.
       -5    1    3    3    0  502 -0.16541134169E+03  0.19510641595E+03 -0.31442932099E+03  0.40535825316E+03  0.46999998093E+01 0.  1.
</event>
<event>
 5   0  0.7461157E-03  0.1010517E+04  0.7818609E-02  0.9297085E-01
        1   -1    0    0  501    0  0.00000000000E+00  0.00000000000E+00  0.25801757067E+03  0.25801757072E+03  0.50400001928E-02 0.  1.
       -1   -1    0    0    0  501  0.00000000000E+00  0.00000000000E+00 -0.98941391656E+03  0.98941391657E+03  0.50400001928E-02 0. -1.
    10030    2    1    2    0    0  0.00000000000E+00  0.00000000000E+00 -0.73139634588E+03  0.12474314873E+04  0.10105170462E+04 0.  0.
        2    1    3    3  502    0 -0.24021743293E+03  0.37377313704E+02  0.18107301544E+03  0.30313184522E+03  0.25500000920E-02 0.  1.
       -2    1    3    3    0  502  0.24021743293E+03 -0.37377313704E+02 -0.91246936132E+03  0.94429964207E+03  0.25500000920E-02 0. -1.
</event>
<event>
 5   0  0.1245850E-02  0.1006762E+04  0.7818609E-02  0.9301160E-01
        2   -1    0    0  501    0  0.00000000000E+00  0.00000000000E+00  0.29829403390E+03  0.29829403391E+03  0.25500000920E-02 0.  1.
       -2   -1    0    0    0  501  0.00000000000E+00  0.00000000000E+00 -0.84947155731E+03  0.84947155732E+03  0.25500000920E-02 0. -1.
    10030    2    1    2    0    0  0.00000000000E+00  0.00000000000E+00 -0.55117752342E+03  0.11477655912E+04  0.10067617345E+04 0.  0.
        3    1    3    3  502    0  0.45051398293E+03  0.22305635661E+03 -0.24596262902E+03  0.55965579790E+03  0.10100000352E+00 0.  1.
       -3    1    3    3    0  502 -0.45051398293E+03 -0.22305635661E+03 -0.30521489439E+03  0.58810979332E+03  0.10100000352E+00 0. -1.
</event>
<event>
 5   0  0.4782125E-03  0.8866013E+03  0.7818609E-02  0.9442487E-01
       -4   -1    0    0    0  501  0.00000000000E+00  0.00000000000E+00  0.18264756401E+03  0.18265197929E+03  0.12699999809E+01 0.  1.
        4   -1    0    0  501    0  0.00000000000E+00  0.00000000000E+00 -0.10759092677E+04  0.10759100172E+04  0.12699999809E+01 0. -1.
    10030    2    1    2    0    0  0.00000000000E+00  0.00000000000E+00 -0.89326170368E+03  0.12585619965E+04  0.88660127896E+03 0.  0.
        4    1    3    3  502    0 -0.10076541485E+02 -0.31153109188E+03  0.82846087069E+00  0.31169770154E+03  0.12699999809E+01 0.  1.
       -4    1    3    3    0  502  0.10076541485E+02  0.31153109188E+03 -0.89409016455E+03  0.94686429500E+03  0.12699999809E+01 0. -1.
</event>
<event>
 5   0  0.1216322E-02  0.8738352E+03  0.7818609E-02  0.9458893E-01
       -2   -1    0    0    0  501  0.00000000000E+00  0.00000000000E+00  0.38156648650E+03  0.38156648650E+03  0.25500000920E-02 0. -1.
        2   -1    0    0  501    0  0.00000000000E+00  0.00000000000E+00 -0.50029804993E+03  0.50029804994E+03  0.25500000920E-02 0.  1.
    10030    2    1    2    0    0  0.00000000000E+00  0.00000000000E+00 -0.11873156344E+03  0.88186453644E+03  0.87383515406E+03 0.  0.
        2    1    3    3  502    0 -0.12002358670E+03  0.27614311228E+03 -0.37887607680E+03  0.48395016417E+03  0.25500000920E-02 0.  1.
       -2    1    3    3    0  502  0.12002358670E+03 -0.27614311228E+03  0.26014451336E+03  0.39791437227E+03  0.25500000920E-02 0. -1.
</event>
<event>
 5   0  0.6967681E-03  0.9758178E+03  0.7818609E-02  0.9335472E-01
       -1   -1    0    0    0  501  0.00000000000E+00  0.00000000000E+00  0.52352286913E+03  0.52352286915E+03  0.50400001928E-02 0. -1.
        1   -1    0    0  501    0  0.00000000000E+00  0.00000000000E+00 -0.45471769391E+03  0.45471769393E+03  0.50400001928E-02 0.  1.
    10030    2    1    2    0    0  0.00000000000E+00  0.00000000000E+00  0.68805175223E+02  0.97824056309E+03  0.97581783501E+03 0.  0.
        5    1    3    3  502    0 -0.37980990082E+03  0.29679644473E+03 -0.41212338504E+02  0.48380185739E+03  0.46999998093E+01 0.  1.
       -5    1    3    3    0  502  0.37980990082E+03 -0.29679644473E+03  0.11001751373E+03  0.49443870570E+03  0.46999998093E+01 0. -1.
</event>
<event>
 5   0  0.1191822E-02  0.9730007E+03  0.7818609E-02  0.9338663E-01
        2   -1    0    0  501    0  0.00000000000E+00  0.00000000000E+00  0.92905139642E+03  0.92905139643E+03  0.25500000920E-02 0. -1.
       -2   -1    0    0    0  501  0.00000000000E+00  0.00000000000E+00 -0.25475725304E+03  0.25475725306E+03  0.25500000920E-02 0.  1.
    10030    2    1    2    0    0  0.00000000000E+00  0.00000000000E+00  0.67429414338E+03  0.11838086495E+04  0.97300068181E+03 0.  0.
        4    1    3    3  502    0  0.14796135503E+03  0.35408087279E+03 -0.26662313939E+02  0.38467950159E+03  0.12699999809E+01 0.  1.
       -4    1    3    3    0  502 -0.14796135503E+03 -0.35408087279E+03  0.70095645732E+03  0.79912914789E+03  0.12699999809E+01 0. -1.
</event>
<event>
 5   0  0.1221315E-02  0.9838339E+03  0.7818609E-02  0.9326455E-01
       -2   -1    0    0    0  501  0.00000000000E+00  0.00000000000E+00  0.63263981782E+03  0.63263981782E+03  0.25500000920E-02 0.  1.
        2   -1    0    0  501    0  0.00000000000E+00  0.00000000000E+00 -0.38249614876E+03  0.38249614877E+03  0.25500000920E-02 0. -1.
    10030    2    1    2    0    0  0.00000000000E+00  0.00000000000E+00  0.25014366906E+03  0.10151359666E+04  0.98383391663E+03 0.  0.
        5    1    3    3  502    0  0.22975036982E+03  0.41652478949E+03  0.25428421735E+03  0.53940771767E+03  0.46999998093E+01 0.  1.
       -5    1    3    3    0  502 -0.22975036982E+03 -0.41652478949E+03 -0.41405482983E+01  0.47572824893E+03  0.46999998093E+01 0. -1.
</event>
<event>
 5   0  0.7241200E-03  0.9567117E+03  0.7818609E-02  0.9357340E-01
        1   -1    0    0  501    0  0.00000000000E+00  0.00000000000E+00  0.21998787687E+03  0.21998787693E+03  0.50400001928E-02 0. -1.
       -1   -1    0    0    0  501  0.00000000000E+00  0.00000000000E+00 -0.10401678764E+04  0.10401678765E+04  0.50400001928E-02 0.  1.
    10030    2    1    2    0    0  0.00000000000E+00  0.00000000000E+00 -0.82017999957E+03  0.12601557534E+04  0.95671170740E+03 0.  0.
        4    1    3    3  502    0 -0.46088678307E+03 -0.23847787980E+02 -0.24432813810E+03  0.52219076569E+03  0.12699999809E+01 0. -1.
       -4    1    3    3    0  502  0.46088678307E+03  0.23847787980E+02 -0.57585186147E+03  0.73796498769E+03  0.12699999809E+01 0.  1.
</event>
<event>
 5   0  0.4782125E-03  0.9995474E+03  0.7818609E-02  0.9309041E-01
       -4   -1    0    0    0  501  0.00000000000E+00  0.00000000000E+00  0.79734449276E+03  0.79734550418E+03  0.12699999809E+01 0. -1.
        4   -1    0    0  501    0  0.00000000000E+00  0.00000000000E+00 -0.31325451649E+03  0.31325709091E+03  0.12699999809E+01 0.  1.
    10030    2    1    2    0    0  0.00000000000E+00  0.00000000000E+00  0.48408997626E+03  0.11106025951E+04  0.99954740712E+03 0.  0.
        1    1    3    3  502    0  0.34802207583E+03 -0.33846453865E+03  0.37396341838E+03  0.61280196434E+03  0.50400001928E-02 0.  1.
       -1    1    3    3    0  502 -0.34802207583E+03  0.33846453865E+03  0.11012655788E+03  0.49780063074E+03  0.50400001928E-02 0. -1.
</event>
<event>
 5   0  0.1221315E-02  0.9149113E+03  0.7818609E-02  0.9407131E-01
       -2   -1    0    0    0  501  0.00000000000E+00  0.00000000000E+00  0.27314094213E+03  0.27314094214E+03  0.25500000920E-02 0.  1.
        2   -1    0    0  501    0  0.00000000000E+00  0.00000000000E+00 -0.76614530275E+03  0.76614530275E+03  0.25500000920E-02 0. -1.
    10030    2    1    2    0    0  0.00000000000E+00  0.00000000000E+00 -0.49300436062E+03  0.10392862449E+04  0.91491125210E+03 0.  0.
        5    1    3    3  502    0  0.29800669895E+03 -0.28830186376E+03 -0.46594080767E+03  0.62373783235E+03  0.46999998093E+01 0. -1.
       -5    1    3    3    0  502 -0.29800669895E+03  0.28830186376E+03 -0.27063552954E+02  0.41554841253E+03  0.46999998093E+01 0.  1.
</event>
<event>
 5   0  0.7224879E-03  0.1003901E+04  0.7818609E-02  0.9304276E-01
        1   -1    0    0  501    0  0.00000000000E+00  0.00000000000E+00  0.22424926728E+03  0.22424926733E+03  0.50400001928E-02 0. -1.
       -1   -1    0    0    0  501  0.00000000000E+00  0.00000000000E+00 -0.11235461958E+04  0.11235461958E+04  0.50400001928E-02 0.  1.
    10030    2    1    2    0    0  0.00000000000E+00  0.00000000000E+00 -0.89929692852E+03  0.13477954631E+04  0.10039012127E+04 0.  0.
        3    1    3    3  502    0  0.20707758468E+03 -0.14452156657E+03  0.13275986913E+03  0.28529423817E+03  0.10100000352E+00 0. -1.
       -3    1    3    3    0  502 -0.20707758468E+03  0.14452156657E+03 -0.10320567976E+04  0.10625012250E+04  0.10100000352E+00 0.  1.
</event>
<event>
 5   0  0.1240503E-02  0.9611463E+03  0.7818609E-02  0.9352216E-01
       -2   -1    0    0    0  501  0.00000000000E+00  0.00000000000E+00  0.38765292830E+03  0.38765292831E+03  0.25500000920E-02 0.  1.
        2   -1    0    0  501    0  0.00000000000E+00  0.00000000000E+00 -0.59576626416E+03  0.59576626417E+03  0.25500000920E-02 0. -1.
    10030    2    1    2    0    0  0.00000000000E+00  0.00000000000E+00 -0.20811333586E+03  0.98341919248E+03  0.96114626752E+03 0.  0.
        1    1    3    3  502    0  0.47477303742E+03 -0.10632628411E+02 -0.17943924781E+03  0.50766222385E+03  0.50400001928E-02 0.  1.
       -1    1    3    3    0  502 -0.47477303742E+03  0.10632628411E+02 -0.28674088053E+02  0.47575696863E+03  0.50400001928E-02 0. -1.
</event>
<event>
 5   0  0.7073004E-03  0.9946870E+03  0.7818609E-02  0.9314391E-01
       -1   -1    0    0    0  501  0.00000000000E+00  0.00000000000E+00  0.56497881609E+03  0.56497881611E+03  0.50400001928E-02 0.  1.
        1   -1    0    0  501    0  0.00000000000E+00  0.00000000000E+00 -0.43780498151E+03  0.43780498154E+03  0.50400001928E-02 0. -1.
    10030    2    1    2    0    0  0.00000000000E+00  0.00000000000E+00  0.12717383457E+03  0.10027837977E+04  0.99468696615E+03 0.  0.
        1    1    3    3  502    0 -0.44393491637E+03 -0.69827268385E+02 -0.15121194855E+03  0.47415093672E+03  0.50400001928E-02 0. -1.
       -1    1    3    3    0  502  0.44393491637E+03  0.69827268385E+02  0.27838578312E+03  0.52863286093E+03  0.50400001928E-02 0.  1.
</event>
<event>
 5   0  0.1240503E-02  0.1032433E+04  0.7818609E-02  0.9273672E-01
        2   -1    0    0  501    0  0.00000000000E+00  0.00000000000E+00  0.25932464199E+04  0.25932464199E+04  0.25500000920E-02 0. -1.
       -2   -1    0    0    0  501  0.00000000000E+00  0.00000000000E+00 -0.10275892783E+03  0.10275892787E+03  0.25500000920E-02 0.  1.
    10030    2    1    2    0    0  0.00000000000E+00  0.00000000000E+00  0.24904874921E+04  0.26960053478E+04  0.10324325097E+04 0.  0.
        1    1    3    3  502    0  0.21875260176E+03 -0.10805991056E+02  0.24659031171E+04  0.24756105617E+04  0.50400001928E-02 0. -1.
       -1    1    3    3    0  502 -0.21875260176E+03  0.10805991056E+02  0.24584374995E+02  0.22039478610E+03  0.50400001928E-02 0.  1.
</event>
<event>
 5   0  0.1240503E-02  0.9681116E+03  0.7818609E-02  0.9344228E-01
        2   -1    0    0  501    0  0.00000000000E+00  0.00000000000E+00  0.15350578871E+04  0.15350578871E+04  0.25500000920E-02 0.  1.
       -2   -1    0    0    0  501  0.00000000000E+00  0.00000000000E+00 -0.15263921557E+03  0.15263921559E+03  0.25500000920E-02 0. -1.
    10030    2    1    2    0    0  0.00000000000E+00  0.00000000000E+00  0.13824186716E+04  0.16876971027E+04  0.96811162945E+03 0.  0.
        1    1    3    3  502    0  0.80546046860E+01  0.48396299971E+03  0.68249812940E+03  0.83671306815E+03  0.50400001928E-02 0. -1.
       -1    1    3    3    0  502 -0.80546046860E+01 -0.48396299971E+03  0.69992054216E+03  0.85098403458E+03  0.50400001928E-02 0.  1.
</event>
<event>
 5   0  0.1221315E-02  0.1055044E+04  0.7818609E-02  0.9250151E-01
        2   -1    0    0  501    0  0.00000000000E+00  0.00000000000E+00  0.10048227604E+04  0.10048227604E+04  0.25500000920E-02 0. -1.
       -2   -1    0    0    0  501  0.00000000000E+00  0.00000000000E+00 -0.27694406879E+03  0.27694406880E+03  0.25500000920E-02 0.  1.
    10030    2    1    2    0    0  0.00000000000E+00  0.00000000000E+00  0.72787869165E+03  0.12817668292E+04  0.10550444610E+04 0.  0.
        5    1    3    3  502    0  0.43237022729E+03 -0.30190802309E+02 -0.13420584937E+01  0.43345056132E+03  0.46999998093E+01 0.  1.
       -5    1    3    3    0  502 -0.43237022729E+03  0.30190802309E+02  0.72922075014E+03  0.84831626793E+03  0.46999998093E+01 0. -1.
</event>
<event>
 5   0  0.1245850E-02  0.9779759E+03  0.7818609E-02  0.9333036E-01
       -2   -1    0    0    0  501  0.00000000000E+00  0.00000000000E+00  0.15943592168E+03  0.15943592170E+03  0.25500000920E-02 0.  1.
        2   -1    0    0  501    0  0.00000000000E+00  0.00000000000E+00 -0.14997199558E+04  0.14997199558E+04  0.25500000920E-02 0. -1.
    10030    2    1    2    0    0  0.00000000000E+00  0.00000000000E+00 -0.13402840341E+04  0.16591558775E+04  0.97797593721E+03 0.  0.
        3    1    3    3  502    0 -0.46305045354E+03 -0.14771702633E+03 -0.76107899169E+03  0.90303780884E+03  0.10100000352E+00 0. -1.
       -3    1    3    3    0  502  0.46305045354E+03  0.14771702633E+03 -0.57920504241E+03  0.75611806866E+03  0.10100000352E+00 0.  1.
</event>
<event>
 5   0  0.7461157E-03  0.1000451E+04  0.7818609E-02  0.9308050E-01
       -1   -1    0    0    0  501  0.00000000000E+00  0.00000000000E+00  0.22811841331E+03  0.22811841336E+03  0.50400001928E-02 0.  1.
        1   -1    0    0  501    0  0.00000000000E+00  0.00000000000E+00 -0.10969115486E+04  0.10969115486E+04  0.50400001928E-02 0. -1.
    10030    2    1    2    0    0  0.00000000000E+00  0.00000000000E+00 -0.86879313531E+03  0.13250299620E+04  0.10004513423E+04 0.  0.
        2    1    3    3  502    0 -0.35711680710E+03 -0.22087714726E+03 -0.74339515499E+02  0.42643345514E+03  0.25500000920E-02 0.  1.
       -2    1    3    3    0  502  0.35711680710E+03  0.22087714726E+03 -0.79445361981E+03  0.89859650686E+03  0.25500000920E-02 0. -1.
</event>
<event>
 5   0  0.7224879E-03  0.9929757E+03  0.7818609E-02  0.9316283E-01
       -1   -1    0    0    0  501  0.00000000000E+00  0.00000000000E+00  0.26905929282E+03  0.26905929287E+03  0.50400001928E-02 0.  1.
        1   -1    0    0  501    0  0.00000000000E+00  0.00000000000E+00 -0.91615563216E+03  0.91615563217E+03  0.50400001928E-02 0. -1.
    10030    2    1    2    0    0  0.00000000000E+00  0.00000000000E+00 -0.64709633933E+03  0.11852149250E+04  0.99297570271E+03 0.  0.
        3    1    3    3  502    0 -0.95534973833E+02 -0.27233954648E+03 -0.80574510249E+03  0.85587437173E+03  0.10100000352E+00 0. -1.
       -3    1    3    3    0  502  0.95534973833E+02  0.27233954648E+03  0.15864876316E+03  0.32934055331E+03  0.10100000352E+00 0.  1.
</event>
<event>
 5   0  0.4782125E-03  0.9890787E+03  0.7818609E-02  0.9320605E-01
        3   -1    0    0  501    0  0.00000000000E+00  0.00000000000E+00  0.60284792508E+03  0.60284793354E+03  0.10100000352E+00 0.  1.
       -3   -1    0    0    0  501  0.00000000000E+00  0.00000000000E+00 -0.40568963484E+03  0.40568964741E+03  0.10100000352E+00 0. -1.
    10030    2    1    2    0    0  0.00000000000E+00  0.00000000000E+00  0.19715829024E+03  0.10085375809E+04  0.98907869291E+03 0.  0.
        2    1    3    3  502    0  0.32748285294E+03  0.33889140490E+03 -0.54292912869E+02  0.47438394122E+03  0.25500000920E-02 0.  1.
       -2    1    3    3    0  502 -0.32748285294E+03 -0.33889140490E+03  0.25145120311E+03  0.53415363973E+03  0.25500000920E-02 0. -1.
</event>
<event>
 5   0  0.4782125E-03  0.9934914E+03  0.7818609E-02  0.9315712E-01
        3   -1    0    0  501    0  0.00000000000E+00  0.00000000000E+00  0.78933770924E+03  0.78933771570E+03  0.10100000352E+00 0. -1.
       -3   -1    0    0    0  501  0.00000000000E+00  0.00000000000E+00 -0.31261176913E+03  0.31261178545E+03  0.10100000352E+00 0.  1.
    10030    2    1    2    0    0  0.00000000000E+00  0.00000000000E+00  0.47672594011E+03  0.11019495011E+04  0.99349135935E+03 0.  0.
        5    1    3    3  502    0  0.43543522332E+03  0.16420869299E+02  0.50284958937E+03  0.66539708309E+03  0.46999998093E+01 0. -1.
       -5    1    3    3    0  502 -0.43543522332E+03 -0.16420869299E+02 -0.26123649260E+02  0.43655241805E+03  0.46999998093E+01 0.  1.
</event>
<event>
 5   0  0.7461157E-03  0.9791996E+03  0.7818609E-02  0.9331657E-01
        1   -1    0    0  501    0  0.00000000000E+00  0.00000000000E+00  0.34199034683E+03  0.34199034687E+03  0.50400001928E-02 0. -1.
       -1   -1    0    0    0  501  0.00000000000E+00  0.00000000000E+00 -0.70092031118E+03  0.70092031120E+03  0.50400001928E-02 0.  1.
    10030    2    1    2    0    0  0.00000000000E+00  0.00000000000E+00 -0.35892996435E+03  0.10429106581E+04  0.97919963308E+03 0.  0.
        2    1    3    3  502    0 -0.34330046236E+03 -0.10606163981E+03 -0.53367488136E+03  0.64336083024E+03  0.25500000920E-02 0.  1.
       -2    1    3    3    0  502  0.34330046236E+03  0.10606163981E+03  0.17474491701E+03  0.39954982783E+03  0.25500000920E-02 0. -1.
</event>
<event>
 5   0  0.7073004E-03  0.9890629E+03  0.7818609E-02  0.9320622E-01
       -1   -1    0    0    0  501  0.00000000000E+00  0.00000000000E+00  0.33718942360E+03  0.33718942364E+03  0.50400001928E-02 0.  1.
        1   -1    0    0  501    0  0.00000000000E+00  0.00000000000E+00 -0.72529366304E+03  0.72529366306E+03  0.50400001928E-02 0. -1.
    10030    2    1    2    0    0  0.00000000000E+00  0.00000000000E+00 -0.38810423944E+03  0.10624830867E+04  0.98906289428E+03 0.  0.
        1    1    3    3  502    0 -0.39232825701E+02 -0.49138865750E+03 -0.15163253462E+03  0.51574650063E+03  0.50400001928E-02 0.  1.
       -1    1    3    3    0  502  0.39232825701E+02  0.49138865750E+03 -0.23647170482E+03  0.54673658606E+03  0.50400001928E-02 0. -1.
</event>
<event>
 5   0  0.1191822E-02  0.1000943E+04  0.7818609E-02  0.9307511E-01
       -2   -1    0    0    0  501  0.00000000000E+00  0.00000000000E+00  0.10214524947E+04  0.10214524947E+04  0.25500000920E-02 0. -1.
        2   -1    0    0  501    0  0.00000000000E+00  0.00000000000E+00 -0.24521151636E+03  0.24521151637E+03  0.25500000920E-02 0.  1.
    10030    2    1    2    0    0  0.00000000000E+00  0.00000000000E+00  0.77624097835E+03  0.12666640111E+04  0.10009433853E+04 0.  0.
        4    1    3    3  502    0 -0.89980614489E+02  0.29503996420E+02  0.10100103227E+04  0.10144404673E+04  0.12699999809E+01 0. -1.
       -4    1    3    3    0  502  0.89980614489E+02 -0.29503996420E+02 -0.23376934435E+03  0.25222354380E+03  0.12699999809E+01 0.  1.
</event>
<event>
 5   0  0.7224879E-03  0.1024476E+04  0.7818609E-02  0.9282100E-01
        1   -1    0    0  501    0  0.00000000000E+00  0.00000000000E+00  0.27934337588E+03  0.27934337593E+03  0.50400001928E-02 0.  1.
       -1   -1    0    0    0  501  0.00000000000E+00  0.00000000000E+00 -0.93930266783E+03  0.93930266785E+03  0.50400001928E-02 0. -1.
    10030    2    1    2    0    0  0.00000000000E+00  0.00000000000E+00 -0.65995929195E+03  0.12186460438E+04  0.10244764092E+04 0.  0.
        3    1    3    3  502    0  0.15929643798E+03 -0.48400620807E+03 -0.26759329107E+03  0.57553761322E+03  0.10100000352E+00 0. -1.
       -3    1    3    3    0  502 -0.15929643798E+03  0.48400620807E+03 -0.39236600088E+03  0.64310843055E+03  0.10100000352E+00 0.  1.
</event>
<event>
 5   0  0.1216322E-02  0.9929476E+03  0.7818609E-02  0.9316314E-01
       -2   -1    0    0    0  501  0.00000000000E+00  0.00000000000E+00  0.11124029933E+04  0.11124029933E+04  0.25500000920E-02 0. -1.
        2   -1    0    0  501    0  0.00000000000E+00  0.00000000000E+00 -0.22157998131E+03  0.22157998132E+03  0.25500000920E-02 0.  1.
    10030    2    1    2    0    0  0.00000000000E+00  0.00000000000E+00  0.89082301198E+03  0.13339829746E+04  0.99294760078E+03 0.  0.
        2    1    3    3  502    0  0.26298611710E+03  0.21548937239E+03  0.93145519709E+03  0.99156752246E+03  0.25500000920E-02 0. -1.
       -2    1    3    3    0  502 -0.26298611710E+03 -0.21548937239E+03 -0.40632185112E+02  0.34241545216E+03  0.25500000920E-02 0.  1.
</event>
<event>
 5   0  0.6967681E-03  0.9968333E+03  0.7818609E-02  0.9312025E-01
        1   -1    0    0  501    0  0.00000000000E+00  0.00000000000E+00  0.13751468289E+04  0.13751468289E+04  0.50400001928E-02 0. -1.
       -1   -1    0    0    0  501  0.00000000000E+00  0.00000000000E+00 -0.18064916940E+03  0.18064916947E+03  0.50400001928E-02 0.  1.
    10030    2    1    2    0    0  0.00000000000E+00  0.00000000000E+00  0.11944976595E+04  0.15557959983E+04  0.99683325084E+03 0.  0.
        5    1    3    3  502    0  0.30592308004E+03 -0.28069804252E+03  0.10275620598E+04  0.11082807401E+04  0.46999998093E+01 0. -1.
       -5    1    3    3    0  502 -0.30592308004E+03  0.28069804252E+03  0.16693559963E+03  0.44751525828E+03  0.46999998093E+01 0.  1.
</event>
<event>
 5   0  0.1191822E-02  0.1011152E+04  0.7818609E-02  0.9296397E-01
        2   -1    0    0  501    0  0.00000000000E+00  0.00000000000E+00  0.73809118636E+03  0.73809118637E+03  0.25500000920E-02 0.  1.
       -2   -1    0    0    0  501  0.00000000000E+00  0.00000000000E+00 -0.34630829043E+03  0.34630829044E+03  0.25500000920E-02 0. -1.
    10030    2    1    2    0    0  0.00000000000E+00  0.00000000000E+00  0.39178289593E+03  0.10843994768E+04  0.10111520102E+04 0.  0.
        4    1    3    3  502    0  0.29159723653E+03 -0.34105477789E+03  0.44569892743E+03  0.63245273080E+03  0.12699999809E+01 0.  1.
       -4    1    3    3    0  502 -0.29159723653E+03  0.34105477789E+03 -0.53916031500E+02  0.45194674601E+03  0.12699999809E+01 0. -1.
</event>
<event>
 5   0  0.1240503E-02  0.1006584E+04  0.7818609E-02  0.9301353E-01
       -2   -1    0    0    0  501  0.00000000000E+00  0.00000000000E+00  0.27357259240E+03  0.27357259242E+03  0.25500000920E-02 0.  1.
        2   -1    0    0  501    0  0.00000000000E+00  0.00000000000E+00 -0.92590713224E+03  0.92590713225E+03  0.25500000920E-02 0. -1.
    10030    2    1    2    0    0  0.00000000000E+00  0.00000000000E+00 -0.65233453984E+03  0.11994797247E+04  0.10065839548E+04 0.  0.
        1    1    3    3  502    0 -0.38560931235E+03  0.85641815439E+02  0.45488382354E+02  0.39761571307E+03  0.50400001928E-02 0.  1.
       -1    1    3    3    0  502  0.38560931235E+03 -0.85641815439E+02 -0.69782292219E+03  0.80186401159E+03  0.50400001928E-02 0. -1.
</event>
<event>
 5   0  0.1240503E-02  0.1002698E+04  0.7818609E-02  0.9305590E-01
       -2   -1    0    0    0  501  0.00000000000E+00  0.00000000000E+00  0.15648141120E+03  0.15648141122E+03  0.25500000920E-02 0. -1.
        2   -1    0    0  501    0  0.00000000000E+00  0.00000000000E+00 -0.16062676495E+04  0.16062676495E+04  0.25500000920E-02 0.  1.
    10030    2    1    2    0    0  0.00000000000E+00  0.00000000000E+00 -0.14497862383E+04  0.17627490608E+04  0.10026984164E+04 0.  0.
        1    1    3    3  502    0 -0.30492766601E+03  0.32997551584E+03 -0.11159704848E+04  0.12030190545E+04  0.50400001928E-02 0.  1.
       -1    1    3    3    0  502  0.30492766601E+03 -0.32997551584E+03 -0.33381575352E+03  0.55973000623E+03  0.50400001928E-02 0. -1.
</event>
<event>
 5   0  0.7241200E-03  0.9969393E+03  0.7818609E-02  0.9311908E-01
       -1   -1    0    0    0  501  0.00000000000E+00  0.00000000000E+00  0.14735372897E+03  0.14735372905E+03  0.50400001928E-02 0. -1.
        1   -1    0    0  501    0  0.00000000000E+00  0.00000000000E+00 -0.16862279627E+04  0.16862279627E+04  0.50400001928E-02 0.  1.
    10030    2    1    2    0    0  0.00000000000E+00  0.00000000000E+00 -0.15388742338E+04  0.18335816918E+04  0.99693927253E+03 0.  0.
        4    1    3    3  502    0 -0.11267260703E+03  0.47019387222E+03 -0.54649794791E+03  0.72968418773E+03  0.12699999809E+01 0. -1.
       -4    1    3    3    0  502  0.11267260703E+03 -0.47019387222E+03 -0.99237628586E+03  0.11038975041E+04  0.12699999809E+01 0.  1.
</event>
<event>
 5   0  0.1191822E-02  0.1006714E+04  0.7818609E-02  0.9301211E-01
        2   -1    0    0  501    0  0.00000000000E+00  0.00000000000E+00  0.80624311141E+03  0.80624311141E+03  0.25500000920E-02 0. -1.
       -2   -1    0    0    0  501  0.00000000000E+00  0.00000000000E+00 -0.31425803147E+03  0.31425803148E+03  0.25500000920E-02 0.  1.
    10030    2    1    2    0    0  0.00000000000E+00  0.00000000000E+00  0.49198507994E+03  0.11205011429E+04  0.10067142059E+04 0.  0.
        4    1    3    3  502    0 -0.33068503848E+03 -0.58457723020E+02  0.66333629355E+03  0.74349616764E+03  0.12699999809E+01 0. -1.
       -4    1    3    3    0  502  0.33068503848E+03  0.58457723020E+02 -0.17135121361E+03  0.37700497525E+03  0.12699999809E+01 0.  1.
</event>
<event>
 5   0  0.1191822E-02  0.9972806E+03  0.7818609E-02  0.9311532E-01
        2   -1    0    0  501    0  0.00000000000E+00  0.00000000000E+00  0.71186416816E+03  0.71186416817E+03  0.25500000920E-02 0. -1.
       -2   -1    0    0    0  501  0.00000000000E+00  0.00000000000E+00 -0.34928316638E+03  0.34928316639E+03  0.25500000920E-02 0.  1.
    10030    2    1    2    0    0  0.00000000000E+00  0.00000000000E+00  0.36258100178E+03  0.10611473346E+04  0.99728064395E+03 0.  0.
        4    1    3    3  502    0  0.14892759221E+03 -0.26308896705E+03 -0.24064607044E+03  0.38640312683E+03  0.12699999809E+01 0.  1.
       -4    1    3    3    0  502 -0.14892759221E+03  0.26308896705E+03  0.60322707222E+03  0.67474420773E+03  0.12699999809E+01 0. -1.
</event>
<event>
 5   0  0.4782125E-03  0.9830094E+03  0.7818609E-02  0.9327379E-01
       -4   -1    0    0    0  501  0.00000000000E+00  0.00000000000E+00  0.24235127793E+03  0.24235460552E+03  0.12699999809E+01 0.  1.
        4   -1    0    0  501    0  0.00000000000E+00  0.00000000000E+00 -0.99679399853E+03  0.99679480758E+03  0.12699999809E+01 0. -1.
    10030    2    1    2    0    0  0.00000000000E+00  0.00000000000E+00 -0.75444272060E+03  0.12391494131E+04  0.98300938414E+03 0.  0.
        3    1    3    3  502    0  0.33694852460E+02  0.15887348516E+03  0.20755239950E+03  0.26354152635E+03  0.10100000352E+00 0.  1.
       -3    1    3    3    0  502 -0.33694852460E+02 -0.15887348516E+03 -0.96199512010E+03  0.97560788674E+03  0.10100000352E+00 0. -1.
</event>
<event>
 5   0  0.1191822E-02  0.9951884E+03  0.7818609E-02  0.9313838E-01
        2   -1    0    0  501    0  0.00000000000E+00  0.00000000000E+00  0.17937916336E+04  0.17937916336E+04  0.25500000920E-02 0.  1.
       -2   -1    0    0    0  501  0.00000000000E+00  0.00000000000E+00 -0.13803163072E+03  0.13803163074E+03  0.25500000920E-02 0. -1.
    10030    2    1    2    0    0  0.00000000000E+00  0.00000000000E+00  0.16557600029E+04  0.19318232643E+04  0.99518839296E+03 0.  0.
        4    1    3    3  502    0  0.48763902150E+03  0.73609089389E+02  0.69928971214E+03  0.85569727575E+03  0.12699999809E+01 0. -1.
       -4    1    3    3    0  502 -0.48763902150E+03 -0.73609089389E+02  0.95647029073E+03  0.10761259886E+04  0.12699999809E+01 0.  1.
</event>
<event>
 5   0  0.7224879E-03  0.1176512E+04  0.7818609E-02  0.9133667E-01
        1   -1    0    0  501    0  0.00000000000E+00  0.00000000000E+00  0.85744795770E+03  0.85744795772E+03  0.50400001928E-02 0.  1.
       -1   -1    0    0    0  501  0.00000000000E+00  0.00000000000E+00 -0.40357589097E+03  0.40357589100E+03  0.50400001928E-02 0. -1.
    10030    2    1    2    0    0  0.00000000000E+00  0.00000000000E+00  0.45387206673E+03  0.12610238487E+04  0.11765123434E+04 0.  0.
        3    1    3    3  502    0  0.20865430119E+03  0.54163999773E+03  0.32937767806E+03  0.66738307556E+03  0.10100000352E+00 0. -1.
       -3    1    3    3    0  502 -0.20865430119E+03 -0.54163999773E+03  0.12449438867E+03  0.59364077316E+03  0.10100000352E+00 0.  1.
</event>
<event>
 5   0  0.6967681E-03  0.9563063E+03  0.7818609E-02  0.9357810E-01
       -1   -1    0    0    0  501  0.00000000000E+00  0.00000000000E+00  0.27104617375E+03  0.27104617379E+03  0.50400001928E-02 0. -1.
        1   -1    0    0  501    0  0.00000000000E+00  0.00000000000E+00 -0.84351110225E+03  0.84351110227E+03  0.50400001928E-02 0.  1.
    10030    2    1    2    0    0  0.00000000000E+00  0.00000000000E+00 -0.57246492851E+03  0.11145572761E+04  0.95630634592E+03 0.  0.
        5    1    3    3  502    0 -0.19557515273E+02 -0.10171459741E+03 -0.83025143947E+03  0.83670060265E+03  0.46999998093E+01 0.  1.
       -5    1    3    3    0  502  0.19557515273E+02  0.10171459741E+03  0.25778651096E+03  0.27785667342E+03  0.46999998093E+01 0. -1.
</event>
<event>
 5   0  0.6967681E-03  0.9883683E+03  0.7818609E-02  0.9321395E-01
       -1   -1    0    0    0  501  0.00000000000E+00  0.00000000000E+00  0.17474985019E+03  0.17474985027E+03  0.50400001928E-02 0.  1.
        1   -1    0    0  501    0  0.00000000000E+00  0.00000000000E+00 -0.13975290573E+04  0.13975290573E+04  0.50400001928E-02 0. -1.
    10030    2    1    2    0    0  0.00000000000E+00  0.00000000000E+00 -0.12227792071E+04  0.15722789075E+04  0.98836833916E+03 0.  0.
        5    1    3    3  502    0 -0.92845500147E+01 -0.48113842275E+03 -0.43271479722E+03  0.64718202266E+03  0.46999998093E+01 0.  1.
       -5    1    3    3    0  502  0.92845500147E+01  0.48113842275E+03 -0.79006440984E+03  0.92509688488E+03  0.46999998093E+01 0. -1.
</event>
<event>
 5   0  0.7461157E-03  0.1016449E+04  0.7818609E-02  0.9290685E-01
        1   -1    0    0  501    0  0.00000000000E+00  0.00000000000E+00  0.41163422757E+03  0.41163422760E+03  0.50400001928E-02 0.  1.
       -1   -1    0    0    0  501  0.00000000000E+00  0.00000000000E+00 -0.62747987182E+03  0.62747987184E+03  0.50400001928E-02 0. -1.
    10030    2    1    2    0    0  0.00000000000E+00  0.00000000000E+00 -0.21584564425E+03  0.10391140994E+04  0.10164490983E+04 0.  0.
        2    1    3    3  502    0 -0.31005836513E+03 -0.34149211022E+03  0.11023461404E+03  0.47424120579E+03  0.25500000920E-02 0.  1.
       -2    1    3    3    0  502  0.31005836513E+03  0.34149211022E+03 -0.32608025829E+03  0.56487289365E+03  0.25500000920E-02 0. -1.
</event>
<event>
 5   0  0.1245850E-02  0.9976947E+03  0.7818609E-02  0.9311077E-01
       -2   -1    0    0    0  501  0.00000000000E+00  0.00000000000E+00  0.49212088734E+03  0.49212088734E+03  0.25500000920E-02 0. -1.
        2   -1    0    0  501    0  0.00000000000E+00  0.00000000000E+00 -0.50566572485E+03  0.50566572486E+03  0.25500000920E-02 0.  1.
    10030    2    1    2    0    0  0.00000000000E+00  0.00000000000E+00 -0.13544837514E+02  0.99778661220E+03  0.99769467316E+03 0.  0.
        3    1    3    3  502    0 -0.54772990157E+02  0.11817589267E+03  0.47481430412E+03  0.49235582220E+03  0.10100000352E+00 0. -1.
       -3    1    3    3    0  502  0.54772990157E+02 -0.11817589267E+03 -0.48835914163E+03  0.50543079000E+03  0.10100000352E+00 0.  1.
</event>
<event>
 5   0  0.1221315E-02  0.1012677E+04  0.7818609E-02  0.9294749E-01
        2   -1    0    0  501    0  0.00000000000E+00  0.00000000000E+00  0.77745626643E+03  0.77745626644E+03  0.25500000920E-02 0.  1.
       -2   -1    0    0    0  501  0.00000000000E+00  0.00000000000E+00 -0.32976604229E+03  0.32976604229E+03  0.25500000920E-02 0. -1.
    10030    2    1    2    0    0  0.00000000000E+00  0.00000000000E+00  0.44769022415E+03  0.11072223087E+04  0.10126769989E+04 0.  0.
        5    1    3    3  502    0 -0.32957937443E+03 -0.37693625838E+03  0.30605166035E+03  0.58685024984E+03  0.46999998093E+01 0. -1.
       -5    1    3    3    0  502  0.32957937443E+03  0.37693625838E+03  0.14163856379E+03  0.52037205890E+03  0.46999998093E+01 0.  1.
</event>
<event>
 5   0  0.1216322E-02  0.9788184E+03  0.7818609E-02  0.9332086E-01
       -2   -1    0    0    0  501  0.00000000000E+00  0.00000000000E+00  0.45295795649E+03  0.45295795650E+03  0.25500000920E-02 0. -1.
        2   -1    0    0  501    0  0.00000000000E+00  0.00000000000E+00 -0.52879377421E+03  0.52879377422E+03  0.25500000920E-02 0.  1.
    10030    2    1    2    0    0  0.00000000000E+00  0.00000000000E+00 -0.75835817717E+02  0.98175173072E+03  0.97881836390E+03 0.  0.
        2    1    3    3  502    0 -0.44395414067E+03  0.16257969462E+03 -0.16476394719E+03  0.50067413995E+03  0.25500000920E-02 0.  1.
       -2    1    3    3    0  502  0.44395414067E+03 -0.16257969462E+03  0.88928129476E+02  0.48107759076E+03  0.25500000920E-02 0. -1.
</event>
<event>
 5   0  0.7461157E-03  0.9873147E+03  0.7818609E-02  0.9322568E-01
        1   -1    0    0  501    0  0.00000000000E+00  0.00000000000E+00  0.75108652686E+03  0.75108652688E+03  0.50400001928E-02 0. -1.
       -1   -1    0    0    0  501  0.00000000000E+00  0.00000000000E+00 -0.32446005082E+03  0.32446005086E+03  0.50400001928E-02 0.  1.
    10030    2    1    2    0    0  0.00000000000E+00  0.00000000000E+00  0.42662647604E+03  0.10755465777E+04  0.98731468683E+03 0.  0.
        2    1    3    3  502    0 -0.34493313354E+01 -0.26821534162E+03 -0.23814460310E+03  0.35869795004E+03  0.25500000920E-02 0.  1.
       -2    1    3    3    0  502  0.34493313354E+01  0.26821534162E+03  0.66477107914E+03  0.71684862770E+03  0.25500000920E-02 0. -1.
</event>
<event>
 5   0  0.1240503E-02  0.1000468E+04  0.7818609E-02  0.9308031E-01
       -2   -1    0    0    0  501  0.00000000000E+00  0.00000000000E+00  0.63888781933E+03  0.63888781933E+03  0.25500000920E-02 0.  1.
        2   -1    0    0  501    0  0.00000000000E+00  0.00000000000E+00 -0.39167155064E+03  0.39167155065E+03  0.25500000920E-02 0. -1.
    10030    2    1    2    0    0  0.00000000000E+00  0.00000000000E+00  0.24721626869E+03  0.10305593700E+04  0.10004682562E+04 0.  0.
        1    1    3    3  502    0  0.24688078857E+02 -0.34752403769E+03 -0.24614751755E+03  0.42658065877E+03  0.50400001928E-02 0. -1.
       -1    1    3    3    0  502 -0.24688078857E+02  0.34752403769E+03  0.49336378624E+03  0.60397871122E+03  0.50400001928E-02 0.  1.
</event>
<event>
 5   0  0.4782125E-03  0.1014081E+04  0.7818609E-02  0.9293234E-01
        3   -1    0    0  501    0  0.00000000000E+00  0.00000000000E+00  0.48176711630E+03  0.48176712689E+03  0.10100000352E+00 0.  1.
       -3   -1    0    0    0  501  0.00000000000E+00  0.00000000000E+00 -0.53364000624E+03  0.53364001580E+03  0.10100000352E+00 0. -1.
    10030    2    1    2    0    0  0.00000000000E+00  0.00000000000E+00 -0.51872889941E+02  0.10154071427E+04  0.10140812929E+04 0.  0.
        4    1    3    3  502    0  0.23122688915E+03 -0.30714984281E+03  0.30507359908E+03  0.49079365722E+03  0.12699999809E+01 0.  1.
       -4    1    3    3    0  502 -0.23122688915E+03  0.30714984281E+03 -0.35694648903E+03  0.52461348547E+03  0.12699999809E+01 0. -1.
</event>
<event>
 5   0  0.4782125E-03  0.9420937E+03  0.7818609E-02  0.9374440E-01
        4   -1    0    0  501    0  0.00000000000E+00  0.00000000000E+00  0.36485534384E+03  0.36485755416E+03  0.12699999809E+01 0.  1.
       -4   -1    0    0    0  501  0.00000000000E+00  0.00000000000E+00 -0.60814074965E+03  0.60814207574E+03  0.12699999809E+01 0. -1.
    10030    2    1    2    0    0  0.00000000000E+00  0.00000000000E+00 -0.24328540581E+03  0.97299962991E+03  0.94209367428E+03 0.  0.
        1    1    3    3  502    0 -0.43114609489E+03  0.84361742047E+02 -0.29716273362E+03  0.53038622620E+03  0.50400001928E-02 0. -1.
       -1    1    3    3    0  502  0.43114609489E+03 -0.84361742047E+02  0.53877327812E+02  0.44261340371E+03  0.50400001928E-02 0.  1.
</event>
<event>
 5   0  0.7073004E-03  0.8778439E+03  0.7818609E-02  0.9453709E-01
       -1   -1    0    0    0  501  0.00000000000E+00  0.00000000000E+00  0.14689948507E+03  0.14689948515E+03  0.50400001928E-02 0. -1.
        1   -1    0    0  501    0  0.00000000000E+00  0.00000000000E+00 -0.13114579380E+04  0.13114579380E+04  0.50400001928E-02 0.  1.
    10030    2    1    2    0    0  0.00000000000E+00  0.00000000000E+00 -0.11645584530E+04  0.14583574232E+04  0.87784394025E+03 0.  0.
        1    1    3    3  502    0 -0.23890827254E+03 -0.11288939734E+03 -0.40329593317E-01  0.26423697768E+03  0.50400001928E-02 0. -1.
       -1    1    3    3    0  502  0.23890827254E+03  0.11288939734E+03 -0.11645181234E+04  0.11941204455E+04  0.50400001928E-02 0.  1.
</event>
<event>
 5   0  0.7224879E-03  0.9356360E+03  0.7818609E-02  0.9382099E-01
       -1   -1    0    0    0  501  0.00000000000E+00  0.00000000000E+00  0.31708399061E+03  0.31708399065E+03  0.50400001928E-02 0. -1.
        1   -1    0    0  501    0  0.00000000000E+00  0.00000000000E+00 -0.69020722177E+03  0.69020722179E+03  0.50400001928E-02 0.  1.
    10030    2    1    2    0    0  0.00000000000E+00  0.00000000000E+00 -0.37312323116E+03  0.10072912124E+04  0.93563595539E+03 0.  0.
        3    1    3    3  502    0 -0.32920337690E+02  0.21986904921E+02  0.31527748018E+03  0.31775316258E+03  0.10100000352E+00 0. -1.
       -3    1    3    3    0  502  0.32920337690E+02 -0.21986904921E+02 -0.68840071134E+03  0.68953804986E+03  0.10100000352E+00 0.  1.
</event>
<event>
 5   0  0.7461157E-03  0.9781444E+03  0.7818609E-02  0.9332846E-01
       -1   -1    0    0    0  501  0.00000000000E+00  0.00000000000E+00  0.44515354844E+03  0.44515354847E+03  0.50400001928E-02 0. -1.
        1   -1    0    0  501    0  0.00000000000E+00  0.00000000000E+00 -0.53732383918E+03  0.53732383920E+03  0.50400001928E-02 0.  1.
    10030    2    1    2    0    0  0.00000000000E+00  0.00000000000E+00 -0.92170290740E+02  0.98247738767E+03  0.97814439363E+03 0.  0.
        2    1    3    3  502    0 -0.17965493584E+03  0.95272411590E+02  0.40067602682E+03  0.44932616979E+03  0.25500000920E-02 0. -1.
       -2    1    3    3    0  502  0.17965493584E+03 -0.95272411590E+02 -0.49284631756E+03  0.53315121788E+03  0.25500000920E-02 0.  1.
</event>
<event>
 5   0  0.7224879E-03  0.9225832E+03  0.7818609E-02  0.9397783E-01
        1   -1    0    0  501    0  0.00000000000E+00  0.00000000000E+00  0.74990599489E+03  0.74990599491E+03  0.50400001928E-02 0. -1.
       -1   -1    0    0    0  501  0.00000000000E+00  0.00000000000E+00 -0.28375546833E+03  0.28375546838E+03  0.50400001928E-02 0.  1.
    10030    2    1    2    0    0  0.00000000000E+00  0.00000000000E+00  0.46615052656E+03  0.10336614633E+04  0.92258317093E+03 0.  0.
        3    1    3    3  502    0 -0.68011205019E+02 -0.16329200970E+03  0.71039703717E+03  0.73208863197E+03  0.10100000352E+00 0. -1.
       -3    1    3    3    0  502  0.68011205019E+02  0.16329200970E+03 -0.24424651061E+03  0.30157283132E+03  0.10100000352E+00 0.  1.
</event>
<event>
 5   0  0.7241200E-03  0.1005478E+04  0.7818609E-02  0.9302557E-01
       -1   -1    0    0    0  501  0.00000000000E+00  0.00000000000E+00  0.38544701934E+03  0.38544701938E+03  0.50400001928E-02 0.  1.
        1   -1    0    0  501    0  0.00000000000E+00  0.00000000000E+00 -0.65572296845E+03  0.65572296846E+03  0.50400001928E-02 0. -1.
    10030    2    1    2    0    0  0.00000000000E+00  0.00000000000E+00 -0.27027594910E+03  0.10411699878E+04  0.10054779236E+04 0.  0.
        4    1    3    3  502    0 -0.43289119935E+02 -0.88205993605E+02 -0.64568198914E+03  0.65311644384E+03  0.12699999809E+01 0. -1.
       -4    1    3    3    0  502  0.43289119935E+02  0.88205993605E+02  0.37540604004E+03  0.38805354400E+03  0.12699999809E+01 0.  1.
</event>
<event>
 5   0  0.7461157E-03  0.1005007E+04  0.7818609E-02  0.9303070E-01
       -1   -1    0    0    0  501  0.00000000000E+00  0.00000000000E+00  0.11298998345E+04  0.11298998346E+04  0.50400001928E-02 0.  1.
        1   -1    0    0  501    0  0.00000000000E+00  0.00000000000E+00 -0.22347976723E+03  0.22347976729E+03  0.50400001928E-02 0. -1.
    10030    2    1    2    0    0  0.00000000000E+00  0.00000000000E+00  0.90642006732E+03  0.13533796018E+04  0.10050069693E+04 0.  0.
        2    1    3    3  502    0  0.43597329112E+03  0.24973786459E+03  0.46431799157E+03  0.68412930714E+03  0.25500000920E-02 0. -1.
       -2    1    3    3    0  502 -0.43597329112E+03 -0.24973786459E+03  0.44210207575E+03  0.66925029471E+03  0.25500000920E-02 0.  1.
</event>
<event>
 5   0  0.1216322E-02  0.1000636E+04  0.7818609E-02  0.9307848E-01
       -2   -1    0    0    0  501  0.00000000000E+00  0.00000000000E+00  0.39269954141E+03  0.39269954142E+03  0.25500000920E-02 0.  1.
        2   -1    0    0  501    0  0.00000000000E+00  0.00000000000E+00 -0.63742881791E+03  0.63742881791E+03  0.25500000920E-02 0. -1.
    10030    2    1    2    0    0  0.00000000000E+00  0.00000000000E+00 -0.24472927650E+03  0.10301283593E+04  0.10006358068E+04 0.  0.
        2    1    3    3  502    0 -0.10022279006E+03 -0.14330378806E+03  0.36021313532E+03  0.40041738996E+03  0.25500000920E-02 0.  1.
       -2    1    3    3    0  502  0.10022279006E+03  0.14330378806E+03 -0.60494241182E+03  0.62971096937E+03  0.25500000920E-02 0. -1.
</event>
<event>
 5   0  0.7461157E-03  0.9828044E+03  0.7818609E-02  0.9327608E-01
       -1   -1    0    0    0  501  0.00000000000E+00  0.00000000000E+00  0.45005116399E+03  0.45005116402E+03  0.50400001928E-02 0.  1.
        1   -1    0    0  501    0  0.00000000000E+00  0.00000000000E+00 -0.53655254978E+03  0.53655254980E+03  0.50400001928E-02 0. -1.
    10030    2    1    2    0    0  0.00000000000E+00  0.00000000000E+00 -0.86501385784E+02  0.98660371382E+03  0.98280435407E+03 0.  0.
        2    1    3    3  502    0 -0.58558024920E+02 -0.42805128660E+03 -0.27829072402E+03  0.51390920728E+03  0.25500000920E-02 0.  1.
       -2    1    3    3    0  502  0.58558024920E+02  0.42805128660E+03  0.19178933824E+03  0.47269450654E+03  0.25500000920E-02 0. -1.
</event>
<event>
 5   0  0.6967681E-03  0.1003660E+04  0.7818609E-02  0.9304539E-01
       -1   -1    0    0    0  501  0.00000000000E+00  0.00000000000E+00  0.30509561415E+03  0.30509561419E+03  0.50400001928E-02 0.  1.
        1   -1    0    0  501    0  0.00000000000E+00  0.00000000000E+00 -0.82542469502E+03  0.82542469504E+03  0.50400001928E-02 0. -1.
    10030    2    1    2    0    0  0.00000000000E+00  0.00000000000E+00 -0.52032908087E+03  0.11305203092E+04  0.10036602100E+04 0.  0.
        5    1    3    3  502    0  0.35284877210E+03  0.16550244247E+03 -0.61621670986E+03  0.72913540440E+03  0.46999998093E+01 0. -1.
       -5    1    3    3    0  502 -0.35284877210E+03 -0.16550244247E+03  0.95887628984E+02  0.40138490484E+03  0.46999998093E+01 0.  1.
</event>
<event>
 5   0  0.4782125E-03  0.9579206E+03  0.7818609E-02  0.9355940E-01
        3   -1    0    0  501    0  0.00000000000E+00  0.00000000000E+00  0.14273957036E+03  0.14273960610E+03  0.10100000352E+00 0. -1.
       -3   -1    0    0    0  501  0.00000000000E+00  0.00000000000E+00 -0.16071433746E+04  0.16071433778E+04  0.10100000352E+00 0.  1.
    10030    2    1    2    0    0  0.00000000000E+00  0.00000000000E+00 -0.14644038043E+04  0.17498829839E+04  0.95792064150E+03 0.  0.
        2    1    3    3  502    0  0.82646198231E+02  0.27536416065E+03 -0.32417352866E+02  0.28932110159E+03  0.25500000920E-02 0. -1.
       -2    1    3    3    0  502 -0.82646198231E+02 -0.27536416065E+03 -0.14319864514E+04  0.14605618823E+04  0.25500000920E-02 0.  1.
</event>
<event>
 5   0  0.1245850E-02  0.9848871E+03  0.7818609E-02  0.9325277E-01
       -2   -1    0    0    0  501  0.00000000000E+00  0.00000000000E+00  0.16618303970E+03  0.16618303972E+03  0.25500000920E-02 0.  1.
        2   -1    0    0  501    0  0.00000000000E+00  0.00000000000E+00 -0.14592383390E+04  0.14592383390E+04  0.25500000920E-02 0. -1.
    10030    2    1    2    0    0  0.00000000000E+00  0.00000000000E+00 -0.12930552993E+04  0.16254213787E+04  0.98488712621E+03 0.  0.
        3    1    3    3  502    0 -0.24898448312E+03  0.18899358017E+03 -0.18545931099E+02  0.31313864013E+03  0.10100000352E+00 0.  1.
       -3    1    3    3    0  502  0.24898448312E+03 -0.18899358017E+03 -0.12745093682E+04  0.13122827386E+04  0.10100000352E+00 0. -1.
</event>
<event>
 5   0  0.1245850E-02  0.1084462E+04  0.7818609E-02  0.9220470E-01
        2   -1    0    0  501    0  0.00000000000E+00  0.00000000000E+00  0.10065739978E+04  0.10065739979E+04  0.25500000920E-02 0. -1.
       -2   -1    0    0    0  501  0.00000000000E+00  0.00000000000E+00 -0.29209429996E+03  0.29209429997E+03  0.25500000920E-02 0.  1.
    10030    2    1    2    0    0  0.00000000000E+00  0.00000000000E+00  0.71447969789E+03  0.12986682978E+04  0.10844621289E+04 0.  0.
        3    1    3    3  502    0  0.35898307469E+03  0.18777606223E+03  0.78882323516E+03  0.88677550935E+03  0.10100000352E+00 0. -1.
       -3    1    3    3    0  502 -0.35898307469E+03 -0.18777606223E+03 -0.74343537273E+02  0.41189278847E+03  0.10100000352E+00 0.  1.
</event>
<event>
 5   0  0.1191822E-02  0.1008809E+04  0.7818609E-02  0.9298936E-01
       -2   -1    0    0    0  501  0.00000000000E+00  0.00000000000E+00  0.34802526267E+03  0.34802526268E+03  0.25500000920E-02 0.  1.
        2   -1    0    0  501    0  0.00000000000E+00  0.00000000000E+00 -0.73104954504E+03  0.73104954505E+03  0.25500000920E-02 0. -1.
    10030    2    1    2    0    0  0.00000000000E+00  0.00000000000E+00 -0.38302428237E+03  0.10790748077E+04  0.10088086240E+04 0.  0.
        4    1    3    3  502    0 -0.47005720224E+03 -0.15938491003E+03 -0.28757132040E+03  0.57363420412E+03  0.12699999809E+01 0.  1.
       -4    1    3    3    0  502  0.47005720224E+03  0.15938491003E+03 -0.95452961975E+02  0.50544060360E+03  0.12699999809E+01 0. -1.
</event>
<event>
 5   0  0.1245850E-02  0.9944347E+03  0.7818609E-02  0.9314670E-01
       -2   -1    0    0    0  501  0.00000000000E+00  0.00000000000E+00  0.46509814861E+03  0.46509814861E+03  0.25500000920E-02 0. -1.
        2   -1    0    0  501    0  0.00000000000E+00  0.00000000000E+00 -0.53155465667E+03  0.53155465668E+03  0.25500000920E-02 0.  1.
    10030    2    1    2    0    0  0.00000000000E+00  0.00000000000E+00 -0.66456508068E+02  0.99665280529E+03  0.99443468706E+03 0.  0.
        3    1    3    3  502    0 -0.14355917705E+03 -0.47304736184E+02 -0.50797048142E+03  0.52998207100E+03  0.10100000352E+00 0.  1.
       -3    1    3    3    0  502  0.14355917705E+03  0.47304736184E+02  0.44151397335E+03  0.46667073430E+03  0.10100000352E+00 0. -1.
</event>
<event>
 5   0  0.1240503E-02  0.9980970E+03  0.7818609E-02  0.9310634E-01
       -2   -1    0    0    0  501  0.00000000000E+00  0.00000000000E+00  0.18962555853E+03  0.18962555855E+03  0.25500000920E-02 0.  1.
        2   -1    0    0  501    0  0.00000000000E+00  0.00000000000E+00 -0.13133746278E+04  0.13133746278E+04  0.25500000920E-02 0. -1.
    10030    2    1    2    0    0  0.00000000000E+00  0.00000000000E+00 -0.11237490692E+04  0.15030001863E+04  0.99809698400E+03 0.  0.
        1    1    3    3  502    0 -0.11700899868E+03 -0.23185681938E+03 -0.12035937717E+04  0.12312947079E+04  0.50400001928E-02 0. -1.
       -1    1    3    3    0  502  0.11700899868E+03  0.23185681938E+03  0.79844702447E+02  0.27170547841E+03  0.50400001928E-02 0.  1.
</event>
<event>
 5   0  0.1245850E-02  0.9609479E+03  0.7818609E-02  0.9352445E-01
        2   -1    0    0  501    0  0.00000000000E+00  0.00000000000E+00  0.87013998796E+03  0.87013998796E+03  0.25500000920E-02 0.  1.
       -2   -1    0    0    0  501  0.00000000000E+00  0.00000000000E+00 -0.26530811839E+03  0.26530811840E+03  0.25500000920E-02 0. -1.
    10030    2    1    2    0    0  0.00000000000E+00  0.00000000000E+00  0.60483186957E+03  0.11354481064E+04  0.96094787153E+03 0.  0.
        3    1    3    3  502    0  0.32967147345E+03  0.24020314562E+03  0.23884887759E+01  0.40790507064E+03  0.10100000352E+00 0. -1.
       -3    1    3    3    0  502 -0.32967147345E+03 -0.24020314562E+03  0.60244338079E+03  0.72754303573E+03  0.10100000352E+00 0.  1.
</event>
<event>
 5   0  0.1221315E-02  0.9972899E+03  0.7818609E-02  0.9311522E-01
        2   -1    0    0  501    0  0.00000000000E+00  0.00000000000E+00  0.94334789352E+03  0.94334789352E+03  0.25500000920E-02 0. -1.
       -2   -1    0    0    0  501  0.00000000000E+00  0.00000000000E+00 -0.26357910753E+03  0.26357910754E+03  0.25500000920E-02 0.  1.
    10030    2    1    2    0    0  0.00000000000E+00  0.00000000000E+00  0.67976878600E+03  0.12069270011E+04  0.99728991947E+03 0.  0.
        5    1    3    3  502    0  0.14112617586E+03  0.43219104509E+03  0.58766372459E+03  0.74301846557E+03  0.46999998093E+01 0. -1.
       -5    1    3    3    0  502 -0.14112617586E+03 -0.43219104509E+03  0.92105061403E+02  0.46390853550E+03  0.46999998093E+01 0.  1.
</event>
<event>
 5   0  0.7224879E-03  0.9986069E+03  0.7818609E-02  0.9310074E-01
        1   -1    0    0  501    0  0.00000000000E+00  0.00000000000E+00  0.11044689128E+04  0.11044689128E+04  0.50400001928E-02 0. -1.
       -1   -1    0    0    0  501  0.00000000000E+00  0.00000000000E+00 -0.22572288673E+03  0.22572288679E+03  0.50400001928E-02 0.  1.
    10030    2    1    2    0    0  0.00000000000E+00  0.00000000000E+00  0.87874602609E+03  0.13301917996E+04  0.99860685228E+03 0.  0.
        3    1    3    3  502    0 -0.38743414262E+03 -0.28845185896E+03  0.27091132832E+03  0.55380741041E+03  0.10100000352E+00 0.  1.
       -3    1    3    3    0  502  0.38743414262E+03  0.28845185896E+03  0.60783469776E+03  0.77638438921E+03  0.10100000352E+00 0. -1.
</event>
<event>
 5   0  0.4782125E-03  0.9762889E+03  0.7818609E-02  0.9334940E-01
       -3   -1    0    0    0  501  0.00000000000E+00  0.00000000000E+00  0.34409084469E+03  0.34409085951E+03  0.10100000352E+00 0.  1.
        3   -1    0    0  501    0  0.00000000000E+00  0.00000000000E+00 -0.69250605581E+03  0.69250606318E+03  0.10100000352E+00 0. -1.
    10030    2    1    2    0    0  0.00000000000E+00  0.00000000000E+00 -0.34841521113E+03  0.10365969227E+04  0.97628890231E+03 0.  0.
        5    1    3    3  502    0  0.37142381398E+03  0.98946859345E+02 -0.49365262537E+03  0.62566855051E+03  0.46999998093E+01 0. -1.
       -5    1    3    3    0  502 -0.37142381398E+03 -0.98946859345E+02  0.14523741424E+03  0.41092837218E+03  0.46999998093E+01 0.  1.
</event>
<event>
 5   0  0.7073004E-03  0.1056869E+04  0.7818609E-02  0.9248281E-01
        1   -1    0    0  501    0  0.00000000000E+00  0.00000000000E+00  0.65835286147E+03  0.65835286149E+03  0.50400001928E-02 0.  1.
       -1   -1    0    0    0  501  0.00000000000E+00  0.00000000000E+00 -0.42415387233E+03  0.42415387236E+03  0.50400001928E-02 0. -1.
    10030    2    1    2    0    0  0.00000000000E+00  0.00000000000E+00  0.23419898915E+03  0.10825067339E+04  0.10568688009E+04 0.  0.
        1    1    3    3  502    0  0.45978671270E+03 -0.24718770625E+03  0.20117190743E+03  0.55944232917E+03  0.50400001928E-02 0. -1.
       -1    1    3    3    0  502 -0.45978671270E+03  0.24718770625E+03  0.33027081716E+02  0.52306440469E+03  0.50400001928E-02 0.  1.
</event>
<event>
 5   0  0.7224879E-03  0.9882594E+03  0.7818609E-02  0.9321516E-01
       -1   -1    0    0    0  501  0.00000000000E+00  0.00000000000E+00  0.45454047725E+03  0.45454047728E+03  0.50400001928E-02 0.  1.
        1   -1    0    0  501    0  0.00000000000E+00  0.00000000000E+00 -0.53716703518E+03  0.53716703520E+03  0.50400001928E-02 0. -1.
    10030    2    1    2    0    0  0.00000000000E+00  0.00000000000E+00 -0.82626557928E+02  0.99170751248E+03  0.98825940028E+03 0.  0.
        3    1    3    3  502    0 -0.35274395577E+03 -0.12099825535E+03 -0.36662839455E+03  0.52295818764E+03  0.10100000352E+00 0. -1.
       -3    1    3    3    0  502  0.35274395577E+03  0.12099825535E+03  0.28400183662E+03  0.46874932484E+03  0.10100000352E+00 0.  1.
</event>
<event>
 5   0  0.7073004E-03  0.1057947E+04  0.7818609E-02  0.9247177E-01
        1   -1    0    0  501    0  0.00000000000E+00  0.00000000000E+00  0.11301263771E+04  0.11301263771E+04  0.50400001928E-02 0.  1.
       -1   -1    0    0    0  501  0.00000000000E+00  0.00000000000E+00 -0.24759463162E+03  0.24759463168E+03  0.50400001928E-02 0. -1.
    10030    2    1    2    0    0  0.00000000000E+00  0.00000000000E+00  0.88253174545E+03  0.13777210088E+04  0.10579474922E+04 0.  0.
        1    1    3    3  502    0 -0.36116754453E+03 -0.38150925951E+03  0.52177360752E+03  0.74043163617E+03  0.50400001928E-02 0.  1.
       -1    1    3    3    0  502  0.36116754453E+03  0.38150925951E+03  0.36075813794E+03  0.63728937260E+03  0.50400001928E-02 0. -1.
</event>
<event>
 5   0  0.7241200E-03  0.1039529E+04  0.7818609E-02  0.9266222E-01
       -1   -1    0    0    0  501  0.00000000000E+00  0.00000000000E+00  0.34160839814E+03  0.34160839818E+03  0.50400001928E-02 0. -1.
        1   -1    0    0  501    0  0.00000000000E+00  0.00000000000E+00 -0.79083333410E+03  0.79083333412E+03  0.50400001928E-02 0.  1.
    10030    2    1    2    0    0  0.00000000000E+00  0.00000000000E+00 -0.44922493595E+03  0.11324417323E+04  0.10395293329E+04 0.  0.
        4    1    3    3  502    0 -0.45535946084E+03  0.23379383583E+03 -0.32290985680E+03  0.60521416438E+03  0.12699999809E+01 0.  1.
       -4    1    3    3    0  502  0.45535946084E+03 -0.23379383583E+03 -0.12631507915E+03  0.52722756792E+03  0.12699999809E+01 0. -1.
</event>
<event>
 5   0  0.1191822E-02  0.1000464E+04  0.7818609E-02  0.9308036E-01
       -2   -1    0    0    0  501  0.00000000000E+00  0.00000000000E+00  0.44303688164E+03  0.44303688165E+03  0.25500000920E-02 0. -1.
        2   -1    0    0  501    0  0.00000000000E+00  0.00000000000E+00 -0.56481122314E+03  0.56481122315E+03  0.25500000920E-02 0.  1.
    10030    2    1    2    0    0  0.00000000000E+00  0.00000000000E+00 -0.12177434150E+03  0.10078481048E+04  0.10004642983E+04 0.  0.
        4    1    3    3  502    0  0.42341518226E+03 -0.28685950490E+02 -0.32765718725E+03  0.53615682928E+03  0.12699999809E+01 0.  1.
       -4    1    3    3    0  502 -0.42341518226E+03  0.28685950490E+02  0.20588284575E+03  0.47169127552E+03  0.12699999809E+01 0. -1.
</event>
<event>
 5   0  0.1221315E-02  0.1014945E+04  0.7818609E-02  0.9292303E-01
       -2   -1    0    0    0  501  0.00000000000E+00  0.00000000000E+00  0.45704076285E+03  0.45704076286E+03  0.25500000920E-02 0. -1.
        2   -1    0    0  501    0  0.00000000000E+00  0.00000000000E+00 -0.56346934519E+03  0.56346934520E+03  0.25500000920E-02 0.  1.
    10030    2    1    2    0    0  0.00000000000E+00  0.00000000000E+00 -0.10642858234E+03  0.10205101081E+04  0.10149452387E+04 0.  0.
        5    1    3    3  502    0  0.16988254119E+03 -0.39922135926E+03 -0.31784661995E+03  0.53785345151E+03  0.46999998093E+01 0.  1.
       -5    1    3    3    0  502 -0.16988254119E+03  0.39922135926E+03  0.21141803761E+03  0.48265665655E+03  0.46999998093E+01 0. -1.
</event>
<event>
 5   0  0.7241200E-03  0.1043502E+04  0.7818609E-02  0.9262078E-01
        1   -1    0    0  501    0  0.00000000000E+00  0.00000000000E+00  0.86742802017E+03  0.86742802019E+03  0.50400001928E-02 0. -1.
       -1   -1    0    0    0  501  0.00000000000E+00  0.00000000000E+00 -0.31382917025E+03  0.31382917029E+03  0.50400001928E-02 0.  1.
    10030    2    1    2    0    0  0.00000000000E+00  0.00000000000E+00  0.55359884992E+03  0.11812571905E+04  0.10435022106E+04 0.  0.
        4    1    3    3  502    0 -0.21310685518E+03 -0.31327622243E+03 -0.12925395146E+03  0.40033076340E+03  0.12699999809E+01 0.  1.
       -4    1    3    3    0  502  0.21310685518E+03  0.31327622243E+03  0.68285280138E+03  0.78092642708E+03  0.12699999809E+01 0. -1.
</event>
<event>
 5   0  0.1245850E-02  0.9727873E+03  0.7818609E-02  0.9338905E-01
        2   -1    0    0  501    0  0.00000000000E+00  0.00000000000E+00  0.57905145553E+03  0.57905145553E+03  0.25500000920E-02 0.  1.
       -2   -1    0    0    0  501  0.00000000000E+00  0.00000000000E+00 -0.40856261419E+03  0.40856261420E+03  0.25500000920E-02 0. -1.
    10030    2    1    2    0    0  0.00000000000E+00  0.00000000000E+00  0.17048884133E+03  0.98761406973E+03  0.97278728698E+03 0.  0.
        3    1    3    3  502    0  0.20216187955E+03 -0.47822605926E+02 -0.36125684826E+03  0.41672886605E+03  0.10100000352E+00 0. -1.
       -3    1    3    3    0  502 -0.20216187955E+03  0.47822605926E+02  0.53174568959E+03  0.57088520368E+03  0.10100000352E+00 0.  1.
</event>
<event>
 5   0  0.1240503E-02  0.1038173E+04  0.7818609E-02  0.9267640E-01
       -2   -1    0    0    0  501  0.00000000000E+00  0.00000000000E+00  0.14177439297E+03  0.14177439299E+03  0.25500000920E-02 0. -1.
        2   -1    0    0  501    0  0.00000000000E+00  0.00000000000E+00 -0.19005618053E+04  0.19005618053E+04  0.25500000920E-02 0.  1.
    10030    2    1    2    0    0  0.00000000000E+00  0.00000000000E+00 -0.17587874124E+04  0.20423361983E+04  0.10381733888E+04 0.  0.
        1    1    3    3  502    0  0.40597034433E+03  0.12721684316E+03 -0.14644779657E+04  0.15250218876E+04  0.50400001928E-02 0.  1.
       -1    1    3    3    0  502 -0.40597034433E+03 -0.12721684316E+03 -0.29430944670E+03  0.51731431075E+03  0.50400001928E-02 0. -1.
</event>
<event>
 5   0  0.1216322E-02  0.8505506E+03  0.7818609E-02  0.9489598E-01
        2   -1    0    0  501    0  0.00000000000E+00  0.00000000000E+00  0.10385279628E+04  0.10385279628E+04  0.25500000920E-02 0.  1.
       -2   -1    0    0    0  501  0.00000000000E+00  0.00000000000E+00 -0.17414947074E+03  0.17414947076E+03  0.25500000920E-02 0. -1.
    10030    2    1    2    0    0  0.00000000000E+00  0.00000000000E+00  0.86437849206E+03  0.12126774336E+04  0.85055063361E+03 0.  0.
        2    1    3    3  502    0  0.41902243559E+03 -0.56821272955E+02  0.36762538941E+03  0.56031855719E+03  0.25500000920E-02 0. -1.
       -2    1    3    3    0  502 -0.41902243559E+03  0.56821272955E+02  0.49675310265E+03  0.65235887638E+03  0.25500000920E-02 0.  1.
</event>
<event>
 5   0  0.4782125E-03  0.9764821E+03  0.7818609E-02  0.9334722E-01
        4   -1    0    0  501    0  0.00000000000E+00  0.00000000000E+00  0.12680177744E+03  0.12680813721E+03  0.12699999809E+01 0. -1.
       -4   -1    0    0    0  501  0.00000000000E+00  0.00000000000E+00 -0.18798829236E+04  0.18798833526E+04  0.12699999809E+01 0.  1.
    10030    2    1    2    0    0  0.00000000000E+00  0.00000000000E+00 -0.17530811461E+04  0.20066914898E+04  0.97648206855E+03 0.  0.
        3    1    3    3  502    0 -0.88637042989E+02  0.22007222381E+03  0.38061331997E+00  0.23725190020E+03  0.10100000352E+00 0. -1.
       -3    1    3    3    0  502  0.88637042989E+02 -0.22007222381E+03 -0.17534617595E+04  0.17694395896E+04  0.10100000352E+00 0.  1.
</event>
<event>
 5   0  0.7241200E-03  0.9959413E+03  0.7818609E-02  0.9313008E-01
       -1   -1    0    0    0  501  0.00000000000E+00  0.00000000000E+00  0.28972572900E+03  0.28972572904E+03  0.50400001928E-02 0.  1.
        1   -1    0    0  501    0  0.00000000000E+00  0.00000000000E+00 -0.85589484542E+03  0.85589484544E+03  0.50400001928E-02 0. -1.
    10030    2    1    2    0    0  0.00000000000E+00  0.00000000000E+00 -0.56616911643E+03  0.11456205745E+04  0.99594127953E+03 0.  0.
        4    1    3    3  502    0  0.37050011696E+01 -0.48848704841E+03 -0.39425168051E+03  0.62774941177E+03  0.12699999809E+01 0. -1.
       -4    1    3    3    0  502 -0.37050011696E+01  0.48848704841E+03 -0.17191743591E+03  0.51787116271E+03  0.12699999809E+01 0.  1.
</event>
<event>
 5   0  0.1221315E-02  0.1000199E+04  0.7818609E-02  0.9308327E-01
        2   -1    0    0  501    0  0.00000000000E+00  0.00000000000E+00  0.73840992471E+03  0.73840992471E+03  0.25500000920E-02 0. -1.
       -2   -1    0    0    0  501  0.00000000000E+00  0.00000000000E+00 -0.33870012747E+03  0.33870012748E+03  0.25500000920E-02 0.  1.
    10030    2    1    2    0    0  0.00000000000E+00  0.00000000000E+00  0.39970979724E+03  0.10771100522E+04  0.10001990514E+04 0.  0.
        5    1    3    3  502    0  0.14296754759E+02 -0.16525917291E+03 -0.30818707147E+03  0.35002335986E+03  0.46999998093E+01 0.  1.
       -5    1    3    3    0  502 -0.14296754759E+02  0.16525917291E+03  0.70789686872E+03  0.72708669233E+03  0.46999998093E+01 0. -1.
</event>
<event>
 5   0  0.4782125E-03  0.1004411E+04  0.7818609E-02  0.9303720E-01
        4   -1    0    0  501    0  0.00000000000E+00  0.00000000000E+00  0.72612140306E+03  0.72612251369E+03  0.12699999809E+01 0.  1.
       -4   -1    0    0    0  501  0.00000000000E+00  0.00000000000E+00 -0.34733690202E+03  0.34733922382E+03  0.12699999809E+01 0. -1.
    10030    2    1    2    0    0  0.00000000000E+00  0.00000000000E+00  0.37878450104E+03  0.10734617375E+04  0.10044114713E+04 0.  0.
        4    1    3    3  502    0 -0.19886761574E+03  0.23857798991E+03  0.61116320286E+03  0.68555806413E+03  0.12699999809E+01 0.  1.
       -4    1    3    3    0  502  0.19886761574E+03 -0.23857798991E+03 -0.23237870182E+03  0.38790367338E+03  0.12699999809E+01 0. -1.
</event>
<event>
 5   0  0.6967681E-03  0.9967586E+03  0.7818609E-02  0.9312107E-01
       -1   -1    0    0    0  501  0.00000000000E+00  0.00000000000E+00  0.77254118087E+03  0.77254118089E+03  0.50400001928E-02 0.  1.
        1   -1    0    0  501    0  0.00000000000E+00  0.00000000000E+00 -0.32151288648E+03  0.32151288652E+03  0.50400001928E-02 0. -1.
    10030    2    1    2    0    0  0.00000000000E+00  0.00000000000E+00  0.45102829439E+03  0.10940540674E+04  0.99675863682E+03 0.  0.
        5    1    3    3  502    0  0.41149650156E+02  0.33635652120E+03  0.62660207226E+03  0.71237718242E+03  0.46999998093E+01 0.  1.
       -5    1    3    3    0  502 -0.41149650156E+02 -0.33635652120E+03 -0.17557377787E+03  0.38167688499E+03  0.46999998093E+01 0. -1.
</event>
<event>
 5   0  0.7241200E-03  0.1000745E+04  0.7818609E-02  0.9307728E-01
        1   -1    0    0  501    0  0.00000000000E+00  0.00000000000E+00  0.20617222784E+04  0.20617222784E+04  0.50400001928E-02 0.  1.
       -1   -1    0    0    0  501  0.00000000000E+00  0.00000000000E+00 -0.12143851673E+03  0.12143851684E+03  0.50400001928E-02 0. -1.
    10030    2    1    2    0    0  0.00000000000E+00  0.00000000000E+00  0.19402837616E+04  0.21831607952E+04  0.10007447137E+04 0.  0.
        4    1    3    3  502    0 -0.32212630869E+03 -0.18530691757E+03  0.23919094452E+03  0.44194788526E+03  0.12699999809E+01 0. -1.
       -4    1    3    3    0  502  0.32212630869E+03  0.18530691757E+03  0.17010928171E+04  0.17412129099E+04  0.12699999809E+01 0.  1.
</event>
<event>
 5   0  0.7224879E-03  0.1048328E+04  0.7818609E-02  0.9257072E-01
       -1   -1    0    0    0  501  0.00000000000E+00  0.00000000000E+00  0.47703539253E+03  0.47703539256E+03  0.50400001928E-02 0. -1.
        1   -1    0    0  501    0  0.00000000000E+00  0.00000000000E+00 -0.57594836606E+03  0.57594836608E+03  0.50400001928E-02 0.  1.
    10030    2    1    2    0    0  0.00000000000E+00  0.00000000000E+00 -0.98912973526E+02  0.10529837586E+04  0.10483277253E+04 0.  0.
        3    1    3    3  502    0  0.23332774233E+03  0.18223570250E+03 -0.48392361124E+03  0.56730393822E+03  0.10100000352E+00 0.  1.
       -3    1    3    3    0  502 -0.23332774233E+03 -0.18223570250E+03  0.38501063772E+03  0.48567982042E+03  0.10100000352E+00 0. -1.
</event>
<event>
 5   0  0.4782125E-03  0.1023820E+04  0.7818609E-02  0.9282799E-01
        3   -1    0    0  501    0  0.00000000000E+00  0.00000000000E+00  0.12747871909E+04  0.12747871949E+04  0.10100000352E+00 0.  1.
       -3   -1    0    0    0  501  0.00000000000E+00  0.00000000000E+00 -0.20556499393E+03  0.20556501874E+03  0.10100000352E+00 0. -1.
    10030    2    1    2    0    0  0.00000000000E+00  0.00000000000E+00  0.10692221970E+04  0.14803522136E+04  0.10238195983E+04 0.  0.
        1    1    3    3  502    0  0.11205241963E+03  0.49610656775E+03  0.61860063263E+03  0.80083969308E+03  0.50400001928E-02 0.  1.
       -1    1    3    3    0  502 -0.11205241963E+03 -0.49610656775E+03  0.45062156433E+03  0.67951252054E+03  0.50400001928E-02 0. -1.
</event>
<event>
 5   0  0.6967681E-03  0.1031532E+04  0.7818609E-02  0.9274622E-01
        1   -1    0    0  501    0  0.00000000000E+00  0.00000000000E+00  0.20709639905E+04  0.20709639905E+04  0.50400001928E-02 0.  1.
       -1   -1    0    0    0  501  0.00000000000E+00  0.00000000000E+00 -0.12844956903E+03  0.12844956913E+03  0.50400001928E-02 0. -1.
    10030    2    1    2    0    0  0.00000000000E+00  0.00000000000E+00  0.19425144215E+04  0.21994135597E+04  0.10315317391E+04 0.  0.
        5    1    3    3  502    0  0.21672721454E+03  0.42436097568E+03  0.55051214020E+03  0.72810619397E+03  0.46999998093E+01 0. -1.
       -5    1    3    3    0  502 -0.21672721454E+03 -0.42436097568E+03  0.13920022813E+04  0.14713073657E+04  0.46999998093E+01 0.  1.
</event>
<event>
 5   0  0.7073004E-03  0.1028117E+04  0.7818609E-02  0.9278233E-01
       -1   -1    0    0    0  501  0.00000000000E+00  0.00000000000E+00  0.14424427578E+03  0.14424427587E+03  0.50400001928E-02 0.  1.
        1   -1    0    0  501    0  0.00000000000E+00  0.00000000000E+00 -0.18320052857E+04  0.18320052857E+04  0.50400001928E-02 0. -1.
    10030    2    1    2    0    0  0.00000000000E+00  0.00000000000E+00 -0.16877610099E+04  0.19762495616E+04  0.10281172613E+04 0.  0.
        1    1    3    3  502    0  0.23747282354E+02  0.20544468462E+03  0.60749779859E+02  0.21555042945E+03  0.50400001928E-02 0.  1.
       -1    1    3    3    0  502 -0.23747282354E+02 -0.20544468462E+03 -0.17485107898E+04  0.17606991321E+04  0.50400001928E-02 0. -1.
</event>
<event>
 5   0  0.4782125E-03  0.1016642E+04  0.7818609E-02  0.9290479E-01
        3   -1    0    0  501    0  0.00000000000E+00  0.00000000000E+00  0.32690098449E+03  0.32690100009E+03  0.10100000352E+00 0. -1.
       -3   -1    0    0    0  501  0.00000000000E+00  0.00000000000E+00 -0.79042278810E+03  0.79042279455E+03  0.10100000352E+00 0.  1.
    10030    2    1    2    0    0  0.00000000000E+00  0.00000000000E+00 -0.46352180361E+03  0.11173237946E+04  0.10166415296E+04 0.  0.
        2    1    3    3  502    0 -0.45092421492E+03 -0.94843598557E+02  0.41145823344E+01  0.46080894694E+03  0.25500000920E-02 0. -1.
       -2    1    3    3    0  502  0.45092421492E+03  0.94843598557E+02 -0.46763638594E+03  0.65651484770E+03  0.25500000920E-02 0.  1.
</event>
<event>
 5   0  0.1240503E-02  0.1045294E+04  0.7818609E-02  0.9260216E-01
       -2   -1    0    0    0  501  0.00000000000E+00  0.00000000000E+00  0.26015985362E+03  0.26015985363E+03  0.25500000920E-02 0.  1.
        2   -1    0    0  501    0  0.00000000000E+00  0.00000000000E+00 -0.10499703358E+04  0.10499703358E+04  0.25500000920E-02 0. -1.
    10030    2    1    2    0    0  0.00000000000E+00  0.00000000000E+00 -0.78981048221E+03  0.13101301895E+04  0.10452944636E+04 0.  0.
        1    1    3    3  502    0 -0.38178692449E+03  0.33851270829E+02 -0.84025025727E+03  0.92354082699E+03  0.50400001928E-02 0. -1.
       -1    1    3    3    0  502  0.38178692449E+03 -0.33851270829E+02  0.50439775055E+02  0.38658936248E+03  0.50400001928E-02 0.  1.
</event>
<event>
 5   0  0.7073004E-03  0.9890229E+03  0.7818609E-02  0.9320667E-01
        1   -1    0    0  501    0  0.00000000000E+00  0.00000000000E+00  0.12439944559E+04  0.12439944559E+04  0.50400001928E-02 0. -1.
       -1   -1    0    0    0  501  0.00000000000E+00  0.00000000000E+00 -0.19657772255E+03  0.19657772262E+03  0.50400001928E-02 0.  1.
    10030    2    1    2    0    0  0.00000000000E+00  0.00000000000E+00  0.10474167334E+04  0.14405721785E+04  0.98902294627E+03 0.  0.
        1    1    3    3  502    0 -0.13267330569E+03  0.20042883140E+03 -0.10576811827E+03  0.26260391727E+03  0.50400001928E-02 0.  1.
       -1    1    3    3    0  502  0.13267330569E+03 -0.20042883140E+03  0.11531848516E+04  0.11779682613E+04  0.50400001928E-02 0. -1.
</event>
<event>
 5   0  0.1191822E-02  0.9860118E+03  0.7818609E-02  0.9324021E-01
       -2   -1    0    0    0  501  0.00000000000E+00  0.00000000000E+00  0.25277929052E+03  0.25277929054E+03  0.25500000920E-02 0. -1.
        2   -1    0    0  501    0  0.00000000000E+00  0.00000000000E+00 -0.96152984104E+03  0.96152984104E+03  0.25500000920E-02 0.  1.
    10030    2    1    2    0    0  0.00000000000E+00  0.00000000000E+00 -0.70875055051E+03  0.12143091316E+04  0.98601182761E+03 0.  0.
        4    1    3    3  502    0 -0.19333764300E+03  0.14254188487E+03  0.17583723989E+03  0.29768772392E+03  0.12699999809E+01 0. -1.
       -4    1    3    3    0  502  0.19333764300E+03 -0.14254188487E+03 -0.88458779040E+03  0.91662140765E+03  0.12699999809E+01 0.  1.
</event>
<event>
 5   0  0.1221315E-02  0.9974398E+03  0.7818609E-02  0.9311357E-01
       -2   -1    0    0    0  501  0.00000000000E+00  0.00000000000E+00  0.33368995427E+03  0.33368995428E+03  0.25500000920E-02 0.  1.
        2   -1    0    0  501    0  0.00000000000E+00  0.00000000000E+00 -0.74536719584E+03  0.74536719585E+03  0.25500000920E-02 0. -1.
    10030    2    1    2    0    0  0.00000000000E+00  0.00000000000E+00 -0.41167724157E+03  0.10790571501E+04  0.99743981373E+03 0.  0.
        5    1    3    3  502    0 -0.45489047106E+03 -0.19969142876E+03 -0.15871456053E+03  0.52155000633E+03  0.46999998093E+01 0.  1.
       -5    1    3    3    0  502  0.45489047106E+03  0.19969142876E+03 -0.25296268104E+03  0.55750714379E+03  0.46999998093E+01 0. -1.
</event>
<event>
 5   0  0.7461157E-03  0.9683537E+03  0.7818609E-02  0.9343951E-01
        1   -1    0    0  501    0  0.00000000000E+00  0.00000000000E+00  0.14491585246E+04  0.14491585246E+04  0.50400001928E-02 0. -1.
       -1   -1    0    0    0  501  0.00000000000E+00  0.00000000000E+00 -0.16176783780E+03  0.16176783788E+03  0.50400001928E-02 0.  1.
    10030    2    1    2    0    0  0.00000000000E+00  0.00000000000E+00  0.12873906868E+04  0.16109263625E+04  0.96835373956E+03 0.  0.
        2    1    3    3  502    0  0.59487926011E+02  0.26364650802E+03  0.13119855440E+04  0.13395351292E+04  0.25500000920E-02 0. -1.
       -2    1    3    3    0  502 -0.59487926011E+02 -0.26364650802E+03 -0.24594857195E+02  0.27139123335E+03  0.25500000920E-02 0.  1.
</event>
<event>
 5   0  0.7073004E-03  0.1004644E+04  0.7818609E-02  0.9303466E-01
       -1   -1    0    0    0  501  0.00000000000E+00  0.00000000000E+00  0.11802212863E+04  0.11802212863E+04  0.50400001928E-02 0. -1.
        1   -1    0    0  501    0  0.00000000000E+00  0.00000000000E+00 -0.21379677765E+03  0.21379677771E+03  0.50400001928E-02 0.  1.
    10030    2    1    2    0    0  0.00000000000E+00  0.00000000000E+00  0.96642450865E+03  0.13940180640E+04  0.10046442315E+04 0.  0.
        1    1    3    3  502    0 -0.14235430352E+03 -0.46754945460E+03  0.64419634376E+03  0.80861373323E+03  0.50400001928E-02 0. -1.
       -1    1    3    3    0  502  0.14235430352E+03  0.46754945460E+03  0.32222816489E+03  0.58540433078E+03  0.50400001928E-02 0.  1.
</event>
<event>
 5   0  0.1216322E-02  0.1009983E+04  0.7818609E-02  0.9297663E-01
        2   -1    0    0  501    0  0.00000000000E+00  0.00000000000E+00  0.89172513633E+03  0.89172513633E+03  0.25500000920E-02 0.  1.
       -2   -1    0    0    0  501  0.00000000000E+00  0.00000000000E+00 -0.28598116367E+03  0.28598116368E+03  0.25500000920E-02 0. -1.
    10030    2    1    2    0    0  0.00000000000E+00  0.00000000000E+00  0.60574397266E+03  0.11777063000E+04  0.10099833507E+04 0.  0.
        2    1    3    3  502    0  0.25629236580E+03  0.21950828124E+03  0.74095710585E+03  0.81417878566E+03  0.25500000920E-02 0.  1.
       -2    1    3    3    0  502 -0.25629236580E+03 -0.21950828124E+03 -0.13521313319E+03  0.36352751435E+03  0.25500000920E-02 0. -1.
</event>
<event>
 5   0  0.7224879E-03  0.1007789E+04  0.7818609E-02  0.9300043E-01
        1   -1    0    0  501    0  0.00000000000E+00  0.00000000000E+00  0.94020765239E+03  0.94020765240E+03  0.50400001928E-02 0. -1.
       -1   -1    0    0    0  501  0.00000000000E+00  0.00000000000E+00 -0.27005678328E+03  0.27005678333E+03  0.50400001928E-02 0.  1.
    10030    2    1    2    0    0  0.00000000000E+00  0.00000000000E+00  0.67015086911E+03  0.12102644357E+04  0.10077885775E+04 0.  0.
        3    1    3    3  502    0 -0.14448729097E+03  0.39894119797E+03  0.66149089379E+03  0.78587586135E+03  0.10100000352E+00 0.  1.
       -3    1    3    3    0  502  0.14448729097E+03 -0.39894119797E+03  0.86599753202E+01  0.42438857438E+03  0.10100000352E+00 0. -1.
</event>
<event>
 5   0  0.7224879E-03  0.1007500E+04  0.7818609E-02  0.9300357E-01
       -1   -1    0    0    0  501  0.00000000000E+00  0.00000000000E+00  0.40676785035E+03  0.40676785038E+03  0.50400001928E-02 0. -1.
        1   -1    0    0  501    0  0.00000000000E+00  0.00000000000E+00 -0.62385504614E+03  0.62385504616E+03  0.50400001928E-02 0.  1.
    10030    2    1    2    0    0  0.00000000000E+00  0.00000000000E+00 -0.21708719579E+03  0.10306228965E+04  0.10075002255E+04 0.  0.
        3    1    3    3  502    0 -0.23405085186E+03 -0.46085922309E+02 -0.56241610232E+03  0.61091373846E+03  0.10100000352E+00 0.  1.
       -3    1    3    3    0  502  0.23405085186E+03  0.46085922309E+02  0.34532890652E+03  0.41970915808E+03  0.10100000352E+00 0. -1.
</event>
<event>
 5   0  0.1216322E-02  0.8483810E+03  0.7818609E-02  0.9492512E-01
       -2   -1    0    0    0  501  0.00000000000E+00  0.00000000000E+00  0.27569989604E+03  0.27569989605E+03  0.25500000920E-02 0. -1.
        2   -1    0    0  501    0  0.00000000000E+00  0.00000000000E+00 -0.65265744718E+03  0.65265744718E+03  0.25500000920E-02 0.  1.
    10030    2    1    2    0    0  0.00000000000E+00  0.00000000000E+00 -0.37695755114E+03  0.92835734323E+03  0.84838102370E+03 0.  0.
        2    1    3    3  502    0 -0.19083915750E+03  0.36376775010E+03 -0.72718576010E+02  0.41717448550E+03  0.25500000920E-02 0. -1.
       -2    1    3    3    0  502  0.19083915750E+03 -0.36376775010E+03 -0.30423897513E+03  0.51118285774E+03  0.25500000920E-02 0.  1.
</event>
<event>
 5   0  0.7224879E-03  0.1023992E+04  0.7818609E-02  0.9282615E-01
        1   -1    0    0  501    0  0.00000000000E+00  0.00000000000E+00  0.34166514267E+03  0.34166514271E+03  0.50400001928E-02 0. -1.
       -1   -1    0    0    0  501  0.00000000000E+00  0.00000000000E+00 -0.76724277095E+03  0.76724277096E+03  0.50400001928E-02 0.  1.
    10030    2    1    2    0    0  0.00000000000E+00  0.00000000000E+00 -0.42557762828E+03  0.11089079137E+04  0.10239924039E+04 0.  0.
        3    1    3    3  502    0 -0.87585084133E+02  0.27295348233E+03  0.24661351812E+03  0.37814413654E+03  0.10100000352E+00 0. -1.
       -3    1    3    3    0  502  0.87585084133E+02 -0.27295348233E+03 -0.67219114640E+03  0.73076377713E+03  0.10100000352E+00 0.  1.
</event>
<event>
 5   0  0.1245850E-02  0.9913902E+03  0.7818609E-02  0.9318039E-01
        2   -1    0    0  501    0  0.00000000000E+00  0.00000000000E+00  0.15960935526E+04  0.15960935526E+04  0.25500000920E-02 0.  1.
       -2   -1    0    0    0  501  0.00000000000E+00  0.00000000000E+00 -0.15394689969E+03  0.15394689971E+03  0.25500000920E-02 0. -1.
    10030    2    1    2    0    0  0.00000000000E+00  0.00000000000E+00  0.14421466529E+04  0.17500404523E+04  0.99139024417E+03 0.  0.
        3    1    3    3  502    0 -0.31091409274E+03  0.31701374162E+03  0.33212606194E+03  0.55450249473E+03  0.10100000352E+00 0. -1.
       -3    1    3    3    0  502  0.31091409274E+03 -0.31701374162E+03  0.11100205909E+04  0.11955379576E+04  0.10100000352E+00 0.  1.
</event>
<event>
 5   0  0.1245850E-02  0.9909553E+03  0.7818609E-02  0.9318521E-01
        2   -1    0    0  501    0  0.00000000000E+00  0.00000000000E+00  0.10824330174E+04  0.10824330174E+04  0.25500000920E-02 0. -1.
       -2   -1    0    0    0  501  0.00000000000E+00  0.00000000000E+00 -0.22680209823E+03  0.22680209824E+03  0.25500000920E-02 0.  1.
    10030    2    1    2    0    0  0.00000000000E+00  0.00000000000E+00  0.85563091919E+03  0.13092351157E+04  0.99095525541E+03 0.  0.
        3    1    3    3  502    0  0.17814362147E+03 -0.56621500949E+02  0.10340607319E+04  0.10508200377E+04  0.10100000352E+00 0. -1.
       -3    1    3    3    0  502 -0.17814362147E+03  0.56621500949E+02 -0.17842981271E+03  0.25841507793E+03  0.10100000352E+00 0.  1.
</event>
<event>
 5   0  0.1216322E-02  0.9309634E+03  0.7818609E-02  0.9387682E-01
        2   -1    0    0  501    0  0.00000000000E+00  0.00000000000E+00  0.68122365779E+03  0.68122365779E+03  0.25500000920E-02 0.  1.
       -2   -1    0    0    0  501  0.00000000000E+00  0.00000000000E+00 -0.31806471375E+03  0.31806471376E+03  0.25500000920E-02 0. -1.
    10030    2    1    2    0    0  0.00000000000E+00  0.00000000000E+00  0.36315894404E+03  0.99928837155E+03  0.93096338858E+03 0.  0.
        2    1    3    3  502    0  0.10859964051E+03  0.83459420683E+02  0.65910470611E+03  0.67318524229E+03  0.25500000920E-02 0.  1.
       -2    1    3    3    0  502 -0.10859964051E+03 -0.83459420683E+02 -0.29594576207E+03  0.32610312926E+03  0.25500000920E-02 0. -1.
</event>
<event>
 5   0  0.7241200E-03  0.9957963E+03  0.7818609E-02  0.9313167E-01
       -1   -1    0    0    0  501  0.00000000000E+00  0.00000000000E+00  0.25314348246E+03  0.25314348251E+03  0.50400001928E-02 0. -1.
        1   -1    0    0  501    0  0.00000000000E+00  0.00000000000E+00 -0.97929667253E+03  0.97929667254E+03  0.50400001928E-02 0.  1.
    10030    2    1    2    0    0  0.00000000000E+00  0.00000000000E+00 -0.72615319007E+03  0.12324401551E+04  0.99579630465E+03 0.  0.
        4    1    3    3  502    0  0.25553889388E+01 -0.14148521216E+03 -0.95388269174E+03  0.96432276639E+03  0.12699999809E+01 0.  1.
       -4    1    3    3    0  502 -0.25553889388E+01  0.14148521216E+03  0.22772950167E+03  0.26811738867E+03  0.12699999809E+01 0. -1.
</event>
<event>
 5   0  0.1240503E-02  0.1320242E+04  0.7818609E-02  0.9013665E-01
        2   -1    0    0  501    0  0.00000000000E+00  0.00000000000E+00  0.16891193974E+04  0.16891193974E+04  0.25500000920E-02 0.  1.
       -2   -1    0    0    0  501  0.00000000000E+00  0.00000000000E+00 -0.25798044568E+03  0.25798044569E+03  0.25500000920E-02 0. -1.
    10030    2    1    2    0    0  0.00000000000E+00  0.00000000000E+00  0.14311389517E+04  0.19470998431E+04  0.13202420611E+04 0.  0.
        1    1    3    3  502    0 -0.55828164672E+03  0.85870836947E+02  0.12193996619E+04  0.13438704302E+04  0.50400001928E-02 0.  1.
       -1    1    3    3    0  502  0.55828164672E+03 -0.85870836947E+02  0.21173928981E+03  0.60322941289E+03  0.50400001928E-02 0. -1.
</event>
<event>
 5   0  0.1216322E-02  0.9904484E+03  0.7818609E-02  0.9319083E-01
       -2   -1    0    0    0  501  0.00000000000E+00  0.00000000000E+00  0.42566212595E+03  0.42566212596E+03  0.25500000920E-02 0.  1.
        2   -1    0    0  501    0  0.00000000000E+00  0.00000000000E+00 -0.57615421675E+03  0.57615421676E+03  0.25500000920E-02 0. -1.
    10030    2    1    2    0    0  0.00000000000E+00  0.00000000000E+00 -0.15049209080E+03  0.10018163427E+04  0.99044844143E+03 0.  0.
        2    1    3    3  502    0  0.31784453051E+03  0.20127176497E+02 -0.45883051873E+03  0.55852993987E+03  0.25500000920E-02 0. -1.
       -2    1    3    3    0  502 -0.31784453051E+03 -0.20127176497E+02  0.30833842792E+03  0.44328640285E+03  0.25500000920E-02 0.  1.
</event>
<event>
 5   0  0.1240503E-02  0.1002060E+04  0.7818609E-02  0.9306288E-01
        2   -1    0    0  501    0  0.00000000000E+00  0.00000000000E+00  0.26083479191E+03  0.26083479192E+03  0.25500000920E-02 0. -1.
       -2   -1    0    0    0  501  0.00000000000E+00  0.00000000000E+00 -0.96241462084E+03  0.96241462084E+03  0.25500000920E-02 0.  1.
    10030    2    1    2    0    0  0.00000000000E+00  0.00000000000E+00 -0.70157982893E+03  0.12232494128E+04  0.10020603123E+04 0.  0.
        1    1    3    3  502    0 -0.29573590510E+03  0.39772546303E+03 -0.44037840621E+03  0.66300709664E+03  0.50400001928E-02 0.  1.
       -1    1    3    3    0  502  0.29573590510E+03 -0.39772546303E+03 -0.26120142272E+03  0.56024231612E+03  0.50400001928E-02 0. -1.
</event>
<event>
 5   0  0.1245850E-02  0.9929735E+03  0.7818609E-02  0.9316285E-01
        2   -1    0    0  501    0  0.00000000000E+00  0.00000000000E+00  0.14179135993E+04  0.14179135993E+04  0.25500000920E-02 0.  1.
       -2   -1    0    0    0  501  0.00000000000E+00  0.00000000000E+00 -0.17384634220E+03  0.17384634222E+03  0.25500000920E-02 0. -1.
    10030    2    1    2    0    0  0.00000000000E+00  0.00000000000E+00  0.12440672571E+04  0.15917599415E+04  0.99297349976E+03 0.  0.
        3    1    3    3  502    0  0.38052816952E+03  0.13873663059E+03  0.10823262751E+04  0.11556295758E+04  0.10100000352E+00 0.  1.
       -3    1    3    3    0  502 -0.38052816952E+03 -0.13873663059E+03  0.16174098203E+03  0.43613036575E+03  0.10100000352E+00 0. -1.
</event>
<event>
 5   0  0.4782125E-03  0.1000374E+04  0.7818609E-02  0.9308135E-01
        4   -1    0    0  501    0  0.00000000000E+00  0.00000000000E+00  0.92159599566E+03  0.92159687072E+03  0.12699999809E+01 0. -1.
       -4   -1    0    0    0  501  0.00000000000E+00  0.00000000000E+00 -0.27146907200E+03  0.27147204267E+03  0.12699999809E+01 0.  1.
    10030    2    1    2    0    0  0.00000000000E+00  0.00000000000E+00  0.65012692366E+03  0.11930689134E+04  0.10003741376E+04 0.  0.
        5    1    3    3  502    0  0.83015535792E+02  0.17483990405E+03  0.87509976530E+03  0.89626015222E+03  0.46999998093E+01 0. -1.
       -5    1    3    3    0  502 -0.83015535792E+02 -0.17483990405E+03 -0.22497284164E+03  0.29680876117E+03  0.46999998093E+01 0.  1.
</event>
<event>
 5   0  0.1240503E-02  0.9928298E+03  0.7818609E-02  0.9316444E-01
       -2   -1    0    0    0  501  0.00000000000E+00  0.00000000000E+00  0.30628548941E+03  0.30628548942E+03  0.25500000920E-02 0. -1.
        2   -1    0    0  501    0  0.00000000000E+00  0.00000000000E+00 -0.80456886767E+03  0.80456886767E+03  0.25500000920E-02 0.  1.
    10030    2    1    2    0    0  0.00000000000E+00  0.00000000000E+00 -0.49828337826E+03  0.11108543571E+04  0.99282983317E+03 0.  0.
        1    1    3    3  502    0 -0.26035053548E+03 -0.24921175394E+03 -0.63110153116E+03  0.72675858598E+03  0.50400001928E-02 0.  1.
       -1    1    3    3    0  502  0.26035053548E+03  0.24921175394E+03  0.13281815291E+03  0.38409577112E+03  0.50400001928E-02 0. -1.
</event>
<event>
 5   0  0.1191822E-02  0.1000863E+04  0.7818609E-02  0.9307599E-01
       -2   -1    0    0    0  501  0.00000000000E+00  0.00000000000E+00  0.93983967782E+03  0.93983967783E+03  0.25500000920E-02 0. -1.
        2   -1    0    0  501    0  0.00000000000E+00  0.00000000000E+00 -0.26646194817E+03  0.26646194818E+03  0.25500000920E-02 0.  1.
    10030    2    1    2    0    0  0.00000000000E+00  0.00000000000E+00  0.67337772966E+03  0.12063016260E+04  0.10008626510E+04 0.  0.
        4    1    3    3  502    0  0.42680624961E+03  0.19357350739E+03  0.12518129547E+03  0.48508375267E+03  0.12699999809E+01 0.  1.
       -4    1    3    3    0  502 -0.42680624961E+03 -0.19357350739E+03  0.54819643419E+03  0.72121787334E+03  0.12699999809E+01 0. -1.
</event>
<event>
 5   0  0.7073004E-03  0.1007799E+04  0.7818609E-02  0.9300032E-01
       -1   -1    0    0    0  501  0.00000000000E+00  0.00000000000E+00  0.86900936506E+03  0.86900936508E+03  0.50400001928E-02 0.  1.
        1   -1    0    0  501    0  0.00000000000E+00  0.00000000000E+00 -0.29218880158E+03  0.29218880162E+03  0.50400001928E-02 0. -1.
    10030    2    1    2    0    0  0.00000000000E+00  0.00000000000E+00  0.57682056348E+03  0.11611981667E+04  0.10077991962E+04 0.  0.
        1    1    3    3  502    0 -0.14109493158E+03  0.20299029889E+03  0.79433751848E+03  0.83191642275E+03  0.50400001928E-02 0.  1.
       -1    1    3    3    0  502  0.14109493158E+03 -0.20299029889E+03 -0.21751695499E+03  0.32928174395E+03  0.50400001928E-02 0. -1.
</event>
<event>
 5   0  0.7461157E-03  0.9715534E+03  0.7818609E-02  0.9340307E-01
        1   -1    0    0  501    0  0.00000000000E+00  0.00000000000E+00  0.64502700594E+03  0.64502700596E+03  0.50400001928E-02 0.  1.
       -1   -1    0    0    0  501  0.00000000000E+00  0.00000000000E+00 -0.36584360153E+03  0.36584360156E+03  0.50400001928E-02 0. -1.
    10030    2    1    2    0    0  0.00000000000E+00  0.00000000000E+00  0.27918340441E+03  0.10108706075E+04  0.97155340144E+03 0.  0.
        2    1    3    3  502    0 -0.42300153223E+03  0.22544892445E+03  0.22166012108E+03  0.52810105386E+03  0.25500000920E-02 0.  1.
       -2    1    3    3    0  502  0.42300153223E+03 -0.22544892445E+03  0.57523283327E+02  0.48276955366E+03  0.25500000920E-02 0. -1.
</event>
<event>
 5   0  0.6967681E-03  0.9708146E+03  0.7818609E-02  0.9341147E-01
       -1   -1    0    0    0  501  0.00000000000E+00  0.00000000000E+00  0.85653566472E+03  0.85653566474E+03  0.50400001928E-02 0. -1.
        1   -1    0    0  501    0  0.00000000000E+00  0.00000000000E+00 -0.27508516562E+03  0.27508516567E+03  0.50400001928E-02 0.  1.
    10030    2    1    2    0    0  0.00000000000E+00  0.00000000000E+00  0.58145049910E+03  0.11316208304E+04  0.97081461717E+03 0.  0.
        5    1    3    3  502    0  0.27581270256E+03  0.31200815822E+03  0.58138005598E+03  0.71515494627E+03  0.46999998093E+01 0. -1.
       -5    1    3    3    0  502 -0.27581270256E+03 -0.31200815822E+03  0.70443125508E-01  0.41646588414E+03  0.46999998093E+01 0.  1.
</event>
<event>
 5   0  0.6967681E-03  0.9930122E+03  0.7818609E-02  0.9316242E-01
       -1   -1    0    0    0  501  0.00000000000E+00  0.00000000000E+00  0.28941882089E+03  0.28941882093E+03  0.50400001928E-02 0. -1.
        1   -1    0    0  501    0  0.00000000000E+00  0.00000000000E+00 -0.85177015193E+03  0.85177015194E+03  0.50400001928E-02 0.  1.
    10030    2    1    2    0    0  0.00000000000E+00  0.00000000000E+00 -0.56235133103E+03  0.11411889729E+04  0.99301221155E+03 0.  0.
        5    1    3    3  502    0 -0.29595471692E+03 -0.34634346083E+03 -0.50799221895E+03  0.68236439813E+03  0.46999998093E+01 0. -1.
       -5    1    3    3    0  502  0.29595471692E+03  0.34634346083E+03 -0.54359112084E+02  0.45882457474E+03  0.46999998093E+01 0.  1.
</event>
<event>
 5   0  0.7224879E-03  0.9990950E+03  0.7818609E-02  0.9309538E-01
        1   -1    0    0  501    0  0.00000000000E+00  0.00000000000E+00  0.28245551575E+03  0.28245551580E+03  0.50400001928E-02 0. -1.
       -1   -1    0    0    0  501  0.00000000000E+00  0.00000000000E+00 -0.88349386809E+03  0.88349386811E+03  0.50400001928E-02 0.  1.
    10030    2    1    2    0    0  0.00000000000E+00  0.00000000000E+00 -0.60103835234E+03  0.11659493839E+04  0.99909502293E+03 0.  0.
        3    1    3    3  502    0 -0.17699570686E+03 -0.45491804506E+03 -0.17663068363E+03  0.51911108307E+03  0.10100000352E+00 0. -1.
       -3    1    3    3    0  502  0.17699570686E+03  0.45491804506E+03 -0.42440766871E+03  0.64683830083E+03  0.10100000352E+00 0.  1.
</event>
<event>
 5   0  0.1191822E-02  0.1004659E+04  0.7818609E-02  0.9303450E-01
       -2   -1    0    0    0  501  0.00000000000E+00  0.00000000000E+00  0.67249116891E+03  0.67249116891E+03  0.25500000920E-02 0. -1.
        2   -1    0    0  501    0  0.00000000000E+00  0.00000000000E+00 -0.37522386271E+03  0.37522386272E+03  0.25500000920E-02 0.  1.
    10030    2    1    2    0    0  0.00000000000E+00  0.00000000000E+00  0.29726730620E+03  0.10477150316E+04  0.10046586167E+04 0.  0.
        4    1    3    3  502    0  0.15083493481E+03 -0.46497878073E+03  0.28019358143E+02  0.48963572319E+03  0.12699999809E+01 0.  1.
       -4    1    3    3    0  502 -0.15083493481E+03  0.46497878073E+03  0.26924794805E+03  0.55807930845E+03  0.12699999809E+01 0. -1.
</event>
<event>
 5   0  0.7073004E-03  0.1006341E+04  0.7818609E-02  0.9301617E-01
       -1   -1    0    0    0  501  0.00000000000E+00  0.00000000000E+00  0.31863837533E+03  0.31863837537E+03  0.50400001928E-02 0. -1.
        1   -1    0    0  501    0  0.00000000000E+00  0.00000000000E+00 -0.79456997322E+03  0.79456997323E+03  0.50400001928E-02 0.  1.
    10030    2    1    2    0    0  0.00000000000E+00  0.00000000000E+00 -0.47593159788E+03  0.11132083486E+04  0.10063408675E+04 0.  0.
        1    1    3    3  502    0 -0.16636224160E+03 -0.22050525541E+03 -0.70320101208E+03  0.75550686728E+03  0.50400001928E-02 0.  1.
       -1    1    3    3    0  502  0.16636224160E+03  0.22050525541E+03  0.22726941419E+03  0.35770148133E+03  0.50400001928E-02 0. -1.
</event>
<event>
 5   0  0.1221315E-02  0.9202536E+03  0.7818609E-02  0.9400612E-01
       -2   -1    0    0    0  501  0.00000000000E+00  0.00000000000E+00  0.18204587537E+03  0.18204587539E+03  0.25500000920E-02 0.  1.
        2   -1    0    0  501    0  0.00000000000E+00  0.00000000000E+00 -0.11629852595E+04  0.11629852595E+04  0.25500000920E-02 0. -1.
    10030    2    1    2    0    0  0.00000000000E+00  0.00000000000E+00 -0.98093938410E+03  0.13450311349E+04  0.92025359466E+03 0.  0.
        5    1    3    3  502    0 -0.93914909786E+02  0.11718092480E+03 -0.11261228097E+04  0.11361012507E+04  0.46999998093E+01 0. -1.
       -5    1    3    3    0  502  0.93914909786E+02 -0.11718092480E+03  0.14518342559E+03  0.20892988413E+03  0.46999998093E+01 0.  1.
</event>
<event>
 5   0  0.1221315E-02  0.9938694E+03  0.7818609E-02  0.9315294E-01
       -2   -1    0    0    0  501  0.00000000000E+00  0.00000000000E+00  0.44238778827E+03  0.44238778828E+03  0.25500000920E-02 0. -1.
        2   -1    0    0  501    0  0.00000000000E+00  0.00000000000E+00 -0.55820734619E+03  0.55820734619E+03  0.25500000920E-02 0.  1.
    10030    2    1    2    0    0  0.00000000000E+00  0.00000000000E+00 -0.11581955792E+03  0.10005951345E+04  0.99386943465E+03 0.  0.
        5    1    3    3  502    0 -0.37134942234E+03  0.85153678732E+02  0.26326391396E+03  0.46312149687E+03  0.46999998093E+01 0. -1.
       -5    1    3    3    0  502  0.37134942234E+03 -0.85153678732E+02 -0.37908347187E+03  0.53747363760E+03  0.46999998093E+01 0.  1.
</event>
<event>
 5   0  0.1221315E-02  0.9065869E+03  0.7818609E-02  0.9417385E-01
        2   -1    0    0  501    0  0.00000000000E+00  0.00000000000E+00  0.54302406503E+03  0.54302406504E+03  0.25500000920E-02 0. -1.
       -2   -1    0    0    0  501  0.00000000000E+00  0.00000000000E+00 -0.37839011328E+03  0.37839011328E+03  0.25500000920E-02 0.  1.
    10030    2    1    2    0    0  0.00000000000E+00  0.00000000000E+00  0.16463395176E+03  0.92141417832E+03  0.90658686839E+03 0.  0.
        5    1    3    3  502    0 -0.32258429756E+03 -0.53729602291E+02 -0.23667177798E+03  0.40371167890E+03  0.46999998093E+01 0.  1.
       -5    1    3    3    0  502  0.32258429756E+03  0.53729602291E+02  0.40130572973E+03  0.51770249942E+03  0.46999998093E+01 0. -1.
</event>
<event>
 5   0  0.1216322E-02  0.9686122E+03  0.7818609E-02  0.9343657E-01
        2   -1    0    0  501    0  0.00000000000E+00  0.00000000000E+00  0.21482871049E+04  0.21482871049E+04  0.25500000920E-02 0.  1.
       -2   -1    0    0    0  501  0.00000000000E+00  0.00000000000E+00 -0.10918111796E+03  0.10918111799E+03  0.25500000920E-02 0. -1.
    10030    2    1    2    0    0  0.00000000000E+00  0.00000000000E+00  0.20391059869E+04  0.22574682229E+04  0.96861217799E+03 0.  0.
        2    1    3    3  502    0 -0.14592133254E+03 -0.84356016171E+02  0.20777254525E+04  0.20845507978E+04  0.25500000920E-02 0.  1.
       -2    1    3    3    0  502  0.14592133254E+03  0.84356016171E+02 -0.38619465580E+02  0.17291742504E+03  0.25500000920E-02 0. -1.
</event>
<event>
 5   0  0.7241200E-03  0.1020735E+04  0.7818609E-02  0.9286091E-01
        1   -1    0    0  501    0  0.00000000000E+00  0.00000000000E+00  0.77899146353E+03  0.77899146355E+03  0.50400001928E-02 0.  1.
       -1   -1    0    0    0  501  0.00000000000E+00  0.00000000000E+00 -0.33437443799E+03  0.33437443802E+03  0.50400001928E-02 0. -1.
    10030    2    1    2    0    0  0.00000000000E+00  0.00000000000E+00  0.44461702554E+03  0.11133659016E+04  0.10207347018E+04 0.  0.
        4    1    3    3  502    0 -0.41003775487E+03 -0.30207584366E+03  0.25836012307E+03  0.57107997850E+03  0.12699999809E+01 0. -1.
       -4    1    3    3    0  502  0.41003775487E+03  0.30207584366E+03  0.18625690247E+03  0.54228592307E+03  0.12699999809E+01 0.  1.
</event>
<event>
 5   0  0.1240503E-02  0.1000365E+04  0.7818609E-02  0.9308145E-01
        2   -1    0    0  501    0  0.00000000000E+00  0.00000000000E+00  0.20403990937E+04  0.20403990937E+04  0.25500000920E-02 0.  1.
       -2   -1    0    0    0  501  0.00000000000E+00  0.00000000000E+00 -0.12261447199E+03  0.12261447202E+03  0.25500000920E-02 0. -1.
    10030    2    1    2    0    0  0.00000000000E+00  0.00000000000E+00  0.19177846217E+04  0.21630135657E+04  0.10003648486E+04 0.  0.
        1    1    3    3  502    0 -0.18478800776E+02  0.49829946444E+03  0.10437065266E+04  0.11567052935E+04  0.50400001928E-02 0.  1.
       -1    1    3    3    0  502  0.18478800776E+02 -0.49829946444E+03  0.87407809510E+03  0.10063082722E+04  0.50400001928E-02 0. -1.
</event>
<event>
 5   0  0.1221315E-02  0.1001120E+04  0.7818609E-02  0.9307317E-01
        2   -1    0    0  501    0  0.00000000000E+00  0.00000000000E+00  0.22383128490E+03  0.22383128491E+03  0.25500000920E-02 0.  1.
       -2   -1    0    0    0  501  0.00000000000E+00  0.00000000000E+00 -0.11194156889E+04  0.11194156889E+04  0.25500000920E-02 0. -1.
    10030    2    1    2    0    0  0.00000000000E+00  0.00000000000E+00 -0.89558440403E+03  0.13432469738E+04  0.10011198769E+04 0.  0.
        5    1    3    3  502    0  0.45121861738E+03  0.21664886679E+03 -0.45018857918E+03  0.67322122587E+03  0.46999998093E+01 0. -1.
       -5    1    3    3    0  502 -0.45121861738E+03 -0.21664886679E+03 -0.44539582486E+03  0.67002574797E+03  0.46999998093E+01 0.  1.
</event>
<event>
 5   0  0.1191822E-02  0.9942577E+03  0.7818609E-02  0.9314865E-01
        2   -1    0    0  501    0  0.00000000000E+00  0.00000000000E+00  0.73959158267E+03  0.73959158268E+03  0.25500000920E-02 0. -1.
       -2   -1    0    0    0  501  0.00000000000E+00  0.00000000000E+00 -0.33415348076E+03  0.33415348077E+03  0.25500000920E-02 0.  1.
    10030    2    1    2    0    0  0.00000000000E+00  0.00000000000E+00  0.40543810191E+03  0.10737450634E+04  0.99425771649E+03 0.  0.
        4    1    3    3  502    0 -0.32548458304E+03 -0.21382475857E+03  0.53641069546E+03  0.66287199992E+03  0.12699999809E+01 0. -1.
       -4    1    3    3    0  502  0.32548458304E+03  0.21382475857E+03 -0.13097259355E+03  0.41087306353E+03  0.12699999809E+01 0.  1.
</event>
<event>
 5   0  0.1245850E-02  0.7515109E+03  0.7818609E-02  0.9632983E-01
       -2   -1    0    0    0  501  0.00000000000E+00  0.00000000000E+00  0.18712865740E+03  0.18712865741E+03  0.25500000920E-02 0. -1.
        2   -1    0    0  501    0  0.00000000000E+00  0.00000000000E+00 -0.75451924220E+03  0.75451924220E+03  0.25500000920E-02 0.  1.
    10030    2    1    2    0    0  0.00000000000E+00  0.00000000000E+00 -0.56739058480E+03  0.94164789962E+03  0.75151093880E+03 0.  0.
        3    1    3    3  502    0 -0.22067623408E+03  0.86751061901E+02 -0.64893837163E+03  0.69090141656E+03  0.10100000352E+00 0. -1.
       -3    1    3    3    0  502  0.22067623408E+03 -0.86751061901E+02  0.81547786827E+02  0.25074648306E+03  0.10100000352E+00 0.  1.
</event>
<event>
 5   0  0.1221315E-02  0.9963128E+03  0.7818609E-02  0.9312598E-01
       -2   -1    0    0    0  501  0.00000000000E+00  0.00000000000E+00  0.13460146513E+03  0.13460146516E+03  0.25500000920E-02 0.  1.
        2   -1    0    0  501    0  0.00000000000E+00  0.00000000000E+00 -0.18436634379E+04  0.18436634379E+04  0.25500000920E-02 0. -1.
    10030    2    1    2    0    0  0.00000000000E+00  0.00000000000E+00 -0.17090619728E+04  0.19782649030E+04  0.99631280224E+03 0.  0.
        5    1    3    3  502    0  0.56391463114E+02  0.45759499114E+02 -0.18330518982E+04  0.18344959200E+04  0.46999998093E+01 0. -1.
       -5    1    3    3    0  502 -0.56391463114E+02 -0.45759499114E+02  0.12398992547E+03  0.14376898305E+03  0.46999998093E+01 0.  1.
</event>
<event>
 5   0  0.7241200E-03  0.9936231E+03  0.7818609E-02  0.9315567E-01
        1   -1    0    0  501    0  0.00000000000E+00  0.00000000000E+00  0.51061331788E+03  0.51061331791E+03  0.50400001928E-02 0. -1.
       -1   -1    0    0    0  501  0.00000000000E+00  0.00000000000E+00 -0.48338287627E+03  0.48338287629E+03  0.50400001928E-02 0.  1.
    10030    2    1    2    0    0  0.00000000000E+00  0.00000000000E+00  0.27230441615E+02  0.99399619420E+03  0.99362313637E+03 0.  0.
        4    1    3    3  502    0  0.34706880161E+03  0.20499322044E+03 -0.27690929090E+03  0.48903920269E+03  0.12699999809E+01 0.  1.
       -4    1    3    3    0  502 -0.34706880161E+03 -0.20499322044E+03  0.30413973252E+03  0.50495699151E+03  0.12699999809E+01 0. -1.
</event>
<event>
 5   0  0.7224879E-03  0.9925119E+03  0.7818609E-02  0.9316796E-01
        1   -1    0    0  501    0  0.00000000000E+00  0.00000000000E+00  0.44958346101E+03  0.44958346104E+03  0.50400001928E-02 0.  1.
       -1   -1    0    0    0  501  0.00000000000E+00  0.00000000000E+00 -0.54777367247E+03  0.54777367250E+03  0.50400001928E-02 0. -1.
    10030    2    1    2    0    0  0.00000000000E+00  0.00000000000E+00 -0.98190211459E+02  0.99735713354E+03  0.99251193151E+03 0.  0.
        3    1    3    3  502    0 -0.36418721394E+03 -0.40257833166E+02 -0.38541831640E+03  0.53178972231E+03  0.10100000352E+00 0. -1.
       -3    1    3    3    0  502  0.36418721394E+03  0.40257833166E+02  0.28722810494E+03  0.46556741123E+03  0.10100000352E+00 0.  1.
</event>
<event>
 5   0  0.6967681E-03  0.1048069E+04  0.7818609E-02  0.9257339E-01
       -1   -1    0    0    0  501  0.00000000000E+00  0.00000000000E+00  0.22780513658E+03  0.22780513663E+03  0.50400001928E-02 0.  1.
        1   -1    0    0  501    0  0.00000000000E+00  0.00000000000E+00 -0.12054706729E+04  0.12054706729E+04  0.50400001928E-02 0. -1.
    10030    2    1    2    0    0  0.00000000000E+00  0.00000000000E+00 -0.97766553635E+03  0.14332758096E+04  0.10480694850E+04 0.  0.
        5    1    3    3  502    0  0.36213015186E+03 -0.15679403712E+03 -0.17343695071E+02  0.39502596209E+03  0.46999998093E+01 0.  1.
       -5    1    3    3    0  502 -0.36213015186E+03  0.15679403712E+03 -0.96032184128E+03  0.10382498475E+04  0.46999998093E+01 0. -1.
</event>
<event>
 5   0  0.1240503E-02  0.1010542E+04  0.7818609E-02  0.9297057E-01
       -2   -1    0    0    0  501  0.00000000000E+00  0.00000000000E+00  0.21547212858E+03  0.21547212860E+03  0.25500000920E-02 0.  1.
        2   -1    0    0  501    0  0.00000000000E+00  0.00000000000E+00 -0.11848348129E+04  0.11848348129E+04  0.25500000920E-02 0. -1.
    10030    2    1    2    0    0  0.00000000000E+00  0.00000000000E+00 -0.96936268434E+03  0.14003069415E+04  0.10105421895E+04 0.  0.
        1    1    3    3  502    0  0.45984429463E+03 -0.63861470418E+02 -0.20836102287E+03  0.50887068946E+03  0.50400001928E-02 0.  1.
       -1    1    3    3    0  502 -0.45984429463E+03  0.63861470418E+02 -0.76100166147E+03  0.89143625207E+03  0.50400001928E-02 0. -1.
</event>
<event>
 5   0  0.1221315E-02  0.9565356E+03  0.7818609E-02  0.9357544E-01
       -2   -1    0    0    0  501  0.00000000000E+00  0.00000000000E+00  0.48378680433E+03  0.48378680433E+03  0.25500000920E-02 0. -1.
        2   -1    0    0  501    0  0.00000000000E+00  0.00000000000E+00 -0.47281177094E+03  0.47281177094E+03  0.25500000920E-02 0.  1.
    10030    2    1    2    0    0  0.00000000000E+00  0.00000000000E+00  0.10975033392E+02  0.95659857528E+03  0.95653561505E+03 0.  0.
        5    1    3    3  502    0 -0.74885003882E+02 -0.44035401406E+03  0.17637469617E+03  0.48025987231E+03  0.46999998093E+01 0. -1.
       -5    1    3    3    0  502  0.74885003882E+02  0.44035401406E+03 -0.16539966277E+03  0.47633870297E+03  0.46999998093E+01 0.  1.
</event>
<event>
 5   0  0.6967681E-03  0.1012566E+04  0.7818609E-02  0.9294869E-01
       -1   -1    0    0    0  501  0.00000000000E+00  0.00000000000E+00  0.53486175508E+03  0.53486175510E+03  0.50400001928E-02 0. -1.
        1   -1    0    0  501    0  0.00000000000E+00  0.00000000000E+00 -0.47923106522E+03  0.47923106525E+03  0.50400001928E-02 0.  1.
    10030    2    1    2    0    0  0.00000000000E+00  0.00000000000E+00  0.55630689858E+02  0.10140928204E+04  0.10125657878E+04 0.  0.
        5    1    3    3  502    0  0.37149071183E+03 -0.68808730179E+02 -0.30967993374E+03  0.48853223199E+03  0.46999998093E+01 0.  1.
       -5    1    3    3    0  502 -0.37149071183E+03  0.68808730179E+02  0.36531062360E+03  0.52556058837E+03  0.46999998093E+01 0. -1.
</event>
<event>
 5   0  0.7073004E-03  0.1027009E+04  0.7818609E-02  0.9279408E-01
       -1   -1    0    0    0  501  0.00000000000E+00  0.00000000000E+00  0.51102233330E+03  0.51102233333E+03  0.50400001928E-02 0. -1.
        1   -1    0    0  501    0  0.00000000000E+00  0.00000000000E+00 -0.51599884664E+03  0.51599884666E+03  0.50400001928E-02 0.  1.
    10030    2    1    2    0    0  0.00000000000E+00  0.00000000000E+00 -0.49765133380E+01  0.10270211800E+04  0.10270091229E+04 0.  0.
        1    1    3    3  502    0  0.45552904222E+03 -0.18662438051E+03  0.14363521245E+03  0.51280253703E+03  0.50400001928E-02 0. -1.
       -1    1    3    3    0  502 -0.45552904222E+03  0.18662438051E+03 -0.14861172579E+03  0.51421864296E+03  0.50400001928E-02 0.  1.
</event>
<event>
 5   0  0.1191822E-02  0.1223784E+04  0.7818609E-02  0.9092289E-01
        2   -1    0    0  501    0  0.00000000000E+00  0.00000000000E+00  0.11990310246E+04  0.11990310246E+04  0.25500000920E-02 0.  1.
       -2   -1    0    0    0  501  0.00000000000E+00  0.00000000000E+00 -0.31226214140E+03  0.31226214141E+03  0.25500000920E-02 0. -1.
    10030    2    1    2    0    0  0.00000000000E+00  0.00000000000E+00  0.88676888319E+03  0.15112931660E+04  0.12237842871E+04 0.  0.
        4    1    3    3  502    0  0.20984677972E+03 -0.15341775479E+03  0.11274507608E+04  0.11570304703E+04  0.12699999809E+01 0.  1.
       -4    1    3    3    0  502 -0.20984677972E+03  0.15341775479E+03 -0.24068187758E+03  0.35426269567E+03  0.12699999809E+01 0. -1.
</event>
<event>
 5   0  0.7073004E-03  0.1010647E+04  0.7818609E-02  0.9296944E-01
       -1   -1    0    0    0  501  0.00000000000E+00  0.00000000000E+00  0.29713894675E+03  0.29713894680E+03  0.50400001928E-02 0. -1.
        1   -1    0    0  501    0  0.00000000000E+00  0.00000000000E+00 -0.85936878508E+03  0.85936878510E+03  0.50400001928E-02 0.  1.
    10030    2    1    2    0    0  0.00000000000E+00  0.00000000000E+00 -0.56222983833E+03  0.11565077319E+04  0.10106471901E+04 0.  0.
        1    1    3    3  502    0 -0.17527715931E+02  0.28541574556E+03 -0.75787734526E+03  0.81002928288E+03  0.50400001928E-02 0.  1.
       -1    1    3    3    0  502  0.17527715931E+02 -0.28541574556E+03  0.19564750693E+03  0.34647844902E+03  0.50400001928E-02 0. -1.
</event>
<event>
 5   0  0.1191822E-02  0.1000194E+04  0.7818609E-02  0.9308332E-01
        2   -1    0    0  501    0  0.00000000000E+00  0.00000000000E+00  0.60330712569E+03  0.60330712570E+03  0.25500000920E-02 0.  1.
       -2   -1    0    0    0  501  0.00000000000E+00  0.00000000000E+00 -0.41454325008E+03  0.41454325009E+03  0.25500000920E-02 0. -1.
    10030    2    1    2    0    0  0.00000000000E+00  0.00000000000E+00  0.18876387561E+03  0.10178503758E+04  0.10001937746E+04 0.  0.
        4    1    3    3  502    0 -0.17843009984E+03 -0.41552676774E+03  0.31168244047E+03  0.54922431833E+03  0.12699999809E+01 0.  1.
       -4    1    3    3    0  502  0.17843009984E+03  0.41552676774E+03 -0.12291856487E+03  0.46862605746E+03  0.12699999809E+01 0. -1.
</event>
<event>
 5   0  0.1240503E-02  0.9943442E+03  0.7818609E-02  0.9314770E-01
        2   -1    0    0  501    0  0.00000000000E+00  0.00000000000E+00  0.57979354419E+03  0.57979354420E+03  0.25500000920E-02 0. -1.
       -2   -1    0    0    0  501  0.00000000000E+00  0.00000000000E+00 -0.42632430339E+03  0.42632430340E+03  0.25500000920E-02 0.  1.
    10030    2    1    2    0    0  0.00000000000E+00  0.00000000000E+00  0.15346924080E+03  0.10061178476E+04  0.99434416345E+03 0.  0.
        1    1    3    3  502    0  0.77289533417E+02 -0.29694122380E+03  0.47256005774E+03  0.56343657191E+03  0.50400001928E-02 0. -1.
       -1    1    3    3    0  502 -0.77289533417E+02  0.29694122380E+03 -0.31909081694E+03  0.44268127569E+03  0.50400001928E-02 0.  1.
</event>
<event>
 5   0  0.4782125E-03  0.1019586E+04  0.7818609E-02  0.9287320E-01
        4   -1    0    0  501    0  0.00000000000E+00  0.00000000000E+00  0.11051165633E+04  0.11051172930E+04  0.12699999809E+01 0. -1.
       -4   -1    0    0    0  501  0.00000000000E+00  0.00000000000E+00 -0.23516627601E+03  0.23516970526E+03  0.12699999809E+01 0.  1.
    10030    2    1    2    0    0  0.00000000000E+00  0.00000000000E+00  0.86995028725E+03  0.13402869983E+04  0.10195860608E+04 0.  0.
        4    1    3    3  502    0  0.18910846227E+03 -0.26436393104E+03  0.95123485168E+03  0.10052361188E+04  0.12699999809E+01 0. -1.
       -4    1    3    3    0  502 -0.18910846227E+03  0.26436393104E+03 -0.81284564434E+02  0.33505087949E+03  0.12699999809E+01 0.  1.
</event>
<event>
 5   0  0.7073004E-03  0.9722531E+03  0.7818609E-02  0.9339512E-01
       -1   -1    0    0    0  501  0.00000000000E+00  0.00000000000E+00  0.14471936783E+03  0.14471936791E+03  0.50400001928E-02 0. -1.
        1   -1    0    0  501    0  0.00000000000E+00  0.00000000000E+00 -0.16329465941E+04  0.16329465941E+04  0.50400001928E-02 0.  1.
    10030    2    1    2    0    0  0.00000000000E+00  0.00000000000E+00 -0.14882272262E+04  0.17776659620E+04  0.97225305116E+03 0.  0.
        1    1    3    3  502    0  0.33379265784E+03  0.30876008594E+03 -0.10585166523E+04  0.11520450652E+04  0.50400001928E-02 0.  1.
       -1    1    3    3    0  502 -0.33379265784E+03 -0.30876008594E+03 -0.42971057398E+03  0.62562089680E+03  0.50400001928E-02 0. -1.
</event>
<event>
 5   0  0.6967681E-03  0.9423044E+03  0.7818609E-02  0.9374191E-01
       -1   -1    0    0    0  501  0.00000000000E+00  0.00000000000E+00  0.98424933262E+02  0.98424933391E+02  0.50400001928E-02 0.  1.
        1   -1    0    0  501    0  0.00000000000E+00  0.00000000000E+00 -0.22553674425E+04  0.22553674425E+04  0.50400001928E-02 0. -1.
    10030    2    1    2    0    0  0.00000000000E+00  0.00000000000E+00 -0.21569425092E+04  0.23537923759E+04  0.94230438854E+03 0.  0.
        5    1    3    3  502    0  0.45509387028E+03 -0.40972387277E+02 -0.79177535980E+03  0.91417694003E+03  0.46999998093E+01 0.  1.
       -5    1    3    3    0  502 -0.45509387028E+03  0.40972387277E+02 -0.13651671494E+04  0.14396154358E+04  0.46999998093E+01 0. -1.
</event>
<event>
 5   0  0.1191822E-02  0.9795375E+03  0.7818609E-02  0.9331277E-01
       -2   -1    0    0    0  501  0.00000000000E+00  0.00000000000E+00  0.90089349183E+03  0.90089349183E+03  0.25500000920E-02 0.  1.
        2   -1    0    0  501    0  0.00000000000E+00  0.00000000000E+00 -0.26626171734E+03  0.26626171736E+03  0.25500000920E-02 0. -1.
    10030    2    1    2    0    0  0.00000000000E+00  0.00000000000E+00  0.63463177448E+03  0.11671552092E+04  0.97953754045E+03 0.  0.
        4    1    3    3  502    0 -0.21145061203E+02 -0.38685153754E+03  0.67432114748E+03  0.77769650157E+03  0.12699999809E+01 0.  1.
       -4    1    3    3    0  502  0.21145061203E+02  0.38685153754E+03 -0.39689372993E+02  0.38945870762E+03  0.12699999809E+01 0. -1.
</event>
<event>
 5   0  0.7241200E-03  0.9867800E+03  0.7818609E-02  0.9323164E-01
        1   -1    0    0  501    0  0.00000000000E+00  0.00000000000E+00  0.74400513856E+03  0.74400513857E+03  0.50400001928E-02 0. -1.
       -1   -1    0    0    0  501  0.00000000000E+00  0.00000000000E+00 -0.32719359497E+03  0.32719359501E+03  0.50400001928E-02 0.  1.
    10030    2    1    2    0    0  0.00000000000E+00  0.00000000000E+00  0.41681154359E+03  0.10711987336E+04  0.98678004842E+03 0.  0.
        4    1    3    3  502    0  0.75445254120E+02 -0.19337692184E+03 -0.27748591425E+03  0.34653523020E+03  0.12699999809E+01 0.  1.
       -4    1    3    3    0  502 -0.75445254120E+02  0.19337692184E+03  0.69429745783E+03  0.72466350337E+03  0.12699999809E+01 0. -1.
</event>
<event>
 5   0  0.1191822E-02  0.9228864E+03  0.7818609E-02  0.9397416E-01
       -2   -1    0    0    0  501  0.00000000000E+00  0.00000000000E+00  0.52550596370E+03  0.52550596371E+03  0.25500000920E-02 0. -1.
        2   -1    0    0  501    0  0.00000000000E+00  0.00000000000E+00 -0.40519014965E+03  0.40519014966E+03  0.25500000920E-02 0.  1.
    10030    2    1    2    0    0  0.00000000000E+00  0.00000000000E+00  0.12031581405E+03  0.93069611337E+03  0.92288642873E+03 0.  0.
        4    1    3    3  502    0 -0.37179060012E+03  0.27283165616E+03  0.76508194790E+02  0.46746174144E+03  0.12699999809E+01 0.  1.
       -4    1    3    3    0  502  0.37179060012E+03 -0.27283165616E+03  0.43807619260E+02  0.46323437194E+03  0.12699999809E+01 0. -1.
</event>
<event>
 5   0  0.7461157E-03  0.9559762E+03  0.7818609E-02  0.9358193E-01
        1   -1    0    0  501    0  0.00000000000E+00  0.00000000000E+00  0.74168346219E+03  0.74168346221E+03  0.50400001928E-02 0.  1.
       -1   -1    0    0    0  501  0.00000000000E+00  0.00000000000E+00 -0.30804596953E+03  0.30804596957E+03  0.50400001928E-02 0. -1.
    10030    2    1    2    0    0  0.00000000000E+00  0.00000000000E+00  0.43363749266E+03  0.10497294318E+04  0.95597615289E+03 0.  0.
        2    1    3    3  502    0 -0.76940760077E+01  0.20753492557E+02 -0.30748294252E+03  0.30827855295E+03  0.25500000920E-02 0. -1.
       -2    1    3    3    0  502  0.76940760077E+01 -0.20753492557E+02  0.74112043519E+03  0.74145087883E+03  0.25500000920E-02 0.  1.
</event>
<event>
 5   0  0.1240503E-02  0.1005675E+04  0.7818609E-02  0.9302342E-01
        2   -1    0    0  501    0  0.00000000000E+00  0.00000000000E+00  0.16657784914E+04  0.16657784914E+04  0.25500000920E-02 0. -1.
       -2   -1    0    0    0  501  0.00000000000E+00  0.00000000000E+00 -0.15178821025E+03  0.15178821027E+03  0.25500000920E-02 0.  1.
    10030    2    1    2    0    0  0.00000000000E+00  0.00000000000E+00  0.15139902811E+04  0.18175667016E+04  0.10056749691E+04 0.  0.
        1    1    3    3  502    0 -0.97702528217E+02  0.16040131158E+03 -0.86016150604E+02  0.20657478783E+03  0.50400001928E-02 0.  1.
       -1    1    3    3    0  502  0.97702528217E+02 -0.16040131158E+03  0.16000064317E+04  0.16109919138E+04  0.50400001928E-02 0. -1.
</event>
<event>
 5   0  0.7073004E-03  0.1027804E+04  0.7818609E-02  0.9278564E-01
       -1   -1    0    0    0  501  0.00000000000E+00  0.00000000000E+00  0.60310356510E+03  0.60310356512E+03  0.50400001928E-02 0. -1.
        1   -1    0    0  501    0  0.00000000000E+00  0.00000000000E+00 -0.43789400852E+03  0.43789400855E+03  0.50400001928E-02 0.  1.
    10030    2    1    2    0    0  0.00000000000E+00  0.00000000000E+00  0.16520955658E+03  0.10409975737E+04  0.10278043349E+04 0.  0.
        1    1    3    3  502    0  0.70584177451E+02  0.14312565595E+03  0.57737129241E+03  0.59901977332E+03  0.50400001928E-02 0. -1.
       -1    1    3    3    0  502 -0.70584177451E+02 -0.14312565595E+03 -0.41216173583E+03  0.44197780035E+03  0.50400001928E-02 0.  1.
</event>
<event>
 5   0  0.7073004E-03  0.1037008E+04  0.7818609E-02  0.9268861E-01
        1   -1    0    0  501    0  0.00000000000E+00  0.00000000000E+00  0.11687688642E+04  0.11687688643E+04  0.50400001928E-02 0.  1.
       -1   -1    0    0    0  501  0.00000000000E+00  0.00000000000E+00 -0.23002526808E+03  0.23002526814E+03  0.50400001928E-02 0. -1.
    10030    2    1    2    0    0  0.00000000000E+00  0.00000000000E+00  0.93874359616E+03  0.13987941324E+04  0.10370079486E+04 0.  0.
        1    1    3    3  502    0 -0.27944340868E+03  0.11571255104E+03 -0.98708581287E+02  0.31815310335E+03  0.50400001928E-02 0. -1.
       -1    1    3    3    0  502  0.27944340868E+03 -0.11571255104E+03  0.10374521775E+04  0.10806410290E+04  0.50400001928E-02 0.  1.
</event>
<event>
 5   0  0.7224879E-03  0.8900367E+03  0.7818609E-02  0.9438122E-01
        1   -1    0    0  501    0  0.00000000000E+00  0.00000000000E+00  0.76416627266E+03  0.76416627267E+03  0.50400001928E-02 0. -1.
       -1   -1    0    0    0  501  0.00000000000E+00  0.00000000000E+00 -0.25916002855E+03  0.25916002860E+03  0.50400001928E-02 0.  1.
    10030    2    1    2    0    0  0.00000000000E+00  0.00000000000E+00  0.50500624411E+03  0.10233263013E+04  0.89003674771E+03 0.  0.
        3    1    3    3  502    0 -0.92135194564E+02  0.42579342328E+03  0.35695026940E+03  0.56320727837E+03  0.10100000352E+00 0. -1.
       -3    1    3    3    0  502  0.92135194564E+02 -0.42579342328E+03  0.14805597471E+03  0.46011902290E+03  0.10100000352E+00 0.  1.
</event>
<event>
 5   0  0.1245850E-02  0.9894596E+03  0.7818609E-02  0.9320181E-01
       -2   -1    0    0    0  501  0.00000000000E+00  0.00000000000E+00  0.42026282704E+03  0.42026282705E+03  0.25500000920E-02 0. -1.
        2   -1    0    0  501    0  0.00000000000E+00  0.00000000000E+00 -0.58239171894E+03  0.58239171894E+03  0.25500000920E-02 0.  1.
    10030    2    1    2    0    0  0.00000000000E+00  0.00000000000E+00 -0.16212889190E+03  0.10026545460E+04  0.98945963081E+03 0.  0.
        3    1    3    3  502    0  0.15205299553E+03  0.23743716086E+03 -0.49300876290E+03  0.56793852599E+03  0.10100000352E+00 0.  1.
       -3    1    3    3    0  502 -0.15205299553E+03 -0.23743716086E+03  0.33087987101E+03  0.43471602000E+03  0.10100000352E+00 0. -1.
</event>
<event>
 5   0  0.1216322E-02  0.9959525E+03  0.7818609E-02  0.9312995E-01
        2   -1    0    0  501    0  0.00000000000E+00  0.00000000000E+00  0.67832392905E+03  0.67832392906E+03  0.25500000920E-02 0.  1.
       -2   -1    0    0    0  501  0.00000000000E+00  0.00000000000E+00 -0.36557806340E+03  0.36557806341E+03  0.25500000920E-02 0. -1.
    10030    2    1    2    0    0  0.00000000000E+00  0.00000000000E+00  0.31274586565E+03  0.10439019925E+04  0.99595250560E+03 0.  0.
        2    1    3    3  502    0 -0.23804006678E+03 -0.18554168392E+03 -0.25879221327E+03  0.39757037053E+03  0.25500000920E-02 0. -1.
       -2    1    3    3    0  502  0.23804006678E+03  0.18554168392E+03  0.57153807892E+03  0.64633162194E+03  0.25500000920E-02 0.  1.
</event>
<event>
 5   0  0.7461157E-03  0.1001963E+04  0.7818609E-02  0.9306394E-01
       -1   -1    0    0    0  501  0.00000000000E+00  0.00000000000E+00  0.20560386012E+03  0.20560386019E+03  0.50400001928E-02 0.  1.
        1   -1    0    0  501    0  0.00000000000E+00  0.00000000000E+00 -0.12207088209E+04  0.12207088209E+04  0.50400001928E-02 0. -1.
    10030    2    1    2    0    0  0.00000000000E+00  0.00000000000E+00 -0.10151049607E+04  0.14263126811E+04  0.10019629648E+04 0.  0.
        2    1    3    3  502    0 -0.34117124493E+03  0.31677785734E+03 -0.77094729714E+03  0.90061410396E+03  0.25500000920E-02 0. -1.
       -2    1    3    3    0  502  0.34117124493E+03 -0.31677785734E+03 -0.24415766360E+03  0.52569857711E+03  0.25500000920E-02 0.  1.
</event>
<event>
 5   0  0.1240503E-02  0.1033057E+04  0.7818609E-02  0.9273013E-01
       -2   -1    0    0    0  501  0.00000000000E+00  0.00000000000E+00  0.33765765551E+03  0.33765765552E+03  0.25500000920E-02 0. -1.
        2   -1    0    0  501    0  0.00000000000E+00  0.00000000000E+00 -0.79015472469E+03  0.79015472469E+03  0.25500000920E-02 0.  1.
    10030    2    1    2    0    0  0.00000000000E+00  0.00000000000E+00 -0.45249706918E+03  0.11278123802E+04  0.10330571946E+04 0.  0.
        1    1    3    3  502    0  0.14723622657E+03  0.41714482449E+03 -0.51737953937E+03  0.68071278730E+03  0.50400001928E-02 0.  1.
       -1    1    3    3    0  502 -0.14723622657E+03 -0.41714482449E+03  0.64882470193E+02  0.44709959291E+03  0.50400001928E-02 0. -1.
</event>
<event>
 5   0  0.1221315E-02  0.9899477E+03  0.7818609E-02  0.9319639E-01
       -2   -1    0    0    0  501  0.00000000000E+00  0.00000000000E+00  0.18149446501E+03  0.18149446503E+03  0.25500000920E-02 0.  1.
        2   -1    0    0  501    0  0.00000000000E+00  0.00000000000E+00 -0.13498985126E+04  0.13498985126E+04  0.25500000920E-02 0. -1.
    10030    2    1    2    0    0  0.00000000000E+00  0.00000000000E+00 -0.11684040475E+04  0.15313929776E+04  0.98994769229E+03 0.  0.
        5    1    3    3  502    0 -0.25640002183E+03  0.32691859083E+03 -0.16807633266E+03  0.44820584537E+03  0.46999998093E+01 0.  1.
       -5    1    3    3    0  502  0.25640002183E+03 -0.32691859083E+03 -0.10003277149E+04  0.10831871322E+04  0.46999998093E+01 0. -1.
</event>
<event>
 5   0  0.7241200E-03  0.9911903E+03  0.7818609E-02  0.9318260E-01
        1   -1    0    0  501    0  0.00000000000E+00  0.00000000000E+00  0.39201804066E+03  0.39201804070E+03  0.50400001928E-02 0. -1.
       -1   -1    0    0    0  501  0.00000000000E+00  0.00000000000E+00 -0.62653887919E+03  0.62653887921E+03  0.50400001928E-02 0.  1.
    10030    2    1    2    0    0  0.00000000000E+00  0.00000000000E+00 -0.23452083853E+03  0.10185569199E+04  0.99119028213E+03 0.  0.
        4    1    3    3  502    0 -0.43263725269E+03  0.20639631925E+03 -0.24658624628E+03  0.53905549136E+03  0.12699999809E+01 0.  1.
       -4    1    3    3    0  502  0.43263725269E+03 -0.20639631925E+03  0.12065407753E+02  0.47950142855E+03  0.12699999809E+01 0. -1.
</event>
<event>
 5   0  0.1240503E-02  0.9775040E+03  0.7818609E-02  0.9333568E-01
       -2   -1    0    0    0  501  0.00000000000E+00  0.00000000000E+00  0.10752022533E+03  0.10752022536E+03  0.25500000920E-02 0.  1.
        2   -1    0    0  501    0  0.00000000000E+00  0.00000000000E+00 -0.22217078940E+04  0.22217078940E+04  0.25500000920E-02 0. -1.
    10030    2    1    2    0    0  0.00000000000E+00  0.00000000000E+00 -0.21141876687E+04  0.23292281194E+04  0.97750403256E+03 0.  0.
        1    1    3    3  502    0 -0.95971667451E+02  0.44699347324E+02  0.79869119331E+02  0.13261850871E+03  0.50400001928E-02 0.  1.
       -1    1    3    3    0  502  0.95971667451E+02 -0.44699347324E+02 -0.21940567880E+04  0.21966096106E+04  0.50400001928E-02 0. -1.
</event>
<event>
 5   0  0.7073004E-03  0.9430839E+03  0.7818609E-02  0.9373271E-01
       -1   -1    0    0    0  501  0.00000000000E+00  0.00000000000E+00  0.40222691396E+03  0.40222691400E+03  0.50400001928E-02 0.  1.
        1   -1    0    0  501    0  0.00000000000E+00  0.00000000000E+00 -0.55280195448E+03  0.55280195450E+03  0.50400001928E-02 0. -1.
    10030    2    1    2    0    0  0.00000000000E+00  0.00000000000E+00 -0.15057504052E+03  0.95502886850E+03  0.94308392884E+03 0.  0.
        1    1    3    3  502    0  0.40153612275E+03 -0.14075500660E+03 -0.28110694709E+03  0.50996504340E+03  0.50400001928E-02 0. -1.
       -1    1    3    3    0  502 -0.40153612275E+03  0.14075500660E+03  0.13053190657E+03  0.44506382511E+03  0.50400001928E-02 0.  1.
</event>
<event>
 5   0  0.1240503E-02  0.9653613E+03  0.7818609E-02  0.9347374E-01
        2   -1    0    0  501    0  0.00000000000E+00  0.00000000000E+00  0.80010892728E+03  0.80010892728E+03  0.25500000920E-02 0. -1.
       -2   -1    0    0    0  501  0.00000000000E+00  0.00000000000E+00 -0.29118613479E+03  0.29118613481E+03  0.25500000920E-02 0.  1.
    10030    2    1    2    0    0  0.00000000000E+00  0.00000000000E+00  0.50892279249E+03  0.10912950621E+04  0.96536133330E+03 0.  0.
        1    1    3    3  502    0 -0.28513643646E+02 -0.53387286286E+02  0.79580223444E+03  0.79810051157E+03  0.50400001928E-02 0. -1.
       -1    1    3    3    0  502  0.28513643646E+02  0.53387286286E+02 -0.28687944195E+03  0.29319455052E+03  0.50400001928E-02 0.  1.
</event>
<event>
 5   0  0.7241200E-03  0.6468621E+03  0.7818609E-02  0.9812685E-01
       -1   -1    0    0    0  501  0.00000000000E+00  0.00000000000E+00  0.38825448861E+02  0.38825449188E+02  0.50400001928E-02 0. -1.
        1   -1    0    0  501    0  0.00000000000E+00  0.00000000000E+00 -0.26943058029E+04  0.26943058029E+04  0.50400001928E-02 0.  1.
    10030    2    1    2    0    0  0.00000000000E+00  0.00000000000E+00 -0.26554803541E+04  0.27331312521E+04  0.64686206450E+03 0.  0.
        4    1    3    3  502    0 -0.25098086975E+03  0.17144130581E+03 -0.17948605979E+04  0.18204147047E+04  0.12699999809E+01 0.  1.
       -4    1    3    3    0  502  0.25098086975E+03 -0.17144130581E+03 -0.86061975616E+03  0.91271654741E+03  0.12699999809E+01 0. -1.
</event>
<event>
 5   0  0.1216322E-02  0.1000624E+04  0.7818609E-02  0.9307860E-01
        2   -1    0    0  501    0  0.00000000000E+00  0.00000000000E+00  0.89801219609E+03  0.89801219609E+03  0.25500000920E-02 0.  1.
       -2   -1    0    0    0  501  0.00000000000E+00  0.00000000000E+00 -0.27874031571E+03  0.27874031572E+03  0.25500000920E-02 0. -1.
    10030    2    1    2    0    0  0.00000000000E+00  0.00000000000E+00  0.61927188038E+03  0.11767525118E+04  0.10006242113E+04 0.  0.
        2    1    3    3  502    0 -0.45379954870E+03  0.20893335145E+03  0.34130180159E+03  0.60504057345E+03  0.25500000920E-02 0.  1.
       -2    1    3    3    0  502  0.45379954870E+03 -0.20893335145E+03  0.27797007879E+03  0.57171193836E+03  0.25500000920E-02 0. -1.
</event>
<event>
 5   0  0.1216322E-02  0.1005657E+04  0.7818609E-02  0.9302362E-01
       -2   -1    0    0    0  501  0.00000000000E+00  0.00000000000E+00  0.38471039391E+03  0.38471039391E+03  0.25500000920E-02 0. -1.
        2   -1    0    0  501    0  0.00000000000E+00  0.00000000000E+00 -0.65721302659E+03  0.65721302659E+03  0.25500000920E-02 0.  1.
    10030    2    1    2    0    0  0.00000000000E+00  0.00000000000E+00 -0.27250263268E+03  0.10419234205E+04  0.10056573618E+04 0.  0.
        2    1    3    3  502    0 -0.74355665340E+02 -0.35532555389E+03  0.22422036512E+03  0.42668464509E+03  0.25500000920E-02 0. -1.
       -2    1    3    3    0  502  0.74355665340E+02  0.35532555389E+03 -0.49672299781E+03  0.61523877541E+03  0.25500000920E-02 0.  1.
</event>
<event>
 5   0  0.7241200E-03  0.1001457E+04  0.7818609E-02  0.9306949E-01
       -1   -1    0    0    0  501  0.00000000000E+00  0.00000000000E+00  0.36023378012E+03  0.36023378016E+03  0.50400001928E-02 0.  1.
        1   -1    0    0  501    0  0.00000000000E+00  0.00000000000E+00 -0.69601702230E+03  0.69601702232E+03  0.50400001928E-02 0. -1.
    10030    2    1    2    0    0  0.00000000000E+00  0.00000000000E+00 -0.33578324218E+03  0.10562508025E+04  0.10014566251E+04 0.  0.
        4    1    3    3  502    0  0.18351333194E+03 -0.46559311737E+03 -0.15046053280E+03  0.52258403992E+03  0.12699999809E+01 0. -1.
       -4    1    3    3    0  502 -0.18351333194E+03  0.46559311737E+03 -0.18532270938E+03  0.53366676256E+03  0.12699999809E+01 0.  1.
</event>
<event>
 5   0  0.6967681E-03  0.9992330E+03  0.7818609E-02  0.9309386E-01
       -1   -1    0    0    0  501  0.00000000000E+00  0.00000000000E+00  0.32394802187E+03  0.32394802191E+03  0.50400001928E-02 0.  1.
        1   -1    0    0  501    0  0.00000000000E+00  0.00000000000E+00 -0.77054530655E+03  0.77054530656E+03  0.50400001928E-02 0. -1.
    10030    2    1    2    0    0  0.00000000000E+00  0.00000000000E+00 -0.44659728467E+03  0.10944933285E+04  0.99923296153E+03 0.  0.
        5    1    3    3  502    0 -0.41245570692E+03 -0.80006747899E+02  0.72793620176E+02  0.42642911605E+03  0.46999998093E+01 0.  1.
       -5    1    3    3    0  502  0.41245570692E+03  0.80006747899E+02 -0.51939090485E+03  0.66806421242E+03  0.46999998093E+01 0. -1.
</event>
<event>
 5   0  0.4782125E-03  0.9945521E+03  0.7818609E-02  0.9314540E-01
       -4   -1    0    0    0  501  0.00000000000E+00  0.00000000000E+00  0.57132398163E+03  0.57132539317E+03  0.12699999809E+01 0. -1.
        4   -1    0    0  501    0  0.00000000000E+00  0.00000000000E+00 -0.43282239523E+03  0.43282425846E+03  0.12699999809E+01 0.  1.
    10030    2    1    2    0    0  0.00000000000E+00  0.00000000000E+00  0.13850158640E+03  0.10041496516E+04  0.99455207679E+03 0.  0.
        5    1    3    3  502    0 -0.60603709927E+02 -0.79293285765E+01 -0.42899460890E+03  0.43335222207E+03  0.46999998093E+01 0.  1.
       -5    1    3    3    0  502  0.60603709927E+02  0.79293285765E+01  0.56749619531E+03  0.57079742956E+03  0.46999998093E+01 0. -1.
</event>
<event>
 5   0  0.1245850E-02  0.1000927E+04  0.7818609E-02  0.9307528E-01
       -2   -1    0    0    0  501  0.00000000000E+00  0.00000000000E+00  0.14378823477E+04  0.14378823477E+04  0.25500000920E-02 0.  1.
        2   -1    0    0  501    0  0.00000000000E+00  0.00000000000E+00 -0.17418940491E+03  0.17418940493E+03  0.25500000920E-02 0. -1.
    10030    2    1    2    0    0  0.00000000000E+00  0.00000000000E+00  0.12636929428E+04  0.16120717526E+04  0.10009273110E+04 0.  0.
        3    1    3    3  502    0  0.66500188843E+02  0.36321216477E+03  0.87770091444E+02  0.37953781222E+03  0.10100000352E+00 0. -1.
       -3    1    3    3    0  502 -0.66500188843E+02 -0.36321216477E+03  0.11759228514E+04  0.12325339404E+04  0.10100000352E+00 0.  1.
</event>
<event>
 5   0  0.7461157E-03  0.1001727E+04  0.7818609E-02  0.9306653E-01
       -1   -1    0    0    0  501  0.00000000000E+00  0.00000000000E+00  0.54587603189E+03  0.54587603191E+03  0.50400001928E-02 0.  1.
        1   -1    0    0  501    0  0.00000000000E+00  0.00000000000E+00 -0.45956262714E+03  0.45956262717E+03  0.50400001928E-02 0. -1.
    10030    2    1    2    0    0  0.00000000000E+00  0.00000000000E+00  0.86313404741E+02  0.10054386591E+04  0.10017269555E+04 0.  0.
        2    1    3    3  502    0  0.42965988719E+03  0.13334007717E+03 -0.17783410823E+03  0.48374803864E+03  0.25500000920E-02 0. -1.
       -2    1    3    3    0  502 -0.42965988719E+03 -0.13334007717E+03  0.26414751297E+03  0.52169062044E+03  0.25500000920E-02 0.  1.
</event>
<event>
 5   0  0.7073004E-03  0.9905063E+03  0.7818609E-02  0.9319019E-01
       -1   -1    0    0    0  501  0.00000000000E+00  0.00000000000E+00  0.20270021714E+03  0.20270021720E+03  0.50400001928E-02 0.  1.
        1   -1    0    0  501    0  0.00000000000E+00  0.00000000000E+00 -0.12100414949E+04  0.12100414950E+04  0.50400001928E-02 0. -1.
    10030    2    1    2    0    0  0.00000000000E+00  0.00000000000E+00 -0.10073412778E+04  0.14127417122E+04  0.99050628232E+03 0.  0.
        1    1    3    3  502    0  0.43285223919E+03 -0.61644166935E+02 -0.83546026136E+03  0.94295011142E+03  0.50400001928E-02 0. -1.
       -1    1    3    3    0  502 -0.43285223919E+03  0.61644166935E+02 -0.17188101645E+03  0.46979160075E+03  0.50400001928E-02 0.  1.
</event>
<event>
 5   0  0.1240503E-02  0.1016562E+04  0.7818609E-02  0.9290564E-01
        2   -1    0    0  501    0  0.00000000000E+00  0.00000000000E+00  0.49362814270E+03  0.49362814271E+03  0.25500000920E-02 0.  1.
       -2   -1    0    0    0  501  0.00000000000E+00  0.00000000000E+00 -0.52336858525E+03  0.52336858526E+03  0.25500000920E-02 0. -1.
    10030    2    1    2    0    0  0.00000000000E+00  0.00000000000E+00 -0.29740442551E+02  0.10169967280E+04  0.10165617791E+04 0.  0.
        1    1    3    3  502    0 -0.31362453775E+02 -0.17169192693E+03 -0.49245036369E+03  0.52246443133E+03  0.50400001928E-02 0. -1.
       -1    1    3    3    0  502  0.31362453775E+02  0.17169192693E+03  0.46270992114E+03  0.49453229664E+03  0.50400001928E-02 0.  1.
</event>
<event>
 5   0  0.6967681E-03  0.1010491E+04  0.7818609E-02  0.9297113E-01
       -1   -1    0    0    0  501  0.00000000000E+00  0.00000000000E+00  0.54740090101E+03  0.54740090103E+03  0.50400001928E-02 0.  1.
        1   -1    0    0  501    0  0.00000000000E+00  0.00000000000E+00 -0.46633637967E+03  0.46633637969E+03  0.50400001928E-02 0. -1.
    10030    2    1    2    0    0  0.00000000000E+00  0.00000000000E+00  0.81064521342E+02  0.10137372807E+04  0.10104908796E+04 0.  0.
        5    1    3    3  502    0  0.36521608164E+03  0.15783347976E+03  0.35291128745E+03  0.53184834345E+03  0.46999998093E+01 0.  1.
       -5    1    3    3    0  502 -0.36521608164E+03 -0.15783347976E+03 -0.27184676611E+03  0.48188893727E+03  0.46999998093E+01 0. -1.
</event>
<event>
 5   0  0.6967681E-03  0.1016613E+04  0.7818609E-02  0.9290509E-01
        1   -1    0    0  501    0  0.00000000000E+00  0.00000000000E+00  0.95755608499E+03  0.95755608501E+03  0.50400001928E-02 0.  1.
       -1   -1    0    0    0  501  0.00000000000E+00  0.00000000000E+00 -0.26982799274E+03  0.26982799279E+03  0.50400001928E-02 0. -1.
    10030    2    1    2    0    0  0.00000000000E+00  0.00000000000E+00  0.68772809225E+03  0.12273840778E+04  0.10166128789E+04 0.  0.
        5    1    3    3  502    0  0.95631791830E+02 -0.37564509372E+03 -0.53085266177E+02  0.39127332074E+03  0.46999998093E+01 0.  1.
       -5    1    3    3    0  502 -0.95631791830E+02  0.37564509372E+03  0.74081335843E+03  0.83611075705E+03  0.46999998093E+01 0. -1.
</event>
<event>
 5   0  0.1216322E-02  0.1031132E+04  0.7818609E-02  0.9275043E-01
       -2   -1    0    0    0  501  0.00000000000E+00  0.00000000000E+00  0.36349634446E+03  0.36349634447E+03  0.25500000920E-02 0. -1.
        2   -1    0    0  501    0  0.00000000000E+00  0.00000000000E+00 -0.73125483513E+03  0.73125483513E+03  0.25500000920E-02 0.  1.
    10030    2    1    2    0    0  0.00000000000E+00  0.00000000000E+00 -0.36775849066E+03  0.10947511796E+04  0.10311323086E+04 0.  0.
        2    1    3    3  502    0 -0.37399599148E+03 -0.35216614503E+03 -0.23033340836E+03  0.56298088276E+03  0.25500000920E-02 0.  1.
       -2    1    3    3    0  502  0.37399599148E+03  0.35216614503E+03 -0.13742508231E+03  0.53177029684E+03  0.25500000920E-02 0. -1.
</event>
<event>
 5   0  0.1216322E-02  0.9836156E+03  0.7818609E-02  0.9326700E-01
       -2   -1    0    0    0  501  0.00000000000E+00  0.00000000000E+00  0.11629221425E+03  0.11629221428E+03  0.25500000920E-02 0. -1.
        2   -1    0    0  501    0  0.00000000000E+00  0.00000000000E+00 -0.20798892403E+04  0.20798892404E+04  0.25500000920E-02 0.  1.
    10030    2    1    2    0    0  0.00000000000E+00  0.00000000000E+00 -0.19635970261E+04  0.21961814546E+04  0.98361562653E+03 0.  0.
        2    1    3    3  502    0 -0.83050988751E+01 -0.28122112269E+03 -0.18824652204E+04  0.19033732163E+04  0.25500000920E-02 0.  1.
       -2    1    3    3    0  502  0.83050988751E+01  0.28122112269E+03 -0.81131805662E+02  0.29280823829E+03  0.25500000920E-02 0. -1.
</event>
<event>
 5   0  0.7224879E-03  0.8903118E+03  0.7818609E-02  0.9437774E-01
       -1   -1    0    0    0  501  0.00000000000E+00  0.00000000000E+00  0.68837489946E+03  0.68837489948E+03  0.50400001928E-02 0.  1.
        1   -1    0    0  501    0  0.00000000000E+00  0.00000000000E+00 -0.28787185445E+03  0.28787185449E+03  0.50400001928E-02 0. -1.
    10030    2    1    2    0    0  0.00000000000E+00  0.00000000000E+00  0.40050304501E+03  0.97624675397E+03  0.89031176313E+03 0.  0.
        3    1    3    3  502    0  0.25323843258E+03  0.13190091409E+03 -0.17423324822E+03  0.33449183826E+03  0.10100000352E+00 0. -1.
       -3    1    3    3    0  502 -0.25323843258E+03 -0.13190091409E+03  0.57473629324E+03  0.64175491571E+03  0.10100000352E+00 0.  1.
</event>
<event>
 5   0  0.1221315E-02  0.9999633E+03  0.7818609E-02  0.9308585E-01
        2   -1    0    0  501    0  0.00000000000E+00  0.00000000000E+00  0.26229443299E+04  0.26229443299E+04  0.25500000920E-02 0.  1.
       -2   -1    0    0    0  501  0.00000000000E+00  0.00000000000E+00 -0.95305736822E+02  0.95305736856E+02  0.25500000920E-02 0. -1.
    10030    2    1    2    0    0  0.00000000000E+00  0.00000000000E+00  0.25276385931E+04  0.27182500668E+04  0.99996328343E+03 0.  0.
        5    1    3    3  502    0 -0.42451363111E+03  0.25241771898E+03  0.10526781443E+04  0.11627897030E+04  0.46999998093E+01 0.  1.
       -5    1    3    3    0  502  0.42451363111E+03 -0.25241771898E+03  0.14749604488E+04  0.15554603638E+04  0.46999998093E+01 0. -1.
</event>
<event>
 5   0  0.7241200E-03  0.9997829E+03  0.7818609E-02  0.9308783E-01
        1   -1    0    0  501    0  0.00000000000E+00  0.00000000000E+00  0.43417527122E+03  0.43417527125E+03  0.50400001928E-02 0. -1.
       -1   -1    0    0    0  501  0.00000000000E+00  0.00000000000E+00 -0.57555429678E+03  0.57555429680E+03  0.50400001928E-02 0.  1.
    10030    2    1    2    0    0  0.00000000000E+00  0.00000000000E+00 -0.14137902556E+03  0.10097295681E+04  0.99978286229E+03 0.  0.
        4    1    3    3  502    0 -0.44217825768E+02  0.44375241151E+03  0.15743021823E+03  0.47292420677E+03  0.12699999809E+01 0.  1.
       -4    1    3    3    0  502  0.44217825768E+02 -0.44375241151E+03 -0.29880924379E+03  0.53680536129E+03  0.12699999809E+01 0. -1.
</event>
<event>
 5   0  0.1216322E-02  0.9460448E+03  0.7818609E-02  0.9369786E-01
       -2   -1    0    0    0  501  0.00000000000E+00  0.00000000000E+00  0.22996757023E+03  0.22996757025E+03  0.25500000920E-02 0. -1.
        2   -1    0    0  501    0  0.00000000000E+00  0.00000000000E+00 -0.97296419147E+03  0.97296419147E+03  0.25500000920E-02 0.  1.
    10030    2    1    2    0    0  0.00000000000E+00  0.00000000000E+00 -0.74299662124E+03  0.12029317617E+04  0.94604484258E+03 0.  0.
        2    1    3    3  502    0 -0.27094040236E+03  0.27332786756E+03 -0.72119058839E+03  0.81745500769E+03  0.25500000920E-02 0.  1.
       -2    1    3    3    0  502  0.27094040236E+03 -0.27332786756E+03 -0.21806032852E+02  0.38547675402E+03  0.25500000920E-02 0. -1.
</event>
<event>
 5   0  0.7224879E-03  0.1028785E+04  0.7818609E-02  0.9277526E-01
        1   -1    0    0  501    0  0.00000000000E+00  0.00000000000E+00  0.79343976103E+03  0.79343976105E+03  0.50400001928E-02 0.  1.
       -1   -1    0    0    0  501  0.00000000000E+00  0.00000000000E+00 -0.33348409543E+03  0.33348409547E+03  0.50400001928E-02 0. -1.
    10030    2    1    2    0    0  0.00000000000E+00  0.00000000000E+00  0.45995566560E+03  0.11269238565E+04  0.10287847997E+04 0.  0.
        3    1    3    3  502    0  0.49280985811E+03 -0.13239656571E+03  0.15891117501E+03  0.53445596508E+03  0.10100000352E+00 0. -1.
       -3    1    3    3    0  502 -0.49280985811E+03  0.13239656571E+03  0.30104449059E+03  0.59246789144E+03  0.10100000352E+00 0.  1.
</event>
<event>
 5   0  0.6967681E-03  0.9865736E+03  0.7818609E-02  0.9323394E-01
        1   -1    0    0  501    0  0.00000000000E+00  0.00000000000E+00  0.73999266101E+03  0.73999266103E+03  0.50400001928E-02 0. -1.
       -1   -1    0    0    0  501  0.00000000000E+00  0.00000000000E+00 -0.32883010960E+03  0.32883010964E+03  0.50400001928E-02 0.  1.
    10030    2    1    2    0    0  0.00000000000E+00  0.00000000000E+00  0.41116255141E+03  0.10688227707E+04  0.98657360163E+03 0.  0.
        5    1    3    3  502    0  0.21570799881E+03  0.38663044733E+03 -0.30027674702E+02  0.44377561312E+03  0.46999998093E+01 0.  1.
       -5    1    3    3    0  502 -0.21570799881E+03 -0.38663044733E+03  0.44119022611E+03  0.62504715755E+03  0.46999998093E+01 0. -1.
</event>
<event>
 5   0  0.7461157E-03  0.9890164E+03  0.7818609E-02  0.9320674E-01
        1   -1    0    0  501    0  0.00000000000E+00  0.00000000000E+00  0.72936292420E+03  0.72936292422E+03  0.50400001928E-02 0. -1.
       -1   -1    0    0    0  501  0.00000000000E+00  0.00000000000E+00 -0.33527667409E+03  0.33527667413E+03  0.50400001928E-02 0.  1.
    10030    2    1    2    0    0  0.00000000000E+00  0.00000000000E+00  0.39408625011E+03  0.10646395983E+04  0.98901643153E+03 0.  0.
        2    1    3    3  502    0 -0.40183867963E+03  0.24921399463E+03  0.41210703353E+02  0.47463697880E+03  0.25500000920E-02 0.  1.
       -2    1    3    3    0  502  0.40183867963E+03 -0.24921399463E+03  0.35287554676E+03  0.59000261955E+03  0.25500000920E-02 0. -1.
</event>
<event>
 5   0  0.6967681E-03  0.9956888E+03  0.7818609E-02  0.9313286E-01
       -1   -1    0    0    0  501  0.00000000000E+00  0.00000000000E+00  0.41257027955E+03  0.41257027958E+03  0.50400001928E-02 0.  1.
        1   -1    0    0  501    0  0.00000000000E+00  0.00000000000E+00 -0.60074382588E+03  0.60074382590E+03  0.50400001928E-02 0. -1.
    10030    2    1    2    0    0  0.00000000000E+00  0.00000000000E+00 -0.18817354633E+03  0.10133141055E+04  0.99568880321E+03 0.  0.
        5    1    3    3  502    0 -0.11603505079E+03  0.13303301966E+03  0.37962577217E+03  0.41868811092E+03  0.46999998093E+01 0.  1.
       -5    1    3    3    0  502  0.11603505079E+03 -0.13303301966E+03 -0.56779931850E+03  0.59462599457E+03  0.46999998093E+01 0. -1.
</event>
<event>
 5   0  0.1216322E-02  0.9992168E+03  0.7818609E-02  0.9309404E-01
        2   -1    0    0  501    0  0.00000000000E+00  0.00000000000E+00  0.15848267379E+03  0.15848267381E+03  0.25500000920E-02 0. -1.
       -2   -1    0    0    0  501  0.00000000000E+00  0.00000000000E+00 -0.15749893874E+04  0.15749893874E+04  0.25500000920E-02 0.  1.
    10030    2    1    2    0    0  0.00000000000E+00  0.00000000000E+00 -0.14165067136E+04  0.17334720612E+04  0.99921675190E+03 0.  0.
        2    1    3    3  502    0 -0.28816101123E+03 -0.20066582562E+03 -0.13248020617E+04  0.13705488115E+04  0.25500000920E-02 0.  1.
       -2    1    3    3    0  502  0.28816101123E+03  0.20066582562E+03 -0.91704651828E+02  0.36292324965E+03  0.25500000920E-02 0. -1.
</event>
<event>
 5   0  0.1216322E-02  0.1014498E+04  0.7818609E-02  0.9292785E-01
        2   -1    0    0  501    0  0.00000000000E+00  0.00000000000E+00  0.12431222574E+04  0.12431222574E+04  0.25500000920E-02 0. -1.
       -2   -1    0    0    0  501  0.00000000000E+00  0.00000000000E+00 -0.20698003277E+03  0.20698003279E+03  0.25500000920E-02 0.  1.
    10030    2    1    2    0    0  0.00000000000E+00  0.00000000000E+00  0.10361422246E+04  0.14501022902E+04  0.10144978769E+04 0.  0.
        2    1    3    3  502    0  0.28870115274E+02  0.50597351647E+03  0.48745426603E+03  0.70317447651E+03  0.25500000920E-02 0. -1.
       -2    1    3    3    0  502 -0.28870115274E+02 -0.50597351647E+03  0.54868795857E+03  0.74692781366E+03  0.25500000920E-02 0.  1.
</event>
<event>
 5   0  0.7241200E-03  0.9726893E+03  0.7818609E-02  0.9339017E-01
        1   -1    0    0  501    0  0.00000000000E+00  0.00000000000E+00  0.66231673280E+03  0.66231673282E+03  0.50400001928E-02 0.  1.
       -1   -1    0    0    0  501  0.00000000000E+00  0.00000000000E+00 -0.35712687794E+03  0.35712687797E+03  0.50400001928E-02 0. -1.
    10030    2    1    2    0    0  0.00000000000E+00  0.00000000000E+00  0.30518985486E+03  0.10194436108E+04  0.97268927622E+03 0.  0.
        4    1    3    3  502    0  0.39875791689E+03 -0.25130199179E+01 -0.13920340373E+03  0.42236641919E+03  0.12699999809E+01 0. -1.
       -4    1    3    3    0  502 -0.39875791689E+03  0.25130199179E+01  0.44439325859E+03  0.59707719160E+03  0.12699999809E+01 0.  1.
</event>
<event>
 5   0  0.1191822E-02  0.1014984E+04  0.7818609E-02  0.9292261E-01
        2   -1    0    0  501    0  0.00000000000E+00  0.00000000000E+00  0.31900234786E+03  0.31900234787E+03  0.25500000920E-02 0. -1.
       -2   -1    0    0    0  501  0.00000000000E+00  0.00000000000E+00 -0.80735520287E+03  0.80735520287E+03  0.25500000920E-02 0.  1.
    10030    2    1    2    0    0  0.00000000000E+00  0.00000000000E+00 -0.48835285501E+03  0.11263575507E+04  0.10149841482E+04 0.  0.
        4    1    3    3  502    0  0.13931053099E+03 -0.17485606027E+03 -0.74976073039E+03  0.78238406911E+03  0.12699999809E+01 0.  1.
       -4    1    3    3    0  502 -0.13931053099E+03  0.17485606027E+03  0.26140787538E+03  0.34397348164E+03  0.12699999809E+01 0. -1.
</event>
<event>
 5   0  0.6967681E-03  0.9930814E+03  0.7818609E-02  0.9316166E-01
       -1   -1    0    0    0  501  0.00000000000E+00  0.00000000000E+00  0.37096525077E+03  0.37096525080E+03  0.50400001928E-02 0. -1.
        1   -1    0    0  501    0  0.00000000000E+00  0.00000000000E+00 -0.66462470543E+03  0.66462470545E+03  0.50400001928E-02 0.  1.
    10030    2    1    2    0    0  0.00000000000E+00  0.00000000000E+00 -0.29365945466E+03  0.10355899562E+04  0.99308140762E+03 0.  0.
        5    1    3    3  502    0 -0.23411097416E+03  0.43638508162E+03 -0.10936570248E+03  0.50717140550E+03  0.46999998093E+01 0. -1.
       -5    1    3    3    0  502  0.23411097416E+03 -0.43638508162E+03 -0.18429375218E+03  0.52841855075E+03  0.46999998093E+01 0.  1.
</event>
<event>
 5   0  0.6967681E-03  0.1049522E+04  0.7818609E-02  0.9255838E-01
        1   -1    0    0  501    0  0.00000000000E+00  0.00000000000E+00  0.24125822603E+03  0.24125822609E+03  0.50400001928E-02 0.  1.
       -1   -1    0    0    0  501  0.00000000000E+00  0.00000000000E+00 -0.11414083512E+04  0.11414083512E+04  0.50400001928E-02 0. -1.
    10030    2    1    2    0    0  0.00000000000E+00  0.00000000000E+00 -0.90015012520E+03  0.13826665773E+04  0.10495220894E+04 0.  0.
        5    1    3    3  502    0  0.10933845936E+03  0.44943665900E+03 -0.77653034446E+03  0.90386374804E+03  0.46999998093E+01 0. -1.
       -5    1    3    3    0  502 -0.10933845936E+03 -0.44943665900E+03 -0.12361978074E+03  0.47880282929E+03  0.46999998093E+01 0.  1.
</event>
<event>
 5   0  0.7224879E-03  0.1007601E+04  0.7818609E-02  0.9300247E-01
        1   -1    0    0  501    0  0.00000000000E+00  0.00000000000E+00  0.50608659112E+03  0.50608659115E+03  0.50400001928E-02 0. -1.
       -1   -1    0    0    0  501  0.00000000000E+00  0.00000000000E+00 -0.50152503675E+03  0.50152503678E+03  0.50400001928E-02 0.  1.
    10030    2    1    2    0    0  0.00000000000E+00  0.00000000000E+00  0.45615543680E+01  0.10076116279E+04  0.10076013026E+04 0.  0.
        3    1    3    3  502    0  0.98701210145E+02  0.49213578555E+03  0.45588561338E+02  0.50400187245E+03  0.10100000352E+00 0. -1.
       -3    1    3    3    0  502 -0.98701210145E+02 -0.49213578555E+03 -0.41027006970E+02  0.50360975547E+03  0.10100000352E+00 0.  1.
</event>
<event>
 5   0  0.1216322E-02  0.9933817E+03  0.7818609E-02  0.9315834E-01
        2   -1    0    0  501    0  0.00000000000E+00  0.00000000000E+00  0.21547628269E+04  0.21547628269E+04  0.25500000920E-02 0. -1.
       -2   -1    0    0    0  501  0.00000000000E+00  0.00000000000E+00 -0.11449139196E+03  0.11449139198E+03  0.25500000920E-02 0.  1.
    10030    2    1    2    0    0  0.00000000000E+00  0.00000000000E+00  0.20402714349E+04  0.22692542189E+04  0.99338168982E+03 0.  0.
        2    1    3    3  502    0 -0.49208768416E+03 -0.55905000166E+02  0.93386812140E+03  0.10570644853E+04  0.25500000920E-02 0.  1.
       -2    1    3    3    0  502  0.49208768416E+03  0.55905000166E+02  0.11064033135E+04  0.12121897336E+04  0.25500000920E-02 0. -1.
</event>
<event>
 5   0  0.7073004E-03  0.1038571E+04  0.7818609E-02  0.9267224E-01
        1   -1    0    0  501    0  0.00000000000E+00  0.00000000000E+00  0.43591888925E+03  0.43591888928E+03  0.50400001928E-02 0. -1.
       -1   -1    0    0    0  501  0.00000000000E+00  0.00000000000E+00 -0.61859563649E+03  0.61859563651E+03  0.50400001928E-02 0.  1.
    10030    2    1    2    0    0  0.00000000000E+00  0.00000000000E+00 -0.18267674724E+03  0.10545145258E+04  0.10385711777E+04 0.  0.
        1    1    3    3  502    0 -0.15905445947E+03  0.17086933495E+02  0.41027723761E+03  0.44036087031E+03  0.50400001928E-02 0. -1.
       -1    1    3    3    0  502  0.15905445947E+03 -0.17086933495E+02 -0.59295398484E+03  0.61415365548E+03  0.50400001928E-02 0.  1.
</event>
<event>
 5   0  0.1216322E-02  0.9135203E+03  0.7818609E-02  0.9408836E-01
       -2   -1    0    0    0  501  0.00000000000E+00  0.00000000000E+00  0.42707396189E+03  0.42707396190E+03  0.25500000920E-02 0.  1.
        2   -1    0    0  501    0  0.00000000000E+00  0.00000000000E+00 -0.48850981913E+03  0.48850981914E+03  0.25500000920E-02 0. -1.
    10030    2    1    2    0    0  0.00000000000E+00  0.00000000000E+00 -0.61435857241E+02  0.91558378104E+03  0.91352027648E+03 0.  0.
        2    1    3    3  502    0  0.33348071873E+03 -0.23044585760E+03  0.18026920223E+03  0.44363461128E+03  0.25500000920E-02 0. -1.
       -2    1    3    3    0  502 -0.33348071873E+03  0.23044585760E+03 -0.24170505947E+03  0.47194916975E+03  0.25500000920E-02 0.  1.
</event>
<event>
 5   0  0.1216322E-02  0.9689734E+03  0.7818609E-02  0.9343244E-01
       -2   -1    0    0    0  501  0.00000000000E+00  0.00000000000E+00  0.17381804204E+03  0.17381804206E+03  0.25500000920E-02 0.  1.
        2   -1    0    0  501    0  0.00000000000E+00  0.00000000000E+00 -0.13504199725E+04  0.13504199725E+04  0.25500000920E-02 0. -1.
    10030    2    1    2    0    0  0.00000000000E+00  0.00000000000E+00 -0.11766019305E+04  0.15242380146E+04  0.96897338573E+03 0.  0.
        2    1    3    3  502    0  0.39001873725E+03 -0.81752841544E+02 -0.15484459544E+03  0.42752191903E+03  0.25500000920E-02 0.  1.
       -2    1    3    3    0  502 -0.39001873725E+03  0.81752841544E+02 -0.10217573350E+04  0.10967160955E+04  0.25500000920E-02 0. -1.
</event>
<event>
 5   0  0.7224879E-03  0.1006282E+04  0.7818609E-02  0.9301682E-01
        1   -1    0    0  501    0  0.00000000000E+00  0.00000000000E+00  0.70234862996E+03  0.70234862998E+03  0.50400001928E-02 0. -1.
       -1   -1    0    0    0  501  0.00000000000E+00  0.00000000000E+00 -0.36043450134E+03  0.36043450137E+03  0.50400001928E-02 0.  1.
    10030    2    1    2    0    0  0.00000000000E+00  0.00000000000E+00  0.34191412862E+03  0.10627831314E+04  0.10062816271E+04 0.  0.
        3    1    3    3  502    0  0.45753405955E+03 -0.43279985671E+02 -0.45334616423E+02  0.46180711391E+03  0.10100000352E+00 0.  1.
       -3    1    3    3    0  502 -0.45753405955E+03  0.43279985671E+02  0.38724874505E+03  0.60097601745E+03  0.10100000352E+00 0. -1.
</event>
<event>
 5   0  0.7073004E-03  0.1011740E+04  0.7818609E-02  0.9295762E-01
       -1   -1    0    0    0  501  0.00000000000E+00  0.00000000000E+00  0.52041242371E+03  0.52041242373E+03  0.50400001928E-02 0. -1.
        1   -1    0    0  501    0  0.00000000000E+00  0.00000000000E+00 -0.49173373386E+03  0.49173373388E+03  0.50400001928E-02 0.  1.
    10030    2    1    2    0    0  0.00000000000E+00  0.00000000000E+00  0.28678689852E+02  0.10121461576E+04  0.10117397774E+04 0.  0.
        1    1    3    3  502    0  0.42748789005E+02 -0.38018419500E+03  0.34543581884E+03  0.51545454315E+03  0.50400001928E-02 0. -1.
       -1    1    3    3    0  502 -0.42748789005E+02  0.38018419500E+03 -0.31675712899E+03  0.49669161447E+03  0.50400001928E-02 0.  1.
</event>
<event>
 5   0  0.7224879E-03  0.9864750E+03  0.7818609E-02  0.9323504E-01
       -1   -1    0    0    0  501  0.00000000000E+00  0.00000000000E+00  0.23458653232E+03  0.23458653238E+03  0.50400001928E-02 0.  1.
        1   -1    0    0  501    0  0.00000000000E+00  0.00000000000E+00 -0.10370725284E+04  0.10370725284E+04  0.50400001928E-02 0. -1.
    10030    2    1    2    0    0  0.00000000000E+00  0.00000000000E+00 -0.80248599603E+03  0.12716590607E+04  0.98647503412E+03 0.  0.
        3    1    3    3  502    0  0.18448944087E+03 -0.36752887362E+03 -0.75231565609E+03  0.85737546229E+03  0.10100000352E+00 0.  1.
       -3    1    3    3    0  502 -0.18448944087E+03  0.36752887362E+03 -0.50170339940E+02  0.41428359846E+03  0.10100000352E+00 0. -1.
</event>
<event>
 5   0  0.6967681E-03  0.1008518E+04  0.7818609E-02  0.9299251E-01
        1   -1    0    0  501    0  0.00000000000E+00  0.00000000000E+00  0.29758763429E+03  0.29758763433E+03  0.50400001928E-02 0.  1.
       -1   -1    0    0    0  501  0.00000000000E+00  0.00000000000E+00 -0.85446198383E+03  0.85446198384E+03  0.50400001928E-02 0. -1.
    10030    2    1    2    0    0  0.00000000000E+00  0.00000000000E+00 -0.55687434954E+03  0.11520496182E+04  0.10085183596E+04 0.  0.
        5    1    3    3  502    0  0.78711195022E+02 -0.30123562692E+03 -0.73151732032E+03  0.79503335469E+03  0.46999998093E+01 0. -1.
       -5    1    3    3    0  502 -0.78711195022E+02  0.30123562692E+03  0.17464297079E+03  0.35701626348E+03  0.46999998093E+01 0.  1.
</event>
<event>
 5   0  0.7241200E-03  0.9890365E+03  0.7818609E-02  0.9320652E-01
        1   -1    0    0  501    0  0.00000000000E+00  0.00000000000E+00  0.14746827836E+04  0.14746827836E+04  0.50400001928E-02 0.  1.
       -1   -1    0    0    0  501  0.00000000000E+00  0.00000000000E+00 -0.16583110666E+03  0.16583110674E+03  0.50400001928E-02 0. -1.
    10030    2    1    2    0    0  0.00000000000E+00  0.00000000000E+00  0.13088516769E+04  0.16405138904E+04  0.98903645646E+03 0.  0.
        4    1    3    3  502    0  0.25814147618E+03 -0.12831654505E+03 -0.12042080650E+02  0.28852865034E+03  0.12699999809E+01 0. -1.
       -4    1    3    3    0  502 -0.25814147618E+03  0.12831654505E+03  0.13208937576E+04  0.13519852400E+04  0.12699999809E+01 0.  1.
</event>
<event>
 5   0  0.7241200E-03  0.1010587E+04  0.7818609E-02  0.9297009E-01
       -1   -1    0    0    0  501  0.00000000000E+00  0.00000000000E+00  0.17643354466E+03  0.17643354473E+03  0.50400001928E-02 0.  1.
        1   -1    0    0  501    0  0.00000000000E+00  0.00000000000E+00 -0.14471253963E+04  0.14471253963E+04  0.50400001928E-02 0. -1.
    10030    2    1    2    0    0  0.00000000000E+00  0.00000000000E+00 -0.12706918517E+04  0.16235589411E+04  0.10105868855E+04 0.  0.
        4    1    3    3  502    0 -0.27851394532E+03  0.17292523512E+03 -0.12530780874E+04  0.12952526629E+04  0.12699999809E+01 0. -1.
       -4    1    3    3    0  502  0.27851394532E+03 -0.17292523512E+03 -0.17613764225E+02  0.32830627815E+03  0.12699999809E+01 0.  1.
</event>
<event>
 5   0  0.1240503E-02  0.9990895E+03  0.7818609E-02  0.9309544E-01
       -2   -1    0    0    0  501  0.00000000000E+00  0.00000000000E+00  0.31814652745E+03  0.31814652746E+03  0.25500000920E-02 0.  1.
        2   -1    0    0  501    0  0.00000000000E+00  0.00000000000E+00 -0.78437119383E+03  0.78437119384E+03  0.25500000920E-02 0. -1.
    10030    2    1    2    0    0  0.00000000000E+00  0.00000000000E+00 -0.46622466638E+03  0.11025177213E+04  0.99908952863E+03 0.  0.
        1    1    3    3  502    0  0.19567025262E+03 -0.39368941476E+03 -0.49487466956E+03  0.66195101152E+03  0.50400001928E-02 0. -1.
       -1    1    3    3    0  502 -0.19567025262E+03  0.39368941476E+03  0.28650003175E+02  0.44056670977E+03  0.50400001928E-02 0.  1.
</event>
<event>
 5   0  0.1245850E-02  0.9926239E+03  0.7818609E-02  0.9316672E-01
       -2   -1    0    0    0  501  0.00000000000E+00  0.00000000000E+00  0.32457433092E+03  0.32457433093E+03  0.25500000920E-02 0. -1.
        2   -1    0    0  501    0  0.00000000000E+00  0.00000000000E+00 -0.75891871732E+03  0.75891871733E+03  0.25500000920E-02 0.  1.
    10030    2    1    2    0    0  0.00000000000E+00  0.00000000000E+00 -0.43434438641E+03  0.10834930483E+04  0.99262386613E+03 0.  0.
        3    1    3    3  502    0 -0.23531842334E+03  0.31264472566E+03 -0.55041346613E+03  0.67533434589E+03  0.10100000352E+00 0.  1.
       -3    1    3    3    0  502  0.23531842334E+03 -0.31264472566E+03  0.11606907972E+03  0.40815870236E+03  0.10100000352E+00 0. -1.
</event>
<event>
 5   0  0.6967681E-03  0.9896401E+03  0.7818609E-02  0.9319981E-01
       -1   -1    0    0    0  501  0.00000000000E+00  0.00000000000E+00  0.66144464980E+03  0.66144464981E+03  0.50400001928E-02 0. -1.
        1   -1    0    0  501    0  0.00000000000E+00  0.00000000000E+00 -0.37016985275E+03  0.37016985278E+03  0.50400001928E-02 0.  1.
    10030    2    1    2    0    0  0.00000000000E+00  0.00000000000E+00  0.29127479705E+03  0.10316145026E+04  0.98964007325E+03 0.  0.
        5    1    3    3  502    0 -0.28817019026E+03 -0.13411769521E+03  0.54092419330E+03  0.62741588091E+03  0.46999998093E+01 0. -1.
       -5    1    3    3    0  502  0.28817019026E+03  0.13411769521E+03 -0.24964939625E+03  0.40419862169E+03  0.46999998093E+01 0.  1.
</event>
<event>
 5   0  0.1216322E-02  0.9853710E+03  0.7818609E-02  0.9324737E-01
        2   -1    0    0  501    0  0.00000000000E+00  0.00000000000E+00  0.11783623894E+04  0.11783623894E+04  0.25500000920E-02 0.  1.
       -2   -1    0    0    0  501  0.00000000000E+00  0.00000000000E+00 -0.20599689330E+03  0.20599689332E+03  0.25500000920E-02 0. -1.
    10030    2    1    2    0    0  0.00000000000E+00  0.00000000000E+00  0.97236549611E+03  0.13843592827E+04  0.98537097870E+03 0.  0.
        2    1    3    3  502    0 -0.53447753349E+02  0.58376952970E+02  0.11693722300E+04  0.11720477564E+04  0.25500000920E-02 0.  1.
       -2    1    3    3    0  502  0.53447753349E+02 -0.58376952970E+02 -0.19700673393E+03  0.21231152629E+03  0.25500000920E-02 0. -1.
</event>
<event>
 5   0  0.1191822E-02  0.1004169E+04  0.7818609E-02  0.9303984E-01
        2   -1    0    0  501    0  0.00000000000E+00  0.00000000000E+00  0.28537803200E+03  0.28537803202E+03  0.25500000920E-02 0. -1.
       -2   -1    0    0    0  501  0.00000000000E+00  0.00000000000E+00 -0.88335020434E+03  0.88335020434E+03  0.25500000920E-02 0.  1.
    10030    2    1    2    0    0  0.00000000000E+00  0.00000000000E+00 -0.59797217233E+03  0.11687282364E+04  0.10041687964E+04 0.  0.
        4    1    3    3  502    0  0.35996671388E+03  0.22085632415E+02  0.10757727000E+03  0.37634863116E+03  0.12699999809E+01 0. -1.
       -4    1    3    3    0  502 -0.35996671388E+03 -0.22085632415E+02 -0.70554944233E+03  0.79237960519E+03  0.12699999809E+01 0.  1.
</event>
<event>
 5   0  0.7241200E-03  0.1004535E+04  0.7818609E-02  0.9303585E-01
        1   -1    0    0  501    0  0.00000000000E+00  0.00000000000E+00  0.58627130167E+03  0.58627130169E+03  0.50400001928E-02 0.  1.
       -1   -1    0    0    0  501  0.00000000000E+00  0.00000000000E+00 -0.43030014163E+03  0.43030014166E+03  0.50400001928E-02 0. -1.
    10030    2    1    2    0    0  0.00000000000E+00  0.00000000000E+00  0.15597116003E+03  0.10165714434E+04  0.10045349654E+04 0.  0.
        4    1    3    3  502    0  0.43990921705E+03 -0.22517148441E+03  0.16877506926E+03  0.52221542829E+03  0.12699999809E+01 0.  1.
       -4    1    3    3    0  502 -0.43990921705E+03  0.22517148441E+03 -0.12803909226E+02  0.49435601506E+03  0.12699999809E+01 0. -1.
</event>
<event>
 5   0  0.1221315E-02  0.9904879E+03  0.7818609E-02  0.9319039E-01
        2   -1    0    0  501    0  0.00000000000E+00  0.00000000000E+00  0.15481130121E+04  0.15481130121E+04  0.25500000920E-02 0. -1.
       -2   -1    0    0    0  501  0.00000000000E+00  0.00000000000E+00 -0.15842938222E+03  0.15842938224E+03  0.25500000920E-02 0.  1.
    10030    2    1    2    0    0  0.00000000000E+00  0.00000000000E+00  0.13896836299E+04  0.17065423944E+04  0.99048793659E+03 0.  0.
        5    1    3    3  502    0  0.30258090192E+03 -0.10472447732E+02  0.13700453241E+04  0.14031076775E+04  0.46999998093E+01 0. -1.
       -5    1    3    3    0  502 -0.30258090192E+03  0.10472447732E+02  0.19638305760E+02  0.30343471689E+03  0.46999998093E+01 0.  1.
</event>
<event>
 5   0  0.1240503E-02  0.9675509E+03  0.7818609E-02  0.9344868E-01
       -2   -1    0    0    0  501  0.00000000000E+00  0.00000000000E+00  0.28300348481E+03  0.28300348482E+03  0.25500000920E-02 0.  1.
        2   -1    0    0  501    0  0.00000000000E+00  0.00000000000E+00 -0.82698168708E+03  0.82698168708E+03  0.25500000920E-02 0. -1.
    10030    2    1    2    0    0  0.00000000000E+00  0.00000000000E+00 -0.54397820227E+03  0.11099851719E+04  0.96755092749E+03 0.  0.
        1    1    3    3  502    0 -0.27625466478E+03 -0.25784207810E+03 -0.61851431868E+03  0.72481662473E+03  0.50400001928E-02 0. -1.
       -1    1    3    3    0  502  0.27625466478E+03  0.25784207810E+03  0.74536116408E+02  0.38516854717E+03  0.50400001928E-02 0.  1.
</event>
<event>
 5   0  0.7241200E-03  0.9899171E+03  0.7818609E-02  0.9319673E-01
       -1   -1    0    0    0  501  0.00000000000E+00  0.00000000000E+00  0.24985159042E+03  0.24985159047E+03  0.50400001928E-02 0. -1.
        1   -1    0    0  501    0  0.00000000000E+00  0.00000000000E+00 -0.98051796636E+03  0.98051796638E+03  0.50400001928E-02 0.  1.
    10030    2    1    2    0    0  0.00000000000E+00  0.00000000000E+00 -0.73066637594E+03  0.12303695568E+04  0.98991711445E+03 0.  0.
        4    1    3    3  502    0  0.85918474850E+02  0.42252549689E+03 -0.66741857400E+03  0.79458098748E+03  0.12699999809E+01 0.  1.
       -4    1    3    3    0  502 -0.85918474850E+02 -0.42252549689E+03 -0.63247801947E+02  0.43578856937E+03  0.12699999809E+01 0. -1.
</event>
<event>
 5   0  0.4782125E-03  0.9860862E+03  0.7818609E-02  0.9323938E-01
        3   -1    0    0  501    0  0.00000000000E+00  0.00000000000E+00  0.15019921083E+03  0.15019924479E+03  0.10100000352E+00 0.  1.
       -3   -1    0    0    0  501  0.00000000000E+00  0.00000000000E+00 -0.16184603965E+04  0.16184603997E+04  0.10100000352E+00 0. -1.
    10030    2    1    2    0    0  0.00000000000E+00  0.00000000000E+00 -0.14682611857E+04  0.17686596445E+04  0.98608621761E+03 0.  0.
        3    1    3    3  502    0 -0.16262078055E+03  0.46215446788E+03 -0.83333596572E+03  0.96668563267E+03  0.10100000352E+00 0. -1.
       -3    1    3    3    0  502  0.16262078055E+03 -0.46215446788E+03 -0.63492521999E+03  0.80197401181E+03  0.10100000352E+00 0.  1.
</event>
<event>
 5   0  0.7073004E-03  0.9540448E+03  0.7818609E-02  0.9360435E-01
        1   -1    0    0  501    0  0.00000000000E+00  0.00000000000E+00  0.12271823975E+04  0.12271823975E+04  0.50400001928E-02 0. -1.
       -1   -1    0    0    0  501  0.00000000000E+00  0.00000000000E+00 -0.18542505834E+03  0.18542505840E+03  0.50400001928E-02 0.  1.
    10030    2    1    2    0    0  0.00000000000E+00  0.00000000000E+00  0.10417573392E+04  0.14126074559E+04  0.95404479497E+03 0.  0.
        1    1    3    3  502    0 -0.39253610309E+03  0.25152429378E+03  0.37133067425E+03  0.59601638589E+03  0.50400001928E-02 0.  1.
       -1    1    3    3    0  502  0.39253610309E+03 -0.25152429378E+03  0.67042666492E+03  0.81659107003E+03  0.50400001928E-02 0. -1.
</event>
<event>
 5   0  0.1191822E-02  0.9991361E+03  0.7818609E-02  0.9309493E-01
        2   -1    0    0  501    0  0.00000000000E+00  0.00000000000E+00  0.13927202670E+04  0.13927202670E+04  0.25500000920E-02 0.  1.
       -2   -1    0    0    0  501  0.00000000000E+00  0.00000000000E+00 -0.17919482141E+03  0.17919482143E+03  0.25500000920E-02 0. -1.
    10030    2    1    2    0    0  0.00000000000E+00  0.00000000000E+00  0.12135254456E+04  0.15719150884E+04  0.99913614595E+03 0.  0.
        4    1    3    3  502    0 -0.15048518757E+03 -0.11629045099E+03  0.13335360152E+04  0.13470297612E+04  0.12699999809E+01 0.  1.
       -4    1    3    3    0  502  0.15048518757E+03  0.11629045099E+03 -0.12001056967E+03  0.22488532723E+03  0.12699999809E+01 0. -1.
</event>
<event>
 5   0  0.1245850E-02  0.1001878E+04  0.7818609E-02  0.9306488E-01
        2   -1    0    0  501    0  0.00000000000E+00  0.00000000000E+00  0.11114289675E+04  0.11114289675E+04  0.25500000920E-02 0. -1.
       -2   -1    0    0    0  501  0.00000000000E+00  0.00000000000E+00 -0.22578109097E+03  0.22578109098E+03  0.25500000920E-02 0.  1.
    10030    2    1    2    0    0  0.00000000000E+00  0.00000000000E+00  0.88564787649E+03  0.13372100584E+04  0.10018775271E+04 0.  0.
        3    1    3    3  502    0  0.31072470021E+03 -0.27768552627E+03  0.81386338543E+03  0.91434824393E+03  0.10100000352E+00 0. -1.
       -3    1    3    3    0  502 -0.31072470021E+03  0.27768552627E+03  0.71784491061E+02  0.42286181452E+03  0.10100000352E+00 0.  1.
</event>
<event>
 5   0  0.1216322E-02  0.9807530E+03  0.7818609E-02  0.9329910E-01
       -2   -1    0    0    0  501  0.00000000000E+00  0.00000000000E+00  0.30770152312E+03  0.30770152313E+03  0.25500000920E-02 0.  1.
        2   -1    0    0  501    0  0.00000000000E+00  0.00000000000E+00 -0.78150119149E+03  0.78150119149E+03  0.25500000920E-02 0. -1.
    10030    2    1    2    0    0  0.00000000000E+00  0.00000000000E+00 -0.47379966837E+03  0.10892027146E+04  0.98075299020E+03 0.  0.
        2    1    3    3  502    0 -0.30483681462E+03  0.93703616891E+02 -0.65060059002E+03  0.72455985199E+03  0.25500000920E-02 0. -1.
       -2    1    3    3    0  502  0.30483681462E+03 -0.93703616891E+02  0.17680092165E+03  0.36464286263E+03  0.25500000920E-02 0.  1.
</event>
<event>
 5   0  0.1216322E-02  0.7511672E+03  0.7818609E-02  0.9633521E-01
       -2   -1    0    0    0  501  0.00000000000E+00  0.00000000000E+00  0.66094645757E+02  0.66094645806E+02  0.25500000920E-02 0.  1.
        2   -1    0    0  501    0  0.00000000000E+00  0.00000000000E+00 -0.21342580818E+04  0.21342580818E+04  0.25500000920E-02 0. -1.
    10030    2    1    2    0    0  0.00000000000E+00  0.00000000000E+00 -0.20681634360E+04  0.22003527276E+04  0.75116717693E+03 0.  0.
        2    1    3    3  502    0 -0.26534362335E+03  0.24825532453E+03 -0.13123613429E+04  0.13617379480E+04  0.25500000920E-02 0.  1.
       -2    1    3    3    0  502  0.26534362335E+03 -0.24825532453E+03 -0.75580209307E+03  0.83861477956E+03  0.25500000920E-02 0. -1.
</event>
<event>
 5   0  0.1191822E-02  0.9931420E+03  0.7818609E-02  0.9316099E-01
       -2   -1    0    0    0  501  0.00000000000E+00  0.00000000000E+00  0.22911450812E+03  0.22911450813E+03  0.25500000920E-02 0.  1.
        2   -1    0    0  501    0  0.00000000000E+00  0.00000000000E+00 -0.10762424841E+04  0.10762424842E+04  0.25500000920E-02 0. -1.
    10030    2    1    2    0    0  0.00000000000E+00  0.00000000000E+00 -0.84712797603E+03  0.13053569923E+04  0.99314201881E+03 0.  0.
        4    1    3    3  502    0  0.31737077797E+03 -0.30851078942E+03 -0.12767566026E+03  0.46065801308E+03  0.12699999809E+01 0.  1.
       -4    1    3    3    0  502 -0.31737077797E+03  0.30851078942E+03 -0.71945231577E+03  0.84469897920E+03  0.12699999809E+01 0. -1.
</event>
<event>
 5   0  0.1221315E-02  0.1000456E+04  0.7818609E-02  0.9308045E-01
       -2   -1    0    0    0  501  0.00000000000E+00  0.00000000000E+00  0.84912926927E+03  0.84912926927E+03  0.25500000920E-02 0.  1.
        2   -1    0    0  501    0  0.00000000000E+00  0.00000000000E+00 -0.29468755253E+03  0.29468755254E+03  0.25500000920E-02 0. -1.
    10030    2    1    2    0    0  0.00000000000E+00  0.00000000000E+00  0.55444171673E+03  0.11438168218E+04  0.10004555485E+04 0.  0.
        5    1    3    3  502    0  0.42777944241E+03  0.22856533212E+03  0.41709775607E+03  0.63971086477E+03  0.46999998093E+01 0.  1.
       -5    1    3    3    0  502 -0.42777944241E+03 -0.22856533212E+03  0.13734396066E+03  0.50410595704E+03  0.46999998093E+01 0. -1.
</event>
<event>
 5   0  0.1221315E-02  0.1003104E+04  0.7818609E-02  0.9305147E-01
        2   -1    0    0  501    0  0.00000000000E+00  0.00000000000E+00  0.89361893320E+03  0.89361893321E+03  0.25500000920E-02 0.  1.
       -2   -1    0    0    0  501  0.00000000000E+00  0.00000000000E+00 -0.28150059989E+03  0.28150059990E+03  0.25500000920E-02 0. -1.
    10030    2    1    2    0    0  0.00000000000E+00  0.00000000000E+00  0.61211833331E+03  0.11751195331E+04  0.10031037150E+04 0.  0.
        5    1    3    3  502    0 -0.40708525613E+02  0.19637672727E+03  0.84457371002E+03  0.86807133619E+03  0.46999998093E+01 0.  1.
       -5    1    3    3    0  502  0.40708525613E+02 -0.19637672727E+03 -0.23245537670E+03  0.30704819691E+03  0.46999998093E+01 0. -1.
</event>
<event>
 5   0  0.1245850E-02  0.9984616E+03  0.7818609E-02  0.9310234E-01
       -2   -1    0    0    0  501  0.00000000000E+00  0.00000000000E+00  0.63761857447E+03  0.63761857447E+03  0.25500000920E-02 0.  1.
        2   -1    0    0  501    0  0.00000000000E+00  0.00000000000E+00 -0.39087846913E+03  0.39087846914E+03  0.25500000920E-02 0. -1.
    10030    2    1    2    0    0  0.00000000000E+00  0.00000000000E+00  0.24674010534E+03  0.10284970436E+04  0.99846156117E+03 0.  0.
        3    1    3    3  502    0 -0.29698331073E+03 -0.17096340735E+03 -0.25059898307E+03  0.42453201766E+03  0.10100000352E+00 0. -1.
       -3    1    3    3    0  502  0.29698331073E+03  0.17096340735E+03  0.49733908840E+03  0.60396502594E+03  0.10100000352E+00 0.  1.
</event>
<event>
 5   0  0.7073004E-03  0.1018022E+04  0.7818609E-02  0.9288996E-01
        1   -1    0    0  501    0  0.00000000000E+00  0.00000000000E+00  0.56667437954E+03  0.56667437956E+03  0.50400001928E-02 0. -1.
       -1   -1    0    0    0  501  0.00000000000E+00  0.00000000000E+00 -0.45721555906E+03  0.45721555909E+03  0.50400001928E-02 0.  1.
    10030    2    1    2    0    0  0.00000000000E+00  0.00000000000E+00  0.10945882048E+03  0.10238899387E+04  0.10180222852E+04 0.  0.
        1    1    3    3  502    0  0.30794257699E+03 -0.40495029002E+03  0.37930591689E+02  0.51014909382E+03  0.50400001928E-02 0. -1.
       -1    1    3    3    0  502 -0.30794257699E+03  0.40495029002E+03  0.71528228790E+02  0.51374084483E+03  0.50400001928E-02 0.  1.
</event>
<event>
 5   0  0.7073004E-03  0.9965318E+03  0.7818609E-02  0.9312357E-01
        1   -1    0    0  501    0  0.00000000000E+00  0.00000000000E+00  0.31651979494E+03  0.31651979498E+03  0.50400001928E-02 0.  1.
       -1   -1    0    0    0  501  0.00000000000E+00  0.00000000000E+00 -0.78437088416E+03  0.78437088417E+03  0.50400001928E-02 0. -1.
    10030    2    1    2    0    0  0.00000000000E+00  0.00000000000E+00 -0.46785108922E+03  0.11008906792E+04  0.99653180871E+03 0.  0.
        1    1    3    3  502    0  0.33458345287E+03  0.36095258850E+03 -0.14809743177E+03  0.51397053165E+03  0.50400001928E-02 0.  1.
       -1    1    3    3    0  502 -0.33458345287E+03 -0.36095258850E+03 -0.31975365745E+03  0.58692014751E+03  0.50400001928E-02 0. -1.
</event>
<event>
 5   0  0.1216322E-02  0.1019243E+04  0.7818609E-02  0.9287688E-01
       -2   -1    0    0    0  501  0.00000000000E+00  0.00000000000E+00  0.97492994685E+02  0.97492994719E+02  0.25500000920E-02 0. -1.
        2   -1    0    0  501    0  0.00000000000E+00  0.00000000000E+00 -0.26639235739E+04  0.26639235739E+04  0.25500000920E-02 0.  1.
    10030    2    1    2    0    0  0.00000000000E+00  0.00000000000E+00 -0.25664305792E+04  0.27614165686E+04  0.10192426343E+04 0.  0.
        2    1    3    3  502    0 -0.81528614564E+02  0.61812520109E+02  0.69382283440E+02  0.12361878456E+03  0.25500000920E-02 0. -1.
       -2    1    3    3    0  502  0.81528614564E+02 -0.61812520109E+02 -0.26358128626E+04  0.26377977840E+04  0.25500000920E-02 0.  1.
</event>
<event>
 5   0  0.1191822E-02  0.1002751E+04  0.7818609E-02  0.9305533E-01
       -2   -1    0    0    0  501  0.00000000000E+00  0.00000000000E+00  0.99717244363E+03  0.99717244363E+03  0.25500000920E-02 0. -1.
        2   -1    0    0  501    0  0.00000000000E+00  0.00000000000E+00 -0.25209016299E+03  0.25209016300E+03  0.25500000920E-02 0.  1.
    10030    2    1    2    0    0  0.00000000000E+00  0.00000000000E+00  0.74508228064E+03  0.12492626066E+04  0.10027509439E+04 0.  0.
        4    1    3    3  502    0  0.28533962931E+03 -0.10344580086E+03  0.86971533731E+03  0.92115477453E+03  0.12699999809E+01 0. -1.
       -4    1    3    3    0  502 -0.28533962931E+03  0.10344580086E+03 -0.12463305668E+03  0.32810783211E+03  0.12699999809E+01 0.  1.
</event>
<event>
 5   0  0.6967681E-03  0.1006570E+04  0.7818609E-02  0.9301368E-01
        1   -1    0    0  501    0  0.00000000000E+00  0.00000000000E+00  0.68817612119E+03  0.68817612121E+03  0.50400001928E-02 0. -1.
       -1   -1    0    0    0  501  0.00000000000E+00  0.00000000000E+00 -0.36806824739E+03  0.36806824742E+03  0.50400001928E-02 0.  1.
    10030    2    1    2    0    0  0.00000000000E+00  0.00000000000E+00  0.32010787380E+03  0.10562443686E+04  0.10065699754E+04 0.  0.
        5    1    3    3  502    0 -0.27278526818E+03  0.41637758457E+03  0.23781633070E+03  0.55168903615E+03  0.46999998093E+01 0. -1.
       -5    1    3    3    0  502  0.27278526818E+03 -0.41637758457E+03  0.82291543100E+02  0.50455533248E+03  0.46999998093E+01 0.  1.
</event>
<event>
 5   0  0.4782125E-03  0.1005523E+04  0.7818609E-02  0.9302508E-01
       -3   -1    0    0    0  501  0.00000000000E+00  0.00000000000E+00  0.16713080509E+03  0.16713083560E+03  0.10100000352E+00 0.  1.
        3   -1    0    0  501    0  0.00000000000E+00  0.00000000000E+00 -0.15124020514E+04  0.15124020548E+04  0.10100000352E+00 0. -1.
    10030    2    1    2    0    0  0.00000000000E+00  0.00000000000E+00 -0.13452712463E+04  0.16795328904E+04  0.10055227515E+04 0.  0.
        4    1    3    3  502    0 -0.29066529863E+02 -0.33989232789E+03 -0.12895103806E+04  0.13338704181E+04  0.12699999809E+01 0. -1.
       -4    1    3    3    0  502  0.29066529863E+02  0.33989232789E+03 -0.55760865756E+02  0.34566247231E+03  0.12699999809E+01 0.  1.
</event>
<event>
 5   0  0.1191822E-02  0.1242033E+04  0.7818609E-02  0.9076841E-01
        2   -1    0    0  501    0  0.00000000000E+00  0.00000000000E+00  0.15621825620E+04  0.15621825620E+04  0.25500000920E-02 0. -1.
       -2   -1    0    0    0  501  0.00000000000E+00  0.00000000000E+00 -0.24687333037E+03  0.24687333038E+03  0.25500000920E-02 0.  1.
    10030    2    1    2    0    0  0.00000000000E+00  0.00000000000E+00  0.13153092316E+04  0.18090558923E+04  0.12420325466E+04 0.  0.
        4    1    3    3  502    0 -0.14723210169E+03  0.17100083578E+01 -0.22107932414E+03  0.26562736372E+03  0.12699999809E+01 0.  1.
       -4    1    3    3    0  502  0.14723210169E+03 -0.17100083578E+01  0.15363885557E+04  0.15434285286E+04  0.12699999809E+01 0. -1.
</event>
<event>
 5   0  0.6967681E-03  0.8932753E+03  0.7818609E-02  0.9434027E-01
        1   -1    0    0  501    0  0.00000000000E+00  0.00000000000E+00  0.62080700234E+03  0.62080700236E+03  0.50400001928E-02 0.  1.
       -1   -1    0    0    0  501  0.00000000000E+00  0.00000000000E+00 -0.32133208954E+03  0.32133208958E+03  0.50400001928E-02 0. -1.
    10030    2    1    2    0    0  0.00000000000E+00  0.00000000000E+00  0.29947491279E+03  0.94213909194E+03  0.89327534678E+03 0.  0.
        5    1    3    3  502    0  0.26167241838E+03 -0.11477084053E+03  0.51176039608E+03  0.58614468638E+03  0.46999998093E+01 0.  1.
       -5    1    3    3    0  502 -0.26167241838E+03  0.11477084053E+03 -0.21228548329E+03  0.35599440556E+03  0.46999998093E+01 0. -1.
</event>
<event>
 5   0  0.7241200E-03  0.9975412E+03  0.7818609E-02  0.9311246E-01
       -1   -1    0    0    0  501  0.00000000000E+00  0.00000000000E+00  0.23583307753E+03  0.23583307759E+03  0.50400001928E-02 0. -1.
        1   -1    0    0  501    0  0.00000000000E+00  0.00000000000E+00 -0.10548652590E+04  0.10548652590E+04  0.50400001928E-02 0.  1.
    10030    2    1    2    0    0  0.00000000000E+00  0.00000000000E+00 -0.81903218145E+03  0.12906983366E+04  0.99754121809E+03 0.  0.
        4    1    3    3  502    0  0.96285455976E+02  0.32361123881E+02  0.22230588605E+03  0.24441696186E+03  0.12699999809E+01 0. -1.
       -4    1    3    3    0  502 -0.96285455976E+02 -0.32361123881E+02 -0.10413380675E+04  0.10462813747E+04  0.12699999809E+01 0.  1.
</event>
<event>
 5   0  0.7073004E-03  0.9864771E+03  0.7818609E-02  0.9323502E-01
       -1   -1    0    0    0  501  0.00000000000E+00  0.00000000000E+00  0.35438840431E+03  0.35438840435E+03  0.50400001928E-02 0. -1.
        1   -1    0    0  501    0  0.00000000000E+00  0.00000000000E+00 -0.68649052934E+03  0.68649052935E+03  0.50400001928E-02 0.  1.
    10030    2    1    2    0    0  0.00000000000E+00  0.00000000000E+00 -0.33210212503E+03  0.10408789337E+04  0.98647713261E+03 0.  0.
        1    1    3    3  502    0 -0.48631777165E+03  0.30673044034E+02 -0.85427344847E+02  0.49471571830E+03  0.50400001928E-02 0.  1.
       -1    1    3    3    0  502  0.48631777165E+03 -0.30673044034E+02 -0.24667478018E+03  0.54616321540E+03  0.50400001928E-02 0. -1.
</event>
<event>
 5   0  0.7073004E-03  0.1009643E+04  0.7818609E-02  0.9298031E-01
        1   -1    0    0  501    0  0.00000000000E+00  0.00000000000E+00  0.71762020607E+03  0.71762020608E+03  0.50400001928E-02 0.  1.
       -1   -1    0    0    0  501  0.00000000000E+00  0.00000000000E+00 -0.35512472866E+03  0.35512472870E+03  0.50400001928E-02 0. -1.
    10030    2    1    2    0    0  0.00000000000E+00  0.00000000000E+00  0.36249547740E+03  0.10727449348E+04  0.10096428695E+04 0.  0.
        1    1    3    3  502    0  0.80261425997E+02 -0.29715615305E+03 -0.24388614426E+03  0.39271379806E+03  0.50400001928E-02 0.  1.
       -1    1    3    3    0  502 -0.80261425997E+02  0.29715615305E+03  0.60638162166E+03  0.68003113672E+03  0.50400001928E-02 0. -1.
</event>
<event>
 5   0  0.7073004E-03  0.9976316E+03  0.7818609E-02  0.9311146E-01
       -1   -1    0    0    0  501  0.00000000000E+00  0.00000000000E+00  0.35766225570E+03  0.35766225573E+03  0.50400001928E-02 0.  1.
        1   -1    0    0  501    0  0.00000000000E+00  0.00000000000E+00 -0.69567643183E+03  0.69567643185E+03  0.50400001928E-02 0. -1.
    10030    2    1    2    0    0  0.00000000000E+00  0.00000000000E+00 -0.33801417614E+03  0.10533386876E+04  0.99763159909E+03 0.  0.
        1    1    3    3  502    0  0.54813726981E+02 -0.43573538220E+03 -0.41874675986E+03  0.60681028080E+03  0.50400001928E-02 0.  1.
       -1    1    3    3    0  502 -0.54813726981E+02  0.43573538220E+03  0.80732583717E+02  0.44652840679E+03  0.50400001928E-02 0. -1.
</event>
<event>
 5   0  0.4782125E-03  0.9952426E+03  0.7818609E-02  0.9313778E-01
        4   -1    0    0  501    0  0.00000000000E+00  0.00000000000E+00  0.38213329597E+03  0.38213540636E+03  0.12699999809E+01 0. -1.
       -4   -1    0    0    0  501  0.00000000000E+00  0.00000000000E+00 -0.64800752967E+03  0.64800877418E+03  0.12699999809E+01 0.  1.
    10030    2    1    2    0    0  0.00000000000E+00  0.00000000000E+00 -0.26587423370E+03  0.10301441805E+04  0.99524264606E+03 0.  0.
        3    1    3    3  502    0  0.17943366618E+03 -0.42998998867E+03  0.47945752189E+02  0.46838727167E+03  0.10100000352E+00 0.  1.
       -3    1    3    3    0  502 -0.17943366618E+03  0.42998998867E+03 -0.31381998589E+03  0.56175690886E+03  0.10100000352E+00 0. -1.
</event>
<event>
 5   0  0.6967681E-03  0.1010574E+04  0.7818609E-02  0.9297023E-01
        1   -1    0    0  501    0  0.00000000000E+00  0.00000000000E+00  0.63091906551E+03  0.63091906553E+03  0.50400001928E-02 0.  1.
       -1   -1    0    0    0  501  0.00000000000E+00  0.00000000000E+00 -0.40467166755E+03  0.40467166758E+03  0.50400001928E-02 0. -1.
    10030    2    1    2    0    0  0.00000000000E+00  0.00000000000E+00  0.22624739796E+03  0.10355907331E+04  0.10105742335E+04 0.  0.
        5    1    3    3  502    0  0.33130672851E+03  0.22015815879E+02 -0.27715066273E+03  0.43253141430E+03  0.46999998093E+01 0. -1.
       -5    1    3    3    0  502 -0.33130672851E+03 -0.22015815879E+02  0.50339806069E+03  0.60305931881E+03  0.46999998093E+01 0.  1.
</event>
<event>
 5   0  0.1245850E-02  0.9905286E+03  0.7818609E-02  0.9318994E-01
        2   -1    0    0  501    0  0.00000000000E+00  0.00000000000E+00  0.16260447094E+03  0.16260447096E+03  0.25500000920E-02 0.  1.
       -2   -1    0    0    0  501  0.00000000000E+00  0.00000000000E+00 -0.15084871164E+04  0.15084871164E+04  0.25500000920E-02 0. -1.
    10030    2    1    2    0    0  0.00000000000E+00  0.00000000000E+00 -0.13458826455E+04  0.16710915874E+04  0.99052864574E+03 0.  0.
        3    1    3    3  502    0  0.37527913463E+03 -0.31523098015E+03 -0.79320636701E+03  0.93240621545E+03  0.10100000352E+00 0. -1.
       -3    1    3    3    0  502 -0.37527913463E+03  0.31523098015E+03 -0.55267627845E+03  0.73868537192E+03  0.10100000352E+00 0.  1.
</event>
<event>
 5   0  0.7224879E-03  0.1007032E+04  0.7818609E-02  0.9300865E-01
        1   -1    0    0  501    0  0.00000000000E+00  0.00000000000E+00  0.70944269360E+03  0.70944269362E+03  0.50400001928E-02 0.  1.
       -1   -1    0    0    0  501  0.00000000000E+00  0.00000000000E+00 -0.35736293631E+03  0.35736293634E+03  0.50400001928E-02 0. -1.
    10030    2    1    2    0    0  0.00000000000E+00  0.00000000000E+00  0.35207975729E+03  0.10668056300E+04  0.10070323215E+04 0.  0.
        3    1    3    3  502    0  0.29066867808E+02 -0.23099863091E+02  0.70799059621E+03  0.70896345533E+03  0.10100000352E+00 0.  1.
       -3    1    3    3    0  502 -0.29066867808E+02  0.23099863091E+02 -0.35591083892E+03  0.35784217462E+03  0.10100000352E+00 0. -1.
</event>
<event>
 5   0  0.7461157E-03  0.1006907E+04  0.7818609E-02  0.9301002E-01
       -1   -1    0    0    0  501  0.00000000000E+00  0.00000000000E+00  0.68242572991E+03  0.68242572993E+03  0.50400001928E-02 0. -1.
        1   -1    0    0  501    0  0.00000000000E+00  0.00000000000E+00 -0.37141830443E+03  0.37141830447E+03  0.50400001928E-02 0.  1.
    10030    2    1    2    0    0  0.00000000000E+00  0.00000000000E+00  0.31100742548E+03  0.10538440344E+04  0.10069069620E+04 0.  0.
        2    1    3    3  502    0  0.30672083071E+03  0.96520242461E+02 -0.24994528256E+03  0.40726707389E+03  0.25500000920E-02 0.  1.
       -2    1    3    3    0  502 -0.30672083071E+03 -0.96520242461E+02  0.56095270804E+03  0.64657696051E+03  0.25500000920E-02 0. -1.
</event>
<event>
 5   0  0.1221315E-02  0.1032570E+04  0.7818609E-02  0.9273527E-01
       -2   -1    0    0    0  501  0.00000000000E+00  0.00000000000E+00  0.34546861637E+03  0.34546861638E+03  0.25500000920E-02 0. -1.
        2   -1    0    0  501    0  0.00000000000E+00  0.00000000000E+00 -0.77156104298E+03  0.77156104298E+03  0.25500000920E-02 0.  1.
    10030    2    1    2    0    0  0.00000000000E+00  0.00000000000E+00 -0.42609242661E+03  0.11170296594E+04  0.10325698542E+04 0.  0.
        5    1    3    3  502    0 -0.12454033992E+03 -0.45654198212E+03 -0.43629267986E+03  0.64367248675E+03  0.46999998093E+01 0. -1.
       -5    1    3    3    0  502  0.12454033992E+03  0.45654198212E+03  0.10200253254E+02  0.47335717261E+03  0.46999998093E+01 0.  1.
</event>
<event>
 5   0  0.1245850E-02  0.1039385E+04  0.7818609E-02  0.9266373E-01
       -2   -1    0    0    0  501  0.00000000000E+00  0.00000000000E+00  0.20024826818E+03  0.20024826819E+03  0.25500000920E-02 0.  1.
        2   -1    0    0  501    0  0.00000000000E+00  0.00000000000E+00 -0.13487264896E+04  0.13487264896E+04  0.25500000920E-02 0. -1.
    10030    2    1    2    0    0  0.00000000000E+00  0.00000000000E+00 -0.11484782215E+04  0.15489747578E+04  0.10393847099E+04 0.  0.
        3    1    3    3  502    0  0.51347151255E+03  0.35215699675E+02 -0.46690793537E+03  0.69490731038E+03  0.10100000352E+00 0. -1.
       -3    1    3    3    0  502 -0.51347151255E+03 -0.35215699675E+02 -0.68157028609E+03  0.85406744745E+03  0.10100000352E+00 0.  1.
</event>
<event>
 5   0  0.7073004E-03  0.9790739E+03  0.7818609E-02  0.9331799E-01
       -1   -1    0    0    0  501  0.00000000000E+00  0.00000000000E+00  0.39516335824E+03  0.39516335827E+03  0.50400001928E-02 0.  1.
        1   -1    0    0  501    0  0.00000000000E+00  0.00000000000E+00 -0.60644902759E+03  0.60644902761E+03  0.50400001928E-02 0. -1.
    10030    2    1    2    0    0  0.00000000000E+00  0.00000000000E+00 -0.21128566935E+03  0.10016123859E+04  0.97907391830E+03 0.  0.
        1    1    3    3  502    0 -0.36171370462E+03 -0.15867142152E+02  0.23142308962E+03  0.42970363827E+03  0.50400001928E-02 0.  1.
       -1    1    3    3    0  502  0.36171370462E+03  0.15867142152E+02 -0.44270875897E+03  0.57190874762E+03  0.50400001928E-02 0. -1.
</event>
<event>
 5   0  0.1191822E-02  0.9996409E+03  0.7818609E-02  0.9308939E-01
        2   -1    0    0  501    0  0.00000000000E+00  0.00000000000E+00  0.10327138470E+04  0.10327138470E+04  0.25500000920E-02 0. -1.
       -2   -1    0    0    0  501  0.00000000000E+00  0.00000000000E+00 -0.24190676578E+03  0.24190676579E+03  0.25500000920E-02 0.  1.
    10030    2    1    2    0    0  0.00000000000E+00  0.00000000000E+00  0.79080708120E+03  0.12746206128E+04  0.99964086894E+03 0.  0.
        4    1    3    3  502    0  0.63534613161E+02 -0.40799521237E+03  0.75451897626E+03  0.86011466609E+03  0.12699999809E+01 0. -1.
       -4    1    3    3    0  502 -0.63534613161E+02  0.40799521237E+03  0.36288104944E+02  0.41450594669E+03  0.12699999809E+01 0.  1.
</event>
<event>
 5   0  0.1240503E-02  0.9864178E+03  0.7818609E-02  0.9323568E-01
       -2   -1    0    0    0  501  0.00000000000E+00  0.00000000000E+00  0.31853110820E+03  0.31853110821E+03  0.25500000920E-02 0. -1.
        2   -1    0    0  501    0  0.00000000000E+00  0.00000000000E+00 -0.76367750422E+03  0.76367750422E+03  0.25500000920E-02 0.  1.
    10030    2    1    2    0    0  0.00000000000E+00  0.00000000000E+00 -0.44514639602E+03  0.10822086124E+04  0.98641784601E+03 0.  0.
        1    1    3    3  502    0  0.45382118565E+03  0.61841374370E+02 -0.42330835647E+03  0.62367298227E+03  0.50400001928E-02 0.  1.
       -1    1    3    3    0  502 -0.45382118565E+03 -0.61841374370E+02 -0.21838039551E+02  0.45853563016E+03  0.50400001928E-02 0. -1.
</event>
<event>
 5   0  0.1245850E-02  0.1007339E+04  0.7818609E-02  0.9300532E-01
       -2   -1    0    0    0  501  0.00000000000E+00  0.00000000000E+00  0.65559252815E+03  0.65559252815E+03  0.25500000920E-02 0. -1.
        2   -1    0    0  501    0  0.00000000000E+00  0.00000000000E+00 -0.38695230414E+03  0.38695230415E+03  0.25500000920E-02 0.  1.
    10030    2    1    2    0    0  0.00000000000E+00  0.00000000000E+00  0.26864022401E+03  0.10425448323E+04  0.10073391472E+04 0.  0.
        3    1    3    3  502    0  0.40390638607E+03 -0.28176344793E+03  0.25026244307E+02  0.49310985835E+03  0.10100000352E+00 0. -1.
       -3    1    3    3    0  502 -0.40390638607E+03  0.28176344793E+03  0.24361397970E+03  0.54943497395E+03  0.10100000352E+00 0.  1.
</event>
<event>
 5   0  0.6967681E-03  0.8686827E+03  0.7818609E-02  0.9465599E-01
       -1   -1    0    0    0  501  0.00000000000E+00  0.00000000000E+00  0.12374582242E+03  0.12374582252E+03  0.50400001928E-02 0. -1.
        1   -1    0    0  501    0  0.00000000000E+00  0.00000000000E+00 -0.15245154681E+04  0.15245154682E+04  0.50400001928E-02 0.  1.
    10030    2    1    2    0    0  0.00000000000E+00  0.00000000000E+00 -0.14007696457E+04  0.16482612907E+04  0.86868272801E+03 0.  0.
        5    1    3    3  502    0  0.12813772620E+03 -0.32094581776E+03 -0.20123250320E+03  0.39992762490E+03  0.46999998093E+01 0. -1.
       -5    1    3    3    0  502 -0.12813772620E+03  0.32094581776E+03 -0.11995371425E+04  0.12483336658E+04  0.46999998093E+01 0.  1.
</event>
<event>
 5   0  0.7461157E-03  0.1000525E+04  0.7818609E-02  0.9307969E-01
        1   -1    0    0  501    0  0.00000000000E+00  0.00000000000E+00  0.44704676280E+03  0.44704676282E+03  0.50400001928E-02 0.  1.
       -1   -1    0    0    0  501  0.00000000000E+00  0.00000000000E+00 -0.55981327971E+03  0.55981327974E+03  0.50400001928E-02 0. -1.
    10030    2    1    2    0    0  0.00000000000E+00  0.00000000000E+00 -0.11276651692E+03  0.10068600426E+04  0.10005252910E+04 0.  0.
        2    1    3    3  502    0  0.29601485358E+03  0.36681975082E+03  0.11225216189E+03  0.48454315699E+03  0.25500000920E-02 0.  1.
       -2    1    3    3    0  502 -0.29601485358E+03 -0.36681975082E+03 -0.22501867881E+03  0.52231688557E+03  0.25500000920E-02 0. -1.
</event>
<event>
 5   0  0.7073004E-03  0.1008008E+04  0.7818609E-02  0.9299806E-01
        1   -1    0    0  501    0  0.00000000000E+00  0.00000000000E+00  0.17916225702E+04  0.17916225702E+04  0.50400001928E-02 0.  1.
       -1   -1    0    0    0  501  0.00000000000E+00  0.00000000000E+00 -0.14178197482E+03  0.14178197491E+03  0.50400001928E-02 0. -1.
    10030    2    1    2    0    0  0.00000000000E+00  0.00000000000E+00  0.16498405954E+04  0.19334045451E+04  0.10080075123E+04 0.  0.
        1    1    3    3  502    0 -0.14962731020E+02 -0.15693362684E+03  0.17431169542E+04  0.17502310598E+04  0.50400001928E-02 0.  1.
       -1    1    3    3    0  502  0.14962731020E+02  0.15693362684E+03 -0.93276358889E+02  0.18317348527E+03  0.50400001928E-02 0. -1.
</event>
<event>
 5   0  0.1216322E-02  0.1000075E+04  0.7818609E-02  0.9308462E-01
        2   -1    0    0  501    0  0.00000000000E+00  0.00000000000E+00  0.18923957882E+04  0.18923957882E+04  0.25500000920E-02 0. -1.
       -2   -1    0    0    0  501  0.00000000000E+00  0.00000000000E+00 -0.13212756149E+03  0.13212756151E+03  0.25500000920E-02 0.  1.
    10030    2    1    2    0    0  0.00000000000E+00  0.00000000000E+00  0.17602682267E+04  0.20245233497E+04  0.10000752790E+04 0.  0.
        2    1    3    3  502    0 -0.37049448999E+03 -0.32783970176E+03  0.10274076741E+04  0.11403120477E+04  0.25500000920E-02 0.  1.
       -2    1    3    3    0  502  0.37049448999E+03  0.32783970176E+03  0.73286055261E+03  0.88421130209E+03  0.25500000920E-02 0. -1.
</event>
<event>
 5   0  0.1191822E-02  0.1006209E+04  0.7818609E-02  0.9301761E-01
        2   -1    0    0  501    0  0.00000000000E+00  0.00000000000E+00  0.79618324008E+03  0.79618324009E+03  0.25500000920E-02 0. -1.
       -2   -1    0    0    0  501  0.00000000000E+00  0.00000000000E+00 -0.31790921501E+03  0.31790921502E+03  0.25500000920E-02 0.  1.
    10030    2    1    2    0    0  0.00000000000E+00  0.00000000000E+00  0.47827402507E+03  0.11140924551E+04  0.10062087037E+04 0.  0.
        4    1    3    3  502    0 -0.16769877415E+03  0.27428534467E+03 -0.18933927954E+03  0.37310361138E+03  0.12699999809E+01 0.  1.
       -4    1    3    3    0  502  0.16769877415E+03 -0.27428534467E+03  0.66761330460E+03  0.74098884373E+03  0.12699999809E+01 0. -1.
</event>
<event>
 5   0  0.7461157E-03  0.9916287E+03  0.7818609E-02  0.9317774E-01
       -1   -1    0    0    0  501  0.00000000000E+00  0.00000000000E+00  0.15691125556E+03  0.15691125564E+03  0.50400001928E-02 0.  1.
        1   -1    0    0  501    0  0.00000000000E+00  0.00000000000E+00 -0.15666937932E+04  0.15666937933E+04  0.50400001928E-02 0. -1.
    10030    2    1    2    0    0  0.00000000000E+00  0.00000000000E+00 -0.14097825377E+04  0.17236050489E+04  0.99162874151E+03 0.  0.
        2    1    3    3  502    0  0.33629947546E+03 -0.18641073265E+03 -0.12489800382E+04  0.13068272396E+04  0.25500000920E-02 0. -1.
       -2    1    3    3    0  502 -0.33629947546E+03  0.18641073265E+03 -0.16080249951E+03  0.41677780927E+03  0.25500000920E-02 0.  1.
</event>
<event>
 5   0  0.4782125E-03  0.1000001E+04  0.7818609E-02  0.9308544E-01
       -3   -1    0    0    0  501  0.00000000000E+00  0.00000000000E+00  0.59776391487E+03  0.59776392341E+03  0.10100000352E+00 0. -1.
        3   -1    0    0  501    0  0.00000000000E+00  0.00000000000E+00 -0.41822624683E+03  0.41822625902E+03  0.10100000352E+00 0.  1.
    10030    2    1    2    0    0  0.00000000000E+00  0.00000000000E+00  0.17953766804E+03  0.10159901824E+04  0.10000011383E+04 0.  0.
        5    1    3    3  502    0  0.44319923667E+03 -0.23021436342E+03  0.65849624806E+02  0.50376827966E+03  0.46999998093E+01 0. -1.
       -5    1    3    3    0  502 -0.44319923667E+03  0.23021436342E+03  0.11368804324E+03  0.51222190277E+03  0.46999998093E+01 0.  1.
</event>
<event>
 5   0  0.6967681E-03  0.9942097E+03  0.7818609E-02  0.9314918E-01
       -1   -1    0    0    0  501  0.00000000000E+00  0.00000000000E+00  0.10954021972E+04  0.10954021972E+04  0.50400001928E-02 0.  1.
        1   -1    0    0  501    0  0.00000000000E+00  0.00000000000E+00 -0.22559132968E+03  0.22559132973E+03  0.50400001928E-02 0. -1.
    10030    2    1    2    0    0  0.00000000000E+00  0.00000000000E+00  0.86981086747E+03  0.13209935269E+04  0.99420971275E+03 0.  0.
        5    1    3    3  502    0  0.48414021283E+03  0.65799948559E+02  0.55646228232E+03  0.74053611698E+03  0.46999998093E+01 0.  1.
       -5    1    3    3    0  502 -0.48414021283E+03 -0.65799948559E+02  0.31334858515E+03  0.58045740991E+03  0.46999998093E+01 0. -1.
</event>
<event>
 5   0  0.7461157E-03  0.9893666E+03  0.7818609E-02  0.9320285E-01
        1   -1    0    0  501    0  0.00000000000E+00  0.00000000000E+00  0.54532962420E+03  0.54532962422E+03  0.50400001928E-02 0.  1.
       -1   -1    0    0    0  501  0.00000000000E+00  0.00000000000E+00 -0.44874060360E+03  0.44874060363E+03  0.50400001928E-02 0. -1.
    10030    2    1    2    0    0  0.00000000000E+00  0.00000000000E+00  0.96589020596E+02  0.99407022786E+03  0.98936655442E+03 0.  0.
        2    1    3    3  502    0 -0.21615289722E+03  0.33185614156E+03 -0.24952822056E+03  0.46809711229E+03  0.25500000920E-02 0. -1.
       -2    1    3    3    0  502  0.21615289722E+03 -0.33185614156E+03  0.34611724116E+03  0.52597311557E+03  0.25500000920E-02 0.  1.
</event>
<event>
 5   0  0.4782125E-03  0.9841452E+03  0.7818609E-02  0.9326107E-01
        3   -1    0    0  501    0  0.00000000000E+00  0.00000000000E+00  0.17785925699E+03  0.17785928566E+03  0.10100000352E+00 0.  1.
       -3   -1    0    0    0  501  0.00000000000E+00  0.00000000000E+00 -0.13613876769E+04  0.13613876806E+04  0.10100000352E+00 0. -1.
    10030    2    1    2    0    0  0.00000000000E+00  0.00000000000E+00 -0.11835284199E+04  0.15392469663E+04  0.98414516334E+03 0.  0.
        2    1    3    3  502    0 -0.44130271319E+03  0.20527251692E+03 -0.70509578189E+03  0.85676423392E+03  0.25500000920E-02 0.  1.
       -2    1    3    3    0  502  0.44130271319E+03 -0.20527251692E+03 -0.47843263798E+03  0.68248273235E+03  0.25500000920E-02 0. -1.
</event>
<event>
 5   0  0.1216322E-02  0.9970008E+03  0.7818609E-02  0.9311840E-01
        2   -1    0    0  501    0  0.00000000000E+00  0.00000000000E+00  0.17616581655E+04  0.17616581655E+04  0.25500000920E-02 0. -1.
       -2   -1    0    0    0  501  0.00000000000E+00  0.00000000000E+00 -0.14106177699E+03  0.14106177701E+03  0.25500000920E-02 0.  1.
    10030    2    1    2    0    0  0.00000000000E+00  0.00000000000E+00  0.16205963885E+04  0.19027199425E+04  0.99700076489E+03 0.  0.
        2    1    3    3  502    0 -0.47963254784E+03  0.64069343016E+02  0.10389164581E+04  0.11460801318E+04  0.25500000920E-02 0. -1.
       -2    1    3    3    0  502  0.47963254784E+03 -0.64069343016E+02  0.58167993044E+03  0.75663981071E+03  0.25500000920E-02 0.  1.
</event>
<event>
 5   0  0.1245850E-02  0.1022319E+04  0.7818609E-02  0.9284399E-01
       -2   -1    0    0    0  501  0.00000000000E+00  0.00000000000E+00  0.20845070002E+03  0.20845070003E+03  0.25500000920E-02 0.  1.
        2   -1    0    0  501    0  0.00000000000E+00  0.00000000000E+00 -0.12534562734E+04  0.12534562734E+04  0.25500000920E-02 0. -1.
    10030    2    1    2    0    0  0.00000000000E+00  0.00000000000E+00 -0.10450055734E+04  0.14619069734E+04  0.10223186150E+04 0.  0.
        3    1    3    3  502    0  0.13991958671E+03 -0.90675270370E+02  0.16847222237E+03  0.23702825847E+03  0.10100000352E+00 0.  1.
       -3    1    3    3    0  502 -0.13991958671E+03  0.90675270370E+02 -0.12134777957E+04  0.12248787150E+04  0.10100000352E+00 0. -1.
</event>
<event>
 5   0  0.1216322E-02  0.1009345E+04  0.7818609E-02  0.9298354E-01
        2   -1    0    0  501    0  0.00000000000E+00  0.00000000000E+00  0.50556644114E+03  0.50556644115E+03  0.25500000920E-02 0. -1.
       -2   -1    0    0    0  501  0.00000000000E+00  0.00000000000E+00 -0.50378022641E+03  0.50378022641E+03  0.25500000920E-02 0.  1.
    10030    2    1    2    0    0  0.00000000000E+00  0.00000000000E+00  0.17862147328E+01  0.10093466676E+04  0.10093450870E+04 0.  0.
        2    1    3    3  502    0  0.32633860092E+03 -0.30690346250E+03  0.23328916494E+03  0.50508459908E+03  0.25500000920E-02 0. -1.
       -2    1    3    3    0  502 -0.32633860092E+03  0.30690346250E+03 -0.23150295021E+03  0.50426206848E+03  0.25500000920E-02 0.  1.
</event>
<event>
 5   0  0.7224879E-03  0.1007222E+04  0.7818609E-02  0.9300659E-01
        1   -1    0    0  501    0  0.00000000000E+00  0.00000000000E+00  0.68439930589E+03  0.68439930591E+03  0.50400001928E-02 0.  1.
       -1   -1    0    0    0  501  0.00000000000E+00  0.00000000000E+00 -0.37057925501E+03  0.37057925505E+03  0.50400001928E-02 0. -1.
    10030    2    1    2    0    0  0.00000000000E+00  0.00000000000E+00  0.31382005088E+03  0.10549785610E+04  0.10072222891E+04 0.  0.
        3    1    3    3  502    0 -0.22543493143E+03 -0.38715208051E+03  0.39785285001E+03  0.59916153266E+03  0.10100000352E+00 0.  1.
       -3    1    3    3    0  502  0.22543493143E+03  0.38715208051E+03 -0.84032799131E+02  0.45581702830E+03  0.10100000352E+00 0. -1.
</event>
<event>
 5   0  0.6967681E-03  0.9988564E+03  0.7818609E-02  0.9309800E-01
       -1   -1    0    0    0  501  0.00000000000E+00  0.00000000000E+00  0.12880469283E+03  0.12880469293E+03  0.50400001928E-02 0.  1.
        1   -1    0    0  501    0  0.00000000000E+00  0.00000000000E+00 -0.19364864722E+04  0.19364864722E+04  0.50400001928E-02 0. -1.
    10030    2    1    2    0    0  0.00000000000E+00  0.00000000000E+00 -0.18076817793E+04  0.20652911651E+04  0.99885643677E+03 0.  0.
        5    1    3    3  502    0  0.11172647533E+03  0.63571261471E+02  0.93965997286E+02  0.15929786319E+03  0.46999998093E+01 0.  1.
       -5    1    3    3    0  502 -0.11172647533E+03 -0.63571261471E+02 -0.19016477766E+04  0.19059933019E+04  0.46999998093E+01 0. -1.
</event>
<event>
 5   0  0.1221315E-02  0.1004071E+04  0.7818609E-02  0.9304091E-01
       -2   -1    0    0    0  501  0.00000000000E+00  0.00000000000E+00  0.26414051328E+03  0.26414051329E+03  0.25500000920E-02 0.  1.
        2   -1    0    0  501    0  0.00000000000E+00  0.00000000000E+00 -0.95418814860E+03  0.95418814860E+03  0.25500000920E-02 0. -1.
    10030    2    1    2    0    0  0.00000000000E+00  0.00000000000E+00 -0.69004763532E+03  0.12183286619E+04  0.10040712073E+04 0.  0.
        5    1    3    3  502    0  0.34495241911E+03 -0.26665960223E+03 -0.43091982021E+02  0.43815353909E+03  0.46999998093E+01 0. -1.
       -5    1    3    3    0  502 -0.34495241911E+03  0.26665960223E+03 -0.64695565330E+03  0.78017512280E+03  0.46999998093E+01 0.  1.
</event>
<event>
 5   0  0.6967681E-03  0.9901713E+03  0.7818609E-02  0.9319391E-01
       -1   -1    0    0    0  501  0.00000000000E+00  0.00000000000E+00  0.13847079319E+04  0.13847079319E+04  0.50400001928E-02 0.  1.
        1   -1    0    0  501    0  0.00000000000E+00  0.00000000000E+00 -0.17701189677E+03  0.17701189684E+03  0.50400001928E-02 0. -1.
    10030    2    1    2    0    0  0.00000000000E+00  0.00000000000E+00  0.12076960351E+04  0.15617198287E+04  0.99017125298E+03 0.  0.
        5    1    3    3  502    0 -0.45256207434E+03 -0.18358321799E+03  0.73171450559E+03  0.87974055082E+03  0.46999998093E+01 0. -1.
       -5    1    3    3    0  502  0.45256207434E+03  0.18358321799E+03  0.47598152952E+03  0.68197927791E+03  0.46999998093E+01 0.  1.
</event>
<event>
 5   0  0.7461157E-03  0.1026268E+04  0.7818609E-02  0.9280195E-01
       -1   -1    0    0    0  501  0.00000000000E+00  0.00000000000E+00  0.41899722768E+03  0.41899722771E+03  0.50400001928E-02 0.  1.
        1   -1    0    0  501    0  0.00000000000E+00  0.00000000000E+00 -0.62842054652E+03  0.62842054654E+03  0.50400001928E-02 0. -1.
    10030    2    1    2    0    0  0.00000000000E+00  0.00000000000E+00 -0.20942331884E+03  0.10474177742E+04  0.10262679316E+04 0.  0.
        2    1    3    3  502    0 -0.23220381750E+03 -0.45616793662E+03 -0.14149135904E+03  0.53106271188E+03  0.25500000920E-02 0. -1.
       -2    1    3    3    0  502  0.23220381750E+03  0.45616793662E+03 -0.67931959807E+02  0.51635506237E+03  0.25500000920E-02 0.  1.
</event>
<event>
 5   0  0.1221315E-02  0.1000385E+04  0.7818609E-02  0.9308123E-01
        2   -1    0    0  501    0  0.00000000000E+00  0.00000000000E+00  0.87708309609E+03  0.87708309609E+03  0.25500000920E-02 0. -1.
       -2   -1    0    0    0  501  0.00000000000E+00  0.00000000000E+00 -0.28525497450E+03  0.28525497451E+03  0.25500000920E-02 0.  1.
    10030    2    1    2    0    0  0.00000000000E+00  0.00000000000E+00  0.59182812159E+03  0.11623380706E+04  0.10003845585E+04 0.  0.
        5    1    3    3  502    0  0.27671854496E+03  0.10844681324E+03  0.76333001981E+03  0.81916339858E+03  0.46999998093E+01 0. -1.
       -5    1    3    3    0  502 -0.27671854496E+03 -0.10844681324E+03 -0.17150189823E+03  0.34317467203E+03  0.46999998093E+01 0.  1.
</event>
<event>
 5   0  0.7073004E-03  0.9980431E+03  0.7818609E-02  0.9310694E-01
        1   -1    0    0  501    0  0.00000000000E+00  0.00000000000E+00  0.13952554482E+04  0.13952554482E+04  0.50400001928E-02 0. -1.
       -1   -1    0    0    0  501  0.00000000000E+00  0.00000000000E+00 -0.17847808586E+03  0.17847808593E+03  0.50400001928E-02 0.  1.
    10030    2    1    2    0    0  0.00000000000E+00  0.00000000000E+00  0.12167773623E+04  0.15737335341E+04  0.99804312882E+03 0.  0.
        1    1    3    3  502    0 -0.36583218882E+02 -0.42417471457E+03  0.10188465568E+04  0.11042240835E+04  0.50400001928E-02 0. -1.
       -1    1    3    3    0  502  0.36583218882E+02  0.42417471457E+03  0.19793080555E+03  0.46950945059E+03  0.50400001928E-02 0.  1.
</event>
<event>
 5   0  0.1245850E-02  0.9993273E+03  0.7818609E-02  0.9309283E-01
        2   -1    0    0  501    0  0.00000000000E+00  0.00000000000E+00  0.31255704769E+03  0.31255704770E+03  0.25500000920E-02 0. -1.
       -2   -1    0    0    0  501  0.00000000000E+00  0.00000000000E+00 -0.79877825145E+03  0.79877825146E+03  0.25500000920E-02 0.  1.
    10030    2    1    2    0    0  0.00000000000E+00  0.00000000000E+00 -0.48622120376E+03  0.11113352992E+04  0.99932731783E+03 0.  0.
        3    1    3    3  502    0  0.46841317606E+03 -0.78423341255E+02 -0.70459387497E+02  0.48013087742E+03  0.10100000352E+00 0. -1.
       -3    1    3    3    0  502 -0.46841317606E+03  0.78423341255E+02 -0.41576181626E+03  0.63120442174E+03  0.10100000352E+00 0.  1.
</event>
<event>
 5   0  0.1240503E-02  0.1054982E+04  0.7818609E-02  0.9250215E-01
        2   -1    0    0  501    0  0.00000000000E+00  0.00000000000E+00  0.10957058459E+04  0.10957058459E+04  0.25500000920E-02 0.  1.
       -2   -1    0    0    0  501  0.00000000000E+00  0.00000000000E+00 -0.25394300691E+03  0.25394300692E+03  0.25500000920E-02 0. -1.
    10030    2    1    2    0    0  0.00000000000E+00  0.00000000000E+00  0.84176283896E+03  0.13496488528E+04  0.10549821557E+04 0.  0.
        1    1    3    3  502    0 -0.22895641380E+03 -0.32766781832E+03  0.86119370610E+03  0.94944290931E+03  0.50400001928E-02 0.  1.
       -1    1    3    3    0  502  0.22895641380E+03  0.32766781832E+03 -0.19430867144E+02  0.40020594349E+03  0.50400001928E-02 0. -1.
</event>
<event>
 5   0  0.1245850E-02  0.9939050E+03  0.7818609E-02  0.9315255E-01
       -2   -1    0    0    0  501  0.00000000000E+00  0.00000000000E+00  0.10550895147E+04  0.10550895147E+04  0.25500000920E-02 0.  1.
        2   -1    0    0  501    0  0.00000000000E+00  0.00000000000E+00 -0.23406716033E+03  0.23406716035E+03  0.25500000920E-02 0. -1.
    10030    2    1    2    0    0  0.00000000000E+00  0.00000000000E+00  0.82102235439E+03  0.12891566751E+04  0.99390503897E+03 0.  0.
        3    1    3    3  502    0 -0.15282233141E+03 -0.47261918789E+03  0.39049121276E+03  0.63182826716E+03  0.10100000352E+00 0.  1.
       -3    1    3    3    0  502  0.15282233141E+03  0.47261918789E+03  0.43053114163E+03  0.65732840792E+03  0.10100000352E+00 0. -1.
</event>
<event>
 5   0  0.4782125E-03  0.1004326E+04  0.7818609E-02  0.9303813E-01
        4   -1    0    0  501    0  0.00000000000E+00  0.00000000000E+00  0.86216327451E+03  0.86216420989E+03  0.12699999809E+01 0. -1.
       -4   -1    0    0    0  501  0.00000000000E+00  0.00000000000E+00 -0.29248006860E+03  0.29248282587E+03  0.12699999809E+01 0.  1.
    10030    2    1    2    0    0  0.00000000000E+00  0.00000000000E+00  0.56968320591E+03  0.11546470358E+04  0.10043260537E+04 0.  0.
        3    1    3    3  502    0 -0.10371184546E+03 -0.14077726819E+03 -0.25635222802E+03  0.31030768785E+03  0.10100000352E+00 0.  1.
       -3    1    3    3    0  502  0.10371184546E+03  0.14077726819E+03  0.82603543393E+03  0.84433934791E+03  0.10100000352E+00 0. -1.
</event>
<event>
 5   0  0.1191822E-02  0.8842418E+03  0.7818609E-02  0.9445497E-01
       -2   -1    0    0    0  501  0.00000000000E+00  0.00000000000E+00  0.18472858415E+03  0.18472858416E+03  0.25500000920E-02 0.  1.
        2   -1    0    0  501    0  0.00000000000E+00  0.00000000000E+00 -0.10581519123E+04  0.10581519123E+04  0.25500000920E-02 0. -1.
    10030    2    1    2    0    0  0.00000000000E+00  0.00000000000E+00 -0.87342332819E+03  0.12428804965E+04  0.88424183251E+03 0.  0.
        4    1    3    3  502    0 -0.28627086865E+03 -0.55144103907E+02  0.30479969237E+02  0.29312544048E+03  0.12699999809E+01 0.  1.
       -4    1    3    3    0  502  0.28627086865E+03  0.55144103907E+02 -0.90390329743E+03  0.94975505602E+03  0.12699999809E+01 0. -1.
</event>
<event>
 5   0  0.6967681E-03  0.8741631E+03  0.7818609E-02  0.9458468E-01
       -1   -1    0    0    0  501  0.00000000000E+00  0.00000000000E+00  0.45545593826E+03  0.45545593828E+03  0.50400001928E-02 0.  1.
        1   -1    0    0  501    0  0.00000000000E+00  0.00000000000E+00 -0.41944841030E+03  0.41944841033E+03  0.50400001928E-02 0. -1.
    10030    2    1    2    0    0  0.00000000000E+00  0.00000000000E+00  0.36007527960E+02  0.87490434861E+03  0.87416307240E+03 0.  0.
        5    1    3    3  502    0  0.14550632732E+03  0.38444304168E+03 -0.13061335156E+03  0.43133569431E+03  0.46999998093E+01 0. -1.
       -5    1    3    3    0  502 -0.14550632732E+03 -0.38444304168E+03  0.16662087952E+03  0.44356865430E+03  0.46999998093E+01 0.  1.
</event>
<event>
 5   0  0.4782125E-03  0.1001242E+04  0.7818609E-02  0.9307184E-01
       -4   -1    0    0    0  501  0.00000000000E+00  0.00000000000E+00  0.44959667759E+03  0.44959847131E+03  0.12699999809E+01 0.  1.
        4   -1    0    0  501    0  0.00000000000E+00  0.00000000000E+00 -0.55743205121E+03  0.55743349793E+03  0.12699999809E+01 0. -1.
    10030    2    1    2    0    0  0.00000000000E+00  0.00000000000E+00 -0.10783537362E+03  0.10070319692E+04  0.10012416887E+04 0.  0.
        4    1    3    3  502    0  0.20362461218E+03 -0.11503029478E+03 -0.49911126472E+03  0.55118836968E+03  0.12699999809E+01 0. -1.
       -4    1    3    3    0  502 -0.20362461218E+03  0.11503029478E+03  0.39127589110E+03  0.45584359956E+03  0.12699999809E+01 0.  1.
</event>
<event>
 5   0  0.4782125E-03  0.1003556E+04  0.7818609E-02  0.9304653E-01
       -3   -1    0    0    0  501  0.00000000000E+00  0.00000000000E+00  0.99327757832E+03  0.99327758345E+03  0.10100000352E+00 0. -1.
        3   -1    0    0  501    0  0.00000000000E+00  0.00000000000E+00 -0.25348515222E+03  0.25348517234E+03  0.10100000352E+00 0.  1.
    10030    2    1    2    0    0  0.00000000000E+00  0.00000000000E+00  0.73979242610E+03  0.12467627558E+04  0.10035559454E+04 0.  0.
        1    1    3    3  502    0 -0.16709944906E+03 -0.22981066580E+03  0.88370159605E+03  0.92825841169E+03  0.50400001928E-02 0. -1.
       -1    1    3    3    0  502  0.16709944906E+03  0.22981066580E+03 -0.14390916995E+03  0.31850434410E+03  0.50400001928E-02 0.  1.
</event>
<event>
 5   0  0.4782125E-03  0.1163068E+04  0.7818609E-02  0.9145812E-01
        3   -1    0    0  501    0  0.00000000000E+00  0.00000000000E+00  0.72793371167E+03  0.72793371867E+03  0.10100000352E+00 0.  1.
       -3   -1    0    0    0  501  0.00000000000E+00  0.00000000000E+00 -0.46457758980E+03  0.46457760078E+03  0.10100000352E+00 0. -1.
    10030    2    1    2    0    0  0.00000000000E+00  0.00000000000E+00  0.26335612186E+03  0.11925113195E+04  0.11630678399E+04 0.  0.
        3    1    3    3  502    0 -0.33251809329E+03 -0.43169169634E+03  0.33993494849E+03  0.64224744644E+03  0.10100000352E+00 0.  1.
       -3    1    3    3    0  502  0.33251809329E+03  0.43169169634E+03 -0.76578826627E+02  0.55026387301E+03  0.10100000352E+00 0. -1.
</event>
<event>
 5   0  0.4782125E-03  0.9640817E+03  0.7818609E-02  0.9348841E-01
       -3   -1    0    0    0  501  0.00000000000E+00  0.00000000000E+00  0.41988206146E+03  0.41988207361E+03  0.10100000352E+00 0. -1.
        3   -1    0    0  501    0  0.00000000000E+00  0.00000000000E+00 -0.55340149386E+03  0.55340150307E+03  0.10100000352E+00 0.  1.
    10030    2    1    2    0    0  0.00000000000E+00  0.00000000000E+00 -0.13351943240E+03  0.97328357668E+03  0.96408167797E+03 0.  0.
        2    1    3    3  502    0  0.27739391273E+03 -0.96253156117E+02 -0.45270606191E+03  0.53958764939E+03  0.25500000920E-02 0.  1.
       -2    1    3    3    0  502 -0.27739391273E+03  0.96253156117E+02  0.31918662951E+03  0.43369592729E+03  0.25500000920E-02 0. -1.
</event>
<event>
 5   0  0.7461157E-03  0.1019479E+04  0.7818609E-02  0.9287435E-01
       -1   -1    0    0    0  501  0.00000000000E+00  0.00000000000E+00  0.41864573419E+03  0.41864573422E+03  0.50400001928E-02 0.  1.
        1   -1    0    0  501    0  0.00000000000E+00  0.00000000000E+00 -0.62065423605E+03  0.62065423607E+03  0.50400001928E-02 0. -1.
    10030    2    1    2    0    0  0.00000000000E+00  0.00000000000E+00 -0.20200850187E+03  0.10392999703E+04  0.10194787852E+04 0.  0.
        2    1    3    3  502    0  0.21302554532E+02 -0.97119137347E+02  0.40866429900E+03  0.42058582353E+03  0.25500000920E-02 0.  1.
       -2    1    3    3    0  502 -0.21302554532E+02  0.97119137347E+02 -0.61067280087E+03  0.61871414676E+03  0.25500000920E-02 0. -1.
</event>
<event>
 5   0  0.7224879E-03  0.9912215E+03  0.7818609E-02  0.9318226E-01
        1   -1    0    0  501    0  0.00000000000E+00  0.00000000000E+00  0.66300278661E+03  0.66300278663E+03  0.50400001928E-02 0.  1.
       -1   -1    0    0    0  501  0.00000000000E+00  0.00000000000E+00 -0.37048108684E+03  0.37048108687E+03  0.50400001928E-02 0. -1.
    10030    2    1    2    0    0  0.00000000000E+00  0.00000000000E+00  0.29252169977E+03  0.10334838735E+04  0.99122145454E+03 0.  0.
        3    1    3    3  502    0  0.50987944222E+02  0.17582003132E+03  0.62645989294E+03  0.65265952957E+03  0.10100000352E+00 0.  1.
       -3    1    3    3    0  502 -0.50987944222E+02 -0.17582003132E+03 -0.33393819317E+03  0.38082434393E+03  0.10100000352E+00 0. -1.
</event>
<event>
 5   0  0.6967681E-03  0.1004561E+04  0.7818609E-02  0.9303556E-01
       -1   -1    0    0    0  501  0.00000000000E+00  0.00000000000E+00  0.55756802410E+03  0.55756802413E+03  0.50400001928E-02 0.  1.
        1   -1    0    0  501    0  0.00000000000E+00  0.00000000000E+00 -0.45247533246E+03  0.45247533249E+03  0.50400001928E-02 0. -1.
    10030    2    1    2    0    0  0.00000000000E+00  0.00000000000E+00  0.10509269165E+03  0.10100433566E+04  0.10045611521E+04 0.  0.
        5    1    3    3  502    0  0.36263854844E+03  0.93949672259E+02  0.38893219815E+03  0.54002185372E+03  0.46999998093E+01 0.  1.
       -5    1    3    3    0  502 -0.36263854844E+03 -0.93949672259E+02 -0.28383950650E+03  0.47002150290E+03  0.46999998093E+01 0. -1.
</event>
<event>
 5   0  0.1221315E-02  0.9841389E+03  0.7818609E-02  0.9326114E-01
        2   -1    0    0  501    0  0.00000000000E+00  0.00000000000E+00  0.13861148535E+04  0.13861148535E+04  0.25500000920E-02 0.  1.
       -2   -1    0    0    0  501  0.00000000000E+00  0.00000000000E+00 -0.17468419068E+03  0.17468419070E+03  0.25500000920E-02 0. -1.
    10030    2    1    2    0    0  0.00000000000E+00  0.00000000000E+00  0.12114306628E+04  0.15607990442E+04  0.98413891579E+03 0.  0.
        5    1    3    3  502    0 -0.10059108703E+03 -0.47620015756E+03  0.49107482995E+03  0.69142008609E+03  0.46999998093E+01 0. -1.
       -5    1    3    3    0  502  0.10059108703E+03  0.47620015756E+03  0.72035583289E+03  0.86937895813E+03  0.46999998093E+01 0.  1.
</event>
<event>
 5   0  0.7073004E-03  0.1018947E+04  0.7818609E-02  0.9288005E-01
        1   -1    0    0  501    0  0.00000000000E+00  0.00000000000E+00  0.93196064108E+03  0.93196064109E+03  0.50400001928E-02 0. -1.
       -1   -1    0    0    0  501  0.00000000000E+00  0.00000000000E+00 -0.27851303536E+03  0.27851303541E+03  0.50400001928E-02 0.  1.
    10030    2    1    2    0    0  0.00000000000E+00  0.00000000000E+00  0.65344760572E+03  0.12104736765E+04  0.10189468819E+04 0.  0.
        1    1    3    3  502    0  0.26172887823E+03 -0.33503378502E+03  0.66023024996E+03  0.78527296260E+03  0.50400001928E-02 0. -1.
       -1    1    3    3    0  502 -0.26172887823E+03  0.33503378502E+03 -0.67826442467E+01  0.42520071389E+03  0.50400001928E-02 0.  1.
</event>
<event>
 5   0  0.6967681E-03  0.1004118E+04  0.7818609E-02  0.9304039E-01
        1   -1    0    0  501    0  0.00000000000E+00  0.00000000000E+00  0.69477703173E+03  0.69477703174E+03  0.50400001928E-02 0.  1.
       -1   -1    0    0    0  501  0.00000000000E+00  0.00000000000E+00 -0.36279758786E+03  0.36279758789E+03  0.50400001928E-02 0. -1.
    10030    2    1    2    0    0  0.00000000000E+00  0.00000000000E+00  0.33197944387E+03  0.10575746196E+04  0.10041183819E+04 0.  0.
        5    1    3    3  502    0  0.40953930277E+03  0.13737566239E+03  0.43543489247E+03  0.61336787388E+03  0.46999998093E+01 0. -1.
       -5    1    3    3    0  502 -0.40953930277E+03 -0.13737566239E+03 -0.10345544860E+03  0.44420674576E+03  0.46999998093E+01 0.  1.
</event>
<event>
 5   0  0.7241200E-03  0.9724999E+03  0.7818609E-02  0.9339231E-01
       -1   -1    0    0    0  501  0.00000000000E+00  0.00000000000E+00  0.47236361447E+03  0.47236361450E+03  0.50400001928E-02 0.  1.
        1   -1    0    0  501    0  0.00000000000E+00  0.00000000000E+00 -0.50054453774E+03  0.50054453777E+03  0.50400001928E-02 0. -1.
    10030    2    1    2    0    0  0.00000000000E+00  0.00000000000E+00 -0.28180923271E+02  0.97290815227E+03  0.97249992716E+03 0.  0.
        4    1    3    3  502    0  0.22948649761E+03 -0.31553483386E+03  0.27622289228E+03  0.47804495927E+03  0.12699999809E+01 0.  1.
       -4    1    3    3    0  502 -0.22948649761E+03  0.31553483386E+03 -0.30440381555E+03  0.49486319300E+03  0.12699999809E+01 0. -1.
</event>
<event>
 5   0  0.7461157E-03  0.9390281E+03  0.7818609E-02  0.9378068E-01
        1   -1    0    0  501    0  0.00000000000E+00  0.00000000000E+00  0.19028663949E+04  0.19028663949E+04  0.50400001928E-02 0.  1.
       -1   -1    0    0    0  501  0.00000000000E+00  0.00000000000E+00 -0.11584808829E+03  0.11584808840E+03  0.50400001928E-02 0. -1.
    10030    2    1    2    0    0  0.00000000000E+00  0.00000000000E+00  0.17870183066E+04  0.20187144833E+04  0.93902808100E+03 0.  0.
        2    1    3    3  502    0 -0.24426691330E+03  0.27509423764E+03  0.26637307283E+03  0.45420015241E+03  0.25500000920E-02 0. -1.
       -2    1    3    3    0  502  0.24426691330E+03 -0.27509423764E+03  0.15206452337E+04  0.15645143308E+04  0.25500000920E-02 0.  1.
</event>
<event>
 5   0  0.1216322E-02  0.1002859E+04  0.7818609E-02  0.9305414E-01
        2   -1    0    0  501    0  0.00000000000E+00  0.00000000000E+00  0.38148045521E+03  0.38148045522E+03  0.25500000920E-02 0. -1.
       -2   -1    0    0    0  501  0.00000000000E+00  0.00000000000E+00 -0.65909441441E+03  0.65909441441E+03  0.25500000920E-02 0.  1.
    10030    2    1    2    0    0  0.00000000000E+00  0.00000000000E+00 -0.27761395920E+03  0.10405748696E+04  0.10028591870E+04 0.  0.
        2    1    3    3  502    0 -0.39772678916E+03  0.15613382569E+03  0.13348810383E+03  0.44764209388E+03  0.25500000920E-02 0. -1.
       -2    1    3    3    0  502  0.39772678916E+03 -0.15613382569E+03 -0.41110206302E+03  0.59293277576E+03  0.25500000920E-02 0.  1.
</event>
<event>
 5   0  0.1245850E-02  0.1168379E+04  0.7818609E-02  0.9140994E-01
        2   -1    0    0  501    0  0.00000000000E+00  0.00000000000E+00  0.13803059965E+04  0.13803059965E+04  0.25500000920E-02 0. -1.
       -2   -1    0    0    0  501  0.00000000000E+00  0.00000000000E+00 -0.24724763039E+03  0.24724763040E+03  0.25500000920E-02 0.  1.
    10030    2    1    2    0    0  0.00000000000E+00  0.00000000000E+00  0.11330583662E+04  0.16275536269E+04  0.11683790256E+04 0.  0.
        3    1    3    3  502    0 -0.36348991757E+03 -0.25194711876E+03  0.34856647956E+02  0.44364092117E+03  0.10100000352E+00 0.  1.
       -3    1    3    3    0  502  0.36348991757E+03  0.25194711876E+03  0.10982017182E+04  0.11839127058E+04  0.10100000352E+00 0. -1.
</event>
<event>
 5   0  0.1191822E-02  0.9980499E+03  0.7818609E-02  0.9310686E-01
       -2   -1    0    0    0  501  0.00000000000E+00  0.00000000000E+00  0.25335050815E+03  0.25335050816E+03  0.25500000920E-02 0.  1.
        2   -1    0    0  501    0  0.00000000000E+00  0.00000000000E+00 -0.98293040738E+03  0.98293040739E+03  0.25500000920E-02 0. -1.
    10030    2    1    2    0    0  0.00000000000E+00  0.00000000000E+00 -0.72957989924E+03  0.12362809155E+04  0.99804993501E+03 0.  0.
        4    1    3    3  502    0  0.13149498382E+02  0.45615679410E+03 -0.11467024890E+03  0.47053459914E+03  0.12699999809E+01 0.  1.
       -4    1    3    3    0  502 -0.13149498382E+02 -0.45615679410E+03 -0.61490965034E+03  0.76574631640E+03  0.12699999809E+01 0. -1.
</event>
<event>
 5   0  0.7224879E-03  0.9298584E+03  0.7818609E-02  0.9389008E-01
        1   -1    0    0  501    0  0.00000000000E+00  0.00000000000E+00  0.11630354905E+04  0.11630354905E+04  0.50400001928E-02 0. -1.
       -1   -1    0    0    0  501  0.00000000000E+00  0.00000000000E+00 -0.18585773653E+03  0.18585773660E+03  0.50400001928E-02 0.  1.
    10030    2    1    2    0    0  0.00000000000E+00  0.00000000000E+00  0.97717775397E+03  0.13488932271E+04  0.92985836303E+03 0.  0.
        3    1    3    3  502    0 -0.52793516197E+01 -0.38134787112E+03  0.87432119775E+03  0.95388240229E+03  0.10100000352E+00 0. -1.
       -3    1    3    3    0  502  0.52793516197E+01  0.38134787112E+03  0.10285655621E+03  0.39501082481E+03  0.10100000352E+00 0.  1.
</event>
<event>
 5   0  0.1240503E-02  0.9888947E+03  0.7818609E-02  0.9320809E-01
        2   -1    0    0  501    0  0.00000000000E+00  0.00000000000E+00  0.64992315982E+03  0.64992315982E+03  0.25500000920E-02 0.  1.
       -2   -1    0    0    0  501  0.00000000000E+00  0.00000000000E+00 -0.37616471378E+03  0.37616471379E+03  0.25500000920E-02 0. -1.
    10030    2    1    2    0    0  0.00000000000E+00  0.00000000000E+00  0.27375844603E+03  0.10260878736E+04  0.98889465445E+03 0.  0.
        1    1    3    3  502    0 -0.39190863415E+03  0.26461801918E+03 -0.12993914002E+02  0.47305804657E+03  0.50400001928E-02 0. -1.
       -1    1    3    3    0  502  0.39190863415E+03 -0.26461801918E+03  0.28675236003E+03  0.55302982705E+03  0.50400001928E-02 0.  1.
</event>
<event>
 5   0  0.1221315E-02  0.1041282E+04  0.7818609E-02  0.9264391E-01
        2   -1    0    0  501    0  0.00000000000E+00  0.00000000000E+00  0.22238696855E+04  0.22238696855E+04  0.25500000920E-02 0.  1.
       -2   -1    0    0    0  501  0.00000000000E+00  0.00000000000E+00 -0.12188992551E+03  0.12188992554E+03  0.25500000920E-02 0. -1.
    10030    2    1    2    0    0  0.00000000000E+00  0.00000000000E+00  0.21019797600E+04  0.23457596111E+04  0.10412824984E+04 0.  0.
        5    1    3    3  502    0 -0.39415957018E+03 -0.25971984899E+02  0.18149675737E+04  0.18574621650E+04  0.46999998093E+01 0.  1.
       -5    1    3    3    0  502  0.39415957018E+03  0.25971984899E+02  0.28701218632E+03  0.48829744609E+03  0.46999998093E+01 0. -1.
</event>
<event>
 5   0  0.7241200E-03  0.9895744E+03  0.7818609E-02  0.9320054E-01
        1   -1    0    0  501    0  0.00000000000E+00  0.00000000000E+00  0.87894422357E+03  0.87894422358E+03  0.50400001928E-02 0. -1.
       -1   -1    0    0    0  501  0.00000000000E+00  0.00000000000E+00 -0.27853233459E+03  0.27853233463E+03  0.50400001928E-02 0.  1.
    10030    2    1    2    0    0  0.00000000000E+00  0.00000000000E+00  0.60041188898E+03  0.11574765582E+04  0.98957442690E+03 0.  0.
        4    1    3    3  502    0 -0.46833713036E+03  0.11605580978E+03  0.17205271980E+03  0.51226201298E+03  0.12699999809E+01 0.  1.
       -4    1    3    3    0  502  0.46833713036E+03 -0.11605580978E+03  0.42835916918E+03  0.64521454523E+03  0.12699999809E+01 0. -1.
</event>
<event>
 5   0  0.7461157E-03  0.9916596E+03  0.7818609E-02  0.9317740E-01
       -1   -1    0    0    0  501  0.00000000000E+00  0.00000000000E+00  0.33723650721E+03  0.33723650725E+03  0.50400001928E-02 0. -1.
        1   -1    0    0  501    0  0.00000000000E+00  0.00000000000E+00 -0.72900524484E+03  0.72900524486E+03  0.50400001928E-02 0.  1.
    10030    2    1    2    0    0  0.00000000000E+00  0.00000000000E+00 -0.39176873763E+03  0.10662417521E+04  0.99165958381E+03 0.  0.
        2    1    3    3  502    0  0.22325610448E+03 -0.37844336991E+03 -0.44291244657E+03  0.62388629392E+03  0.25500000920E-02 0.  1.
       -2    1    3    3    0  502 -0.22325610448E+03  0.37844336991E+03  0.51143708939E+02  0.44235545819E+03  0.25500000920E-02 0. -1.
</event>
<event>
 5   0  0.7461157E-03  0.9604775E+03  0.7818609E-02  0.9352987E-01
       -1   -1    0    0    0  501  0.00000000000E+00  0.00000000000E+00  0.81217889430E+03  0.81217889431E+03  0.50400001928E-02 0. -1.
        1   -1    0    0  501    0  0.00000000000E+00  0.00000000000E+00 -0.28396359517E+03  0.28396359521E+03  0.50400001928E-02 0.  1.
    10030    2    1    2    0    0  0.00000000000E+00  0.00000000000E+00  0.52821529913E+03  0.10961424895E+04  0.96047746205E+03 0.  0.
        2    1    3    3  502    0  0.34975870350E+03 -0.29853125234E+03  0.42214953437E+03  0.62422935582E+03  0.25500000920E-02 0. -1.
       -2    1    3    3    0  502 -0.34975870350E+03  0.29853125234E+03  0.10606576476E+03  0.47191313370E+03  0.25500000920E-02 0.  1.
</event>
<event>
 5   0  0.7224879E-03  0.9867193E+03  0.7818609E-02  0.9323232E-01
       -1   -1    0    0    0  501  0.00000000000E+00  0.00000000000E+00  0.53972193009E+03  0.53972193011E+03  0.50400001928E-02 0.  1.
        1   -1    0    0  501    0  0.00000000000E+00  0.00000000000E+00 -0.45097986026E+03  0.45097986029E+03  0.50400001928E-02 0. -1.
    10030    2    1    2    0    0  0.00000000000E+00  0.00000000000E+00  0.88742069831E+02  0.99070179040E+03  0.98671925214E+03 0.  0.
        3    1    3    3  502    0  0.23107166233E+03 -0.43582764870E+03  0.36347665786E+02  0.49463220226E+03  0.10100000352E+00 0. -1.
       -3    1    3    3    0  502 -0.23107166233E+03  0.43582764870E+03  0.52394404045E+02  0.49606958814E+03  0.10100000352E+00 0.  1.
</event>
<event>
 5   0  0.7461157E-03  0.1015979E+04  0.7818609E-02  0.9291190E-01
       -1   -1    0    0    0  501  0.00000000000E+00  0.00000000000E+00  0.58545271581E+03  0.58545271583E+03  0.50400001928E-02 0.  1.
        1   -1    0    0  501    0  0.00000000000E+00  0.00000000000E+00 -0.44077606002E+03  0.44077606005E+03  0.50400001928E-02 0. -1.
    10030    2    1    2    0    0  0.00000000000E+00  0.00000000000E+00  0.14467665579E+03  0.10262287759E+04  0.10159794121E+04 0.  0.
        2    1    3    3  502    0 -0.14640739572E+03  0.37931272292E+03 -0.23526672738E+03  0.46974855009E+03  0.25500000920E-02 0. -1.
       -2    1    3    3    0  502  0.14640739572E+03 -0.37931272292E+03  0.37994338316E+03  0.55648022580E+03  0.25500000920E-02 0.  1.
</event>
<event>
 5   0  0.1216322E-02  0.9904491E+03  0.7818609E-02  0.9319083E-01
       -2   -1    0    0    0  501  0.00000000000E+00  0.00000000000E+00  0.52970128477E+03  0.52970128477E+03  0.25500000920E-02 0. -1.
        2   -1    0    0  501    0  0.00000000000E+00  0.00000000000E+00 -0.46299180733E+03  0.46299180734E+03  0.25500000920E-02 0.  1.
    10030    2    1    2    0    0  0.00000000000E+00  0.00000000000E+00  0.66709477434E+02  0.99269309212E+03  0.99044910054E+03 0.  0.
        2    1    3    3  502    0  0.47634464165E+02  0.46419204802E+03 -0.13286446832E+03  0.48517653135E+03  0.25500000920E-02 0.  1.
       -2    1    3    3    0  502 -0.47634464165E+02 -0.46419204802E+03  0.19957394576E+03  0.50751656077E+03  0.25500000920E-02 0. -1.
</event>
<event>
 5   0  0.1216322E-02  0.9481948E+03  0.7818609E-02  0.9367263E-01
       -2   -1    0    0    0  501  0.00000000000E+00  0.00000000000E+00  0.15843013788E+03  0.15843013790E+03  0.25500000920E-02 0. -1.
        2   -1    0    0  501    0  0.00000000000E+00  0.00000000000E+00 -0.14187220955E+04  0.14187220955E+04  0.25500000920E-02 0.  1.
    10030    2    1    2    0    0  0.00000000000E+00  0.00000000000E+00 -0.12602919576E+04  0.15771522334E+04  0.94819478426E+03 0.  0.
        2    1    3    3  502    0 -0.43935205743E+03  0.23974122527E+02 -0.92377441357E+03  0.10232126642E+04  0.25500000920E-02 0. -1.
       -2    1    3    3    0  502  0.43935205743E+03 -0.23974122527E+02 -0.33651754402E+03  0.55393956923E+03  0.25500000920E-02 0.  1.
</event>
<event>
 5   0  0.1245850E-02  0.9916347E+03  0.7818609E-02  0.9317768E-01
       -2   -1    0    0    0  501  0.00000000000E+00  0.00000000000E+00  0.19459667625E+03  0.19459667627E+03  0.25500000920E-02 0. -1.
        2   -1    0    0  501    0  0.00000000000E+00  0.00000000000E+00 -0.12633044432E+04  0.12633044432E+04  0.25500000920E-02 0.  1.
    10030    2    1    2    0    0  0.00000000000E+00  0.00000000000E+00 -0.10687077669E+04  0.14579011195E+04  0.99163470241E+03 0.  0.
        3    1    3    3  502    0 -0.31033988289E+03  0.40379875624E+02 -0.10997474144E+04  0.11434097091E+04  0.10100000352E+00 0.  1.
       -3    1    3    3    0  502  0.31033988289E+03 -0.40379875624E+02  0.31039647446E+02  0.31449141034E+03  0.10100000352E+00 0. -1.
</event>
<event>
 5   0  0.4782125E-03  0.9921928E+03  0.7818609E-02  0.9317149E-01
        3   -1    0    0  501    0  0.00000000000E+00  0.00000000000E+00  0.68463299063E+03  0.68463299808E+03  0.10100000352E+00 0. -1.
       -3   -1    0    0    0  501  0.00000000000E+00  0.00000000000E+00 -0.35947963015E+03  0.35947964433E+03  0.10100000352E+00 0.  1.
    10030    2    1    2    0    0  0.00000000000E+00  0.00000000000E+00  0.32515336048E+03  0.10441126424E+04  0.99219277472E+03 0.  0.
        3    1    3    3  502    0  0.34363602869E+03 -0.41409525268E+02 -0.21142377649E+03  0.40558660291E+03  0.10100000352E+00 0.  1.
       -3    1    3    3    0  502 -0.34363602869E+03  0.41409525268E+02  0.53657713697E+03  0.63852603950E+03  0.10100000352E+00 0. -1.
</event>
<event>
 5   0  0.7073004E-03  0.9813781E+03  0.7818609E-02  0.9329208E-01
       -1   -1    0    0    0  501  0.00000000000E+00  0.00000000000E+00  0.79807797754E+03  0.79807797756E+03  0.50400001928E-02 0. -1.
        1   -1    0    0  501    0  0.00000000000E+00  0.00000000000E+00 -0.30169449289E+03  0.30169449293E+03  0.50400001928E-02 0.  1.
    10030    2    1    2    0    0  0.00000000000E+00  0.00000000000E+00  0.49638348465E+03  0.10997724705E+04  0.98137807344E+03 0.  0.
        1    1    3    3  502    0 -0.25372159394E+03  0.13616755566E+03 -0.19705610464E+03  0.34892314175E+03  0.50400001928E-02 0.  1.
       -1    1    3    3    0  502  0.25372159394E+03 -0.13616755566E+03  0.69343958929E+03  0.75084932874E+03  0.50400001928E-02 0. -1.
</event>
<event>
 5   0  0.7461157E-03  0.9918477E+03  0.7818609E-02  0.9317532E-01
       -1   -1    0    0    0  501  0.00000000000E+00  0.00000000000E+00  0.51460257487E+03  0.51460257489E+03  0.50400001928E-02 0.  1.
        1   -1    0    0  501    0  0.00000000000E+00  0.00000000000E+00 -0.47792312684E+03  0.47792312687E+03  0.50400001928E-02 0. -1.
    10030    2    1    2    0    0  0.00000000000E+00  0.00000000000E+00  0.36679448024E+02  0.99252570176E+03  0.99184771349E+03 0.  0.
        2    1    3    3  502    0 -0.60337366123E+02 -0.19361069032E+03  0.47121374286E+03  0.51299911172E+03  0.25500000920E-02 0.  1.
       -2    1    3    3    0  502  0.60337366123E+02  0.19361069032E+03 -0.43453429484E+03  0.47952659004E+03  0.25500000920E-02 0. -1.
</event>
<event>
 5   0  0.7461157E-03  0.1019580E+04  0.7818609E-02  0.9287327E-01
       -1   -1    0    0    0  501  0.00000000000E+00  0.00000000000E+00  0.22481583515E+03  0.22481583521E+03  0.50400001928E-02 0. -1.
        1   -1    0    0  501    0  0.00000000000E+00  0.00000000000E+00 -0.11559934373E+04  0.11559934373E+04  0.50400001928E-02 0.  1.
    10030    2    1    2    0    0  0.00000000000E+00  0.00000000000E+00 -0.93117760216E+03  0.13808092725E+04  0.10195795802E+04 0.  0.
        2    1    3    3  502    0  0.23222655988E+03  0.40758834396E+03 -0.19531254884E+03  0.50813819477E+03  0.25500000920E-02 0. -1.
       -2    1    3    3    0  502 -0.23222655988E+03 -0.40758834396E+03 -0.73586505332E+03  0.87267107776E+03  0.25500000920E-02 0.  1.
</event>
<event>
 5   0  0.1245850E-02  0.9110359E+03  0.7818609E-02  0.9411890E-01
        2   -1    0    0  501    0  0.00000000000E+00  0.00000000000E+00  0.68580456904E+03  0.68580456904E+03  0.25500000920E-02 0.  1.
       -2   -1    0    0    0  501  0.00000000000E+00  0.00000000000E+00 -0.30255937062E+03  0.30255937063E+03  0.25500000920E-02 0. -1.
    10030    2    1    2    0    0  0.00000000000E+00  0.00000000000E+00  0.38324519842E+03  0.98836393967E+03  0.91103589124E+03 0.  0.
        3    1    3    3  502    0 -0.66401533753E+02 -0.30171513777E+03 -0.17153722833E+03  0.35336414496E+03  0.10100000352E+00 0. -1.
       -3    1    3    3    0  502  0.66401533753E+02  0.30171513777E+03  0.55478242675E+03  0.63499979471E+03  0.10100000352E+00 0.  1.
</event>
<event>
 5   0  0.1216322E-02  0.1002483E+04  0.7818609E-02  0.9305825E-01
       -2   -1    0    0    0  501  0.00000000000E+00  0.00000000000E+00  0.35473827495E+03  0.35473827496E+03  0.25500000920E-02 0.  1.
        2   -1    0    0  501    0  0.00000000000E+00  0.00000000000E+00 -0.70824939275E+03  0.70824939275E+03  0.25500000920E-02 0. -1.
    10030    2    1    2    0    0  0.00000000000E+00  0.00000000000E+00 -0.35351111780E+03  0.10629876677E+04  0.10024832524E+04 0.  0.
        2    1    3    3  502    0  0.16705940228E+03 -0.29632662254E+03 -0.56711130666E+03  0.66131198784E+03  0.25500000920E-02 0. -1.
       -2    1    3    3    0  502 -0.16705940228E+03  0.29632662254E+03  0.21360018886E+03  0.40167567988E+03  0.25500000920E-02 0.  1.
</event>
<event>
 5   0  0.1216322E-02  0.9820185E+03  0.7818609E-02  0.9328489E-01
       -2   -1    0    0    0  501  0.00000000000E+00  0.00000000000E+00  0.15496832856E+03  0.15496832858E+03  0.25500000920E-02 0. -1.
        2   -1    0    0  501    0  0.00000000000E+00  0.00000000000E+00 -0.15557376306E+04  0.15557376306E+04  0.25500000920E-02 0.  1.
    10030    2    1    2    0    0  0.00000000000E+00  0.00000000000E+00 -0.14007693021E+04  0.17107059592E+04  0.98201845259E+03 0.  0.
        2    1    3    3  502    0 -0.15388372977E+03  0.40368251832E+03 -0.29388910807E+03  0.52250414901E+03  0.25500000920E-02 0. -1.
       -2    1    3    3    0  502  0.15388372977E+03 -0.40368251832E+03 -0.11068801940E+04  0.11882018102E+04  0.25500000920E-02 0.  1.
</event>
<event>
 5   0  0.7241200E-03  0.9887352E+03  0.7818609E-02  0.9320987E-01
        1   -1    0    0  501    0  0.00000000000E+00  0.00000000000E+00  0.13913605169E+03  0.13913605178E+03  0.50400001928E-02 0. -1.
       -1   -1    0    0    0  501  0.00000000000E+00  0.00000000000E+00 -0.17565491731E+04  0.17565491731E+04  0.50400001928E-02 0.  1.
    10030    2    1    2    0    0  0.00000000000E+00  0.00000000000E+00 -0.16174131214E+04  0.18956852249E+04  0.98873518525E+03 0.  0.
        4    1    3    3  502    0  0.75873701412E+02  0.42756177010E+02  0.12430885032E+03  0.15178673330E+03  0.12699999809E+01 0. -1.
       -4    1    3    3    0  502 -0.75873701412E+02 -0.42756177010E+02 -0.17417219717E+04  0.17438984916E+04  0.12699999809E+01 0.  1.
</event>
<event>
 5   0  0.6967681E-03  0.9905676E+03  0.7818609E-02  0.9318951E-01
        1   -1    0    0  501    0  0.00000000000E+00  0.00000000000E+00  0.35550174126E+03  0.35550174130E+03  0.50400001928E-02 0. -1.
       -1   -1    0    0    0  501  0.00000000000E+00  0.00000000000E+00 -0.69002766519E+03  0.69002766521E+03  0.50400001928E-02 0.  1.
    10030    2    1    2    0    0  0.00000000000E+00  0.00000000000E+00 -0.33452592393E+03  0.10455294065E+04  0.99056758784E+03 0.  0.
        5    1    3    3  502    0  0.16394472023E+03  0.45099641908E+03 -0.37957173933E+02  0.48139222923E+03  0.46999998093E+01 0. -1.
       -5    1    3    3    0  502 -0.16394472023E+03 -0.45099641908E+03 -0.29656875000E+03  0.56413717728E+03  0.46999998093E+01 0.  1.
</event>
<event>
 5   0  0.1240503E-02  0.1261725E+04  0.7818609E-02  0.9060481E-01
        2   -1    0    0  501    0  0.00000000000E+00  0.00000000000E+00  0.10076330893E+04  0.10076330893E+04  0.25500000920E-02 0.  1.
       -2   -1    0    0    0  501  0.00000000000E+00  0.00000000000E+00 -0.39497244862E+03  0.39497244863E+03  0.25500000920E-02 0. -1.
    10030    2    1    2    0    0  0.00000000000E+00  0.00000000000E+00  0.61266064068E+03  0.14026055379E+04  0.12617247063E+04 0.  0.
        1    1    3    3  502    0 -0.21186598281E+03  0.42051255902E+03 -0.16039276634E+03  0.49743727894E+03  0.50400001928E-02 0. -1.
       -1    1    3    3    0  502  0.21186598281E+03 -0.42051255902E+03  0.77305340702E+03  0.90516825899E+03  0.50400001928E-02 0.  1.
</event>
<event>
 5   0  0.1245850E-02  0.1003811E+04  0.7818609E-02  0.9304375E-01
        2   -1    0    0  501    0  0.00000000000E+00  0.00000000000E+00  0.25412261649E+03  0.25412261650E+03  0.25500000920E-02 0. -1.
       -2   -1    0    0    0  501  0.00000000000E+00  0.00000000000E+00 -0.99128928570E+03  0.99128928570E+03  0.25500000920E-02 0.  1.
    10030    2    1    2    0    0  0.00000000000E+00  0.00000000000E+00 -0.73716666921E+03  0.12454119022E+04  0.10038107929E+04 0.  0.
        3    1    3    3  502    0  0.11676064144E+03  0.46053939709E+03 -0.56932673214E+03  0.74152715513E+03  0.10100000352E+00 0. -1.
       -3    1    3    3    0  502 -0.11676064144E+03 -0.46053939709E+03 -0.16783993707E+03  0.50388474707E+03  0.10100000352E+00 0.  1.
</event>
<event>
 5   0  0.4782125E-03  0.1003183E+04  0.7818609E-02  0.9305061E-01
        4   -1    0    0  501    0  0.00000000000E+00  0.00000000000E+00  0.92144886895E+03  0.92144974415E+03  0.12699999809E+01 0. -1.
       -4   -1    0    0    0  501  0.00000000000E+00  0.00000000000E+00 -0.27303932966E+03  0.27304228325E+03  0.12699999809E+01 0.  1.
    10030    2    1    2    0    0  0.00000000000E+00  0.00000000000E+00  0.64840953929E+03  0.11944920274E+04  0.10031830705E+04 0.  0.
        3    1    3    3  502    0  0.14847463471E+03 -0.10396084751E+02 -0.24614178524E+03  0.28764315457E+03  0.10100000352E+00 0.  1.
       -3    1    3    3    0  502 -0.14847463471E+03  0.10396084751E+02  0.89455132453E+03  0.90684887283E+03  0.10100000352E+00 0. -1.
</event>
<event>
 5   0  0.1245850E-02  0.9783750E+03  0.7818609E-02  0.9332586E-01
        2   -1    0    0  501    0  0.00000000000E+00  0.00000000000E+00  0.55569025333E+03  0.55569025334E+03  0.25500000920E-02 0. -1.
       -2   -1    0    0    0  501  0.00000000000E+00  0.00000000000E+00 -0.43064349878E+03  0.43064349879E+03  0.25500000920E-02 0.  1.
    10030    2    1    2    0    0  0.00000000000E+00  0.00000000000E+00  0.12504675455E+03  0.98633375213E+03  0.97837496890E+03 0.  0.
        3    1    3    3  502    0 -0.31334904958E+03  0.16860516906E+03  0.40094603360E+03  0.53607188134E+03  0.10100000352E+00 0. -1.
       -3    1    3    3    0  502  0.31334904958E+03 -0.16860516906E+03 -0.27589927905E+03  0.45026187079E+03  0.10100000352E+00 0.  1.
</event>
<event>
 5   0  0.1216322E-02  0.9506421E+03  0.7818609E-02  0.9364400E-01
       -2   -1    0    0    0  501  0.00000000000E+00  0.00000000000E+00  0.21996917628E+03  0.21996917629E+03  0.25500000920E-02 0. -1.
        2   -1    0    0  501    0  0.00000000000E+00  0.00000000000E+00 -0.10270988242E+04  0.10270988242E+04  0.25500000920E-02 0.  1.
    10030    2    1    2    0    0  0.00000000000E+00  0.00000000000E+00 -0.80712964796E+03  0.12470680005E+04  0.95064206163E+03 0.  0.
        2    1    3    3  502    0  0.16456886535E+03 -0.21617859754E+03  0.10806715442E+03  0.29239460896E+03  0.25500000920E-02 0. -1.
       -2    1    3    3    0  502 -0.16456886535E+03  0.21617859754E+03 -0.91519680239E+03  0.95467339157E+03  0.25500000920E-02 0.  1.
</event>
<event>
 5   0  0.1221315E-02  0.9957534E+03  0.7818609E-02  0.9313215E-01
        2   -1    0    0  501    0  0.00000000000E+00  0.00000000000E+00  0.95696987195E+03  0.95696987195E+03  0.25500000920E-02 0.  1.
       -2   -1    0    0    0  501  0.00000000000E+00  0.00000000000E+00 -0.25902718150E+03  0.25902718151E+03  0.25500000920E-02 0. -1.
    10030    2    1    2    0    0  0.00000000000E+00  0.00000000000E+00  0.69794269045E+03  0.12159970535E+04  0.99575340064E+03 0.  0.
        5    1    3    3  502    0  0.17605105360E+03 -0.17249907120E+03  0.87720773182E+03  0.91118900224E+03  0.46999998093E+01 0. -1.
       -5    1    3    3    0  502 -0.17605105360E+03  0.17249907120E+03 -0.17926504137E+03  0.30480805123E+03  0.46999998093E+01 0.  1.
</event>
<event>
 5   0  0.7224879E-03  0.9963958E+03  0.7818609E-02  0.9312507E-01
       -1   -1    0    0    0  501  0.00000000000E+00  0.00000000000E+00  0.82863970413E+03  0.82863970414E+03  0.50400001928E-02 0.  1.
        1   -1    0    0  501    0  0.00000000000E+00  0.00000000000E+00 -0.29952840108E+03  0.29952840112E+03  0.50400001928E-02 0. -1.
    10030    2    1    2    0    0  0.00000000000E+00  0.00000000000E+00  0.52911130305E+03  0.11281681053E+04  0.99639575608E+03 0.  0.
        3    1    3    3  502    0 -0.34558381026E+03 -0.13212318578E+03 -0.11320919627E+03  0.38691218443E+03  0.10100000352E+00 0. -1.
       -3    1    3    3    0  502  0.34558381026E+03  0.13212318578E+03  0.64232049932E+03  0.74125592084E+03  0.10100000352E+00 0.  1.
</event>
<event>
 5   0  0.6967681E-03  0.9930726E+03  0.7818609E-02  0.9316175E-01
       -1   -1    0    0    0  501  0.00000000000E+00  0.00000000000E+00  0.58810043945E+03  0.58810043947E+03  0.50400001928E-02 0. -1.
        1   -1    0    0  501    0  0.00000000000E+00  0.00000000000E+00 -0.41922818847E+03  0.41922818850E+03  0.50400001928E-02 0.  1.
    10030    2    1    2    0    0  0.00000000000E+00  0.00000000000E+00  0.16887225099E+03  0.10073286280E+04  0.99307256914E+03 0.  0.
        5    1    3    3  502    0  0.38507975546E+02  0.46279608769E+03  0.26263708028E+03  0.53353857302E+03  0.46999998093E+01 0.  1.
       -5    1    3    3    0  502 -0.38507975546E+02 -0.46279608769E+03 -0.93764829299E+02  0.47379005495E+03  0.46999998093E+01 0. -1.
</event>
<event>
 5   0  0.1240503E-02  0.8949599E+03  0.7818609E-02  0.9431904E-01
       -2   -1    0    0    0  501  0.00000000000E+00  0.00000000000E+00  0.62378852293E+03  0.62378852293E+03  0.25500000920E-02 0. -1.
        2   -1    0    0  501    0  0.00000000000E+00  0.00000000000E+00 -0.32100349506E+03  0.32100349507E+03  0.25500000920E-02 0.  1.
    10030    2    1    2    0    0  0.00000000000E+00  0.00000000000E+00  0.30278502787E+03  0.94479201801E+03  0.89495987853E+03 0.  0.
        1    1    3    3  502    0 -0.44474568012E+03 -0.48583514785E+02  0.16078855570E+03  0.47540723339E+03  0.50400001928E-02 0. -1.
       -1    1    3    3    0  502  0.44474568012E+03  0.48583514785E+02  0.14199647217E+03  0.46938478461E+03  0.50400001928E-02 0.  1.
</event>
<event>
 5   0  0.7461157E-03  0.1013544E+04  0.7818609E-02  0.9293813E-01
       -1   -1    0    0    0  501  0.00000000000E+00  0.00000000000E+00  0.19339447090E+03  0.19339447096E+03  0.50400001928E-02 0. -1.
        1   -1    0    0  501    0  0.00000000000E+00  0.00000000000E+00 -0.13279491111E+04  0.13279491111E+04  0.50400001928E-02 0.  1.
    10030    2    1    2    0    0  0.00000000000E+00  0.00000000000E+00 -0.11345546402E+04  0.15213435820E+04  0.10135443074E+04 0.  0.
        2    1    3    3  502    0 -0.32409244606E+03  0.16475874733E+03 -0.10971938471E+04  0.11558614521E+04  0.25500000920E-02 0.  1.
       -2    1    3    3    0  502  0.32409244606E+03 -0.16475874733E+03 -0.37360793074E+02  0.36548212990E+03  0.25500000920E-02 0. -1.
</event>
<event>
 5   0  0.1216322E-02  0.1003439E+04  0.7818609E-02  0.9304781E-01
        2   -1    0    0  501    0  0.00000000000E+00  0.00000000000E+00  0.14192325706E+04  0.14192325706E+04  0.25500000920E-02 0.  1.
       -2   -1    0    0    0  501  0.00000000000E+00  0.00000000000E+00 -0.17736531744E+03  0.17736531746E+03  0.25500000920E-02 0. -1.
    10030    2    1    2    0    0  0.00000000000E+00  0.00000000000E+00  0.12418672532E+04  0.15965978881E+04  0.10034393563E+04 0.  0.
        2    1    3    3  502    0  0.13134868653E+03 -0.12094896515E+03 -0.12510148011E+03  0.21801722399E+03  0.25500000920E-02 0. -1.
       -2    1    3    3    0  502 -0.13134868653E+03  0.12094896515E+03  0.13669687333E+04  0.13785806641E+04  0.25500000920E-02 0.  1.
</event>
<event>
 5   0  0.7073004E-03  0.1008928E+04  0.7818609E-02  0.9298806E-01
        1   -1    0    0  501    0  0.00000000000E+00  0.00000000000E+00  0.40980857694E+03  0.40980857697E+03  0.50400001928E-02 0. -1.
       -1   -1    0    0    0  501  0.00000000000E+00  0.00000000000E+00 -0.62098261948E+03  0.62098261951E+03  0.50400001928E-02 0.  1.
    10030    2    1    2    0    0  0.00000000000E+00  0.00000000000E+00 -0.21117404255E+03  0.10307911965E+04  0.10089281513E+04 0.  0.
        1    1    3    3  502    0  0.13278535364E+03  0.24993788022E+03 -0.53222810077E+03  0.60279983857E+03  0.50400001928E-02 0.  1.
       -1    1    3    3    0  502 -0.13278535364E+03 -0.24993788022E+03  0.32105405823E+03  0.42799135790E+03  0.50400001928E-02 0. -1.
</event>
<event>
 5   0  0.1191822E-02  0.9986205E+03  0.7818609E-02  0.9310059E-01
       -2   -1    0    0    0  501  0.00000000000E+00  0.00000000000E+00  0.81395016117E+03  0.81395016118E+03  0.25500000920E-02 0. -1.
        2   -1    0    0  501    0  0.00000000000E+00  0.00000000000E+00 -0.30629728066E+03  0.30629728067E+03  0.25500000920E-02 0.  1.
    10030    2    1    2    0    0  0.00000000000E+00  0.00000000000E+00  0.50765288051E+03  0.11202474419E+04  0.99862049042E+03 0.  0.
        4    1    3    3  502    0  0.12158482169E+03 -0.48402780768E+03  0.23632785555E+03  0.55219403808E+03  0.12699999809E+01 0. -1.
       -4    1    3    3    0  502 -0.12158482169E+03  0.48402780768E+03  0.27132502495E+03  0.56805340377E+03  0.12699999809E+01 0.  1.
</event>
<event>
 5   0  0.7241200E-03  0.9717463E+03  0.7818609E-02  0.9340088E-01
       -1   -1    0    0    0  501  0.00000000000E+00  0.00000000000E+00  0.33233575912E+03  0.33233575916E+03  0.50400001928E-02 0. -1.
        1   -1    0    0  501    0  0.00000000000E+00  0.00000000000E+00 -0.71034405028E+03  0.71034405030E+03  0.50400001928E-02 0.  1.
    10030    2    1    2    0    0  0.00000000000E+00  0.00000000000E+00 -0.37800829116E+03  0.10426798095E+04  0.97174632331E+03 0.  0.
        4    1    3    3  502    0 -0.40525345800E+03 -0.15778970690E+03  0.43475115146E+02  0.43705795424E+03  0.12699999809E+01 0.  1.
       -4    1    3    3    0  502  0.40525345800E+03  0.15778970690E+03 -0.42148340631E+03  0.60562185522E+03  0.12699999809E+01 0. -1.
</event>
<event>
 5   0  0.1221315E-02  0.9860918E+03  0.7818609E-02  0.9323932E-01
       -2   -1    0    0    0  501  0.00000000000E+00  0.00000000000E+00  0.66471963368E+03  0.66471963369E+03  0.25500000920E-02 0. -1.
        2   -1    0    0  501    0  0.00000000000E+00  0.00000000000E+00 -0.36570943463E+03  0.36570943464E+03  0.25500000920E-02 0.  1.
    10030    2    1    2    0    0  0.00000000000E+00  0.00000000000E+00  0.29901019905E+03  0.10304290683E+04  0.98609176334E+03 0.  0.
        5    1    3    3  502    0  0.21010054105E+03  0.42308895826E+03  0.20000146820E+01  0.47241146685E+03  0.46999998093E+01 0. -1.
       -5    1    3    3    0  502 -0.21010054105E+03 -0.42308895826E+03  0.29701018437E+03  0.55801760148E+03  0.46999998093E+01 0.  1.
</event>
<event>
 5   0  0.7461157E-03  0.1008794E+04  0.7818609E-02  0.9298952E-01
       -1   -1    0    0    0  501  0.00000000000E+00  0.00000000000E+00  0.76639632273E+03  0.76639632274E+03  0.50400001928E-02 0.  1.
        1   -1    0    0  501    0  0.00000000000E+00  0.00000000000E+00 -0.33196450696E+03  0.33196450700E+03  0.50400001928E-02 0. -1.
    10030    2    1    2    0    0  0.00000000000E+00  0.00000000000E+00  0.43443181576E+03  0.10983608297E+04  0.10087940869E+04 0.  0.
        2    1    3    3  502    0  0.11896303604E+03 -0.39141369557E+03 -0.10403959379E+03  0.42211505790E+03  0.25500000920E-02 0. -1.
       -2    1    3    3    0  502 -0.11896303604E+03  0.39141369557E+03  0.53847140955E+03  0.67624577184E+03  0.25500000920E-02 0.  1.
</event>
<event>
 5   0  0.7224879E-03  0.9963528E+03  0.7818609E-02  0.9312554E-01
        1   -1    0    0  501    0  0.00000000000E+00  0.00000000000E+00  0.14618570116E+04  0.14618570116E+04  0.50400001928E-02 0.  1.
       -1   -1    0    0    0  501  0.00000000000E+00  0.00000000000E+00 -0.16977016470E+03  0.16977016477E+03  0.50400001928E-02 0. -1.
    10030    2    1    2    0    0  0.00000000000E+00  0.00000000000E+00  0.12920868469E+04  0.16316271764E+04  0.99635276022E+03 0.  0.
        3    1    3    3  502    0  0.32003254215E+02  0.34029182234E+03  0.52524799373E+02  0.34580572202E+03  0.10100000352E+00 0. -1.
       -3    1    3    3    0  502 -0.32003254215E+02 -0.34029182234E+03  0.12395620476E+04  0.12858214544E+04  0.10100000352E+00 0.  1.
</event>
<event>
 5   0  0.1240503E-02  0.9987080E+03  0.7818609E-02  0.9309963E-01
       -2   -1    0    0    0  501  0.00000000000E+00  0.00000000000E+00  0.26623347022E+03  0.26623347023E+03  0.25500000920E-02 0. -1.
        2   -1    0    0  501    0  0.00000000000E+00  0.00000000000E+00 -0.93660051178E+03  0.93660051178E+03  0.25500000920E-02 0.  1.
    10030    2    1    2    0    0  0.00000000000E+00  0.00000000000E+00 -0.67036704155E+03  0.12028339820E+04  0.99870797428E+03 0.  0.
        1    1    3    3  502    0  0.43214260838E+03  0.17043168007E+03 -0.55582112097E+03  0.72438339993E+03  0.50400001928E-02 0.  1.
       -1    1    3    3    0  502 -0.43214260838E+03 -0.17043168007E+03 -0.11454592059E+03  0.47845058209E+03  0.50400001928E-02 0. -1.
</event>
<event>
 5   0  0.7224879E-03  0.1001550E+04  0.7818609E-02  0.9306847E-01
        1   -1    0    0  501    0  0.00000000000E+00  0.00000000000E+00  0.67378417690E+03  0.67378417692E+03  0.50400001928E-02 0. -1.
       -1   -1    0    0    0  501  0.00000000000E+00  0.00000000000E+00 -0.37218974646E+03  0.37218974649E+03  0.50400001928E-02 0.  1.
    10030    2    1    2    0    0  0.00000000000E+00  0.00000000000E+00  0.30159443044E+03  0.10459739234E+04  0.10015499229E+04 0.  0.
        3    1    3    3  502    0 -0.31156169181E+03  0.39076247752E+03  0.18397995226E+03  0.53255481847E+03  0.10100000352E+00 0. -1.
       -3    1    3    3    0  502  0.31156169181E+03 -0.39076247752E+03  0.11761447819E+03  0.51341910494E+03  0.10100000352E+00 0.  1.
</event>
<event>
 5   0  0.1240503E-02  0.1005145E+04  0.7818609E-02  0.9302920E-01
        2   -1    0    0  501    0  0.00000000000E+00  0.00000000000E+00  0.27680631044E+03  0.27680631045E+03  0.25500000920E-02 0. -1.
       -2   -1    0    0    0  501  0.00000000000E+00  0.00000000000E+00 -0.91247525345E+03  0.91247525345E+03  0.25500000920E-02 0.  1.
    10030    2    1    2    0    0  0.00000000000E+00  0.00000000000E+00 -0.63566894301E+03  0.11892815639E+04  0.10051445832E+04 0.  0.
        1    1    3    3  502    0  0.38659380411E+03 -0.27735168261E+03 -0.12631703825E+03  0.49227504446E+03  0.50400001928E-02 0. -1.
       -1    1    3    3    0  502 -0.38659380411E+03  0.27735168261E+03 -0.50935190476E+03  0.69700651944E+03  0.50400001928E-02 0.  1.
</event>
<event>
 5   0  0.7224879E-03  0.1003347E+04  0.7818609E-02  0.9304881E-01
       -1   -1    0    0    0  501  0.00000000000E+00  0.00000000000E+00  0.97471151164E+03  0.97471151165E+03  0.50400001928E-02 0.  1.
        1   -1    0    0  501    0  0.00000000000E+00  0.00000000000E+00 -0.25820618774E+03  0.25820618779E+03  0.50400001928E-02 0. -1.
    10030    2    1    2    0    0  0.00000000000E+00  0.00000000000E+00  0.71650532390E+03  0.12329176994E+04  0.10033474844E+04 0.  0.
        3    1    3    3  502    0 -0.41803479762E+03 -0.27732287184E+03  0.35342014250E+03  0.61365044985E+03  0.10100000352E+00 0.  1.
       -3    1    3    3    0  502  0.41803479762E+03  0.27732287184E+03  0.36308518140E+03  0.61926724960E+03  0.10100000352E+00 0. -1.
</event>
<event>
 5   0  0.6967681E-03  0.1001776E+04  0.7818609E-02  0.9306599E-01
        1   -1    0    0  501    0  0.00000000000E+00  0.00000000000E+00  0.24685009207E+03  0.24685009212E+03  0.50400001928E-02 0. -1.
       -1   -1    0    0    0  501  0.00000000000E+00  0.00000000000E+00 -0.10163609866E+04  0.10163609866E+04  0.50400001928E-02 0.  1.
    10030    2    1    2    0    0  0.00000000000E+00  0.00000000000E+00 -0.76951089453E+03  0.12632110787E+04  0.10017760292E+04 0.  0.
        5    1    3    3  502    0  0.18606657110E+02  0.33622899614E+03  0.82775273843E+02  0.34679962729E+03  0.46999998093E+01 0. -1.
       -5    1    3    3    0  502 -0.18606657110E+02 -0.33622899614E+03 -0.85228616837E+03  0.91641145144E+03  0.46999998093E+01 0.  1.
</event>
<event>
 5   0  0.1191822E-02  0.9546509E+03  0.7818609E-02  0.9359731E-01
        2   -1    0    0  501    0  0.00000000000E+00  0.00000000000E+00  0.11767936327E+04  0.11767936327E+04  0.25500000920E-02 0. -1.
       -2   -1    0    0    0  501  0.00000000000E+00  0.00000000000E+00 -0.19361049783E+03  0.19361049785E+03  0.25500000920E-02 0.  1.
    10030    2    1    2    0    0  0.00000000000E+00  0.00000000000E+00  0.98318313484E+03  0.13704041305E+04  0.95465093324E+03 0.  0.
        4    1    3    3  502    0  0.25661071780E+03 -0.17547381966E+03  0.10115485845E+04  0.10582401776E+04  0.12699999809E+01 0. -1.
       -4    1    3    3    0  502 -0.25661071780E+03  0.17547381966E+03 -0.28365449615E+02  0.31216395293E+03  0.12699999809E+01 0.  1.
</event>
<event>
 5   0  0.1216322E-02  0.1002491E+04  0.7818609E-02  0.9305817E-01
        2   -1    0    0  501    0  0.00000000000E+00  0.00000000000E+00  0.62937779951E+03  0.62937779952E+03  0.25500000920E-02 0.  1.
       -2   -1    0    0    0  501  0.00000000000E+00  0.00000000000E+00 -0.39919882717E+03  0.39919882718E+03  0.25500000920E-02 0. -1.
    10030    2    1    2    0    0  0.00000000000E+00  0.00000000000E+00  0.23017897234E+03  0.10285766267E+04  0.10024906572E+04 0.  0.
        2    1    3    3  502    0  0.68236392496E+02 -0.48575619365E+03  0.22088214176E+03  0.53796301498E+03  0.25500000920E-02 0.  1.
       -2    1    3    3    0  502 -0.68236392496E+02  0.48575619365E+03  0.92968305739E+01  0.49061361171E+03  0.25500000920E-02 0. -1.
</event>
<event>
 5   0  0.7241200E-03  0.1007488E+04  0.7818609E-02  0.9300370E-01
        1   -1    0    0  501    0  0.00000000000E+00  0.00000000000E+00  0.19897722280E+04  0.19897722280E+04  0.50400001928E-02 0. -1.
       -1   -1    0    0    0  501  0.00000000000E+00  0.00000000000E+00 -0.12753108241E+03  0.12753108251E+03  0.50400001928E-02 0.  1.
    10030    2    1    2    0    0  0.00000000000E+00  0.00000000000E+00  0.18622411455E+04  0.21173033105E+04  0.10074875802E+04 0.  0.
        4    1    3    3  502    0 -0.19754734471E+03 -0.21087142240E+03  0.63948251481E+02  0.29594374796E+03  0.12699999809E+01 0.  1.
       -4    1    3    3    0  502  0.19754734471E+03  0.21087142240E+03  0.17982928941E+04  0.18213595625E+04  0.12699999809E+01 0. -1.
</event>
<event>
 5   0  0.4782125E-03  0.8762713E+03  0.7818609E-02  0.9455739E-01
       -3   -1    0    0    0  501  0.00000000000E+00  0.00000000000E+00  0.64941377838E+03  0.64941378623E+03  0.10100000352E+00 0. -1.
        3   -1    0    0  501    0  0.00000000000E+00  0.00000000000E+00 -0.29559404333E+03  0.29559406058E+03  0.10100000352E+00 0.  1.
    10030    2    1    2    0    0  0.00000000000E+00  0.00000000000E+00  0.35381973505E+03  0.94500784682E+03  0.87627131964E+03 0.  0.
        1    1    3    3  502    0 -0.27615283953E+02  0.17143689702E+03 -0.25689959091E+03  0.31008162378E+03  0.50400001928E-02 0.  1.
       -1    1    3    3    0  502  0.27615283953E+02 -0.17143689702E+03  0.61071932597E+03  0.63492622304E+03  0.50400001928E-02 0. -1.
</event>
<event>
 5   0  0.1221315E-02  0.1011435E+04  0.7818609E-02  0.9296091E-01
        2   -1    0    0  501    0  0.00000000000E+00  0.00000000000E+00  0.13912798730E+04  0.13912798730E+04  0.25500000920E-02 0. -1.
       -2   -1    0    0    0  501  0.00000000000E+00  0.00000000000E+00 -0.18382360512E+03  0.18382360514E+03  0.25500000920E-02 0.  1.
    10030    2    1    2    0    0  0.00000000000E+00  0.00000000000E+00  0.12074562679E+04  0.15751034782E+04  0.10114347868E+04 0.  0.
        5    1    3    3  502    0 -0.47359893366E+03  0.94008918653E+02  0.36964437828E+03  0.60810581574E+03  0.46999998093E+01 0. -1.
       -5    1    3    3    0  502  0.47359893366E+03 -0.94008918653E+02  0.83781188963E+03  0.96699766243E+03  0.46999998093E+01 0.  1.
</event>
<event>
 5   0  0.7073004E-03  0.9904132E+03  0.7818609E-02  0.9319122E-01
       -1   -1    0    0    0  501  0.00000000000E+00  0.00000000000E+00  0.20382168001E+03  0.20382168008E+03  0.50400001928E-02 0. -1.
        1   -1    0    0  501    0  0.00000000000E+00  0.00000000000E+00 -0.12031574239E+04  0.12031574239E+04  0.50400001928E-02 0.  1.
    10030    2    1    2    0    0  0.00000000000E+00  0.00000000000E+00 -0.99933574386E+03  0.14069791040E+04  0.99041318147E+03 0.  0.
        1    1    3    3  502    0 -0.18091225720E+03 -0.36973065016E+03 -0.10855275346E+03  0.42569202339E+03  0.50400001928E-02 0. -1.
       -1    1    3    3    0  502  0.18091225720E+03  0.36973065016E+03 -0.89078299040E+03  0.98128708056E+03  0.50400001928E-02 0.  1.
</event>
<event>
 5   0  0.1191822E-02  0.1052155E+04  0.7818609E-02  0.9253122E-01
        2   -1    0    0  501    0  0.00000000000E+00  0.00000000000E+00  0.15722670362E+04  0.15722670362E+04  0.25500000920E-02 0. -1.
       -2   -1    0    0    0  501  0.00000000000E+00  0.00000000000E+00 -0.17602449895E+03  0.17602449897E+03  0.25500000920E-02 0.  1.
    10030    2    1    2    0    0  0.00000000000E+00  0.00000000000E+00  0.13962425372E+04  0.17482915351E+04  0.10521549644E+04 0.  0.
        4    1    3    3  502    0  0.22627122714E+03  0.42347485839E+03  0.10553765198E+04  0.11594614419E+04  0.12699999809E+01 0. -1.
       -4    1    3    3    0  502 -0.22627122714E+03 -0.42347485839E+03  0.34086601744E+03  0.58883009320E+03  0.12699999809E+01 0.  1.
</event>
<event>
 5   0  0.7461157E-03  0.9900276E+03  0.7818609E-02  0.9319550E-01
       -1   -1    0    0    0  501  0.00000000000E+00  0.00000000000E+00  0.14768951079E+04  0.14768951079E+04  0.50400001928E-02 0. -1.
        1   -1    0    0  501    0  0.00000000000E+00  0.00000000000E+00 -0.16591474277E+03  0.16591474285E+03  0.50400001928E-02 0.  1.
    10030    2    1    2    0    0  0.00000000000E+00  0.00000000000E+00  0.13109803652E+04  0.16428098508E+04  0.99002761982E+03 0.  0.
        2    1    3    3  502    0 -0.13878230259E+03  0.47342204188E+03  0.72288778019E+03  0.87518895102E+03  0.25500000920E-02 0.  1.
       -2    1    3    3    0  502  0.13878230259E+03 -0.47342204188E+03  0.58809258497E+03  0.76762089976E+03  0.25500000920E-02 0. -1.
</event>
<event>
 5   0  0.7461157E-03  0.1005465E+04  0.7818609E-02  0.9302571E-01
        1   -1    0    0  501    0  0.00000000000E+00  0.00000000000E+00  0.30449981300E+03  0.30449981305E+03  0.50400001928E-02 0. -1.
       -1   -1    0    0    0  501  0.00000000000E+00  0.00000000000E+00 -0.83001725600E+03  0.83001725601E+03  0.50400001928E-02 0.  1.
    10030    2    1    2    0    0  0.00000000000E+00  0.00000000000E+00 -0.52551744300E+03  0.11345170691E+04  0.10054652640E+04 0.  0.
        2    1    3    3  502    0  0.43868848679E+03  0.18777279288E+03 -0.44128745522E+03  0.64995448173E+03  0.25500000920E-02 0. -1.
       -2    1    3    3    0  502 -0.43868848679E+03 -0.18777279288E+03 -0.84229987778E+02  0.48456258733E+03  0.25500000920E-02 0.  1.
</event>
<event>
 5   0  0.1216322E-02  0.9295392E+03  0.7818609E-02  0.9389391E-01
       -2   -1    0    0    0  501  0.00000000000E+00  0.00000000000E+00  0.20730252329E+03  0.20730252331E+03  0.25500000920E-02 0. -1.
        2   -1    0    0  501    0  0.00000000000E+00  0.00000000000E+00 -0.10420075838E+04  0.10420075838E+04  0.25500000920E-02 0.  1.
    10030    2    1    2    0    0  0.00000000000E+00  0.00000000000E+00 -0.83470506053E+03  0.12493101071E+04  0.92953924377E+03 0.  0.
        2    1    3    3  502    0 -0.38735227560E+03 -0.16591559780E+03 -0.68086430985E+03  0.80071591682E+03  0.25500000920E-02 0.  1.
       -2    1    3    3    0  502  0.38735227560E+03  0.16591559780E+03 -0.15384075068E+03  0.44859419031E+03  0.25500000920E-02 0. -1.
</event>
<event>
 5   0  0.6967681E-03  0.1003197E+04  0.7818609E-02  0.9305045E-01
       -1   -1    0    0    0  501  0.00000000000E+00  0.00000000000E+00  0.35015409078E+03  0.35015409081E+03  0.50400001928E-02 0. -1.
        1   -1    0    0  501    0  0.00000000000E+00  0.00000000000E+00 -0.71854431771E+03  0.71854431773E+03  0.50400001928E-02 0.  1.
    10030    2    1    2    0    0  0.00000000000E+00  0.00000000000E+00 -0.36839022694E+03  0.10686984085E+04  0.10031973530E+04 0.  0.
        5    1    3    3  502    0  0.24764489069E+03  0.94783624442E+02 -0.63774850221E+03  0.69069325276E+03  0.46999998093E+01 0.  1.
       -5    1    3    3    0  502 -0.24764489069E+03 -0.94783624442E+02  0.26935827527E+03  0.37800515578E+03  0.46999998093E+01 0. -1.
</event>
<event>
 5   0  0.7241200E-03  0.9996869E+03  0.7818609E-02  0.9308888E-01
        1   -1    0    0  501    0  0.00000000000E+00  0.00000000000E+00  0.65573772689E+03  0.65573772691E+03  0.50400001928E-02 0.  1.
       -1   -1    0    0    0  501  0.00000000000E+00  0.00000000000E+00 -0.38101128469E+03  0.38101128473E+03  0.50400001928E-02 0. -1.
    10030    2    1    2    0    0  0.00000000000E+00  0.00000000000E+00  0.27472644219E+03  0.10367490116E+04  0.99968689852E+03 0.  0.
        4    1    3    3  502    0 -0.49750335657E+03  0.31142515487E+02  0.99083893013E+02  0.50823092864E+03  0.12699999809E+01 0. -1.
       -4    1    3    3    0  502  0.49750335657E+03 -0.31142515487E+02  0.17564254918E+03  0.52851808299E+03  0.12699999809E+01 0.  1.
</event>
<event>
 5   0  0.6967681E-03  0.9880381E+03  0.7818609E-02  0.9321763E-01
        1   -1    0    0  501    0  0.00000000000E+00  0.00000000000E+00  0.48640394573E+03  0.48640394575E+03  0.50400001928E-02 0.  1.
       -1   -1    0    0    0  501  0.00000000000E+00  0.00000000000E+00 -0.50175337932E+03  0.50175337935E+03  0.50400001928E-02 0. -1.
    10030    2    1    2    0    0  0.00000000000E+00  0.00000000000E+00 -0.15349433594E+02  0.98815732510E+03  0.98803810354E+03 0.  0.
        5    1    3    3  502    0 -0.12812864395E+03 -0.46850404041E+03 -0.97795235458E+02  0.49547853976E+03  0.46999998093E+01 0. -1.
       -5    1    3    3    0  502  0.12812864395E+03  0.46850404041E+03  0.82445801864E+02  0.49267878534E+03  0.46999998093E+01 0.  1.
</event>
<event>
 5   0  0.1216322E-02  0.1044179E+04  0.7818609E-02  0.9261374E-01
       -2   -1    0    0    0  501  0.00000000000E+00  0.00000000000E+00  0.11762935760E+04  0.11762935760E+04  0.25500000920E-02 0. -1.
        2   -1    0    0  501    0  0.00000000000E+00  0.00000000000E+00 -0.23172590409E+03  0.23172590410E+03  0.25500000920E-02 0.  1.
    10030    2    1    2    0    0  0.00000000000E+00  0.00000000000E+00  0.94456767188E+03  0.14080194801E+04  0.10441794719E+04 0.  0.
        2    1    3    3  502    0 -0.10297834686E+03  0.12285018025E+03  0.11422877407E+04  0.11534808144E+04  0.25500000920E-02 0. -1.
       -2    1    3    3    0  502  0.10297834686E+03 -0.12285018025E+03 -0.19772006879E+03  0.25453866566E+03  0.25500000920E-02 0.  1.
</event>
<event>
 5   0  0.1216322E-02  0.1046285E+04  0.7818609E-02  0.9259188E-01
        2   -1    0    0  501    0  0.00000000000E+00  0.00000000000E+00  0.12184109472E+04  0.12184109472E+04  0.25500000920E-02 0.  1.
       -2   -1    0    0    0  501  0.00000000000E+00  0.00000000000E+00 -0.22461880671E+03  0.22461880673E+03  0.25500000920E-02 0. -1.
    10030    2    1    2    0    0  0.00000000000E+00  0.00000000000E+00  0.99379214051E+03  0.14430297540E+04  0.10462848810E+04 0.  0.
        2    1    3    3  502    0  0.27820869283E+03  0.41418764880E+03  0.28002236246E+03  0.57215732860E+03  0.25500000920E-02 0. -1.
       -2    1    3    3    0  502 -0.27820869283E+03 -0.41418764880E+03  0.71376977805E+03  0.87087242536E+03  0.25500000920E-02 0.  1.
</event>
<event>
 5   0  0.7073004E-03  0.7017963E+03  0.7818609E-02  0.9714165E-01
        1   -1    0    0  501    0  0.00000000000E+00  0.00000000000E+00  0.33565353708E+03  0.33565353712E+03  0.50400001928E-02 0.  1.
       -1   -1    0    0    0  501  0.00000000000E+00  0.00000000000E+00 -0.36683511258E+03  0.36683511261E+03  0.50400001928E-02 0. -1.
    10030    2    1    2    0    0  0.00000000000E+00  0.00000000000E+00 -0.31181575495E+02  0.70248864974E+03  0.70179627554E+03 0.  0.
        1    1    3    3  502    0 -0.21887871898E+03 -0.27208126280E+03  0.18988856292E+02  0.34970942778E+03  0.50400001928E-02 0.  1.
       -1    1    3    3    0  502  0.21887871898E+03  0.27208126280E+03 -0.50170431787E+02  0.35277922195E+03  0.50400001928E-02 0. -1.
</event>
<event>
 5   0  0.1245850E-02  0.9924169E+03  0.7818609E-02  0.9316901E-01
        2   -1    0    0  501    0  0.00000000000E+00  0.00000000000E+00  0.31850558400E+03  0.31850558401E+03  0.25500000920E-02 0.  1.
       -2   -1    0    0    0  501  0.00000000000E+00  0.00000000000E+00 -0.77305653132E+03  0.77305653132E+03  0.25500000920E-02 0. -1.
    10030    2    1    2    0    0  0.00000000000E+00  0.00000000000E+00 -0.45455094732E+03  0.10915621153E+04  0.99241689220E+03 0.  0.
        3    1    3    3  502    0  0.16414224788E+02 -0.24659904728E+03 -0.70054345951E+03  0.74286046184E+03  0.10100000352E+00 0. -1.
       -3    1    3    3    0  502 -0.16414224788E+02  0.24659904728E+03  0.24599251219E+03  0.34870165350E+03  0.10100000352E+00 0.  1.
</event>
<event>
 5   0  0.1245850E-02  0.7969885E+03  0.7818609E-02  0.9564386E-01
        2   -1    0    0  501    0  0.00000000000E+00  0.00000000000E+00  0.69990723934E+03  0.69990723934E+03  0.25500000920E-02 0.  1.
       -2   -1    0    0    0  501  0.00000000000E+00  0.00000000000E+00 -0.22688388857E+03  0.22688388858E+03  0.25500000920E-02 0. -1.
    10030    2    1    2    0    0  0.00000000000E+00  0.00000000000E+00  0.47302335077E+03  0.92679112792E+03  0.79698852214E+03 0.  0.
        3    1    3    3  502    0  0.21949984957E+03  0.11963610710E+03  0.59738394053E+03  0.64758054687E+03  0.10100000352E+00 0.  1.
       -3    1    3    3    0  502 -0.21949984957E+03 -0.11963610710E+03 -0.12436058976E+03  0.27921058105E+03  0.10100000352E+00 0. -1.
</event>
<event>
 5   0  0.1191822E-02  0.9243922E+03  0.7818609E-02  0.9395593E-01
        2   -1    0    0  501    0  0.00000000000E+00  0.00000000000E+00  0.98414474956E+03  0.98414474956E+03  0.25500000920E-02 0. -1.
       -2   -1    0    0    0  501  0.00000000000E+00  0.00000000000E+00 -0.21706690154E+03  0.21706690156E+03  0.25500000920E-02 0.  1.
    10030    2    1    2    0    0  0.00000000000E+00  0.00000000000E+00  0.76707784802E+03  0.12012116511E+04  0.92439223594E+03 0.  0.
        4    1    3    3  502    0 -0.19397381485E+03 -0.30723885723E+03  0.75474396682E+03  0.83765244857E+03  0.12699999809E+01 0. -1.
       -4    1    3    3    0  502  0.19397381485E+03  0.30723885723E+03  0.12333881195E+02  0.36355920255E+03  0.12699999809E+01 0.  1.
</event>
<event>
 5   0  0.7241200E-03  0.1009033E+04  0.7818609E-02  0.9298692E-01
        1   -1    0    0  501    0  0.00000000000E+00  0.00000000000E+00  0.62653882027E+03  0.62653882029E+03  0.50400001928E-02 0.  1.
       -1   -1    0    0    0  501  0.00000000000E+00  0.00000000000E+00 -0.40625904261E+03  0.40625904264E+03  0.50400001928E-02 0. -1.
    10030    2    1    2    0    0  0.00000000000E+00  0.00000000000E+00  0.22027977765E+03  0.10327978629E+04  0.10090333222E+04 0.  0.
        4    1    3    3  502    0  0.87736014963E+02  0.36259026887E+03  0.45779530315E+03  0.59054844331E+03  0.12699999809E+01 0.  1.
       -4    1    3    3    0  502 -0.87736014963E+02 -0.36259026887E+03 -0.23751552550E+03  0.44224941962E+03  0.12699999809E+01 0. -1.
</event>
<event>
 5   0  0.7241200E-03  0.7862763E+03  0.7818609E-02  0.9580097E-01
       -1   -1    0    0    0  501  0.00000000000E+00  0.00000000000E+00  0.73526561103E+03  0.73526561105E+03  0.50400001928E-02 0.  1.
        1   -1    0    0  501    0  0.00000000000E+00  0.00000000000E+00 -0.21020647489E+03  0.21020647495E+03  0.50400001928E-02 0. -1.
    10030    2    1    2    0    0  0.00000000000E+00  0.00000000000E+00  0.52505913614E+03  0.94547208599E+03  0.78627626757E+03 0.  0.
        4    1    3    3  502    0 -0.30517109237E+03  0.21075782388E+03  0.41934782993E+03  0.55982360732E+03  0.12699999809E+01 0.  1.
       -4    1    3    3    0  502  0.30517109237E+03 -0.21075782388E+03  0.10571130621E+03  0.38564847868E+03  0.12699999809E+01 0. -1.
</event>
<event>
 5   0  0.1221315E-02  0.9996040E+03  0.7818609E-02  0.9308979E-01
       -2   -1    0    0    0  501  0.00000000000E+00  0.00000000000E+00  0.27696868540E+03  0.27696868541E+03  0.25500000920E-02 0.  1.
        2   -1    0    0  501    0  0.00000000000E+00  0.00000000000E+00 -0.90191439774E+03  0.90191439774E+03  0.25500000920E-02 0. -1.
    10030    2    1    2    0    0  0.00000000000E+00  0.00000000000E+00 -0.62494571234E+03  0.11788830832E+04  0.99960401178E+03 0.  0.
        5    1    3    3  502    0 -0.30613048328E+03 -0.30695061613E+03 -0.19183398772E+02  0.43396387675E+03  0.46999998093E+01 0.  1.
       -5    1    3    3    0  502  0.30613048328E+03  0.30695061613E+03 -0.60576231357E+03  0.74491920641E+03  0.46999998093E+01 0. -1.
</event>
<event>
 5   0  0.7241200E-03  0.1002127E+04  0.7818609E-02  0.9306215E-01
       -1   -1    0    0    0  501  0.00000000000E+00  0.00000000000E+00  0.34965526780E+03  0.34965526784E+03  0.50400001928E-02 0.  1.
        1   -1    0    0  501    0  0.00000000000E+00  0.00000000000E+00 -0.71803542289E+03  0.71803542291E+03  0.50400001928E-02 0. -1.
    10030    2    1    2    0    0  0.00000000000E+00  0.00000000000E+00 -0.36838015509E+03  0.10676906907E+04  0.10021274731E+04 0.  0.
        4    1    3    3  502    0 -0.32960393585E+02  0.34705047938E+03  0.19926316868E+03  0.40154432642E+03  0.12699999809E+01 0.  1.
       -4    1    3    3    0  502  0.32960393585E+02 -0.34705047938E+03 -0.56764332377E+03  0.66614636433E+03  0.12699999809E+01 0. -1.
</event>
<event>
 5   0  0.1245850E-02  0.9033683E+03  0.7818609E-02  0.9421381E-01
        2   -1    0    0  501    0  0.00000000000E+00  0.00000000000E+00  0.23004808928E+03  0.23004808930E+03  0.25500000920E-02 0.  1.
       -2   -1    0    0    0  501  0.00000000000E+00  0.00000000000E+00 -0.88685183785E+03  0.88685183785E+03  0.25500000920E-02 0. -1.
    10030    2    1    2    0    0  0.00000000000E+00  0.00000000000E+00 -0.65680374856E+03  0.11168999271E+04  0.90336829872E+03 0.  0.
        3    1    3    3  502    0  0.39534915747E+03 -0.19772085120E+03 -0.44321869963E+03  0.62596910244E+03  0.10100000352E+00 0.  1.
       -3    1    3    3    0  502 -0.39534915747E+03  0.19772085120E+03 -0.21358504893E+03  0.49093082470E+03  0.10100000352E+00 0. -1.
</event>
<event>
 5   0  0.1245850E-02  0.1041539E+04  0.7818609E-02  0.9264124E-01
       -2   -1    0    0    0  501  0.00000000000E+00  0.00000000000E+00  0.35799330147E+03  0.35799330148E+03  0.25500000920E-02 0.  1.
        2   -1    0    0  501    0  0.00000000000E+00  0.00000000000E+00 -0.75755797208E+03  0.75755797209E+03  0.25500000920E-02 0. -1.
    10030    2    1    2    0    0  0.00000000000E+00  0.00000000000E+00 -0.39956467061E+03  0.11155512736E+04  0.10415386301E+04 0.  0.
        3    1    3    3  502    0 -0.66786997442E+02  0.49952492777E+03 -0.59252729211E+02  0.50744118143E+03  0.10100000352E+00 0. -1.
       -3    1    3    3    0  502  0.66786997442E+02 -0.49952492777E+03 -0.34031194140E+03  0.60811009213E+03  0.10100000352E+00 0.  1.
</event>
<event>
 5   0  0.7241200E-03  0.1021185E+04  0.7818609E-02  0.9285610E-01
       -1   -1    0    0    0  501  0.00000000000E+00  0.00000000000E+00  0.19250502533E+03  0.19250502540E+03  0.50400001928E-02 0.  1.
        1   -1    0    0  501    0  0.00000000000E+00  0.00000000000E+00 -0.13542735575E+04  0.13542735575E+04  0.50400001928E-02 0. -1.
    10030    2    1    2    0    0  0.00000000000E+00  0.00000000000E+00 -0.11617685321E+04  0.15467785829E+04  0.10211845387E+04 0.  0.
        4    1    3    3  502    0  0.10593932320E+03  0.34688493855E+03 -0.11252265265E+04  0.11822388294E+04  0.12699999809E+01 0. -1.
       -4    1    3    3    0  502 -0.10593932320E+03 -0.34688493855E+03 -0.36542005603E+02  0.36453975348E+03  0.12699999809E+01 0.  1.
</event>
<event>
 5   0  0.7224879E-03  0.1004059E+04  0.7818609E-02  0.9304104E-01
       -1   -1    0    0    0  501  0.00000000000E+00  0.00000000000E+00  0.40627180590E+03  0.40627180593E+03  0.50400001928E-02 0.  1.
        1   -1    0    0  501    0  0.00000000000E+00  0.00000000000E+00 -0.62035750555E+03  0.62035750557E+03  0.50400001928E-02 0. -1.
    10030    2    1    2    0    0  0.00000000000E+00  0.00000000000E+00 -0.21408569965E+03  0.10266293115E+04  0.10040592893E+04 0.  0.
        3    1    3    3  502    0  0.49302189120E+03  0.51143340615E+02 -0.18850513601E+03  0.53030219969E+03  0.10100000352E+00 0. -1.
       -3    1    3    3    0  502 -0.49302189120E+03 -0.51143340615E+02 -0.25580563646E+02  0.49632711182E+03  0.10100000352E+00 0.  1.
</event>
<event>
 5   0  0.7241200E-03  0.1034367E+04  0.7818609E-02  0.9271635E-01
        1   -1    0    0  501    0  0.00000000000E+00  0.00000000000E+00  0.23222901848E+04  0.23222901848E+04  0.50400001928E-02 0. -1.
       -1   -1    0    0    0  501  0.00000000000E+00  0.00000000000E+00 -0.11517887829E+03  0.11517887840E+03  0.50400001928E-02 0.  1.
    10030    2    1    2    0    0  0.00000000000E+00  0.00000000000E+00  0.22071113065E+04  0.24374690632E+04  0.10343670116E+04 0.  0.
        4    1    3    3  502    0 -0.22300819443E+03  0.43738344937E+03  0.72038074796E+03  0.87177231632E+03  0.12699999809E+01 0.  1.
       -4    1    3    3    0  502  0.22300819443E+03 -0.43738344937E+03  0.14867305586E+04  0.15656967469E+04  0.12699999809E+01 0. -1.
</event>
<event>
 5   0  0.1221315E-02  0.9833248E+03  0.7818609E-02  0.9327025E-01
       -2   -1    0    0    0  501  0.00000000000E+00  0.00000000000E+00  0.41831648184E+03  0.41831648185E+03  0.25500000920E-02 0.  1.
        2   -1    0    0  501    0  0.00000000000E+00  0.00000000000E+00 -0.57786855017E+03  0.57786855017E+03  0.25500000920E-02 0. -1.
    10030    2    1    2    0    0  0.00000000000E+00  0.00000000000E+00 -0.15955206833E+03  0.99618503202E+03  0.98332484740E+03 0.  0.
        5    1    3    3  502    0  0.69224613415E+02  0.40483578416E+03  0.19399098642E+03  0.45424514532E+03  0.46999998093E+01 0.  1.
       -5    1    3    3    0  502 -0.69224613415E+02 -0.40483578416E+03 -0.35354305475E+03  0.54193988670E+03  0.46999998093E+01 0. -1.
</event>
<event>
 5   0  0.7241200E-03  0.1056173E+04  0.7818609E-02  0.9248994E-01
       -1   -1    0    0    0  501  0.00000000000E+00  0.00000000000E+00  0.21982976547E+03  0.21982976553E+03  0.50400001928E-02 0. -1.
        1   -1    0    0  501    0  0.00000000000E+00  0.00000000000E+00 -0.12685975086E+04  0.12685975087E+04  0.50400001928E-02 0.  1.
    10030    2    1    2    0    0  0.00000000000E+00  0.00000000000E+00 -0.10487677432E+04  0.14884272742E+04  0.10561732677E+04 0.  0.
        4    1    3    3  502    0 -0.51999069305E+03  0.82809143523E+02 -0.46755355533E+03  0.70417016062E+03  0.12699999809E+01 0.  1.
       -4    1    3    3    0  502  0.51999069305E+03 -0.82809143523E+02 -0.58121418784E+03  0.78425711356E+03  0.12699999809E+01 0. -1.
</event>
<event>
 5   0  0.4782125E-03  0.9839060E+03  0.7818609E-02  0.9326375E-01
        3   -1    0    0  501    0  0.00000000000E+00  0.00000000000E+00  0.64472889163E+03  0.64472889954E+03  0.10100000352E+00 0.  1.
       -3   -1    0    0    0  501  0.00000000000E+00  0.00000000000E+00 -0.37537910090E+03  0.37537911448E+03  0.10100000352E+00 0. -1.
    10030    2    1    2    0    0  0.00000000000E+00  0.00000000000E+00  0.26934979073E+03  0.10201080140E+04  0.98390601711E+03 0.  0.
        4    1    3    3  502    0 -0.97497187845E+02 -0.20882552297E+03 -0.31594589208E+03  0.39107188636E+03  0.12699999809E+01 0. -1.
       -4    1    3    3    0  502  0.97497187845E+02  0.20882552297E+03  0.58529568281E+03  0.62903612766E+03  0.12699999809E+01 0.  1.
</event>
<event>
 5   0  0.7461157E-03  0.1012711E+04  0.7818609E-02  0.9294713E-01
       -1   -1    0    0    0  501  0.00000000000E+00  0.00000000000E+00  0.22269293147E+03  0.22269293153E+03  0.50400001928E-02 0. -1.
        1   -1    0    0  501    0  0.00000000000E+00  0.00000000000E+00 -0.11513424795E+04  0.11513424795E+04  0.50400001928E-02 0.  1.
    10030    2    1    2    0    0  0.00000000000E+00  0.00000000000E+00 -0.92864954799E+03  0.13740354110E+04  0.10127108806E+04 0.  0.
        2    1    3    3  502    0  0.42111670718E+03 -0.26840241243E+03 -0.35067233105E+03  0.61020506375E+03  0.25500000920E-02 0.  1.
       -2    1    3    3    0  502 -0.42111670718E+03  0.26840241243E+03 -0.57797721694E+03  0.76383034724E+03  0.25500000920E-02 0. -1.
</event>
<event>
 5   0  0.6967681E-03  0.1087774E+04  0.7818609E-02  0.9217191E-01
       -1   -1    0    0    0  501  0.00000000000E+00  0.00000000000E+00  0.47032451731E+03  0.47032451734E+03  0.50400001928E-02 0. -1.
        1   -1    0    0  501    0  0.00000000000E+00  0.00000000000E+00 -0.62895524439E+03  0.62895524441E+03  0.50400001928E-02 0.  1.
    10030    2    1    2    0    0  0.00000000000E+00  0.00000000000E+00 -0.15863072708E+03  0.10992797617E+04  0.10877740055E+04 0.  0.
        5    1    3    3  502    0 -0.23934786457E+02 -0.30175546657E+03  0.37730654185E+03  0.48374740530E+03  0.46999998093E+01 0. -1.
       -5    1    3    3    0  502  0.23934786457E+02  0.30175546657E+03 -0.53593726893E+03  0.61553235645E+03  0.46999998093E+01 0.  1.
</event>
<event>
 5   0  0.1216322E-02  0.1004334E+04  0.7818609E-02  0.9303804E-01
       -2   -1    0    0    0  501  0.00000000000E+00  0.00000000000E+00  0.10150561643E+03  0.10150561646E+03  0.25500000920E-02 0. -1.
        2   -1    0    0  501    0  0.00000000000E+00  0.00000000000E+00 -0.24843137285E+04  0.24843137285E+04  0.25500000920E-02 0.  1.
    10030    2    1    2    0    0  0.00000000000E+00  0.00000000000E+00 -0.23828081121E+04  0.25858193450E+04  0.10043342003E+04 0.  0.
        2    1    3    3  502    0  0.36421869660E+03  0.15164556011E+03 -0.19912916269E+04  0.20299985168E+04  0.25500000920E-02 0.  1.
       -2    1    3    3    0  502 -0.36421869660E+03 -0.15164556011E+03 -0.39151648516E+03  0.55582082816E+03  0.25500000920E-02 0. -1.
</event>
<event>
 5   0  0.1191822E-02  0.9430766E+03  0.7818609E-02  0.9373280E-01
       -2   -1    0    0    0  501  0.00000000000E+00  0.00000000000E+00  0.29985353332E+03  0.29985353333E+03  0.25500000920E-02 0. -1.
        2   -1    0    0  501    0  0.00000000000E+00  0.00000000000E+00 -0.74152327345E+03  0.74152327346E+03  0.25500000920E-02 0.  1.
    10030    2    1    2    0    0  0.00000000000E+00  0.00000000000E+00 -0.44166974014E+03  0.10413768068E+04  0.94307661108E+03 0.  0.
        4    1    3    3  502    0  0.46660378351E+03  0.26355821749E+02 -0.15158401506E+03  0.49131766368E+03  0.12699999809E+01 0. -1.
       -4    1    3    3    0  502 -0.46660378351E+03 -0.26355821749E+02 -0.29008572508E+03  0.55005914311E+03  0.12699999809E+01 0.  1.
</event>
<event>
 5   0  0.1245850E-02  0.1011867E+04  0.7818609E-02  0.9295624E-01
        2   -1    0    0  501    0  0.00000000000E+00  0.00000000000E+00  0.91414994879E+03  0.91414994879E+03  0.25500000920E-02 0. -1.
       -2   -1    0    0    0  501  0.00000000000E+00  0.00000000000E+00 -0.28000746781E+03  0.28000746782E+03  0.25500000920E-02 0.  1.
    10030    2    1    2    0    0  0.00000000000E+00  0.00000000000E+00  0.63414248098E+03  0.11941574166E+04  0.10118672094E+04 0.  0.
        3    1    3    3  502    0 -0.14625411148E+03  0.47969791318E+03  0.39596024341E+03  0.63897173458E+03  0.10100000352E+00 0.  1.
       -3    1    3    3    0  502  0.14625411148E+03 -0.47969791318E+03  0.23818223757E+03  0.55518568203E+03  0.10100000352E+00 0. -1.
</event>
<event>
 5   0  0.7241200E-03  0.1037312E+04  0.7818609E-02  0.9268542E-01
       -1   -1    0    0    0  501  0.00000000000E+00  0.00000000000E+00  0.11931935009E+03  0.11931935020E+03  0.50400001928E-02 0.  1.
        1   -1    0    0  501    0  0.00000000000E+00  0.00000000000E+00 -0.22544883348E+04  0.22544883349E+04  0.50400001928E-02 0. -1.
    10030    2    1    2    0    0  0.00000000000E+00  0.00000000000E+00 -0.21351689848E+04  0.23738076850E+04  0.10373120707E+04 0.  0.
        4    1    3    3  502    0  0.40208050350E+03 -0.26539388183E+03 -0.62799403025E+03  0.79150537506E+03  0.12699999809E+01 0.  1.
       -4    1    3    3    0  502 -0.40208050350E+03  0.26539388183E+03 -0.15071749545E+04  0.15823023100E+04  0.12699999809E+01 0. -1.
</event>
<event>
 5   0  0.7224879E-03  0.9978337E+03  0.7818609E-02  0.9310924E-01
        1   -1    0    0  501    0  0.00000000000E+00  0.00000000000E+00  0.15495545075E+03  0.15495545084E+03  0.50400001928E-02 0. -1.
       -1   -1    0    0    0  501  0.00000000000E+00  0.00000000000E+00 -0.16063845483E+04  0.16063845483E+04  0.50400001928E-02 0.  1.
    10030    2    1    2    0    0  0.00000000000E+00  0.00000000000E+00 -0.14514290975E+04  0.17613399991E+04  0.99783373734E+03 0.  0.
        3    1    3    3  502    0  0.14036076777E+03 -0.40997749245E+02  0.11628167078E+03  0.18682451053E+03  0.10100000352E+00 0. -1.
       -3    1    3    3    0  502 -0.14036076777E+03  0.40997749245E+02 -0.15677107683E+04  0.15745154886E+04  0.10100000352E+00 0.  1.
</event>
<event>
 5   0  0.6967681E-03  0.1071044E+04  0.7818609E-02  0.9233883E-01
        1   -1    0    0  501    0  0.00000000000E+00  0.00000000000E+00  0.44223890269E+03  0.44223890272E+03  0.50400001928E-02 0. -1.
       -1   -1    0    0    0  501  0.00000000000E+00  0.00000000000E+00 -0.64848169861E+03  0.64848169863E+03  0.50400001928E-02 0.  1.
    10030    2    1    2    0    0  0.00000000000E+00  0.00000000000E+00 -0.20624279593E+03  0.10907206014E+04  0.10710440417E+04 0.  0.
        5    1    3    3  502    0  0.35043275427E+03 -0.11285237882E+03 -0.49913952772E+03  0.62024280149E+03  0.46999998093E+01 0.  1.
       -5    1    3    3    0  502 -0.35043275427E+03  0.11285237882E+03  0.29289673179E+03  0.47047779986E+03  0.46999998093E+01 0. -1.
</event>
<event>
 5   0  0.6967681E-03  0.9694326E+03  0.7818609E-02  0.9342721E-01
        1   -1    0    0  501    0  0.00000000000E+00  0.00000000000E+00  0.24227214563E+03  0.24227214568E+03  0.50400001928E-02 0. -1.
       -1   -1    0    0    0  501  0.00000000000E+00  0.00000000000E+00 -0.96977681256E+03  0.96977681258E+03  0.50400001928E-02 0.  1.
    10030    2    1    2    0    0  0.00000000000E+00  0.00000000000E+00 -0.72750466693E+03  0.12120489583E+04  0.96943263655E+03 0.  0.
        5    1    3    3  502    0  0.39990429139E+03 -0.27332582750E+03 -0.38531241205E+03  0.61896542321E+03  0.46999998093E+01 0.  1.
       -5    1    3    3    0  502 -0.39990429139E+03  0.27332582750E+03 -0.34219225488E+03  0.59308353505E+03  0.46999998093E+01 0. -1.
</event>
<event>
 5   0  0.1216322E-02  0.9903222E+03  0.7818609E-02  0.9319223E-01
       -2   -1    0    0    0  501  0.00000000000E+00  0.00000000000E+00  0.48555817156E+03  0.48555817157E+03  0.25500000920E-02 0.  1.
        2   -1    0    0  501    0  0.00000000000E+00  0.00000000000E+00 -0.50495392514E+03  0.50495392515E+03  0.25500000920E-02 0. -1.
    10030    2    1    2    0    0  0.00000000000E+00  0.00000000000E+00 -0.19395753579E+02  0.99051209672E+03  0.99032217914E+03 0.  0.
        2    1    3    3  502    0  0.34130400591E+03 -0.33277536362E+03  0.12433020016E+03  0.49263157203E+03  0.25500000920E-02 0.  1.
       -2    1    3    3    0  502 -0.34130400591E+03  0.33277536362E+03 -0.14372595373E+03  0.49788052469E+03  0.25500000920E-02 0. -1.
</event>
<event>
 5   0  0.1216322E-02  0.1000715E+04  0.7818609E-02  0.9307761E-01
        2   -1    0    0  501    0  0.00000000000E+00  0.00000000000E+00  0.77166976468E+03  0.77166976468E+03  0.25500000920E-02 0.  1.
       -2   -1    0    0    0  501  0.00000000000E+00  0.00000000000E+00 -0.32443614506E+03  0.32443614507E+03  0.25500000920E-02 0. -1.
    10030    2    1    2    0    0  0.00000000000E+00  0.00000000000E+00  0.44723361962E+03  0.10961059098E+04  0.10007148719E+04 0.  0.
        2    1    3    3  502    0  0.31516332551E+03 -0.38861337554E+03  0.22027898161E+03  0.54669105274E+03  0.25500000920E-02 0. -1.
       -2    1    3    3    0  502 -0.31516332551E+03  0.38861337554E+03  0.22695463801E+03  0.54941485702E+03  0.25500000920E-02 0.  1.
</event>
<event>
 5   0  0.7224879E-03  0.9252662E+03  0.7818609E-02  0.9394537E-01
        1   -1    0    0  501    0  0.00000000000E+00  0.00000000000E+00  0.12364975509E+04  0.12364975509E+04  0.50400001928E-02 0. -1.
       -1   -1    0    0    0  501  0.00000000000E+00  0.00000000000E+00 -0.17309324516E+03  0.17309324523E+03  0.50400001928E-02 0.  1.
    10030    2    1    2    0    0  0.00000000000E+00  0.00000000000E+00  0.10634043057E+04  0.14095907961E+04  0.92526617527E+03 0.  0.
        3    1    3    3  502    0  0.26044625359E+03  0.25076221576E+03  0.91969138420E+02  0.37305800150E+03  0.10100000352E+00 0.  1.
       -3    1    3    3    0  502 -0.26044625359E+03 -0.25076221576E+03  0.97143516732E+03  0.10365327946E+04  0.10100000352E+00 0. -1.
</event>
<event>
 5   0  0.7073004E-03  0.1004834E+04  0.7818609E-02  0.9303259E-01
        1   -1    0    0  501    0  0.00000000000E+00  0.00000000000E+00  0.17499026167E+03  0.17499026174E+03  0.50400001928E-02 0.  1.
       -1   -1    0    0    0  501  0.00000000000E+00  0.00000000000E+00 -0.14424964205E+04  0.14424964205E+04  0.50400001928E-02 0. -1.
    10030    2    1    2    0    0  0.00000000000E+00  0.00000000000E+00 -0.12675061589E+04  0.16174866823E+04  0.10048339687E+04 0.  0.
        1    1    3    3  502    0  0.57456414766E+02 -0.88353718110E+02  0.15699610177E+03  0.18909097043E+03  0.50400001928E-02 0.  1.
       -1    1    3    3    0  502 -0.57456414766E+02  0.88353718110E+02 -0.14245022606E+04  0.14283957119E+04  0.50400001928E-02 0. -1.
</event>
<event>
 5   0  0.1240503E-02  0.9994521E+03  0.7818609E-02  0.9309146E-01
       -2   -1    0    0    0  501  0.00000000000E+00  0.00000000000E+00  0.26892521226E+03  0.26892521227E+03  0.25500000920E-02 0.  1.
        2   -1    0    0  501    0  0.00000000000E+00  0.00000000000E+00 -0.92860811745E+03  0.92860811746E+03  0.25500000920E-02 0. -1.
    10030    2    1    2    0    0  0.00000000000E+00  0.00000000000E+00 -0.65968290519E+03  0.11975333297E+04  0.99945212012E+03 0.  0.
        1    1    3    3  502    0 -0.16900240294E+03  0.34306561983E+03  0.55577864138E+02  0.38645145971E+03  0.50400001928E-02 0.  1.
       -1    1    3    3    0  502  0.16900240294E+03 -0.34306561983E+03 -0.71526076933E+03  0.81108187002E+03  0.50400001928E-02 0. -1.
</event>
<event>
 5   0  0.1221315E-02  0.9995735E+03  0.7818609E-02  0.9309013E-01
        2   -1    0    0  501    0  0.00000000000E+00  0.00000000000E+00  0.36957856565E+03  0.36957856566E+03  0.25500000920E-02 0. -1.
       -2   -1    0    0    0  501  0.00000000000E+00  0.00000000000E+00 -0.67586922804E+03  0.67586922805E+03  0.25500000920E-02 0.  1.
    10030    2    1    2    0    0  0.00000000000E+00  0.00000000000E+00 -0.30629066239E+03  0.10454477937E+04  0.99957346879E+03 0.  0.
        5    1    3    3  502    0  0.14659210524E+03  0.21040603807E+02 -0.65236960551E+03  0.66898441276E+03  0.46999998093E+01 0.  1.
       -5    1    3    3    0  502 -0.14659210524E+03 -0.21040603807E+02  0.34607894312E+03  0.37646338095E+03  0.46999998093E+01 0. -1.
</event>
<event>
 5   0  0.7461157E-03  0.9880950E+03  0.7818609E-02  0.9321699E-01
       -1   -1    0    0    0  501  0.00000000000E+00  0.00000000000E+00  0.62268736117E+03  0.62268736119E+03  0.50400001928E-02 0. -1.
        1   -1    0    0  501    0  0.00000000000E+00  0.00000000000E+00 -0.39198308092E+03  0.39198308095E+03  0.50400001928E-02 0.  1.
    10030    2    1    2    0    0  0.00000000000E+00  0.00000000000E+00  0.23070428025E+03  0.10146704421E+04  0.98809495557E+03 0.  0.
        2    1    3    3  502    0 -0.25639929730E+03  0.36504383251E+03  0.33339600032E+03  0.55691156600E+03  0.25500000920E-02 0. -1.
       -2    1    3    3    0  502  0.25639929730E+03 -0.36504383251E+03 -0.10269172006E+03  0.45775887614E+03  0.25500000920E-02 0.  1.
</event>
<event>
 5   0  0.7461157E-03  0.1005554E+04  0.7818609E-02  0.9302474E-01
        1   -1    0    0  501    0  0.00000000000E+00  0.00000000000E+00  0.40700435740E+03  0.40700435744E+03  0.50400001928E-02 0.  1.
       -1   -1    0    0    0  501  0.00000000000E+00  0.00000000000E+00 -0.62108595392E+03  0.62108595394E+03  0.50400001928E-02 0. -1.
    10030    2    1    2    0    0  0.00000000000E+00  0.00000000000E+00 -0.21408159651E+03  0.10280903114E+04  0.10055539560E+04 0.  0.
        2    1    3    3  502    0  0.32017890471E+03  0.33871783363E+03 -0.29978750583E+03  0.55418124337E+03  0.25500000920E-02 0. -1.
       -2    1    3    3    0  502 -0.32017890471E+03 -0.33871783363E+03  0.85705909319E+02  0.47390906801E+03  0.25500000920E-02 0.  1.
</event>
<event>
 5   0  0.7224879E-03  0.1000573E+04  0.7818609E-02  0.9307916E-01
       -1   -1    0    0    0  501  0.00000000000E+00  0.00000000000E+00  0.27973866926E+03  0.27973866931E+03  0.50400001928E-02 0. -1.
        1   -1    0    0  501    0  0.00000000000E+00  0.00000000000E+00 -0.89471602023E+03  0.89471602025E+03  0.50400001928E-02 0.  1.
    10030    2    1    2    0    0  0.00000000000E+00  0.00000000000E+00 -0.61497735097E+03  0.11744546896E+04  0.10005731735E+04 0.  0.
        3    1    3    3  502    0 -0.14745146127E+02 -0.45767797029E+03 -0.70977839724E+02  0.46338365072E+03  0.10100000352E+00 0. -1.
       -3    1    3    3    0  502  0.14745146127E+02  0.45767797029E+03 -0.54399951125E+03  0.71107103883E+03  0.10100000352E+00 0.  1.
</event>
<event>
 5   0  0.1245850E-02  0.9967115E+03  0.7818609E-02  0.9312159E-01
       -2   -1    0    0    0  501  0.00000000000E+00  0.00000000000E+00  0.29036343116E+03  0.29036343117E+03  0.25500000920E-02 0.  1.
        2   -1    0    0  501    0  0.00000000000E+00  0.00000000000E+00 -0.85533656218E+03  0.85533656218E+03  0.25500000920E-02 0. -1.
    10030    2    1    2    0    0  0.00000000000E+00  0.00000000000E+00 -0.56497313102E+03  0.11456999934E+04  0.99671151092E+03 0.  0.
        3    1    3    3  502    0 -0.41530781992E+03  0.25419787542E+03 -0.40446857150E+03  0.63300235441E+03  0.10100000352E+00 0. -1.
       -3    1    3    3    0  502  0.41530781992E+03 -0.25419787542E+03 -0.16050455952E+03  0.51269763895E+03  0.10100000352E+00 0.  1.
</event>
<event>
 5   0  0.6967681E-03  0.1000292E+04  0.7818609E-02  0.9308225E-01
        1   -1    0    0  501    0  0.00000000000E+00  0.00000000000E+00  0.88890829963E+03  0.88890829965E+03  0.50400001928E-02 0.  1.
       -1   -1    0    0    0  501  0.00000000000E+00  0.00000000000E+00 -0.28140804631E+03  0.28140804635E+03  0.50400001928E-02 0. -1.
    10030    2    1    2    0    0  0.00000000000E+00  0.00000000000E+00  0.60750025332E+03  0.11703163460E+04  0.10002918534E+04 0.  0.
        5    1    3    3  502    0 -0.47918318554E+03 -0.55524135382E+02  0.45818859776E+03  0.66532573679E+03  0.46999998093E+01 0.  1.
       -5    1    3    3    0  502  0.47918318554E+03  0.55524135382E+02  0.14931165556E+03  0.50499060921E+03  0.46999998093E+01 0. -1.
</event>
<event>
 5   0  0.7461157E-03  0.1122040E+04  0.7818609E-02  0.9183973E-01
       -1   -1    0    0    0  501  0.00000000000E+00  0.00000000000E+00  0.10131835752E+04  0.10131835752E+04  0.50400001928E-02 0. -1.
        1   -1    0    0  501    0  0.00000000000E+00  0.00000000000E+00 -0.31064775909E+03  0.31064775913E+03  0.50400001928E-02 0.  1.
    10030    2    1    2    0    0  0.00000000000E+00  0.00000000000E+00  0.70253581613E+03  0.13238313344E+04  0.11220395844E+04 0.  0.
        2    1    3    3  502    0 -0.55638429700E+03 -0.16482809433E+02  0.26861113478E+03  0.61805105832E+03  0.25500000920E-02 0.  1.
       -2    1    3    3    0  502  0.55638429700E+03  0.16482809433E+02  0.43392468134E+03  0.70578027603E+03  0.25500000920E-02 0. -1.
</event>
<event>
 5   0  0.1245850E-02  0.1021258E+04  0.7818609E-02  0.9285531E-01
       -2   -1    0    0    0  501  0.00000000000E+00  0.00000000000E+00  0.57230667156E+03  0.57230667156E+03  0.25500000920E-02 0. -1.
        2   -1    0    0  501    0  0.00000000000E+00  0.00000000000E+00 -0.45559874161E+03  0.45559874161E+03  0.25500000920E-02 0.  1.
    10030    2    1    2    0    0  0.00000000000E+00  0.00000000000E+00  0.11670792995E+03  0.10279054132E+04  0.10212584382E+04 0.  0.
        3    1    3    3  502    0  0.21821188534E+03  0.40383703722E+03 -0.16680138083E+03  0.48838866734E+03  0.10100000352E+00 0.  1.
       -3    1    3    3    0  502 -0.21821188534E+03 -0.40383703722E+03  0.28350931078E+03  0.53951674584E+03  0.10100000352E+00 0. -1.
</event>
<event>
 5   0  0.1221315E-02  0.1067032E+04  0.7818609E-02  0.9237934E-01
        2   -1    0    0  501    0  0.00000000000E+00  0.00000000000E+00  0.67820489190E+03  0.67820489190E+03  0.25500000920E-02 0.  1.
       -2   -1    0    0    0  501  0.00000000000E+00  0.00000000000E+00 -0.41969501084E+03  0.41969501084E+03  0.25500000920E-02 0. -1.
    10030    2    1    2    0    0  0.00000000000E+00  0.00000000000E+00  0.25850988106E+03  0.10978999027E+04  0.10670317886E+04 0.  0.
        5    1    3    3  502    0 -0.39364138903E+03 -0.23395654140E+03  0.41090328764E+03  0.61526645302E+03  0.46999998093E+01 0.  1.
       -5    1    3    3    0  502  0.39364138903E+03  0.23395654140E+03 -0.15239340658E+03  0.48263344972E+03  0.46999998093E+01 0. -1.
</event>
<event>
 5   0  0.1221315E-02  0.1015957E+04  0.7818609E-02  0.9291214E-01
        2   -1    0    0  501    0  0.00000000000E+00  0.00000000000E+00  0.12864877542E+04  0.12864877542E+04  0.25500000920E-02 0.  1.
       -2   -1    0    0    0  501  0.00000000000E+00  0.00000000000E+00 -0.20057891761E+03  0.20057891762E+03  0.25500000920E-02 0. -1.
    10030    2    1    2    0    0  0.00000000000E+00  0.00000000000E+00  0.10859088366E+04  0.14870666718E+04  0.10159573244E+04 0.  0.
        5    1    3    3  502    0  0.13438194930E+03  0.94745274424E+02  0.12464265806E+04  0.12572336641E+04  0.46999998093E+01 0.  1.
       -5    1    3    3    0  502 -0.13438194930E+03 -0.94745274424E+02 -0.16051774398E+03  0.22983300775E+03  0.46999998093E+01 0. -1.
</event>
<event>
 5   0  0.1221315E-02  0.9625215E+03  0.7818609E-02  0.9350633E-01
       -2   -1    0    0    0  501  0.00000000000E+00  0.00000000000E+00  0.51741342905E+03  0.51741342905E+03  0.25500000920E-02 0. -1.
        2   -1    0    0  501    0  0.00000000000E+00  0.00000000000E+00 -0.44763408536E+03  0.44763408537E+03  0.25500000920E-02 0.  1.
    10030    2    1    2    0    0  0.00000000000E+00  0.00000000000E+00  0.69779343684E+02  0.96504751442E+03  0.96252145342E+03 0.  0.
        5    1    3    3  502    0  0.29406527282E+03  0.28778299015E+03 -0.21535775720E+03  0.46442920633E+03  0.46999998093E+01 0.  1.
       -5    1    3    3    0  502 -0.29406527282E+03 -0.28778299015E+03  0.28513710089E+03  0.50061830810E+03  0.46999998093E+01 0. -1.
</event>
<event>
 5   0  0.1216322E-02  0.1008261E+04  0.7818609E-02  0.9299530E-01
       -2   -1    0    0    0  501  0.00000000000E+00  0.00000000000E+00  0.19262294337E+03  0.19262294339E+03  0.25500000920E-02 0.  1.
        2   -1    0    0  501    0  0.00000000000E+00  0.00000000000E+00 -0.13194043810E+04  0.13194043810E+04  0.25500000920E-02 0. -1.
    10030    2    1    2    0    0  0.00000000000E+00  0.00000000000E+00 -0.11267814376E+04  0.15120273244E+04  0.10082609888E+04 0.  0.
        2    1    3    3  502    0  0.20790196869E+03 -0.17735607099E+03  0.71913266284E+02  0.28257728567E+03  0.25500000920E-02 0.  1.
       -2    1    3    3    0  502 -0.20790196869E+03  0.17735607099E+03 -0.11986947039E+04  0.12294500387E+04  0.25500000920E-02 0. -1.
</event>
<event>
 5   0  0.1191822E-02  0.9067155E+03  0.7818609E-02  0.9417225E-01
        2   -1    0    0  501    0  0.00000000000E+00  0.00000000000E+00  0.97314972258E+03  0.97314972259E+03  0.25500000920E-02 0.  1.
       -2   -1    0    0    0  501  0.00000000000E+00  0.00000000000E+00 -0.21120416055E+03  0.21120416057E+03  0.25500000920E-02 0. -1.
    10030    2    1    2    0    0  0.00000000000E+00  0.00000000000E+00  0.76194556203E+03  0.11843538832E+04  0.90671554583E+03 0.  0.
        4    1    3    3  502    0 -0.14426889641E+03  0.10063821164E+03 -0.16481049639E+03  0.24105119111E+03  0.12699999809E+01 0. -1.
       -4    1    3    3    0  502  0.14426889641E+03 -0.10063821164E+03  0.92675605842E+03  0.94330269205E+03  0.12699999809E+01 0.  1.
</event>
<event>
 5   0  0.1245850E-02  0.9867102E+03  0.7818609E-02  0.9323242E-01
        2   -1    0    0  501    0  0.00000000000E+00  0.00000000000E+00  0.21546395123E+04  0.21546395123E+04  0.25500000920E-02 0. -1.
       -2   -1    0    0    0  501  0.00000000000E+00  0.00000000000E+00 -0.11296517748E+03  0.11296517751E+03  0.25500000920E-02 0.  1.
    10030    2    1    2    0    0  0.00000000000E+00  0.00000000000E+00  0.20416743348E+04  0.22676046898E+04  0.98671015998E+03 0.  0.
        3    1    3    3  502    0  0.17194710991E+02  0.42225126850E+03  0.43579097677E+03  0.60704660240E+03  0.10100000352E+00 0.  1.
       -3    1    3    3    0  502 -0.17194710991E+02 -0.42225126850E+03  0.16058833581E+04  0.16605580874E+04  0.10100000352E+00 0. -1.
</event>
<event>
 5   0  0.1221315E-02  0.9161937E+03  0.7818609E-02  0.9405562E-01
       -2   -1    0    0    0  501  0.00000000000E+00  0.00000000000E+00  0.22169007594E+03  0.22169007595E+03  0.25500000920E-02 0. -1.
        2   -1    0    0  501    0  0.00000000000E+00  0.00000000000E+00 -0.94660395249E+03  0.94660395250E+03  0.25500000920E-02 0.  1.
    10030    2    1    2    0    0  0.00000000000E+00  0.00000000000E+00 -0.72491387655E+03  0.11682940285E+04  0.91619365229E+03 0.  0.
        5    1    3    3  502    0  0.12633728818E+03 -0.15120881350E+03  0.16485764986E+03  0.25695398495E+03  0.46999998093E+01 0. -1.
       -5    1    3    3    0  502 -0.12633728818E+03  0.15120881350E+03 -0.88977152642E+03  0.91134004350E+03  0.46999998093E+01 0.  1.
</event>
<event>
 5   0  0.1191822E-02  0.1005779E+04  0.7818609E-02  0.9302229E-01
       -2   -1    0    0    0  501  0.00000000000E+00  0.00000000000E+00  0.19005928903E+03  0.19005928905E+03  0.25500000920E-02 0.  1.
        2   -1    0    0  501    0  0.00000000000E+00  0.00000000000E+00 -0.13306262619E+04  0.13306262619E+04  0.25500000920E-02 0. -1.
    10030    2    1    2    0    0  0.00000000000E+00  0.00000000000E+00 -0.11405669729E+04  0.15206855510E+04  0.10057790639E+04 0.  0.
        4    1    3    3  502    0  0.21854393376E+03  0.16382511767E+03  0.68138461372E+02  0.28150414381E+03  0.12699999809E+01 0.  1.
       -4    1    3    3    0  502 -0.21854393376E+03 -0.16382511767E+03 -0.12087054343E+04  0.12391814072E+04  0.12699999809E+01 0. -1.
</event>
<event>
 5   0  0.4782125E-03  0.9812532E+03  0.7818609E-02  0.9329348E-01
        3   -1    0    0  501    0  0.00000000000E+00  0.00000000000E+00  0.61463308759E+03  0.61463309589E+03  0.10100000352E+00 0.  1.
       -3   -1    0    0    0  501  0.00000000000E+00  0.00000000000E+00 -0.39163930282E+03  0.39163931584E+03  0.10100000352E+00 0. -1.
    10030    2    1    2    0    0  0.00000000000E+00  0.00000000000E+00  0.22299378477E+03  0.10062724117E+04  0.98125324895E+03 0.  0.
        2    1    3    3  502    0 -0.42187864244E+03  0.19194778893E+03 -0.53506019999E+02  0.46657093437E+03  0.25500000920E-02 0. -1.
       -2    1    3    3    0  502  0.42187864244E+03 -0.19194778893E+03  0.27649980477E+03  0.53970147736E+03  0.25500000920E-02 0.  1.
</event>
<event>
 5   0  0.1240503E-02  0.1044642E+04  0.7818609E-02  0.9260893E-01
       -2   -1    0    0    0  501  0.00000000000E+00  0.00000000000E+00  0.11199536937E+03  0.11199536939E+03  0.25500000920E-02 0.  1.
        2   -1    0    0  501    0  0.00000000000E+00  0.00000000000E+00 -0.24359869167E+04  0.24359869167E+04  0.25500000920E-02 0. -1.
    10030    2    1    2    0    0  0.00000000000E+00  0.00000000000E+00 -0.23239915474E+04  0.25479822861E+04  0.10446420527E+04 0.  0.
        1    1    3    3  502    0  0.12622568741E+03  0.39274145958E+03 -0.38056910449E+03  0.56125896122E+03  0.50400001928E-02 0.  1.
       -1    1    3    3    0  502 -0.12622568741E+03 -0.39274145958E+03 -0.19434224429E+04  0.19867233249E+04  0.50400001928E-02 0. -1.
</event>
<event>
 5   0  0.7461157E-03  0.9840016E+03  0.7818609E-02  0.9326268E-01
       -1   -1    0    0    0  501  0.00000000000E+00  0.00000000000E+00  0.24214485707E+03  0.24214485712E+03  0.50400001928E-02 0. -1.
        1   -1    0    0  501    0  0.00000000000E+00  0.00000000000E+00 -0.99966924241E+03  0.99966924242E+03  0.50400001928E-02 0.  1.
    10030    2    1    2    0    0  0.00000000000E+00  0.00000000000E+00 -0.75752438534E+03  0.12418140995E+04  0.98400155663E+03 0.  0.
        2    1    3    3  502    0 -0.11233852443E+03 -0.42915839686E+03 -0.11025499159E+03  0.45711381169E+03  0.25500000920E-02 0. -1.
       -2    1    3    3    0  502  0.11233852443E+03  0.42915839686E+03 -0.64726939375E+03  0.78470028786E+03  0.25500000920E-02 0.  1.
</event>
<event>
 5   0  0.1245850E-02  0.1008803E+04  0.7818609E-02  0.9298942E-01
        2   -1    0    0  501    0  0.00000000000E+00  0.00000000000E+00  0.12186378158E+04  0.12186378158E+04  0.25500000920E-02 0. -1.
       -2   -1    0    0    0  501  0.00000000000E+00  0.00000000000E+00 -0.20877498981E+03  0.20877498983E+03  0.25500000920E-02 0.  1.
    10030    2    1    2    0    0  0.00000000000E+00  0.00000000000E+00  0.10098628260E+04  0.14274128056E+04  0.10088034449E+04 0.  0.
        3    1    3    3  502    0 -0.21684576550E+03  0.23585142462E+03  0.10561710578E+04  0.11036961965E+04  0.10100000352E+00 0. -1.
       -3    1    3    3    0  502  0.21684576550E+03 -0.23585142462E+03 -0.46308231834E+02  0.32371660916E+03  0.10100000352E+00 0.  1.
</event>
<event>
 5   0  0.7241200E-03  0.1039305E+04  0.7818609E-02  0.9266456E-01
       -1   -1    0    0    0  501  0.00000000000E+00  0.00000000000E+00  0.32876076566E+03  0.32876076570E+03  0.50400001928E-02 0.  1.
        1   -1    0    0  501    0  0.00000000000E+00  0.00000000000E+00 -0.82138414257E+03  0.82138414259E+03  0.50400001928E-02 0. -1.
    10030    2    1    2    0    0  0.00000000000E+00  0.00000000000E+00 -0.49262337692E+03  0.11501449083E+04  0.10393053058E+04 0.  0.
        4    1    3    3  502    0 -0.26822856606E+03 -0.41291949054E+03 -0.62500865567E+02  0.49634367168E+03  0.12699999809E+01 0. -1.
       -4    1    3    3    0  502  0.26822856606E+03  0.41291949054E+03 -0.43012251135E+03  0.65380123661E+03  0.12699999809E+01 0.  1.
</event>
<event>
 5   0  0.7073004E-03  0.9826231E+03  0.7818609E-02  0.9327811E-01
       -1   -1    0    0    0  501  0.00000000000E+00  0.00000000000E+00  0.11256141333E+03  0.11256141344E+03  0.50400001928E-02 0.  1.
        1   -1    0    0  501    0  0.00000000000E+00  0.00000000000E+00 -0.21444919295E+04  0.21444919295E+04  0.50400001928E-02 0. -1.
    10030    2    1    2    0    0  0.00000000000E+00  0.00000000000E+00 -0.20319305162E+04  0.22570533429E+04  0.98262310697E+03 0.  0.
        1    1    3    3  502    0  0.34222628572E+03 -0.25011350499E+03 -0.15865730712E+04  0.16422209675E+04  0.50400001928E-02 0. -1.
       -1    1    3    3    0  502 -0.34222628572E+03  0.25011350499E+03 -0.44535744500E+03  0.61483237541E+03  0.50400001928E-02 0.  1.
</event>
<event>
 5   0  0.6967681E-03  0.8410560E+03  0.7818609E-02  0.9502420E-01
       -1   -1    0    0    0  501  0.00000000000E+00  0.00000000000E+00  0.14633181854E+03  0.14633181863E+03  0.50400001928E-02 0. -1.
        1   -1    0    0  501    0  0.00000000000E+00  0.00000000000E+00 -0.12085124167E+04  0.12085124167E+04  0.50400001928E-02 0.  1.
    10030    2    1    2    0    0  0.00000000000E+00  0.00000000000E+00 -0.10621805982E+04  0.13548442353E+04  0.84105604981E+03 0.  0.
        5    1    3    3  502    0 -0.91155206171E+02 -0.39774048703E+03 -0.69469593793E+03  0.80568685158E+03  0.46999998093E+01 0. -1.
       -5    1    3    3    0  502  0.91155206171E+02  0.39774048703E+03 -0.36748466024E+03  0.54915738376E+03  0.46999998093E+01 0.  1.
</event>
<event>
 5   0  0.1191822E-02  0.9943996E+03  0.7818609E-02  0.9314709E-01
        2   -1    0    0  501    0  0.00000000000E+00  0.00000000000E+00  0.15795626438E+03  0.15795626441E+03  0.25500000920E-02 0.  1.
       -2   -1    0    0    0  501  0.00000000000E+00  0.00000000000E+00 -0.15650385121E+04  0.15650385121E+04  0.25500000920E-02 0. -1.
    10030    2    1    2    0    0  0.00000000000E+00  0.00000000000E+00 -0.14070822477E+04  0.17229947765E+04  0.99439959174E+03 0.  0.
        4    1    3    3  502    0  0.28723612132E+03 -0.22098181826E+03 -0.12933423363E+04  0.13431580567E+04  0.12699999809E+01 0. -1.
       -4    1    3    3    0  502 -0.28723612132E+03  0.22098181826E+03 -0.11373991141E+03  0.37983671984E+03  0.12699999809E+01 0.  1.
</event>
<event>
 5   0  0.7461157E-03  0.9942961E+03  0.7818609E-02  0.9314823E-01
       -1   -1    0    0    0  501  0.00000000000E+00  0.00000000000E+00  0.31882809276E+03  0.31882809280E+03  0.50400001928E-02 0. -1.
        1   -1    0    0  501    0  0.00000000000E+00  0.00000000000E+00 -0.77520199143E+03  0.77520199145E+03  0.50400001928E-02 0.  1.
    10030    2    1    2    0    0  0.00000000000E+00  0.00000000000E+00 -0.45637389867E+03  0.10940300842E+04  0.99429607756E+03 0.  0.
        2    1    3    3  502    0 -0.17079335477E+03 -0.28021016858E+03 -0.63910093640E+03  0.71842752977E+03  0.25500000920E-02 0.  1.
       -2    1    3    3    0  502  0.17079335477E+03  0.28021016858E+03  0.18272703773E+03  0.37560255448E+03  0.25500000920E-02 0. -1.
</event>
<event>
 5   0  0.1216322E-02  0.1000728E+04  0.7818609E-02  0.9307747E-01
        2   -1    0    0  501    0  0.00000000000E+00  0.00000000000E+00  0.92234023293E+03  0.92234023294E+03  0.25500000920E-02 0. -1.
       -2   -1    0    0    0  501  0.00000000000E+00  0.00000000000E+00 -0.27144418904E+03  0.27144418905E+03  0.25500000920E-02 0.  1.
    10030    2    1    2    0    0  0.00000000000E+00  0.00000000000E+00  0.65089604390E+03  0.11937844220E+04  0.10007275285E+04 0.  0.
        2    1    3    3  502    0  0.40721008746E+03  0.13180076892E+03  0.63462381869E+03  0.76546645209E+03  0.25500000920E-02 0. -1.
       -2    1    3    3    0  502 -0.40721008746E+03 -0.13180076892E+03  0.16272225210E+02  0.42831796990E+03  0.25500000920E-02 0.  1.
</event>
<event>
 5   0  0.1240503E-02  0.1045564E+04  0.7818609E-02  0.9259936E-01
        2   -1    0    0  501    0  0.00000000000E+00  0.00000000000E+00  0.16587744545E+04  0.16587744545E+04  0.25500000920E-02 0.  1.
       -2   -1    0    0    0  501  0.00000000000E+00  0.00000000000E+00 -0.16476087893E+03  0.16476087895E+03  0.25500000920E-02 0. -1.
    10030    2    1    2    0    0  0.00000000000E+00  0.00000000000E+00  0.14940135755E+04  0.18235353334E+04  0.10455642249E+04 0.  0.
        1    1    3    3  502    0 -0.14612212035E+02  0.34474384936E+03  0.62053446292E+02  0.35058874573E+03  0.50400001928E-02 0. -1.
       -1    1    3    3    0  502  0.14612212035E+02 -0.34474384936E+03  0.14319601292E+04  0.14729465877E+04  0.50400001928E-02 0.  1.
</event>
<event>
 5   0  0.1221315E-02  0.9993866E+03  0.7818609E-02  0.9309218E-01
        2   -1    0    0  501    0  0.00000000000E+00  0.00000000000E+00  0.19576710429E+04  0.19576710429E+04  0.25500000920E-02 0.  1.
       -2   -1    0    0    0  501  0.00000000000E+00  0.00000000000E+00 -0.12754615495E+03  0.12754615497E+03  0.25500000920E-02 0. -1.
    10030    2    1    2    0    0  0.00000000000E+00  0.00000000000E+00  0.18301248879E+04  0.20852171978E+04  0.99938664029E+03 0.  0.
        5    1    3    3  502    0 -0.31656105253E+03  0.38524391519E+03  0.98259374923E+03  0.11018785506E+04  0.46999998093E+01 0.  1.
       -5    1    3    3    0  502  0.31656105253E+03 -0.38524391519E+03  0.84753113869E+03  0.98333864727E+03  0.46999998093E+01 0. -1.
</event>
<event>
 5   0  0.7461157E-03  0.9881597E+03  0.7818609E-02  0.9321627E-01
        1   -1    0    0  501    0  0.00000000000E+00  0.00000000000E+00  0.10473892363E+04  0.10473892363E+04  0.50400001928E-02 0. -1.
       -1   -1    0    0    0  501  0.00000000000E+00  0.00000000000E+00 -0.23306988861E+03  0.23306988866E+03  0.50400001928E-02 0.  1.
    10030    2    1    2    0    0  0.00000000000E+00  0.00000000000E+00  0.81431934771E+03  0.12804591250E+04  0.98815968888E+03 0.  0.
        2    1    3    3  502    0  0.31002539255E+03  0.31516656542E+01 -0.91327077655E+02  0.32321248760E+03  0.25500000920E-02 0.  1.
       -2    1    3    3    0  502 -0.31002539255E+03 -0.31516656542E+01  0.90564642536E+03  0.95724663739E+03  0.25500000920E-02 0. -1.
</event>
<event>
 5   0  0.7241200E-03  0.1003102E+04  0.7818609E-02  0.9305149E-01
        1   -1    0    0  501    0  0.00000000000E+00  0.00000000000E+00  0.62212995988E+03  0.62212995990E+03  0.50400001928E-02 0. -1.
       -1   -1    0    0    0  501  0.00000000000E+00  0.00000000000E+00 -0.40434216646E+03  0.40434216649E+03  0.50400001928E-02 0.  1.
    10030    2    1    2    0    0  0.00000000000E+00  0.00000000000E+00  0.21778779342E+03  0.10264721264E+04  0.10031019406E+04 0.  0.
        4    1    3    3  502    0 -0.42684895553E+02 -0.22664000464E+03 -0.34686336418E+03  0.41653751130E+03  0.12699999809E+01 0.  1.
       -4    1    3    3    0  502  0.42684895553E+02  0.22664000464E+03  0.56465115759E+03  0.60993461509E+03  0.12699999809E+01 0. -1.
</event>
<event>
 5   0  0.1191822E-02  0.1039865E+04  0.7818609E-02  0.9265871E-01
        2   -1    0    0  501    0  0.00000000000E+00  0.00000000000E+00  0.14085841774E+04  0.14085841774E+04  0.25500000920E-02 0.  1.
       -2   -1    0    0    0  501  0.00000000000E+00  0.00000000000E+00 -0.19191605561E+03  0.19191605563E+03  0.25500000920E-02 0. -1.
    10030    2    1    2    0    0  0.00000000000E+00  0.00000000000E+00  0.12166681218E+04  0.16005002331E+04  0.10398652208E+04 0.  0.
        4    1    3    3  502    0 -0.22654084216E+03  0.32264369405E+03  0.11300750478E+04  0.11968671325E+04  0.12699999809E+01 0.  1.
       -4    1    3    3    0  502  0.22654084216E+03 -0.32264369405E+03  0.86593074074E+02  0.40363310054E+03  0.12699999809E+01 0. -1.
</event>
<event>
 5   0  0.1245850E-02  0.1045696E+04  0.7818609E-02  0.9259799E-01
        2   -1    0    0  501    0  0.00000000000E+00  0.00000000000E+00  0.95541445971E+03  0.95541445972E+03  0.25500000920E-02 0.  1.
       -2   -1    0    0    0  501  0.00000000000E+00  0.00000000000E+00 -0.28612699763E+03  0.28612699764E+03  0.25500000920E-02 0. -1.
    10030    2    1    2    0    0  0.00000000000E+00  0.00000000000E+00  0.66928746208E+03  0.12415414574E+04  0.10456956935E+04 0.  0.
        3    1    3    3  502    0  0.44185160336E+02  0.12598388051E+03 -0.26554813490E+03  0.29722060610E+03  0.10100000352E+00 0. -1.
       -3    1    3    3    0  502 -0.44185160336E+02 -0.12598388051E+03  0.93483559698E+03  0.94432085126E+03  0.10100000352E+00 0.  1.
</event>
<event>
 5   0  0.7073004E-03  0.8625667E+03  0.7818609E-02  0.9473624E-01
        1   -1    0    0  501    0  0.00000000000E+00  0.00000000000E+00  0.14416105195E+03  0.14416105204E+03  0.50400001928E-02 0.  1.
       -1   -1    0    0    0  501  0.00000000000E+00  0.00000000000E+00 -0.12902606789E+04  0.12902606789E+04  0.50400001928E-02 0. -1.
    10030    2    1    2    0    0  0.00000000000E+00  0.00000000000E+00 -0.11460996269E+04  0.14344217309E+04  0.86256672050E+03 0.  0.
        1    1    3    3  502    0  0.34999463665E+03 -0.17126013479E+03 -0.88049252245E+03  0.96285687491E+03  0.50400001928E-02 0. -1.
       -1    1    3    3    0  502 -0.34999463665E+03  0.17126013479E+03 -0.26560710448E+03  0.47156485601E+03  0.50400001928E-02 0.  1.
</event>
<event>
 5   0  0.7073004E-03  0.9819291E+03  0.7818609E-02  0.9328590E-01
       -1   -1    0    0    0  501  0.00000000000E+00  0.00000000000E+00  0.41067214173E+03  0.41067214177E+03  0.50400001928E-02 0. -1.
        1   -1    0    0  501    0  0.00000000000E+00  0.00000000000E+00 -0.58695530172E+03  0.58695530174E+03  0.50400001928E-02 0.  1.
    10030    2    1    2    0    0  0.00000000000E+00  0.00000000000E+00 -0.17628315998E+03  0.99762744350E+03  0.98192910311E+03 0.  0.
        1    1    3    3  502    0  0.91387298647E+02  0.47796240365E+03 -0.15434851331E+03  0.51051264553E+03  0.50400001928E-02 0. -1.
       -1    1    3    3    0  502 -0.91387298647E+02 -0.47796240365E+03 -0.21934646672E+02  0.48711479798E+03  0.50400001928E-02 0.  1.
</event>
<event>
 5   0  0.7461157E-03  0.9816071E+03  0.7818609E-02  0.9328951E-01
        1   -1    0    0  501    0  0.00000000000E+00  0.00000000000E+00  0.13944667070E+04  0.13944667070E+04  0.50400001928E-02 0. -1.
       -1   -1    0    0    0  501  0.00000000000E+00  0.00000000000E+00 -0.17274571085E+03  0.17274571092E+03  0.50400001928E-02 0.  1.
    10030    2    1    2    0    0  0.00000000000E+00  0.00000000000E+00  0.12217209961E+04  0.15672124179E+04  0.98160713652E+03 0.  0.
        2    1    3    3  502    0 -0.47528982799E+03  0.87718875328E+02  0.47451309693E+03  0.67731654405E+03  0.25500000920E-02 0.  1.
       -2    1    3    3    0  502  0.47528982799E+03 -0.87718875328E+02  0.74720789920E+03  0.88989587386E+03  0.25500000920E-02 0. -1.
</event>
<event>
 5   0  0.7461157E-03  0.1007138E+04  0.7818609E-02  0.9300750E-01
        1   -1    0    0  501    0  0.00000000000E+00  0.00000000000E+00  0.94853336530E+03  0.94853336531E+03  0.50400001928E-02 0. -1.
       -1   -1    0    0    0  501  0.00000000000E+00  0.00000000000E+00 -0.26734104239E+03  0.26734104243E+03  0.50400001928E-02 0.  1.
    10030    2    1    2    0    0  0.00000000000E+00  0.00000000000E+00  0.68119232291E+03  0.12158744077E+04  0.10071383195E+04 0.  0.
        2    1    3    3  502    0 -0.49290905013E+03  0.22895927763E+02  0.46191400035E+03  0.67590539200E+03  0.25500000920E-02 0. -1.
       -2    1    3    3    0  502  0.49290905013E+03 -0.22895927763E+02  0.21927832256E+03  0.53996901575E+03  0.25500000920E-02 0.  1.
</event>
<event>
 5   0  0.1221315E-02  0.1002536E+04  0.7818609E-02  0.9305767E-01
       -2   -1    0    0    0  501  0.00000000000E+00  0.00000000000E+00  0.14045747156E+04  0.14045747156E+04  0.25500000920E-02 0. -1.
        2   -1    0    0  501    0  0.00000000000E+00  0.00000000000E+00 -0.17889383482E+03  0.17889383484E+03  0.25500000920E-02 0.  1.
    10030    2    1    2    0    0  0.00000000000E+00  0.00000000000E+00  0.12256808808E+04  0.15834685505E+04  0.10025362980E+04 0.  0.
        5    1    3    3  502    0  0.28658840653E+03  0.40126768333E+03  0.47069759579E+03  0.68170887123E+03  0.46999998093E+01 0. -1.
       -5    1    3    3    0  502 -0.28658840653E+03 -0.40126768333E+03  0.75498328504E+03  0.90175967925E+03  0.46999998093E+01 0.  1.
</event>
<event>
 5   0  0.6967681E-03  0.9771455E+03  0.7818609E-02  0.9333973E-01
       -1   -1    0    0    0  501  0.00000000000E+00  0.00000000000E+00  0.48582970220E+03  0.48582970222E+03  0.50400001928E-02 0.  1.
        1   -1    0    0  501    0  0.00000000000E+00  0.00000000000E+00 -0.49133126730E+03  0.49133126732E+03  0.50400001928E-02 0. -1.
    10030    2    1    2    0    0  0.00000000000E+00  0.00000000000E+00 -0.55015650994E+01  0.97716096954E+03  0.97714548210E+03 0.  0.
        5    1    3    3  502    0  0.28926302660E+03 -0.19525158154E+03 -0.34464061839E+03  0.49050537662E+03  0.46999998093E+01 0. -1.
       -5    1    3    3    0  502 -0.28926302660E+03  0.19525158154E+03  0.33913905329E+03  0.48665559292E+03  0.46999998093E+01 0.  1.
</event>
<event>
 5   0  0.7224879E-03  0.1092424E+04  0.7818609E-02  0.9212607E-01
        1   -1    0    0  501    0  0.00000000000E+00  0.00000000000E+00  0.60096675944E+03  0.60096675946E+03  0.50400001928E-02 0.  1.
       -1   -1    0    0    0  501  0.00000000000E+00  0.00000000000E+00 -0.49644620601E+03  0.49644620604E+03  0.50400001928E-02 0. -1.
    10030    2    1    2    0    0  0.00000000000E+00  0.00000000000E+00  0.10452055343E+03  0.10974129655E+04  0.10924242174E+04 0.  0.
        3    1    3    3  502    0  0.40777578334E+03 -0.34555167672E+03 -0.60772924375E+02  0.53794089759E+03  0.10100000352E+00 0. -1.
       -3    1    3    3    0  502 -0.40777578334E+03  0.34555167672E+03  0.16529347780E+03  0.55947206791E+03  0.10100000352E+00 0.  1.
</event>
<event>
 5   0  0.6967681E-03  0.9971772E+03  0.7818609E-02  0.9311646E-01
        1   -1    0    0  501    0  0.00000000000E+00  0.00000000000E+00  0.56824573349E+03  0.56824573352E+03  0.50400001928E-02 0.  1.
       -1   -1    0    0    0  501  0.00000000000E+00  0.00000000000E+00 -0.43747026555E+03  0.43747026558E+03  0.50400001928E-02 0. -1.
    10030    2    1    2    0    0  0.00000000000E+00  0.00000000000E+00  0.13077546794E+03  0.10057159991E+04  0.99717723993E+03 0.  0.
        5    1    3    3  502    0 -0.13159359994E+03  0.23135650737E+03 -0.35979758083E+03  0.44757021597E+03  0.46999998093E+01 0.  1.
       -5    1    3    3    0  502  0.13159359994E+03 -0.23135650737E+03  0.49057304877E+03  0.55814578313E+03  0.46999998093E+01 0. -1.
</event>
<event>
 5   0  0.7241200E-03  0.9998307E+03  0.7818609E-02  0.9308731E-01
       -1   -1    0    0    0  501  0.00000000000E+00  0.00000000000E+00  0.65798206240E+03  0.65798206242E+03  0.50400001928E-02 0.  1.
        1   -1    0    0  501    0  0.00000000000E+00  0.00000000000E+00 -0.37982090051E+03  0.37982090054E+03  0.50400001928E-02 0. -1.
    10030    2    1    2    0    0  0.00000000000E+00  0.00000000000E+00  0.27816116189E+03  0.10378029630E+04  0.99983066463E+03 0.  0.
        4    1    3    3  502    0  0.34166207761E+03 -0.26287650383E+03 -0.12366686656E+03  0.44847757840E+03  0.12699999809E+01 0. -1.
       -4    1    3    3    0  502 -0.34166207761E+03  0.26287650383E+03  0.40182802845E+03  0.58932538456E+03  0.12699999809E+01 0.  1.
</event>
<event>
 5   0  0.1216322E-02  0.1001617E+04  0.7818609E-02  0.9306773E-01
        2   -1    0    0  501    0  0.00000000000E+00  0.00000000000E+00  0.70540000353E+03  0.70540000353E+03  0.25500000920E-02 0.  1.
       -2   -1    0    0    0  501  0.00000000000E+00  0.00000000000E+00 -0.35555577026E+03  0.35555577027E+03  0.25500000920E-02 0. -1.
    10030    2    1    2    0    0  0.00000000000E+00  0.00000000000E+00  0.34984423327E+03  0.10609557738E+04  0.10016167762E+04 0.  0.
        2    1    3    3  502    0  0.11266399510E+03 -0.91184879361E+01 -0.34186778577E+03  0.36006930661E+03  0.25500000920E-02 0. -1.
       -2    1    3    3    0  502 -0.11266399510E+03  0.91184879361E+01  0.69171201903E+03  0.70088646719E+03  0.25500000920E-02 0.  1.
</event>
<event>
 5   0  0.1240503E-02  0.1014675E+04  0.7818609E-02  0.9292595E-01
        2   -1    0    0  501    0  0.00000000000E+00  0.00000000000E+00  0.14452875060E+04  0.14452875060E+04  0.25500000920E-02 0.  1.
       -2   -1    0    0    0  501  0.00000000000E+00  0.00000000000E+00 -0.17808991386E+03  0.17808991388E+03  0.25500000920E-02 0. -1.
    10030    2    1    2    0    0  0.00000000000E+00  0.00000000000E+00  0.12671975922E+04  0.16233774199E+04  0.10146745832E+04 0.  0.
        1    1    3    3  502    0 -0.34192891732E+02 -0.38208691665E+03  0.11647836698E+04  0.12263280813E+04  0.50400001928E-02 0.  1.
       -1    1    3    3    0  502  0.34192891732E+02  0.38208691665E+03  0.10241392240E+03  0.39704933856E+03  0.50400001928E-02 0. -1.
</event>
<event>
 5   0  0.6967681E-03  0.8033336E+03  0.7818609E-02  0.9555204E-01
        1   -1    0    0  501    0  0.00000000000E+00  0.00000000000E+00  0.77916294415E+03  0.77916294417E+03  0.50400001928E-02 0. -1.
       -1   -1    0    0    0  501  0.00000000000E+00  0.00000000000E+00 -0.20706350503E+03  0.20706350510E+03  0.50400001928E-02 0.  1.
    10030    2    1    2    0    0  0.00000000000E+00  0.00000000000E+00  0.57209943912E+03  0.98622644927E+03  0.80333358015E+03 0.  0.
        5    1    3    3  502    0 -0.27797340326E+03  0.21821852501E+03  0.52035602605E+03  0.62903181273E+03  0.46999998093E+01 0. -1.
       -5    1    3    3    0  502  0.27797340326E+03 -0.21821852501E+03  0.51743413071E+02  0.35719463654E+03  0.46999998093E+01 0.  1.
</event>
<event>
 5   0  0.7461157E-03  0.9627836E+03  0.7818609E-02  0.9350332E-01
       -1   -1    0    0    0  501  0.00000000000E+00  0.00000000000E+00  0.22811141279E+03  0.22811141285E+03  0.50400001928E-02 0.  1.
        1   -1    0    0  501    0  0.00000000000E+00  0.00000000000E+00 -0.10158987014E+04  0.10158987014E+04  0.50400001928E-02 0. -1.
    10030    2    1    2    0    0  0.00000000000E+00  0.00000000000E+00 -0.78778728861E+03  0.12440101143E+04  0.96278364770E+03 0.  0.
        2    1    3    3  502    0  0.10897204972E+03 -0.39013857323E+03 -0.72997575266E+03  0.83483388373E+03  0.25500000920E-02 0. -1.
       -2    1    3    3    0  502 -0.10897204972E+03  0.39013857323E+03 -0.57811535950E+02  0.40917623053E+03  0.25500000920E-02 0.  1.
</event>
<event>
 5   0  0.7224879E-03  0.1013239E+04  0.7818609E-02  0.9294142E-01
       -1   -1    0    0    0  501  0.00000000000E+00  0.00000000000E+00  0.52926619574E+03  0.52926619576E+03  0.50400001928E-02 0. -1.
        1   -1    0    0  501    0  0.00000000000E+00  0.00000000000E+00 -0.48494226012E+03  0.48494226014E+03  0.50400001928E-02 0.  1.
    10030    2    1    2    0    0  0.00000000000E+00  0.00000000000E+00  0.44323935619E+02  0.10142084559E+04  0.10132394489E+04 0.  0.
        3    1    3    3  502    0  0.30392765546E+02  0.34533981283E+03 -0.34762364278E+03  0.49094349344E+03  0.10100000352E+00 0.  1.
       -3    1    3    3    0  502 -0.30392765546E+02 -0.34533981283E+03  0.39194757840E+03  0.52326496246E+03  0.10100000352E+00 0. -1.
</event>
<event>
 5   0  0.1216322E-02  0.9706382E+03  0.7818609E-02  0.9341348E-01
        2   -1    0    0  501    0  0.00000000000E+00  0.00000000000E+00  0.69274758704E+03  0.69274758705E+03  0.25500000920E-02 0.  1.
       -2   -1    0    0    0  501  0.00000000000E+00  0.00000000000E+00 -0.34000064424E+03  0.34000064425E+03  0.25500000920E-02 0. -1.
    10030    2    1    2    0    0  0.00000000000E+00  0.00000000000E+00  0.35274694281E+03  0.10327482313E+04  0.97063819396E+03 0.  0.
        2    1    3    3  502    0 -0.14099884353E+03  0.44913469572E+03  0.50786826121E+02  0.47347856392E+03  0.25500000920E-02 0.  1.
       -2    1    3    3    0  502  0.14099884353E+03 -0.44913469572E+03  0.30196011669E+03  0.55926966738E+03  0.25500000920E-02 0. -1.
</event>
<event>
 5   0  0.1240503E-02  0.1000786E+04  0.7818609E-02  0.9307683E-01
        2   -1    0    0  501    0  0.00000000000E+00  0.00000000000E+00  0.73362488597E+03  0.73362488597E+03  0.25500000920E-02 0. -1.
       -2   -1    0    0    0  501  0.00000000000E+00  0.00000000000E+00 -0.34130950360E+03  0.34130950361E+03  0.25500000920E-02 0.  1.
    10030    2    1    2    0    0  0.00000000000E+00  0.00000000000E+00  0.39231538237E+03  0.10749343896E+04  0.10007859824E+04 0.  0.
        1    1    3    3  502    0  0.80955198106E+00 -0.21668641073E+02  0.73312002396E+03  0.73344062809E+03  0.50400001928E-02 0. -1.
       -1    1    3    3    0  502 -0.80955198106E+00  0.21668641073E+02 -0.34080464159E+03  0.34149376149E+03  0.50400001928E-02 0.  1.
</event>
<event>
 5   0  0.7073004E-03  0.9986506E+03  0.7818609E-02  0.9310026E-01
       -1   -1    0    0    0  501  0.00000000000E+00  0.00000000000E+00  0.28379704327E+03  0.28379704331E+03  0.50400001928E-02 0.  1.
        1   -1    0    0  501    0  0.00000000000E+00  0.00000000000E+00 -0.87853543803E+03  0.87853543804E+03  0.50400001928E-02 0. -1.
    10030    2    1    2    0    0  0.00000000000E+00  0.00000000000E+00 -0.59473839476E+03  0.11623324814E+04  0.99865060908E+03 0.  0.
        1    1    3    3  502    0  0.15370733770E+03  0.13879495597E+03 -0.82619091612E+03  0.85175196822E+03  0.50400001928E-02 0. -1.
       -1    1    3    3    0  502 -0.15370733770E+03 -0.13879495597E+03  0.23145252136E+03  0.31058051313E+03  0.50400001928E-02 0.  1.
</event>
<event>
 5   0  0.1216322E-02  0.9721536E+03  0.7818609E-02  0.9339625E-01
       -2   -1    0    0    0  501  0.00000000000E+00  0.00000000000E+00  0.59816048249E+03  0.59816048250E+03  0.25500000920E-02 0. -1.
        2   -1    0    0  501    0  0.00000000000E+00  0.00000000000E+00 -0.39499546760E+03  0.39499546761E+03  0.25500000920E-02 0.  1.
    10030    2    1    2    0    0  0.00000000000E+00  0.00000000000E+00  0.20316501489E+03  0.99315595010E+03  0.97215364935E+03 0.  0.
        2    1    3    3  502    0  0.38783038549E+03 -0.29019313998E+03  0.14303260546E+03  0.50505721719E+03  0.25500000920E-02 0.  1.
       -2    1    3    3    0  502 -0.38783038549E+03  0.29019313998E+03  0.60132409432E+02  0.48809873292E+03  0.25500000920E-02 0. -1.
</event>
<event>
 5   0  0.7241200E-03  0.9436910E+03  0.7818609E-02  0.9372555E-01
        1   -1    0    0  501    0  0.00000000000E+00  0.00000000000E+00  0.48063723745E+03  0.48063723748E+03  0.50400001928E-02 0.  1.
       -1   -1    0    0    0  501  0.00000000000E+00  0.00000000000E+00 -0.46321454736E+03  0.46321454738E+03  0.50400001928E-02 0. -1.
    10030    2    1    2    0    0  0.00000000000E+00  0.00000000000E+00  0.17422690099E+02  0.94385178486E+03  0.94369096724E+03 0.  0.
        4    1    3    3  502    0 -0.32205846650E+03 -0.13074928024E+03 -0.31043473933E+03  0.46603473090E+03  0.12699999809E+01 0. -1.
       -4    1    3    3    0  502  0.32205846650E+03  0.13074928024E+03  0.32785742942E+03  0.47781705396E+03  0.12699999809E+01 0.  1.
</event>
<event>
 5   0  0.4782125E-03  0.9963335E+03  0.7818609E-02  0.9312575E-01
       -3   -1    0    0    0  501  0.00000000000E+00  0.00000000000E+00  0.88209914109E+03  0.88209914687E+03  0.10100000352E+00 0.  1.
        3   -1    0    0  501    0  0.00000000000E+00  0.00000000000E+00 -0.28134038584E+03  0.28134040397E+03  0.10100000352E+00 0. -1.
    10030    2    1    2    0    0  0.00000000000E+00  0.00000000000E+00  0.60075875524E+03  0.11634395508E+04  0.99633353174E+03 0.  0.
        4    1    3    3  502    0  0.27724429576E+03  0.37279434405E+03  0.51033707199E+03  0.69013445243E+03  0.12699999809E+01 0.  1.
       -4    1    3    3    0  502 -0.27724429576E+03 -0.37279434405E+03  0.90421683255E+02  0.47330509841E+03  0.12699999809E+01 0. -1.
</event>
<event>
 5   0  0.7224879E-03  0.9966605E+03  0.7818609E-02  0.9312215E-01
       -1   -1    0    0    0  501  0.00000000000E+00  0.00000000000E+00  0.50942200760E+03  0.50942200762E+03  0.50400001928E-02 0.  1.
        1   -1    0    0  501    0  0.00000000000E+00  0.00000000000E+00 -0.48747996926E+03  0.48747996928E+03  0.50400001928E-02 0. -1.
    10030    2    1    2    0    0  0.00000000000E+00  0.00000000000E+00  0.21942038342E+02  0.99690197691E+03  0.99666047304E+03 0.  0.
        3    1    3    3  502    0 -0.47376922551E+02  0.47977539348E+03 -0.11517065470E+03  0.49567458164E+03  0.10100000352E+00 0. -1.
       -3    1    3    3    0  502  0.47376922551E+02 -0.47977539348E+03  0.13711269304E+03  0.50122739527E+03  0.10100000352E+00 0.  1.
</event>
<event>
 5   0  0.1221315E-02  0.9675997E+03  0.7818609E-02  0.9344813E-01
        2   -1    0    0  501    0  0.00000000000E+00  0.00000000000E+00  0.12527867996E+04  0.12527867996E+04  0.25500000920E-02 0. -1.
       -2   -1    0    0    0  501  0.00000000000E+00  0.00000000000E+00 -0.18683330223E+03  0.18683330225E+03  0.25500000920E-02 0.  1.
    10030    2    1    2    0    0  0.00000000000E+00  0.00000000000E+00  0.10659534974E+04  0.14396201018E+04  0.96759969982E+03 0.  0.
        5    1    3    3  502    0  0.46558349255E+02  0.14168245199E+03  0.12176978749E+04  0.12268055272E+04  0.46999998093E+01 0. -1.
       -5    1    3    3    0  502 -0.46558349255E+02 -0.14168245199E+03 -0.15174437750E+03  0.21281457466E+03  0.46999998093E+01 0.  1.
</event>
<event>
 5   0  0.1216322E-02  0.6883400E+03  0.7818609E-02  0.9737383E-01
        2   -1    0    0  501    0  0.00000000000E+00  0.00000000000E+00  0.26344796678E+04  0.26344796678E+04  0.25500000920E-02 0. -1.
       -2   -1    0    0    0  501  0.00000000000E+00  0.00000000000E+00 -0.44962573068E+02  0.44962573140E+02  0.25500000920E-02 0.  1.
    10030    2    1    2    0    0  0.00000000000E+00  0.00000000000E+00  0.25895170947E+04  0.26794422409E+04  0.68833998767E+03 0.  0.
        2    1    3    3  502    0  0.12395425301E+03  0.18630309410E+02  0.47048132768E+02  0.13388529445E+03  0.25500000920E-02 0.  1.
       -2    1    3    3    0  502 -0.12395425301E+03 -0.18630309410E+02  0.25424689619E+04  0.25455569465E+04  0.25500000920E-02 0. -1.
</event>
<event>
 5   0  0.6967681E-03  0.1005880E+04  0.7818609E-02  0.9302119E-01
        1   -1    0    0  501    0  0.00000000000E+00  0.00000000000E+00  0.76839238503E+03  0.76839238504E+03  0.50400001928E-02 0. -1.
       -1   -1    0    0    0  501  0.00000000000E+00  0.00000000000E+00 -0.32919184870E+03  0.32919184874E+03  0.50400001928E-02 0.  1.
    10030    2    1    2    0    0  0.00000000000E+00  0.00000000000E+00  0.43920053633E+03  0.10975842338E+04  0.10058797339E+04 0.  0.
        5    1    3    3  502    0 -0.10121907043E+03  0.11386104390E+03  0.74258398094E+03  0.75806510030E+03  0.46999998093E+01 0. -1.
       -5    1    3    3    0  502  0.10121907043E+03 -0.11386104390E+03 -0.30338344462E+03  0.33951913349E+03  0.46999998093E+01 0.  1.
</event>
<event>
 5   0  0.6967681E-03  0.9964677E+03  0.7818609E-02  0.9312427E-01
       -1   -1    0    0    0  501  0.00000000000E+00  0.00000000000E+00  0.49884289426E+03  0.49884289428E+03  0.50400001928E-02 0.  1.
        1   -1    0    0  501    0  0.00000000000E+00  0.00000000000E+00 -0.49762553748E+03  0.49762553750E+03  0.50400001928E-02 0. -1.
    10030    2    1    2    0    0  0.00000000000E+00  0.00000000000E+00  0.12173567806E+01  0.99646843179E+03  0.99646768818E+03 0.  0.
        5    1    3    3  502    0 -0.60445182612E+02 -0.10742187094E+03 -0.48211499280E+03  0.49764448629E+03  0.46999998093E+01 0. -1.
       -5    1    3    3    0  502  0.60445182612E+02  0.10742187094E+03  0.48333234958E+03  0.49882394550E+03  0.46999998093E+01 0.  1.
</event>
<event>
 5   0  0.7461157E-03  0.9957517E+03  0.7818609E-02  0.9313217E-01
       -1   -1    0    0    0  501  0.00000000000E+00  0.00000000000E+00  0.15342583542E+03  0.15342583550E+03  0.50400001928E-02 0.  1.
        1   -1    0    0  501    0  0.00000000000E+00  0.00000000000E+00 -0.16156362427E+04  0.16156362428E+04  0.50400001928E-02 0. -1.
    10030    2    1    2    0    0  0.00000000000E+00  0.00000000000E+00 -0.14622104073E+04  0.17690620782E+04  0.99575165649E+03 0.  0.
        2    1    3    3  502    0 -0.25535852772E+03  0.20225718222E+03 -0.62182987805E+02  0.33163635117E+03  0.25500000920E-02 0.  1.
       -2    1    3    3    0  502  0.25535852772E+03 -0.20225718222E+03 -0.14000274195E+04  0.14374257271E+04  0.25500000920E-02 0. -1.
</event>
<event>
 5   0  0.7073004E-03  0.9643089E+03  0.7818609E-02  0.9348580E-01
        1   -1    0    0  501    0  0.00000000000E+00  0.00000000000E+00  0.85476192372E+03  0.85476192373E+03  0.50400001928E-02 0.  1.
       -1   -1    0    0    0  501  0.00000000000E+00  0.00000000000E+00 -0.27197387075E+03  0.27197387080E+03  0.50400001928E-02 0. -1.
    10030    2    1    2    0    0  0.00000000000E+00  0.00000000000E+00  0.58278805296E+03  0.11267357945E+04  0.96430889035E+03 0.  0.
        1    1    3    3  502    0  0.84366740741E+02 -0.15619472623E+03 -0.23239810474E+03  0.29244387249E+03  0.50400001928E-02 0. -1.
       -1    1    3    3    0  502 -0.84366740741E+02  0.15619472623E+03  0.81518615770E+03  0.83429192204E+03  0.50400001928E-02 0.  1.
</event>
<event>
 5   0  0.1216322E-02  0.8395197E+03  0.7818609E-02  0.9504512E-01
       -2   -1    0    0    0  501  0.00000000000E+00  0.00000000000E+00  0.26563767503E+03  0.26563767505E+03  0.25500000920E-02 0.  1.
        2   -1    0    0  501    0  0.00000000000E+00  0.00000000000E+00 -0.66330323977E+03  0.66330323977E+03  0.25500000920E-02 0. -1.
    10030    2    1    2    0    0  0.00000000000E+00  0.00000000000E+00 -0.39766556473E+03  0.92894091482E+03  0.83951969712E+03 0.  0.
        2    1    3    3  502    0  0.37433499685E+02 -0.33974016442E+03  0.70788519087E+02  0.34904965357E+03  0.25500000920E-02 0.  1.
       -2    1    3    3    0  502 -0.37433499685E+02  0.33974016442E+03 -0.46845408382E+03  0.57989126125E+03  0.25500000920E-02 0. -1.
</event>
<event>
 5   0  0.7073004E-03  0.9979369E+03  0.7818609E-02  0.9310810E-01
        1   -1    0    0  501    0  0.00000000000E+00  0.00000000000E+00  0.19645180835E+03  0.19645180841E+03  0.50400001928E-02 0. -1.
       -1   -1    0    0    0  501  0.00000000000E+00  0.00000000000E+00 -0.12673312915E+04  0.12673312915E+04  0.50400001928E-02 0.  1.
    10030    2    1    2    0    0  0.00000000000E+00  0.00000000000E+00 -0.10708794831E+04  0.14637830999E+04  0.99793691993E+03 0.  0.
        1    1    3    3  502    0  0.12720166646E+03 -0.94670891301E+02  0.15851247502E+03  0.22420759660E+03  0.50400001928E-02 0. -1.
       -1    1    3    3    0  502 -0.12720166646E+03  0.94670891301E+02 -0.12293919581E+04  0.12395755033E+04  0.50400001928E-02 0.  1.
</event>
<event>
 5   0  0.4782125E-03  0.9817529E+03  0.7818609E-02  0.9328787E-01
       -3   -1    0    0    0  501  0.00000000000E+00  0.00000000000E+00  0.33342912088E+03  0.33342913618E+03  0.10100000352E+00 0. -1.
        3   -1    0    0  501    0  0.00000000000E+00  0.00000000000E+00 -0.72267143274E+03  0.72267143979E+03  0.10100000352E+00 0.  1.
    10030    2    1    2    0    0  0.00000000000E+00  0.00000000000E+00 -0.38924231186E+03  0.10561005760E+04  0.98175294714E+03 0.  0.
        5    1    3    3  502    0  0.22935855702E+03 -0.24735832515E+03  0.18895768715E+03  0.38667633265E+03  0.46999998093E+01 0. -1.
       -5    1    3    3    0  502 -0.22935855702E+03  0.24735832515E+03 -0.57819999900E+03  0.66942424332E+03  0.46999998093E+01 0.  1.
</event>
<event>
 5   0  0.1221315E-02  0.1241412E+04  0.7818609E-02  0.9077361E-01
       -2   -1    0    0    0  501  0.00000000000E+00  0.00000000000E+00  0.34911157134E+03  0.34911157135E+03  0.25500000920E-02 0.  1.
        2   -1    0    0  501    0  0.00000000000E+00  0.00000000000E+00 -0.11035900280E+04  0.11035900280E+04  0.25500000920E-02 0. -1.
    10030    2    1    2    0    0  0.00000000000E+00  0.00000000000E+00 -0.75447845661E+03  0.14527015993E+04  0.12414121778E+04 0.  0.
        5    1    3    3  502    0 -0.46954959557E+03  0.28776065520E+03 -0.71227437951E+03  0.90035542931E+03  0.46999998093E+01 0. -1.
       -5    1    3    3    0  502  0.46954959557E+03 -0.28776065520E+03 -0.42204077102E+02  0.55234616999E+03  0.46999998093E+01 0.  1.
</event>
<event>
 5   0  0.7224879E-03  0.9990616E+03  0.7818609E-02  0.9309575E-01
       -1   -1    0    0    0  501  0.00000000000E+00  0.00000000000E+00  0.79782249040E+03  0.79782249042E+03  0.50400001928E-02 0.  1.
        1   -1    0    0  501    0  0.00000000000E+00  0.00000000000E+00 -0.31276506211E+03  0.31276506215E+03  0.50400001928E-02 0. -1.
    10030    2    1    2    0    0  0.00000000000E+00  0.00000000000E+00  0.48505742830E+03  0.11105875526E+04  0.99906156125E+03 0.  0.
        3    1    3    3  502    0  0.29410660017E+03 -0.14619380096E+03 -0.17586356919E+03  0.37255781413E+03  0.10100000352E+00 0. -1.
       -3    1    3    3    0  502 -0.29410660017E+03  0.14619380096E+03  0.66092099749E+03  0.73802973844E+03  0.10100000352E+00 0.  1.
</event>
<event>
 5   0  0.6967681E-03  0.1017363E+04  0.7818609E-02  0.9289704E-01
       -1   -1    0    0    0  501  0.00000000000E+00  0.00000000000E+00  0.79104503314E+03  0.79104503315E+03  0.50400001928E-02 0.  1.
        1   -1    0    0  501    0  0.00000000000E+00  0.00000000000E+00 -0.32710765804E+03  0.32710765808E+03  0.50400001928E-02 0. -1.
    10030    2    1    2    0    0  0.00000000000E+00  0.00000000000E+00  0.46393737510E+03  0.11181526912E+04  0.10173630389E+04 0.  0.
        5    1    3    3  502    0 -0.22637805744E+03  0.45031002413E+03  0.15655092973E+03  0.52778445063E+03  0.46999998093E+01 0. -1.
       -5    1    3    3    0  502  0.22637805744E+03 -0.45031002413E+03  0.30738644537E+03  0.59036824061E+03  0.46999998093E+01 0.  1.
</event>
<event>
 5   0  0.6967681E-03  0.9698716E+03  0.7818609E-02  0.9342221E-01
        1   -1    0    0  501    0  0.00000000000E+00  0.00000000000E+00  0.78133359108E+03  0.78133359110E+03  0.50400001928E-02 0.  1.
       -1   -1    0    0    0  501  0.00000000000E+00  0.00000000000E+00 -0.30097609592E+03  0.30097609596E+03  0.50400001928E-02 0. -1.
    10030    2    1    2    0    0  0.00000000000E+00  0.00000000000E+00  0.48035749516E+03  0.10823096871E+04  0.96987160776E+03 0.  0.
        5    1    3    3  502    0  0.29732589666E+03  0.15548844643E+03  0.63085226771E+03  0.71454602333E+03  0.46999998093E+01 0.  1.
       -5    1    3    3    0  502 -0.29732589666E+03 -0.15548844643E+03 -0.15049477254E+03  0.36776366372E+03  0.46999998093E+01 0. -1.
</event>
<event>
 5   0  0.1216322E-02  0.1036236E+04  0.7818609E-02  0.9269671E-01
       -2   -1    0    0    0  501  0.00000000000E+00  0.00000000000E+00  0.68950582828E+03  0.68950582828E+03  0.25500000920E-02 0.  1.
        2   -1    0    0  501    0  0.00000000000E+00  0.00000000000E+00 -0.38933128360E+03  0.38933128361E+03  0.25500000920E-02 0. -1.
    10030    2    1    2    0    0  0.00000000000E+00  0.00000000000E+00  0.30017454468E+03  0.10788371119E+04  0.10362358596E+04 0.  0.
        2    1    3    3  502    0 -0.15277721932E+03  0.19132860979E+03  0.62547603177E+03  0.67169024259E+03  0.25500000920E-02 0.  1.
       -2    1    3    3    0  502  0.15277721932E+03 -0.19132860979E+03 -0.32530148709E+03  0.40714686930E+03  0.25500000920E-02 0. -1.
</event>
<event>
 5   0  0.6967681E-03  0.9015616E+03  0.7818609E-02  0.9423632E-01
       -1   -1    0    0    0  501  0.00000000000E+00  0.00000000000E+00  0.24897925555E+03  0.24897925560E+03  0.50400001928E-02 0.  1.
        1   -1    0    0  501    0  0.00000000000E+00  0.00000000000E+00 -0.81614553474E+03  0.81614553476E+03  0.50400001928E-02 0. -1.
    10030    2    1    2    0    0  0.00000000000E+00  0.00000000000E+00 -0.56716627919E+03  0.10651247904E+04  0.90156155131E+03 0.  0.
        5    1    3    3  502    0 -0.19942108181E+03  0.39565664643E+03 -0.38149351734E+03  0.58469850650E+03  0.46999998093E+01 0.  1.
       -5    1    3    3    0  502  0.19942108181E+03 -0.39565664643E+03 -0.18567276185E+03  0.48042628386E+03  0.46999998093E+01 0. -1.
</event>
<event>
 5   0  0.7073004E-03  0.9951938E+03  0.7818609E-02  0.9313832E-01
       -1   -1    0    0    0  501  0.00000000000E+00  0.00000000000E+00  0.95626969739E+03  0.95626969741E+03  0.50400001928E-02 0.  1.
        1   -1    0    0  501    0  0.00000000000E+00  0.00000000000E+00 -0.25892558477E+03  0.25892558482E+03  0.50400001928E-02 0. -1.
    10030    2    1    2    0    0  0.00000000000E+00  0.00000000000E+00  0.69734411263E+03  0.12151952822E+04  0.99519383163E+03 0.  0.
        1    1    3    3  502    0 -0.61974359180E+02 -0.27573447414E+03  0.84876052437E+03  0.89457517805E+03  0.50400001928E-02 0.  1.
       -1    1    3    3    0  502  0.61974359180E+02  0.27573447414E+03 -0.15141641175E+03  0.32062010417E+03  0.50400001928E-02 0. -1.
</event>
<event>
 5   0  0.1216322E-02  0.9986455E+03  0.7818609E-02  0.9310032E-01
       -2   -1    0    0    0  501  0.00000000000E+00  0.00000000000E+00  0.21742775949E+03  0.21742775950E+03  0.25500000920E-02 0. -1.
        2   -1    0    0  501    0  0.00000000000E+00  0.00000000000E+00 -0.11466943649E+04  0.11466943649E+04  0.25500000920E-02 0.  1.
    10030    2    1    2    0    0  0.00000000000E+00  0.00000000000E+00 -0.92926660539E+03  0.13641221244E+04  0.99864545577E+03 0.  0.
        2    1    3    3  502    0  0.37155315835E+02  0.29774093926E+03  0.80547144172E+02  0.31067350522E+03  0.25500000920E-02 0. -1.
       -2    1    3    3    0  502 -0.37155315835E+02 -0.29774093926E+03 -0.10098137496E+04  0.10534486192E+04  0.25500000920E-02 0.  1.
</event>
<event>
 5   0  0.4782125E-03  0.9876093E+03  0.7818609E-02  0.9322240E-01
        4   -1    0    0  501    0  0.00000000000E+00  0.00000000000E+00  0.46098445799E+03  0.46098620740E+03  0.12699999809E+01 0. -1.
       -4   -1    0    0    0  501  0.00000000000E+00  0.00000000000E+00 -0.52895797805E+03  0.52895950265E+03  0.12699999809E+01 0.  1.
    10030    2    1    2    0    0  0.00000000000E+00  0.00000000000E+00 -0.67973520055E+02  0.98994571004E+03  0.98760928985E+03 0.  0.
        5    1    3    3  502    0  0.92903278524E+02 -0.28888439175E+03  0.35646747306E+03  0.46816274981E+03  0.46999998093E+01 0. -1.
       -5    1    3    3    0  502 -0.92903278524E+02  0.28888439175E+03 -0.42444099312E+03  0.52178296024E+03  0.46999998093E+01 0.  1.
</event>
<event>
 5   0  0.7461157E-03  0.9871094E+03  0.7818609E-02  0.9322797E-01
       -1   -1    0    0    0  501  0.00000000000E+00  0.00000000000E+00  0.50722848307E+03  0.50722848309E+03  0.50400001928E-02 0.  1.
        1   -1    0    0  501    0  0.00000000000E+00  0.00000000000E+00 -0.48024955341E+03  0.48024955343E+03  0.50400001928E-02 0. -1.
    10030    2    1    2    0    0  0.00000000000E+00  0.00000000000E+00  0.26978929657E+02  0.98747803652E+03  0.98710942148E+03 0.  0.
        2    1    3    3  502    0 -0.42355008554E+03  0.22706999413E+03  0.12596274132E+03  0.49681190546E+03  0.25500000920E-02 0.  1.
       -2    1    3    3    0  502  0.42355008554E+03 -0.22706999413E+03 -0.98983811666E+02  0.49066613107E+03  0.25500000920E-02 0. -1.
</event>
<event>
 5   0  0.7241200E-03  0.9855644E+03  0.7818609E-02  0.9324521E-01
        1   -1    0    0  501    0  0.00000000000E+00  0.00000000000E+00  0.10798853442E+04  0.10798853442E+04  0.50400001928E-02 0. -1.
       -1   -1    0    0    0  501  0.00000000000E+00  0.00000000000E+00 -0.22487046651E+03  0.22487046657E+03  0.50400001928E-02 0.  1.
    10030    2    1    2    0    0  0.00000000000E+00  0.00000000000E+00  0.85501487765E+03  0.13047558107E+04  0.98556444978E+03 0.  0.
        4    1    3    3  502    0 -0.36775664595E+03  0.25811368091E+03  0.69545582273E+03  0.82796620534E+03  0.12699999809E+01 0. -1.
       -4    1    3    3    0  502  0.36775664595E+03 -0.25811368091E+03  0.15955905492E+03  0.47678960540E+03  0.12699999809E+01 0.  1.
</event>
<event>
 5   0  0.7241200E-03  0.9449167E+03  0.7818609E-02  0.9371112E-01
        1   -1    0    0  501    0  0.00000000000E+00  0.00000000000E+00  0.60625550974E+03  0.60625550976E+03  0.50400001928E-02 0. -1.
       -1   -1    0    0    0  501  0.00000000000E+00  0.00000000000E+00 -0.36818949981E+03  0.36818949985E+03  0.50400001928E-02 0.  1.
    10030    2    1    2    0    0  0.00000000000E+00  0.00000000000E+00  0.23806600992E+03  0.97444500961E+03  0.94491674325E+03 0.  0.
        4    1    3    3  502    0  0.10304290903E+03  0.23687733399E+03 -0.28891268723E+03  0.38755756502E+03  0.12699999809E+01 0.  1.
       -4    1    3    3    0  502 -0.10304290903E+03 -0.23687733399E+03  0.52697869716E+03  0.58688744459E+03  0.12699999809E+01 0. -1.
</event>
<event>
 5   0  0.6967681E-03  0.8911386E+03  0.7818609E-02  0.9436727E-01
       -1   -1    0    0    0  501  0.00000000000E+00  0.00000000000E+00  0.48775633062E+03  0.48775633064E+03  0.50400001928E-02 0.  1.
        1   -1    0    0  501    0  0.00000000000E+00  0.00000000000E+00 -0.40703114777E+03  0.40703114781E+03  0.50400001928E-02 0. -1.
    10030    2    1    2    0    0  0.00000000000E+00  0.00000000000E+00  0.80725182842E+02  0.89478747845E+03  0.89113864042E+03 0.  0.
        5    1    3    3  502    0  0.13840825990E+03  0.11124085907E+03  0.45066585415E+03  0.48441013329E+03  0.46999998093E+01 0.  1.
       -5    1    3    3    0  502 -0.13840825990E+03 -0.11124085907E+03 -0.36994067131E+03  0.41037734516E+03  0.46999998093E+01 0. -1.
</event>
<event>
 5   0  0.7224879E-03  0.1015319E+04  0.7818609E-02  0.9291901E-01
       -1   -1    0    0    0  501  0.00000000000E+00  0.00000000000E+00  0.39208604621E+03  0.39208604625E+03  0.50400001928E-02 0.  1.
        1   -1    0    0  501    0  0.00000000000E+00  0.00000000000E+00 -0.65730045439E+03  0.65730045441E+03  0.50400001928E-02 0. -1.
    10030    2    1    2    0    0  0.00000000000E+00  0.00000000000E+00 -0.26521440818E+03  0.10493865007E+04  0.10153193318E+04 0.  0.
        3    1    3    3  502    0  0.45768639248E+03 -0.72927531495E+02  0.81523129344E+02  0.47057548760E+03  0.10100000352E+00 0.  1.
       -3    1    3    3    0  502 -0.45768639248E+03  0.72927531495E+02 -0.34673753752E+03  0.57881101306E+03  0.10100000352E+00 0. -1.
</event>
<event>
 5   0  0.1221315E-02  0.1012520E+04  0.7818609E-02  0.9294918E-01
       -2   -1    0    0    0  501  0.00000000000E+00  0.00000000000E+00  0.28340076650E+03  0.28340076651E+03  0.25500000920E-02 0.  1.
        2   -1    0    0  501    0  0.00000000000E+00  0.00000000000E+00 -0.90437063931E+03  0.90437063931E+03  0.25500000920E-02 0. -1.
    10030    2    1    2    0    0  0.00000000000E+00  0.00000000000E+00 -0.62096987281E+03  0.11877714058E+04  0.10125202860E+04 0.  0.
        5    1    3    3  502    0 -0.63391139407E+02 -0.30025356890E+03 -0.78279748214E+03  0.84081188754E+03  0.46999998093E+01 0. -1.
       -5    1    3    3    0  502  0.63391139407E+02  0.30025356890E+03  0.16182760933E+03  0.34695951829E+03  0.46999998093E+01 0.  1.
</event>
<event>
 5   0  0.6967681E-03  0.1003675E+04  0.7818609E-02  0.9304523E-01
        1   -1    0    0  501    0  0.00000000000E+00  0.00000000000E+00  0.71473284435E+03  0.71473284436E+03  0.50400001928E-02 0.  1.
       -1   -1    0    0    0  501  0.00000000000E+00  0.00000000000E+00 -0.35235671339E+03  0.35235671343E+03  0.50400001928E-02 0. -1.
    10030    2    1    2    0    0  0.00000000000E+00  0.00000000000E+00  0.36237613095E+03  0.10670895578E+04  0.10036750789E+04 0.  0.
        5    1    3    3  502    0  0.15268275910E+03 -0.23968631079E+03 -0.25853424573E+03  0.38421816553E+03  0.46999998093E+01 0. -1.
       -5    1    3    3    0  502 -0.15268275910E+03  0.23968631079E+03  0.62091037668E+03  0.68287139227E+03  0.46999998093E+01 0.  1.
</event>
<event>
 5   0  0.1240503E-02  0.1001825E+04  0.7818609E-02  0.9306545E-01
       -2   -1    0    0    0  501  0.00000000000E+00  0.00000000000E+00  0.28871106590E+03  0.28871106592E+03  0.25500000920E-02 0.  1.
        2   -1    0    0  501    0  0.00000000000E+00  0.00000000000E+00 -0.86908170854E+03  0.86908170854E+03  0.25500000920E-02 0. -1.
    10030    2    1    2    0    0  0.00000000000E+00  0.00000000000E+00 -0.58037064263E+03  0.11577927745E+04  0.10018253469E+04 0.  0.
        1    1    3    3  502    0 -0.66126475370E+02 -0.46202892262E+03 -0.50034837914E+03  0.68424552363E+03  0.50400001928E-02 0. -1.
       -1    1    3    3    0  502  0.66126475370E+02  0.46202892262E+03 -0.80022263498E+02  0.47354725082E+03  0.50400001928E-02 0.  1.
</event>
<event>
 5   0  0.7224879E-03  0.1148059E+04  0.7818609E-02  0.9159576E-01
        1   -1    0    0  501    0  0.00000000000E+00  0.00000000000E+00  0.36236041590E+03  0.36236041594E+03  0.50400001928E-02 0. -1.
       -1   -1    0    0    0  501  0.00000000000E+00  0.00000000000E+00 -0.90934226124E+03  0.90934226125E+03  0.50400001928E-02 0.  1.
    10030    2    1    2    0    0  0.00000000000E+00  0.00000000000E+00 -0.54698184533E+03  0.12717026772E+04  0.11480586048E+04 0.  0.
        3    1    3    3  502    0  0.10596353445E+03 -0.56412795300E+03 -0.26639717017E+03  0.63280019001E+03  0.10100000352E+00 0. -1.
       -3    1    3    3    0  502 -0.10596353445E+03  0.56412795300E+03 -0.28058467516E+03  0.63890248718E+03  0.10100000352E+00 0.  1.
</event>
<event>
 5   0  0.7461157E-03  0.9787679E+03  0.7818609E-02  0.9332143E-01
       -1   -1    0    0    0  501  0.00000000000E+00  0.00000000000E+00  0.71143159216E+03  0.71143159218E+03  0.50400001928E-02 0. -1.
        1   -1    0    0  501    0  0.00000000000E+00  0.00000000000E+00 -0.33664047139E+03  0.33664047143E+03  0.50400001928E-02 0.  1.
    10030    2    1    2    0    0  0.00000000000E+00  0.00000000000E+00  0.37479112077E+03  0.10480720636E+04  0.97876793282E+03 0.  0.
        2    1    3    3  502    0 -0.34600803370E+03 -0.27475554080E+03  0.41273503920E+03  0.60461754786E+03  0.25500000920E-02 0. -1.
       -2    1    3    3    0  502  0.34600803370E+03  0.27475554080E+03 -0.37943918430E+02  0.44345451575E+03  0.25500000920E-02 0.  1.
</event>
<event>
 5   0  0.4782125E-03  0.9740965E+03  0.7818609E-02  0.9337421E-01
        3   -1    0    0  501    0  0.00000000000E+00  0.00000000000E+00  0.48994080056E+03  0.48994081097E+03  0.10100000352E+00 0. -1.
       -3   -1    0    0    0  501  0.00000000000E+00  0.00000000000E+00 -0.48417274732E+03  0.48417275786E+03  0.10100000352E+00 0.  1.
    10030    2    1    2    0    0  0.00000000000E+00  0.00000000000E+00  0.57680532375E+01  0.97411356883E+03  0.97409649139E+03 0.  0.
        1    1    3    3  502    0 -0.30248248546E+03 -0.21047278703E+03  0.32135710508E+03  0.48894257035E+03  0.50400001928E-02 0. -1.
       -1    1    3    3    0  502  0.30248248546E+03  0.21047278703E+03 -0.31558905185E+03  0.48517099848E+03  0.50400001928E-02 0.  1.
</event>
<event>
 5   0  0.1240503E-02  0.1199527E+04  0.7818609E-02  0.9113271E-01
        2   -1    0    0  501    0  0.00000000000E+00  0.00000000000E+00  0.13140714752E+04  0.13140714752E+04  0.25500000920E-02 0.  1.
       -2   -1    0    0    0  501  0.00000000000E+00  0.00000000000E+00 -0.27374155871E+03  0.27374155872E+03  0.25500000920E-02 0. -1.
    10030    2    1    2    0    0  0.00000000000E+00  0.00000000000E+00  0.10403299165E+04  0.15878130339E+04  0.11995265297E+04 0.  0.
        1    1    3    3  502    0  0.17356217969E+03 -0.55629242026E+03  0.70797592939E+03  0.91695965215E+03  0.50400001928E-02 0. -1.
       -1    1    3    3    0  502 -0.17356217969E+03  0.55629242026E+03  0.33235398708E+03  0.67085338175E+03  0.50400001928E-02 0.  1.
</event>
<event>
 5   0  0.1245850E-02  0.1006746E+04  0.7818609E-02  0.9301177E-01
       -2   -1    0    0    0  501  0.00000000000E+00  0.00000000000E+00  0.34804848509E+03  0.34804848510E+03  0.25500000920E-02 0.  1.
        2   -1    0    0  501    0  0.00000000000E+00  0.00000000000E+00 -0.72801458988E+03  0.72801458989E+03  0.25500000920E-02 0. -1.
    10030    2    1    2    0    0  0.00000000000E+00  0.00000000000E+00 -0.37996610479E+03  0.10760630750E+04  0.10067459960E+04 0.  0.
        3    1    3    3  502    0  0.65262796913E+02  0.21497401028E+02 -0.72297837408E+03  0.72623626355E+03  0.10100000352E+00 0. -1.
       -3    1    3    3    0  502 -0.65262796913E+02 -0.21497401028E+02  0.34301226929E+03  0.34982681143E+03  0.10100000352E+00 0.  1.
</event>
<event>
 5   0  0.1240503E-02  0.9996004E+03  0.7818609E-02  0.9308983E-01
       -2   -1    0    0    0  501  0.00000000000E+00  0.00000000000E+00  0.23811843876E+03  0.23811843877E+03  0.25500000920E-02 0. -1.
        2   -1    0    0  501    0  0.00000000000E+00  0.00000000000E+00 -0.10490587962E+04  0.10490587962E+04  0.25500000920E-02 0.  1.
    10030    2    1    2    0    0  0.00000000000E+00  0.00000000000E+00 -0.81094035745E+03  0.12871772350E+04  0.99960040562E+03 0.  0.
        1    1    3    3  502    0 -0.27847896478E+03  0.23177475900E+03  0.37859065128E+02  0.36428475342E+03  0.50400001928E-02 0. -1.
       -1    1    3    3    0  502  0.27847896478E+03 -0.23177475900E+03 -0.84879942257E+03  0.92289248156E+03  0.50400001928E-02 0.  1.
</event>
<event>
 5   0  0.1245850E-02  0.9980259E+03  0.7818609E-02  0.9310713E-01
       -2   -1    0    0    0  501  0.00000000000E+00  0.00000000000E+00  0.32739822030E+03  0.32739822031E+03  0.25500000920E-02 0. -1.
        2   -1    0    0  501    0  0.00000000000E+00  0.00000000000E+00 -0.76058425292E+03  0.76058425293E+03  0.25500000920E-02 0.  1.
    10030    2    1    2    0    0  0.00000000000E+00  0.00000000000E+00 -0.43318603262E+03  0.10879824732E+04  0.99802591310E+03 0.  0.
        3    1    3    3  502    0 -0.19458681323E+03 -0.40792488457E+03  0.14008905971E+02  0.45217584962E+03  0.10100000352E+00 0. -1.
       -3    1    3    3    0  502  0.19458681323E+03  0.40792488457E+03 -0.44719493859E+03  0.63580662362E+03  0.10100000352E+00 0.  1.
</event>
<event>
 5   0  0.1216322E-02  0.1009482E+04  0.7818609E-02  0.9298206E-01
       -2   -1    0    0    0  501  0.00000000000E+00  0.00000000000E+00  0.18883478269E+03  0.18883478270E+03  0.25500000920E-02 0. -1.
        2   -1    0    0  501    0  0.00000000000E+00  0.00000000000E+00 -0.13491332823E+04  0.13491332823E+04  0.25500000920E-02 0.  1.
    10030    2    1    2    0    0  0.00000000000E+00  0.00000000000E+00 -0.11602984996E+04  0.15379680650E+04  0.10094816297E+04 0.  0.
        2    1    3    3  502    0  0.49699546965E+03  0.76130816619E+02 -0.64764821441E+03  0.81990768244E+03  0.25500000920E-02 0. -1.
       -2    1    3    3    0  502 -0.49699546965E+03 -0.76130816619E+02 -0.51265028524E+03  0.71806038260E+03  0.25500000920E-02 0.  1.
</event>
<event>
 5   0  0.1240503E-02  0.1038139E+04  0.7818609E-02  0.9267676E-01
        2   -1    0    0  501    0  0.00000000000E+00  0.00000000000E+00  0.21650874132E+03  0.21650874134E+03  0.25500000920E-02 0.  1.
       -2   -1    0    0    0  501  0.00000000000E+00  0.00000000000E+00 -0.12444449178E+04  0.12444449178E+04  0.25500000920E-02 0. -1.
    10030    2    1    2    0    0  0.00000000000E+00  0.00000000000E+00 -0.10279361764E+04  0.14609536591E+04  0.10381391098E+04 0.  0.
        1    1    3    3  502    0  0.13933312888E+03  0.49568484906E+03 -0.42151482830E+03  0.66542613481E+03  0.50400001928E-02 0. -1.
       -1    1    3    3    0  502 -0.13933312888E+03 -0.49568484906E+03 -0.60642134814E+03  0.79552752428E+03  0.50400001928E-02 0.  1.
</event>
<event>
 5   0  0.6967681E-03  0.1018369E+04  0.7818609E-02  0.9288624E-01
        1   -1    0    0  501    0  0.00000000000E+00  0.00000000000E+00  0.12526970321E+04  0.12526970321E+04  0.50400001928E-02 0. -1.
       -1   -1    0    0    0  501  0.00000000000E+00  0.00000000000E+00 -0.20696847525E+03  0.20696847532E+03  0.50400001928E-02 0.  1.
    10030    2    1    2    0    0  0.00000000000E+00  0.00000000000E+00  0.10457285569E+04  0.14596655074E+04  0.10183688816E+04 0.  0.
        5    1    3    3  502    0 -0.11549007631E+03 -0.13339632197E+03 -0.16171595585E+03  0.23938813007E+03  0.46999998093E+01 0.  1.
       -5    1    3    3    0  502  0.11549007631E+03  0.13339632197E+03  0.12074445127E+04  0.12202773774E+04  0.46999998093E+01 0. -1.
</event>
<event>
 5   0  0.6967681E-03  0.9824340E+03  0.7818609E-02  0.9328023E-01
       -1   -1    0    0    0  501  0.00000000000E+00  0.00000000000E+00  0.20130138404E+03  0.20130138410E+03  0.50400001928E-02 0.  1.
        1   -1    0    0  501    0  0.00000000000E+00  0.00000000000E+00 -0.11986711513E+04  0.11986711513E+04  0.50400001928E-02 0. -1.
    10030    2    1    2    0    0  0.00000000000E+00  0.00000000000E+00 -0.99736976724E+03  0.13999725354E+04  0.98243404218E+03 0.  0.
        5    1    3    3  502    0 -0.22881791351E+03  0.29367928911E+03 -0.42089667047E+02  0.37469826856E+03  0.46999998093E+01 0.  1.
       -5    1    3    3    0  502  0.22881791351E+03 -0.29367928911E+03 -0.95528010019E+03  0.10252742668E+04  0.46999998093E+01 0. -1.
</event>
<event>
 5   0  0.1216322E-02  0.9850913E+03  0.7818609E-02  0.9325049E-01
        2   -1    0    0  501    0  0.00000000000E+00  0.00000000000E+00  0.41874560357E+03  0.41874560358E+03  0.25500000920E-02 0.  1.
       -2   -1    0    0    0  501  0.00000000000E+00  0.00000000000E+00 -0.57935222084E+03  0.57935222084E+03  0.25500000920E-02 0. -1.
    10030    2    1    2    0    0  0.00000000000E+00  0.00000000000E+00 -0.16060661727E+03  0.99809782442E+03  0.98509125547E+03 0.  0.
        2    1    3    3  502    0  0.59452583329E+02  0.18482548208E+03 -0.53894561982E+03  0.57285028552E+03  0.25500000920E-02 0. -1.
       -2    1    3    3    0  502 -0.59452583329E+02 -0.18482548208E+03  0.37833900255E+03  0.42524753890E+03  0.25500000920E-02 0.  1.
</event>
<event>
 5   0  0.7224879E-03  0.9561851E+03  0.7818609E-02  0.9357950E-01
        1   -1    0    0  501    0  0.00000000000E+00  0.00000000000E+00  0.13666638400E+04  0.13666638400E+04  0.50400001928E-02 0. -1.
       -1   -1    0    0    0  501  0.00000000000E+00  0.00000000000E+00 -0.16724848970E+03  0.16724848978E+03  0.50400001928E-02 0.  1.
    10030    2    1    2    0    0  0.00000000000E+00  0.00000000000E+00  0.11994153503E+04  0.15339123298E+04  0.95618505163E+03 0.  0.
        3    1    3    3  502    0 -0.47409223501E+03 -0.39316191621E+02  0.52339017012E+03  0.70728105488E+03  0.10100000352E+00 0. -1.
       -3    1    3    3    0  502  0.47409223501E+03  0.39316191621E+02  0.67602518021E+03  0.82663127493E+03  0.10100000352E+00 0.  1.
</event>
<event>
 5   0  0.6967681E-03  0.9874346E+03  0.7818609E-02  0.9322435E-01
       -1   -1    0    0    0  501  0.00000000000E+00  0.00000000000E+00  0.37322224302E+03  0.37322224305E+03  0.50400001928E-02 0.  1.
        1   -1    0    0  501    0  0.00000000000E+00  0.00000000000E+00 -0.65311431463E+03  0.65311431465E+03  0.50400001928E-02 0. -1.
    10030    2    1    2    0    0  0.00000000000E+00  0.00000000000E+00 -0.27989207162E+03  0.10263365577E+04  0.98743463476E+03 0.  0.
        5    1    3    3  502    0  0.23238187258E+03  0.41564172145E+03 -0.27536842779E+03  0.55009929680E+03  0.46999998093E+01 0. -1.
       -5    1    3    3    0  502 -0.23238187258E+03 -0.41564172145E+03 -0.45236438241E+01  0.47623726090E+03  0.46999998093E+01 0.  1.
</event>
<event>
 5   0  0.1221315E-02  0.1004307E+04  0.7818609E-02  0.9303833E-01
        2   -1    0    0  501    0  0.00000000000E+00  0.00000000000E+00  0.16184953444E+04  0.16184953444E+04  0.25500000920E-02 0. -1.
       -2   -1    0    0    0  501  0.00000000000E+00  0.00000000000E+00 -0.15579796537E+03  0.15579796539E+03  0.25500000920E-02 0.  1.
    10030    2    1    2    0    0  0.00000000000E+00  0.00000000000E+00  0.14626973790E+04  0.17742933097E+04  0.10043072869E+04 0.  0.
        5    1    3    3  502    0 -0.11245645635E+03  0.48538080166E+03  0.84161033943E+03  0.97804449317E+03  0.46999998093E+01 0. -1.
       -5    1    3    3    0  502  0.11245645635E+03 -0.48538080166E+03  0.62108703955E+03  0.79624881657E+03  0.46999998093E+01 0.  1.
</event>
<event>
 5   0  0.1245850E-02  0.1013362E+04  0.7818609E-02  0.9294009E-01
       -2   -1    0    0    0  501  0.00000000000E+00  0.00000000000E+00  0.10282152496E+03  0.10282152499E+03  0.25500000920E-02 0. -1.
        2   -1    0    0  501    0  0.00000000000E+00  0.00000000000E+00 -0.24968102353E+04  0.24968102353E+04  0.25500000920E-02 0.  1.
    10030    2    1    2    0    0  0.00000000000E+00  0.00000000000E+00 -0.23939887103E+04  0.25996317603E+04  0.10133623952E+04 0.  0.
        3    1    3    3  502    0  0.20688436111E+02  0.12105593431E+03  0.64061743715E+02  0.13851522598E+03  0.10100000352E+00 0. -1.
       -3    1    3    3    0  502 -0.20688436111E+02 -0.12105593431E+03 -0.24580504540E+04  0.24611165343E+04  0.10100000352E+00 0.  1.
</event>
<event>
 5   0  0.6967681E-03  0.1005380E+04  0.7818609E-02  0.9302664E-01
        1   -1    0    0  501    0  0.00000000000E+00  0.00000000000E+00  0.36605164008E+03  0.36605164012E+03  0.50400001928E-02 0.  1.
       -1   -1    0    0    0  501  0.00000000000E+00  0.00000000000E+00 -0.69033227712E+03  0.69033227714E+03  0.50400001928E-02 0. -1.
    10030    2    1    2    0    0  0.00000000000E+00  0.00000000000E+00 -0.32428063704E+03  0.10563839173E+04  0.10053800521E+04 0.  0.
        5    1    3    3  502    0  0.29448761487E+03  0.16925723752E+03  0.22720363529E+03  0.40867413626E+03  0.46999998093E+01 0. -1.
       -5    1    3    3    0  502 -0.29448761487E+03 -0.16925723752E+03 -0.55148427234E+03  0.64770978099E+03  0.46999998093E+01 0.  1.
</event>
<event>
 5   0  0.1216322E-02  0.1051928E+04  0.7818609E-02  0.9253356E-01
        2   -1    0    0  501    0  0.00000000000E+00  0.00000000000E+00  0.78269656542E+03  0.78269656542E+03  0.25500000920E-02 0. -1.
       -2   -1    0    0    0  501  0.00000000000E+00  0.00000000000E+00 -0.35344212539E+03  0.35344212539E+03  0.25500000920E-02 0.  1.
    10030    2    1    2    0    0  0.00000000000E+00  0.00000000000E+00  0.42925444003E+03  0.11361386908E+04  0.10519276356E+04 0.  0.
        2    1    3    3  502    0 -0.48651040330E+03 -0.19364166162E+03  0.16118394615E+03  0.54787747730E+03  0.25500000920E-02 0.  1.
       -2    1    3    3    0  502  0.48651040330E+03  0.19364166162E+03  0.26807049388E+03  0.58826121352E+03  0.25500000920E-02 0. -1.
</event>
<event>
 5   0  0.7073004E-03  0.8640577E+03  0.7818609E-02  0.9471661E-01
       -1   -1    0    0    0  501  0.00000000000E+00  0.00000000000E+00  0.14535909910E+03  0.14535909919E+03  0.50400001928E-02 0. -1.
        1   -1    0    0  501    0  0.00000000000E+00  0.00000000000E+00 -0.12840538653E+04  0.12840538653E+04  0.50400001928E-02 0.  1.
    10030    2    1    2    0    0  0.00000000000E+00  0.00000000000E+00 -0.11386947662E+04  0.14294129645E+04  0.86405766736E+03 0.  0.
        1    1    3    3  502    0 -0.34484263917E+03 -0.82013111964E+02 -0.16074359257E+03  0.38920572825E+03  0.50400001928E-02 0. -1.
       -1    1    3    3    0  502  0.34484263917E+03  0.82013111964E+02 -0.97795117366E+03  0.10402072363E+04  0.50400001928E-02 0.  1.
</event>
<event>
 5   0  0.4782125E-03  0.9929659E+03  0.7818609E-02  0.9316294E-01
        3   -1    0    0  501    0  0.00000000000E+00  0.00000000000E+00  0.25949112826E+03  0.25949114792E+03  0.10100000352E+00 0. -1.
       -3   -1    0    0    0  501  0.00000000000E+00  0.00000000000E+00 -0.94991800974E+03  0.94991801511E+03  0.10100000352E+00 0.  1.
    10030    2    1    2    0    0  0.00000000000E+00  0.00000000000E+00 -0.69042688147E+03  0.12094091630E+04  0.99296588308E+03 0.  0.
        4    1    3    3  502    0  0.45621893547E+03 -0.17732407106E+03 -0.44648989449E+03  0.66252123138E+03  0.12699999809E+01 0.  1.
       -4    1    3    3    0  502 -0.45621893547E+03  0.17732407106E+03 -0.24393698698E+03  0.54688793164E+03  0.12699999809E+01 0. -1.
</event>
<event>
 5   0  0.1240503E-02  0.8531757E+03  0.7818609E-02  0.9486084E-01
       -2   -1    0    0    0  501  0.00000000000E+00  0.00000000000E+00  0.14708255399E+04  0.14708255399E+04  0.25500000920E-02 0. -1.
        2   -1    0    0  501    0  0.00000000000E+00  0.00000000000E+00 -0.12372453911E+03  0.12372453914E+03  0.25500000920E-02 0.  1.
    10030    2    1    2    0    0  0.00000000000E+00  0.00000000000E+00  0.13471010008E+04  0.15945500791E+04  0.85317574289E+03 0.  0.
        1    1    3    3  502    0  0.23793162525E+03  0.25474194549E+03  0.21395275513E+03  0.40899963146E+03  0.50400001928E-02 0.  1.
       -1    1    3    3    0  502 -0.23793162525E+03 -0.25474194549E+03  0.11331482457E+04  0.11855504476E+04  0.50400001928E-02 0. -1.
</event>
<event>
 5   0  0.7461157E-03  0.9799613E+03  0.7818609E-02  0.9330800E-01
        1   -1    0    0  501    0  0.00000000000E+00  0.00000000000E+00  0.35170465029E+03  0.35170465033E+03  0.50400001928E-02 0.  1.
       -1   -1    0    0    0  501  0.00000000000E+00  0.00000000000E+00 -0.68262114826E+03  0.68262114828E+03  0.50400001928E-02 0. -1.
    10030    2    1    2    0    0  0.00000000000E+00  0.00000000000E+00 -0.33091649797E+03  0.10343257986E+04  0.97996128956E+03 0.  0.
        2    1    3    3  502    0 -0.36735398080E+03 -0.32400623255E+03 -0.17847301549E+03  0.52132677200E+03  0.25500000920E-02 0. -1.
       -2    1    3    3    0  502  0.36735398080E+03  0.32400623255E+03 -0.15244348247E+03  0.51299902661E+03  0.25500000920E-02 0.  1.
</event>
<event>
 5   0  0.7224879E-03  0.1063780E+04  0.7818609E-02  0.9241231E-01
       -1   -1    0    0    0  501  0.00000000000E+00  0.00000000000E+00  0.36354055655E+03  0.36354055658E+03  0.50400001928E-02 0. -1.
        1   -1    0    0  501    0  0.00000000000E+00  0.00000000000E+00 -0.77819936376E+03  0.77819936378E+03  0.50400001928E-02 0.  1.
    10030    2    1    2    0    0  0.00000000000E+00  0.00000000000E+00 -0.41465880721E+03  0.11417399204E+04  0.10637801085E+04 0.  0.
        3    1    3    3  502    0 -0.43985801807E+03 -0.19148101624E+03  0.39215695878E+02  0.48132934322E+03  0.10100000352E+00 0.  1.
       -3    1    3    3    0  502  0.43985801807E+03  0.19148101624E+03 -0.45387450309E+03  0.66041057714E+03  0.10100000352E+00 0. -1.
</event>
<event>
 5   0  0.6967681E-03  0.9995235E+03  0.7818609E-02  0.9309068E-01
        1   -1    0    0  501    0  0.00000000000E+00  0.00000000000E+00  0.70859765433E+03  0.70859765435E+03  0.50400001928E-02 0.  1.
       -1   -1    0    0    0  501  0.00000000000E+00  0.00000000000E+00 -0.35247339040E+03  0.35247339044E+03  0.50400001928E-02 0. -1.
    10030    2    1    2    0    0  0.00000000000E+00  0.00000000000E+00  0.35612426393E+03  0.10610710448E+04  0.99952352185E+03 0.  0.
        5    1    3    3  502    0  0.49049529710E+03 -0.37757117230E+02  0.27138730545E+03  0.56185798556E+03  0.46999998093E+01 0.  1.
       -5    1    3    3    0  502 -0.49049529710E+03  0.37757117230E+02  0.84736958479E+02  0.49921305923E+03  0.46999998093E+01 0. -1.
</event>
<event>
 5   0  0.7461157E-03  0.1026292E+04  0.7818609E-02  0.9280169E-01
       -1   -1    0    0    0  501  0.00000000000E+00  0.00000000000E+00  0.38915959011E+03  0.38915959014E+03  0.50400001928E-02 0.  1.
        1   -1    0    0  501    0  0.00000000000E+00  0.00000000000E+00 -0.67663432527E+03  0.67663432529E+03  0.50400001928E-02 0. -1.
    10030    2    1    2    0    0  0.00000000000E+00  0.00000000000E+00 -0.28747473516E+03  0.10657939154E+04  0.10262918429E+04 0.  0.
        2    1    3    3  502    0 -0.49090544323E+03  0.14678849320E+03 -0.17280991161E+03  0.54073864434E+03  0.25500000920E-02 0. -1.
       -2    1    3    3    0  502  0.49090544323E+03 -0.14678849320E+03 -0.11466482356E+03  0.52505527109E+03  0.25500000920E-02 0.  1.
</event>
<event>
 5   0  0.1191822E-02  0.9999125E+03  0.7818609E-02  0.9308641E-01
        2   -1    0    0  501    0  0.00000000000E+00  0.00000000000E+00  0.62321026278E+03  0.62321026278E+03  0.25500000920E-02 0. -1.
       -2   -1    0    0    0  501  0.00000000000E+00  0.00000000000E+00 -0.40107850124E+03  0.40107850125E+03  0.25500000920E-02 0.  1.
    10030    2    1    2    0    0  0.00000000000E+00  0.00000000000E+00  0.22213176154E+03  0.10242887640E+04  0.99991247249E+03 0.  0.
        4    1    3    3  502    0 -0.91241779095E+02  0.97914166947E+01  0.61450769328E+03  0.62132298533E+03  0.12699999809E+01 0. -1.
       -4    1    3    3    0  502  0.91241779095E+02 -0.97914166947E+01 -0.39237593174E+03  0.40296577870E+03  0.12699999809E+01 0.  1.
</event>
<event>
 5   0  0.7241200E-03  0.1022168E+04  0.7818609E-02  0.9284560E-01
        1   -1    0    0  501    0  0.00000000000E+00  0.00000000000E+00  0.15728440446E+04  0.15728440446E+04  0.50400001928E-02 0.  1.
       -1   -1    0    0    0  501  0.00000000000E+00  0.00000000000E+00 -0.16607292594E+03  0.16607292601E+03  0.50400001928E-02 0. -1.
    10030    2    1    2    0    0  0.00000000000E+00  0.00000000000E+00  0.14067711187E+04  0.17389169706E+04  0.10221679169E+04 0.  0.
        4    1    3    3  502    0 -0.25828214388E+03 -0.43557333579E+03  0.82089686459E+03  0.96452427232E+03  0.12699999809E+01 0.  1.
       -4    1    3    3    0  502  0.25828214388E+03  0.43557333579E+03  0.58587425408E+03  0.77439269831E+03  0.12699999809E+01 0. -1.
</event>
<event>
 5   0  0.7224879E-03  0.1105473E+04  0.7818609E-02  0.9199874E-01
        1   -1    0    0  501    0  0.00000000000E+00  0.00000000000E+00  0.11242291175E+04  0.11242291175E+04  0.50400001928E-02 0.  1.
       -1   -1    0    0    0  501  0.00000000000E+00  0.00000000000E+00 -0.27175739698E+03  0.27175739703E+03  0.50400001928E-02 0. -1.
    10030    2    1    2    0    0  0.00000000000E+00  0.00000000000E+00  0.85247172051E+03  0.13959865145E+04  0.11054728918E+04 0.  0.
        3    1    3    3  502    0  0.34440657968E+03 -0.21297514759E+03 -0.48856150057E+02  0.40787404822E+03  0.10100000352E+00 0. -1.
       -3    1    3    3    0  502 -0.34440657968E+03  0.21297514759E+03  0.90132787057E+03  0.98811246631E+03  0.10100000352E+00 0.  1.
</event>
<event>
 5   0  0.4782125E-03  0.9989019E+03  0.7818609E-02  0.9309750E-01
       -4   -1    0    0    0  501  0.00000000000E+00  0.00000000000E+00  0.52017602069E+03  0.52017757102E+03  0.12699999809E+01 0.  1.
        4   -1    0    0  501    0  0.00000000000E+00  0.00000000000E+00 -0.47954849647E+03  0.47955017815E+03  0.12699999809E+01 0. -1.
    10030    2    1    2    0    0  0.00000000000E+00  0.00000000000E+00  0.40627524218E+02  0.99972774917E+03  0.99890188544E+03 0.  0.
        4    1    3    3  502    0  0.32637052099E+03  0.36115297672E+03 -0.91584049679E+02  0.49531650550E+03  0.12699999809E+01 0. -1.
       -4    1    3    3    0  502 -0.32637052099E+03 -0.36115297672E+03  0.13221157390E+03  0.50441124367E+03  0.12699999809E+01 0.  1.
</event>
<event>
 5   0  0.1240503E-02  0.9971476E+03  0.7818609E-02  0.9311679E-01
        2   -1    0    0  501    0  0.00000000000E+00  0.00000000000E+00  0.22172791007E+04  0.22172791007E+04  0.25500000920E-02 0. -1.
       -2   -1    0    0    0  501  0.00000000000E+00  0.00000000000E+00 -0.11210850994E+03  0.11210850997E+03  0.25500000920E-02 0.  1.
    10030    2    1    2    0    0  0.00000000000E+00  0.00000000000E+00  0.21051705908E+04  0.23293876107E+04  0.99714764432E+03 0.  0.
        1    1    3    3  502    0 -0.10051599780E+03 -0.99991723851E+02 -0.64022690187E+02  0.15556579167E+03  0.50400001928E-02 0.  1.
       -1    1    3    3    0  502  0.10051599780E+03  0.99991723851E+02  0.21691932810E+04  0.21738218190E+04  0.50400001928E-02 0. -1.
</event>
<event>
 5   0  0.1245850E-02  0.1000176E+04  0.7818609E-02  0.9308352E-01
        2   -1    0    0  501    0  0.00000000000E+00  0.00000000000E+00  0.81338159034E+03  0.81338159034E+03  0.25500000920E-02 0. -1.
       -2   -1    0    0    0  501  0.00000000000E+00  0.00000000000E+00 -0.30746701519E+03  0.30746701520E+03  0.25500000920E-02 0.  1.
    10030    2    1    2    0    0  0.00000000000E+00  0.00000000000E+00  0.50591457515E+03  0.11208486055E+04  0.10001760041E+04 0.  0.
        3    1    3    3  502    0  0.28416164852E+03  0.14195905694E+03  0.68580702204E+03  0.75579858297E+03  0.10100000352E+00 0. -1.
       -3    1    3    3    0  502 -0.28416164852E+03 -0.14195905694E+03 -0.17989244689E+03  0.36505002258E+03  0.10100000352E+00 0.  1.
</event>
<event>
 5   0  0.1245850E-02  0.9913676E+03  0.7818609E-02  0.9318064E-01
        2   -1    0    0  501    0  0.00000000000E+00  0.00000000000E+00  0.49735372872E+03  0.49735372873E+03  0.25500000920E-02 0. -1.
       -2   -1    0    0    0  501  0.00000000000E+00  0.00000000000E+00 -0.49401945219E+03  0.49401945219E+03  0.25500000920E-02 0.  1.
    10030    2    1    2    0    0  0.00000000000E+00  0.00000000000E+00  0.33342765319E+01  0.99137318092E+03  0.99136757383E+03 0.  0.
        3    1    3    3  502    0  0.67210718045E+02  0.30594496618E+03 -0.38250010773E+03  0.49439452421E+03  0.10100000352E+00 0.  1.
       -3    1    3    3    0  502 -0.67210718045E+02 -0.30594496618E+03  0.38583438426E+03  0.49697865671E+03  0.10100000352E+00 0. -1.
</event>
<event>
 5   0  0.7241200E-03  0.1111000E+04  0.7818609E-02  0.9194537E-01
        1   -1    0    0  501    0  0.00000000000E+00  0.00000000000E+00  0.39914893594E+03  0.39914893598E+03  0.50400001928E-02 0.  1.
       -1   -1    0    0    0  501  0.00000000000E+00  0.00000000000E+00 -0.77309499819E+03  0.77309499821E+03  0.50400001928E-02 0. -1.
    10030    2    1    2    0    0  0.00000000000E+00  0.00000000000E+00 -0.37394606225E+03  0.11722439342E+04  0.11109996327E+04 0.  0.
        4    1    3    3  502    0 -0.17453374161E+03 -0.18821040442E+03  0.33282296192E+03  0.42030693568E+03  0.12699999809E+01 0.  1.
       -4    1    3    3    0  502  0.17453374161E+03  0.18821040442E+03 -0.70676902417E+03  0.75193699851E+03  0.12699999809E+01 0. -1.
</event>
<event>
 5   0  0.1240503E-02  0.1003529E+04  0.7818609E-02  0.9304683E-01
        2   -1    0    0  501    0  0.00000000000E+00  0.00000000000E+00  0.15710425495E+04  0.15710425495E+04  0.25500000920E-02 0. -1.
       -2   -1    0    0    0  501  0.00000000000E+00  0.00000000000E+00 -0.16025499222E+03  0.16025499224E+03  0.25500000920E-02 0.  1.
    10030    2    1    2    0    0  0.00000000000E+00  0.00000000000E+00  0.14107875572E+04  0.17312975417E+04  0.10035285976E+04 0.  0.
        1    1    3    3  502    0 -0.92454451059E+02 -0.48510861206E+03  0.55215841369E+03  0.74078141503E+03  0.50400001928E-02 0. -1.
       -1    1    3    3    0  502  0.92454451059E+02  0.48510861206E+03  0.85862914354E+03  0.99051612667E+03  0.50400001928E-02 0.  1.
</event>
<event>
 5   0  0.7461157E-03  0.1005520E+04  0.7818609E-02  0.9302511E-01
        1   -1    0    0  501    0  0.00000000000E+00  0.00000000000E+00  0.10042901307E+04  0.10042901307E+04  0.50400001928E-02 0. -1.
       -1   -1    0    0    0  501  0.00000000000E+00  0.00000000000E+00 -0.25168793415E+03  0.25168793420E+03  0.50400001928E-02 0.  1.
    10030    2    1    2    0    0  0.00000000000E+00  0.00000000000E+00  0.75260219656E+03  0.12559780649E+04  0.10055201804E+04 0.  0.
        2    1    3    3  502    0  0.46656449556E+03 -0.73311413703E+02  0.59160298003E+03  0.75700137245E+03  0.25500000920E-02 0. -1.
       -2    1    3    3    0  502 -0.46656449556E+03  0.73311413703E+02  0.16099921653E+03  0.49897669247E+03  0.25500000920E-02 0.  1.
</event>
<event>
 5   0  0.7073004E-03  0.1018697E+04  0.7818609E-02  0.9288272E-01
        1   -1    0    0  501    0  0.00000000000E+00  0.00000000000E+00  0.13945108293E+04  0.13945108293E+04  0.50400001928E-02 0. -1.
       -1   -1    0    0    0  501  0.00000000000E+00  0.00000000000E+00 -0.18604089264E+03  0.18604089270E+03  0.50400001928E-02 0.  1.
    10030    2    1    2    0    0  0.00000000000E+00  0.00000000000E+00  0.12084699367E+04  0.15805517220E+04  0.10186972848E+04 0.  0.
        1    1    3    3  502    0  0.29120210428E+03  0.17240871253E+03  0.13603404040E+02  0.33868640705E+03  0.50400001928E-02 0.  1.
       -1    1    3    3    0  502 -0.29120210428E+03 -0.17240871253E+03  0.11948665326E+04  0.12418653150E+04  0.50400001928E-02 0. -1.
</event>
<event>
 5   0  0.6967681E-03  0.9565444E+03  0.7818609E-02  0.9357534E-01
        1   -1    0    0  501    0  0.00000000000E+00  0.00000000000E+00  0.28426881882E+03  0.28426881887E+03  0.50400001928E-02 0. -1.
       -1   -1    0    0    0  501  0.00000000000E+00  0.00000000000E+00 -0.80467599105E+03  0.80467599106E+03  0.50400001928E-02 0.  1.
    10030    2    1    2    0    0  0.00000000000E+00  0.00000000000E+00 -0.52040717222E+03  0.10889448099E+04  0.95654439216E+03 0.  0.
        5    1    3    3  502    0  0.40695778092E+03  0.20342652576E+03 -0.92407124656E+02  0.46428240707E+03  0.46999998093E+01 0. -1.
       -5    1    3    3    0  502 -0.40695778092E+03 -0.20342652576E+03 -0.42800004757E+03  0.62466240286E+03  0.46999998093E+01 0.  1.
</event>
<event>
 5   0  0.1216322E-02  0.9932585E+03  0.7818609E-02  0.9315970E-01
       -2   -1    0    0    0  501  0.00000000000E+00  0.00000000000E+00  0.12077681765E+04  0.12077681765E+04  0.25500000920E-02 0. -1.
        2   -1    0    0  501    0  0.00000000000E+00  0.00000000000E+00 -0.20421187933E+03  0.20421187934E+03  0.25500000920E-02 0.  1.
    10030    2    1    2    0    0  0.00000000000E+00  0.00000000000E+00  0.10035562972E+04  0.14119800559E+04  0.99325849431E+03 0.  0.
        2    1    3    3  502    0  0.38036305296E+03  0.31360498237E+03  0.58726687244E+03  0.76675062210E+03  0.25500000920E-02 0. -1.
       -2    1    3    3    0  502 -0.38036305296E+03 -0.31360498237E+03  0.41628942477E+03  0.64522943377E+03  0.25500000920E-02 0.  1.
</event>
<event>
 5   0  0.1240503E-02  0.1022474E+04  0.7818609E-02  0.9284234E-01
        2   -1    0    0  501    0  0.00000000000E+00  0.00000000000E+00  0.53676610654E+03  0.53676610655E+03  0.25500000920E-02 0. -1.
       -2   -1    0    0    0  501  0.00000000000E+00  0.00000000000E+00 -0.48692168449E+03  0.48692168450E+03  0.25500000920E-02 0.  1.
    10030    2    1    2    0    0  0.00000000000E+00  0.00000000000E+00  0.49844422050E+02  0.10236877910E+04  0.10224735826E+04 0.  0.
        1    1    3    3  502    0  0.13772928316E+03  0.15369520348E+03  0.49320779221E+03  0.53464520697E+03  0.50400001928E-02 0. -1.
       -1    1    3    3    0  502 -0.13772928316E+03 -0.15369520348E+03 -0.44336337016E+03  0.48904258407E+03  0.50400001928E-02 0.  1.
</event>
<event>
 5   0  0.1221315E-02  0.1000944E+04  0.7818609E-02  0.9307510E-01
       -2   -1    0    0    0  501  0.00000000000E+00  0.00000000000E+00  0.10644806264E+03  0.10644806267E+03  0.25500000920E-02 0.  1.
        2   -1    0    0  501    0  0.00000000000E+00  0.00000000000E+00 -0.23530012003E+04  0.23530012003E+04  0.25500000920E-02 0. -1.
    10030    2    1    2    0    0  0.00000000000E+00  0.00000000000E+00 -0.22465531376E+04  0.24594492629E+04  0.10009443924E+04 0.  0.
        5    1    3    3  502    0  0.96634462303E+02 -0.29586441875E+03 -0.20861963214E+04  0.21092916240E+04  0.46999998093E+01 0. -1.
       -5    1    3    3    0  502 -0.96634462303E+02  0.29586441875E+03 -0.16035681618E+03  0.35015763890E+03  0.46999998093E+01 0.  1.
</event>
<event>
 5   0  0.6967681E-03  0.8518084E+03  0.7818609E-02  0.9487913E-01
        1   -1    0    0  501    0  0.00000000000E+00  0.00000000000E+00  0.99602116781E+03  0.99602116782E+03  0.50400001928E-02 0. -1.
       -1   -1    0    0    0  501  0.00000000000E+00  0.00000000000E+00 -0.18211902117E+03  0.18211902124E+03  0.50400001928E-02 0.  1.
    10030    2    1    2    0    0  0.00000000000E+00  0.00000000000E+00  0.81390214664E+03  0.11781401891E+04  0.85180842962E+03 0.  0.
        5    1    3    3  502    0 -0.17152335979E+03 -0.32025768795E+03  0.99580967531E+02  0.37672763203E+03  0.46999998093E+01 0.  1.
       -5    1    3    3    0  502  0.17152335979E+03  0.32025768795E+03  0.71432117911E+03  0.80141255703E+03  0.46999998093E+01 0. -1.
</event>
<event>
 5   0  0.4782125E-03  0.1108696E+04  0.7818609E-02  0.9196757E-01
       -4   -1    0    0    0  501  0.00000000000E+00  0.00000000000E+00  0.35375743267E+03  0.35375971234E+03  0.12699999809E+01 0.  1.
        4   -1    0    0  501    0  0.00000000000E+00  0.00000000000E+00 -0.86867406809E+03  0.86867499646E+03  0.12699999809E+01 0. -1.
    10030    2    1    2    0    0  0.00000000000E+00  0.00000000000E+00 -0.51491663541E+03  0.12224347088E+04  0.11086962956E+04 0.  0.
        4    1    3    3  502    0 -0.81326494187E+02  0.30595656017E+03 -0.75919845138E+03  0.82256143652E+03  0.12699999809E+01 0. -1.
       -4    1    3    3    0  502  0.81326494187E+02 -0.30595656017E+03  0.24428181597E+03  0.39987327228E+03  0.12699999809E+01 0.  1.
</event>
<event>
 5   0  0.1191822E-02  0.9906594E+03  0.7818609E-02  0.9318849E-01
       -2   -1    0    0    0  501  0.00000000000E+00  0.00000000000E+00  0.82575710012E+03  0.82575710012E+03  0.25500000920E-02 0.  1.
        2   -1    0    0  501    0  0.00000000000E+00  0.00000000000E+00 -0.29712311709E+03  0.29712311710E+03  0.25500000920E-02 0. -1.
    10030    2    1    2    0    0  0.00000000000E+00  0.00000000000E+00  0.52863398303E+03  0.11228802172E+04  0.99065942393E+03 0.  0.
        4    1    3    3  502    0  0.43989809970E+03 -0.22645782768E+03  0.23758001473E+03  0.54885276909E+03  0.12699999809E+01 0.  1.
       -4    1    3    3    0  502 -0.43989809970E+03  0.22645782768E+03  0.29105396830E+03  0.57402744813E+03  0.12699999809E+01 0. -1.
</event>
<event>
 5   0  0.1240503E-02  0.9300994E+03  0.7818609E-02  0.9388719E-01
        2   -1    0    0  501    0  0.00000000000E+00  0.00000000000E+00  0.85168074323E+03  0.85168074324E+03  0.25500000920E-02 0.  1.
       -2   -1    0    0    0  501  0.00000000000E+00  0.00000000000E+00 -0.25393463239E+03  0.25393463240E+03  0.25500000920E-02 0. -1.
    10030    2    1    2    0    0  0.00000000000E+00  0.00000000000E+00  0.59774611084E+03  0.11056153756E+04  0.93009942792E+03 0.  0.
        1    1    3    3  502    0  0.16247661093E+03 -0.15882487533E+03 -0.18346544440E+03  0.29203349027E+03  0.50400001928E-02 0. -1.
       -1    1    3    3    0  502 -0.16247661093E+03  0.15882487533E+03  0.78121155525E+03  0.81358188537E+03  0.50400001928E-02 0.  1.
</event>
<event>
 5   0  0.7241200E-03  0.9898113E+03  0.7818609E-02  0.9319791E-01
        1   -1    0    0  501    0  0.00000000000E+00  0.00000000000E+00  0.33343906703E+03  0.33343906706E+03  0.50400001928E-02 0. -1.
       -1   -1    0    0    0  501  0.00000000000E+00  0.00000000000E+00 -0.73456181382E+03  0.73456181384E+03  0.50400001928E-02 0.  1.
    10030    2    1    2    0    0  0.00000000000E+00  0.00000000000E+00 -0.40112274680E+03  0.10680008809E+04  0.98981130708E+03 0.  0.
        4    1    3    3  502    0  0.34474117532E+03  0.16076588581E+03  0.14105215487E+03  0.40569627961E+03  0.12699999809E+01 0. -1.
       -4    1    3    3    0  502 -0.34474117532E+03 -0.16076588581E+03 -0.54217490166E+03  0.66230460129E+03  0.12699999809E+01 0.  1.
</event>
<event>
 5   0  0.6967681E-03  0.9724311E+03  0.7818609E-02  0.9339310E-01
        1   -1    0    0  501    0  0.00000000000E+00  0.00000000000E+00  0.82872185667E+03  0.82872185668E+03  0.50400001928E-02 0.  1.
       -1   -1    0    0    0  501  0.00000000000E+00  0.00000000000E+00 -0.28526526395E+03  0.28526526400E+03  0.50400001928E-02 0. -1.
    10030    2    1    2    0    0  0.00000000000E+00  0.00000000000E+00  0.54345659271E+03  0.11139871207E+04  0.97243109621E+03 0.  0.
        5    1    3    3  502    0  0.46402069238E+03 -0.72323219408E+02  0.41589543077E+03  0.62732523491E+03  0.46999998093E+01 0.  1.
       -5    1    3    3    0  502 -0.46402069238E+03  0.72323219408E+02  0.12756116195E+03  0.48666188577E+03  0.46999998093E+01 0. -1.
</event>
<event>
 5   0  0.1221315E-02  0.1003034E+04  0.7818609E-02  0.9305223E-01
        2   -1    0    0  501    0  0.00000000000E+00  0.00000000000E+00  0.15788158709E+04  0.15788158709E+04  0.25500000920E-02 0.  1.
       -2   -1    0    0    0  501  0.00000000000E+00  0.00000000000E+00 -0.15930887636E+03  0.15930887638E+03  0.25500000920E-02 0. -1.
    10030    2    1    2    0    0  0.00000000000E+00  0.00000000000E+00  0.14195069946E+04  0.17381247473E+04  0.10030341617E+04 0.  0.
        5    1    3    3  502    0  0.66193430191E+01  0.47972774344E+03  0.45676222901E+03  0.66244724121E+03  0.46999998093E+01 0. -1.
       -5    1    3    3    0  502 -0.66193430191E+01 -0.47972774344E+03  0.96274476554E+03  0.10756775061E+04  0.46999998093E+01 0.  1.
</event>
<event>
 5   0  0.1221315E-02  0.9968830E+03  0.7818609E-02  0.9311970E-01
       -2   -1    0    0    0  501  0.00000000000E+00  0.00000000000E+00  0.46209238993E+03  0.46209238993E+03  0.25500000920E-02 0.  1.
        2   -1    0    0  501    0  0.00000000000E+00  0.00000000000E+00 -0.53764986175E+03  0.53764986175E+03  0.25500000920E-02 0. -1.
    10030    2    1    2    0    0  0.00000000000E+00  0.00000000000E+00 -0.75557471820E+02  0.99974225169E+03  0.99688296116E+03 0.  0.
        5    1    3    3  502    0 -0.27529989761E+03 -0.20288962273E+03 -0.40140330503E+03  0.52735276232E+03  0.46999998093E+01 0. -1.
       -5    1    3    3    0  502  0.27529989761E+03  0.20288962273E+03  0.32584583321E+03  0.47238948936E+03  0.46999998093E+01 0.  1.
</event>
<event>
 5   0  0.1221315E-02  0.9991961E+03  0.7818609E-02  0.9309427E-01
       -2   -1    0    0    0  501  0.00000000000E+00  0.00000000000E+00  0.13287671828E+03  0.13287671831E+03  0.25500000920E-02 0. -1.
        2   -1    0    0  501    0  0.00000000000E+00  0.00000000000E+00 -0.18784195140E+04  0.18784195140E+04  0.25500000920E-02 0.  1.
    10030    2    1    2    0    0  0.00000000000E+00  0.00000000000E+00 -0.17455427958E+04  0.20112962324E+04  0.99919611810E+03 0.  0.
        5    1    3    3  502    0 -0.45422340637E+03 -0.13029392926E+03 -0.11990915758E+04  0.12888514686E+04  0.46999998093E+01 0.  1.
       -5    1    3    3    0  502  0.45422340637E+03  0.13029392926E+03 -0.54645121992E+03  0.72244476373E+03  0.46999998093E+01 0. -1.
</event>
<event>
 5   0  0.1191822E-02  0.8835407E+03  0.7818609E-02  0.9446394E-01
       -2   -1    0    0    0  501  0.00000000000E+00  0.00000000000E+00  0.15774723651E+03  0.15774723653E+03  0.25500000920E-02 0.  1.
        2   -1    0    0  501    0  0.00000000000E+00  0.00000000000E+00 -0.12371756053E+04  0.12371756053E+04  0.25500000920E-02 0. -1.
    10030    2    1    2    0    0  0.00000000000E+00  0.00000000000E+00 -0.10794283688E+04  0.13949228419E+04  0.88354067895E+03 0.  0.
        4    1    3    3  502    0  0.32316951157E+03  0.27941208766E+03 -0.71728229973E+03  0.83486834791E+03  0.12699999809E+01 0. -1.
       -4    1    3    3    0  502 -0.32316951157E+03 -0.27941208766E+03 -0.36214606907E+03  0.56005449394E+03  0.12699999809E+01 0.  1.
</event>
<event>
 5   0  0.1191822E-02  0.1006218E+04  0.7818609E-02  0.9301751E-01
        2   -1    0    0  501    0  0.00000000000E+00  0.00000000000E+00  0.11602131762E+04  0.11602131762E+04  0.25500000920E-02 0. -1.
       -2   -1    0    0    0  501  0.00000000000E+00  0.00000000000E+00 -0.21816553200E+03  0.21816553201E+03  0.25500000920E-02 0.  1.
    10030    2    1    2    0    0  0.00000000000E+00  0.00000000000E+00  0.94204764416E+03  0.13783787082E+04  0.10062177196E+04 0.  0.
        4    1    3    3  502    0 -0.41917990060E+03 -0.16903937075E+03  0.16831604642E+03  0.48230488522E+03  0.12699999809E+01 0.  1.
       -4    1    3    3    0  502  0.41917990060E+03  0.16903937075E+03  0.77373159774E+03  0.89607382295E+03  0.12699999809E+01 0. -1.
</event>
<event>
 5   0  0.6967681E-03  0.9801067E+03  0.7818609E-02  0.9330637E-01
       -1   -1    0    0    0  501  0.00000000000E+00  0.00000000000E+00  0.53548374170E+03  0.53548374172E+03  0.50400001928E-02 0.  1.
        1   -1    0    0  501    0  0.00000000000E+00  0.00000000000E+00 -0.44847722976E+03  0.44847722978E+03  0.50400001928E-02 0. -1.
    10030    2    1    2    0    0  0.00000000000E+00  0.00000000000E+00  0.87006511943E+02  0.98396097151E+03  0.98010665763E+03 0.  0.
        5    1    3    3  502    0  0.47141344483E+03 -0.11525435603E+03 -0.24704873801E+02  0.48594919831E+03  0.46999998093E+01 0. -1.
       -5    1    3    3    0  502 -0.47141344483E+03  0.11525435603E+03  0.11171138574E+03  0.49801177320E+03  0.46999998093E+01 0.  1.
</event>
<event>
 5   0  0.1245850E-02  0.1121686E+04  0.7818609E-02  0.9184309E-01
        2   -1    0    0  501    0  0.00000000000E+00  0.00000000000E+00  0.62570449824E+03  0.62570449824E+03  0.25500000920E-02 0.  1.
       -2   -1    0    0    0  501  0.00000000000E+00  0.00000000000E+00 -0.50270523361E+03  0.50270523362E+03  0.25500000920E-02 0. -1.
    10030    2    1    2    0    0  0.00000000000E+00  0.00000000000E+00  0.12299926463E+03  0.11284097319E+04  0.11216860986E+04 0.  0.
        3    1    3    3  502    0  0.38022514103E+03  0.40965632239E+03  0.10820480769E+03  0.56929583782E+03  0.10100000352E+00 0.  1.
       -3    1    3    3    0  502 -0.38022514103E+03 -0.40965632239E+03  0.14794456932E+02  0.55911389404E+03  0.10100000352E+00 0. -1.
</event>
<event>
 5   0  0.1216322E-02  0.1016078E+04  0.7818609E-02  0.9291085E-01
       -2   -1    0    0    0  501  0.00000000000E+00  0.00000000000E+00  0.63632506177E+03  0.63632506178E+03  0.25500000920E-02 0.  1.
        2   -1    0    0  501    0  0.00000000000E+00  0.00000000000E+00 -0.40561566013E+03  0.40561566014E+03  0.25500000920E-02 0. -1.
    10030    2    1    2    0    0  0.00000000000E+00  0.00000000000E+00  0.23070940165E+03  0.10419407219E+04  0.10160775758E+04 0.  0.
        2    1    3    3  502    0  0.68758302292E+02 -0.27734814393E+03 -0.31540150753E+03  0.42559112777E+03  0.25500000920E-02 0. -1.
       -2    1    3    3    0  502 -0.68758302292E+02  0.27734814393E+03  0.54611090917E+03  0.61634959415E+03  0.25500000920E-02 0.  1.
</event>
<event>
 5   0  0.7073004E-03  0.1046037E+04  0.7818609E-02  0.9259446E-01
       -1   -1    0    0    0  501  0.00000000000E+00  0.00000000000E+00  0.18629589714E+03  0.18629589721E+03  0.50400001928E-02 0.  1.
        1   -1    0    0  501    0  0.00000000000E+00  0.00000000000E+00 -0.14683530017E+04  0.14683530017E+04  0.50400001928E-02 0. -1.
    10030    2    1    2    0    0  0.00000000000E+00  0.00000000000E+00 -0.12820571046E+04  0.16546488989E+04  0.10460365956E+04 0.  0.
        1    1    3    3  502    0  0.71377561718E+02  0.30473191176E+03 -0.13038722749E+04  0.13409098417E+04  0.50400001928E-02 0. -1.
       -1    1    3    3    0  502 -0.71377561718E+02 -0.30473191176E+03  0.21815170288E+02  0.31373905724E+03  0.50400001928E-02 0.  1.
</event>
<event>
 5   0  0.1221315E-02  0.1031327E+04  0.7818609E-02  0.9274838E-01
        2   -1    0    0  501    0  0.00000000000E+00  0.00000000000E+00  0.13438321698E+04  0.13438321698E+04  0.25500000920E-02 0.  1.
       -2   -1    0    0    0  501  0.00000000000E+00  0.00000000000E+00 -0.19787367523E+03  0.19787367524E+03  0.25500000920E-02 0. -1.
    10030    2    1    2    0    0  0.00000000000E+00  0.00000000000E+00  0.11459584946E+04  0.15417058450E+04  0.10313273202E+04 0.  0.
        5    1    3    3  502    0 -0.30790946391E+03  0.92539330319E+01 -0.45171248918E+02  0.31137823458E+03  0.46999998093E+01 0. -1.
       -5    1    3    3    0  502  0.30790946391E+03 -0.92539330319E+01  0.11911297435E+04  0.12303276105E+04  0.46999998093E+01 0.  1.
</event>
<event>
 5   0  0.1216322E-02  0.9928401E+03  0.7818609E-02  0.9316433E-01
        2   -1    0    0  501    0  0.00000000000E+00  0.00000000000E+00  0.46774798837E+03  0.46774798838E+03  0.25500000920E-02 0. -1.
       -2   -1    0    0    0  501  0.00000000000E+00  0.00000000000E+00 -0.52684960731E+03  0.52684960731E+03  0.25500000920E-02 0.  1.
    10030    2    1    2    0    0  0.00000000000E+00  0.00000000000E+00 -0.59101618932E+02  0.99459759569E+03  0.99284005560E+03 0.  0.
        2    1    3    3  502    0  0.42857360697E+03 -0.29723295398E+02  0.21963443821E+03  0.48249155156E+03  0.25500000920E-02 0.  1.
       -2    1    3    3    0  502 -0.42857360697E+03  0.29723295398E+02 -0.27873605714E+03  0.51210604413E+03  0.25500000920E-02 0. -1.
</event>
<event>
 5   0  0.7073004E-03  0.8701871E+03  0.7818609E-02  0.9463636E-01
       -1   -1    0    0    0  501  0.00000000000E+00  0.00000000000E+00  0.38739169249E+03  0.38739169252E+03  0.50400001928E-02 0.  1.
        1   -1    0    0  501    0  0.00000000000E+00  0.00000000000E+00 -0.48866917403E+03  0.48866917405E+03  0.50400001928E-02 0. -1.
    10030    2    1    2    0    0  0.00000000000E+00  0.00000000000E+00 -0.10127748154E+03  0.87606086657E+03  0.87018705671E+03 0.  0.
        1    1    3    3  502    0  0.35901606742E+03  0.20082151185E+03  0.92037890090E+02  0.42153622563E+03  0.50400001928E-02 0.  1.
       -1    1    3    3    0  502 -0.35901606742E+03 -0.20082151185E+03 -0.19331537163E+03  0.45452464094E+03  0.50400001928E-02 0. -1.
</event>
<event>
 5   0  0.1221315E-02  0.9482480E+03  0.7818609E-02  0.9367201E-01
        2   -1    0    0  501    0  0.00000000000E+00  0.00000000000E+00  0.84506042254E+03  0.84506042255E+03  0.25500000920E-02 0. -1.
       -2   -1    0    0    0  501  0.00000000000E+00  0.00000000000E+00 -0.26600887531E+03  0.26600887532E+03  0.25500000920E-02 0.  1.
    10030    2    1    2    0    0  0.00000000000E+00  0.00000000000E+00  0.57905154723E+03  0.11110692979E+04  0.94824801098E+03 0.  0.
        5    1    3    3  502    0  0.10974007511E+03 -0.45840193163E+03  0.22982307921E+03  0.52441963421E+03  0.46999998093E+01 0.  1.
       -5    1    3    3    0  502 -0.10974007511E+03  0.45840193163E+03  0.34922846802E+03  0.58664966367E+03  0.46999998093E+01 0. -1.
</event>
<event>
 5   0  0.1221315E-02  0.1023566E+04  0.7818609E-02  0.9283069E-01
        2   -1    0    0  501    0  0.00000000000E+00  0.00000000000E+00  0.26650479298E+03  0.26650479300E+03  0.25500000920E-02 0. -1.
       -2   -1    0    0    0  501  0.00000000000E+00  0.00000000000E+00 -0.98280329483E+03  0.98280329483E+03  0.25500000920E-02 0.  1.
    10030    2    1    2    0    0  0.00000000000E+00  0.00000000000E+00 -0.71629850185E+03  0.12493080878E+04  0.10235659014E+04 0.  0.
        5    1    3    3  502    0  0.16588713565E+03  0.20114978049E+03 -0.89563252824E+03  0.93282339786E+03  0.46999998093E+01 0.  1.
       -5    1    3    3    0  502 -0.16588713565E+03 -0.20114978049E+03  0.17933402639E+03  0.31648468997E+03  0.46999998093E+01 0. -1.
</event>
<event>
 5   0  0.1245850E-02  0.1017892E+04  0.7818609E-02  0.9289136E-01
       -2   -1    0    0    0  501  0.00000000000E+00  0.00000000000E+00  0.31984179610E+03  0.31984179611E+03  0.25500000920E-02 0. -1.
        2   -1    0    0  501    0  0.00000000000E+00  0.00000000000E+00 -0.80985604308E+03  0.80985604309E+03  0.25500000920E-02 0.  1.
    10030    2    1    2    0    0  0.00000000000E+00  0.00000000000E+00 -0.49001424698E+03  0.11296978392E+04  0.10178915687E+04 0.  0.
        3    1    3    3  502    0  0.24087215964E+03 -0.21560259296E+03 -0.68127761293E+03  0.75408426019E+03  0.10100000352E+00 0.  1.
       -3    1    3    3    0  502 -0.24087215964E+03  0.21560259296E+03  0.19126336595E+03  0.37561357901E+03  0.10100000352E+00 0. -1.
</event>
<event>
 5   0  0.4782125E-03  0.9986747E+03  0.7818609E-02  0.9310000E-01
       -4   -1    0    0    0  501  0.00000000000E+00  0.00000000000E+00  0.91894754994E+03  0.91894842752E+03  0.12699999809E+01 0. -1.
        4   -1    0    0  501    0  0.00000000000E+00  0.00000000000E+00 -0.27132725948E+03  0.27133023171E+03  0.12699999809E+01 0.  1.
    10030    2    1    2    0    0  0.00000000000E+00  0.00000000000E+00  0.64762029046E+03  0.11902786592E+04  0.99867474484E+03 0.  0.
        5    1    3    3  502    0 -0.22302626969E+03  0.33908619695E+03  0.67046585134E+03  0.78375169138E+03  0.46999998093E+01 0. -1.
       -5    1    3    3    0  502  0.22302626969E+03 -0.33908619695E+03 -0.22845560886E+02  0.40652696784E+03  0.46999998093E+01 0.  1.
</event>
<event>
 5   0  0.6967681E-03  0.1000787E+04  0.7818609E-02  0.9307682E-01
       -1   -1    0    0    0  501  0.00000000000E+00  0.00000000000E+00  0.18755985837E+03  0.18755985844E+03  0.50400001928E-02 0. -1.
        1   -1    0    0  501    0  0.00000000000E+00  0.00000000000E+00 -0.13350056893E+04  0.13350056893E+04  0.50400001928E-02 0.  1.
    10030    2    1    2    0    0  0.00000000000E+00  0.00000000000E+00 -0.11474458309E+04  0.15225655477E+04  0.10007866467E+04 0.  0.
        5    1    3    3  502    0 -0.36055543553E+03  0.18249382260E+03 -0.12481040111E+03  0.42297038147E+03  0.46999998093E+01 0. -1.
       -5    1    3    3    0  502  0.36055543553E+03 -0.18249382260E+03 -0.10226354298E+04  0.10995951662E+04  0.46999998093E+01 0.  1.
</event>
<event>
 5   0  0.1216322E-02  0.1016102E+04  0.7818609E-02  0.9291058E-01
        2   -1    0    0  501    0  0.00000000000E+00  0.00000000000E+00  0.10271393147E+04  0.10271393147E+04  0.25500000920E-02 0. -1.
       -2   -1    0    0    0  501  0.00000000000E+00  0.00000000000E+00 -0.25129604251E+03  0.25129604252E+03  0.25500000920E-02 0.  1.
    10030    2    1    2    0    0  0.00000000000E+00  0.00000000000E+00  0.77584327221E+03  0.12784353572E+04  0.10161024454E+04 0.  0.
        2    1    3    3  502    0 -0.13216866109E+02  0.47028567297E+03  0.14665109254E+03  0.49279797351E+03  0.25500000920E-02 0.  1.
       -2    1    3    3    0  502  0.13216866109E+02 -0.47028567297E+03  0.62919217967E+03  0.78563738373E+03  0.25500000920E-02 0. -1.
</event>
<event>
 5   0  0.1240503E-02  0.9950522E+03  0.7818609E-02  0.9313988E-01
        2   -1    0    0  501    0  0.00000000000E+00  0.00000000000E+00  0.10470479888E+04  0.10470479888E+04  0.25500000920E-02 0.  1.
       -2   -1    0    0    0  501  0.00000000000E+00  0.00000000000E+00 -0.23640963905E+03  0.23640963906E+03  0.25500000920E-02 0. -1.
    10030    2    1    2    0    0  0.00000000000E+00  0.00000000000E+00  0.81063834975E+03  0.12834576279E+04  0.99505223402E+03 0.  0.
        1    1    3    3  502    0 -0.37253770322E+03 -0.24485379115E+03  0.12040033242E+03  0.46177262742E+03  0.50400001928E-02 0.  1.
       -1    1    3    3    0  502  0.37253770322E+03  0.24485379115E+03  0.69023801732E+03  0.82168500044E+03  0.50400001928E-02 0. -1.
</event>
<event>
 5   0  0.7461157E-03  0.1026946E+04  0.7818609E-02  0.9279475E-01
       -1   -1    0    0    0  501  0.00000000000E+00  0.00000000000E+00  0.26001052269E+03  0.26001052273E+03  0.50400001928E-02 0.  1.
        1   -1    0    0  501    0  0.00000000000E+00  0.00000000000E+00 -0.10140139611E+04  0.10140139611E+04  0.50400001928E-02 0. -1.
    10030    2    1    2    0    0  0.00000000000E+00  0.00000000000E+00 -0.75400343844E+03  0.12740244839E+04  0.10269455683E+04 0.  0.
        2    1    3    3  502    0 -0.90729013673E+02  0.44689416301E+03 -0.66981429828E+03  0.81030694249E+03  0.25500000920E-02 0.  1.
       -2    1    3    3    0  502  0.90729013673E+02 -0.44689416301E+03 -0.84189140152E+02  0.46371754138E+03  0.25500000920E-02 0. -1.
</event>
<event>
 5   0  0.7224879E-03  0.1022611E+04  0.7818609E-02  0.9284088E-01
        1   -1    0    0  501    0  0.00000000000E+00  0.00000000000E+00  0.12948552236E+04  0.12948552236E+04  0.50400001928E-02 0.  1.
       -1   -1    0    0    0  501  0.00000000000E+00  0.00000000000E+00 -0.20190147589E+03  0.20190147595E+03  0.50400001928E-02 0. -1.
    10030    2    1    2    0    0  0.00000000000E+00  0.00000000000E+00  0.10929537477E+04  0.14967566995E+04  0.10226107387E+04 0.  0.
        3    1    3    3  502    0 -0.18174253444E+03  0.24711133201E+03  0.11452181539E+04  0.11855880353E+04  0.10100000352E+00 0.  1.
       -3    1    3    3    0  502  0.18174253444E+03 -0.24711133201E+03 -0.52264406228E+02  0.31116866422E+03  0.10100000352E+00 0. -1.
</event>
<event>
 5   0  0.1216322E-02  0.1000500E+04  0.7818609E-02  0.9307996E-01
       -2   -1    0    0    0  501  0.00000000000E+00  0.00000000000E+00  0.22048148522E+03  0.22048148524E+03  0.25500000920E-02 0.  1.
        2   -1    0    0  501    0  0.00000000000E+00  0.00000000000E+00 -0.11350166508E+04  0.11350166508E+04  0.25500000920E-02 0. -1.
    10030    2    1    2    0    0  0.00000000000E+00  0.00000000000E+00 -0.91453516560E+03  0.13554981361E+04  0.10005001888E+04 0.  0.
        2    1    3    3  502    0 -0.44650960156E+03 -0.21973930105E+03 -0.52627001678E+03  0.72430402131E+03  0.25500000920E-02 0. -1.
       -2    1    3    3    0  502  0.44650960156E+03  0.21973930105E+03 -0.38826514882E+03  0.63119411476E+03  0.25500000920E-02 0.  1.
</event>
<event>
 5   0  0.7073004E-03  0.9935000E+03  0.7818609E-02  0.9315703E-01
        1   -1    0    0  501    0  0.00000000000E+00  0.00000000000E+00  0.22450664852E+03  0.22450664857E+03  0.50400001928E-02 0. -1.
       -1   -1    0    0    0  501  0.00000000000E+00  0.00000000000E+00 -0.10991236237E+04  0.10991236237E+04  0.50400001928E-02 0.  1.
    10030    2    1    2    0    0  0.00000000000E+00  0.00000000000E+00 -0.87461697515E+03  0.13236302723E+04  0.99349999719E+03 0.  0.
        1    1    3    3  502    0 -0.45114268481E+02 -0.10407292284E+03  0.20702165053E+03  0.23606023448E+03  0.50400001928E-02 0. -1.
       -1    1    3    3    0  502  0.45114268481E+02  0.10407292284E+03 -0.10816386257E+04  0.10875700378E+04  0.50400001928E-02 0.  1.
</event>
<event>
 5   0  0.7073004E-03  0.9238456E+03  0.7818609E-02  0.9396255E-01
       -1   -1    0    0    0  501  0.00000000000E+00  0.00000000000E+00  0.26423359467E+03  0.26423359471E+03  0.50400001928E-02 0. -1.
        1   -1    0    0  501    0  0.00000000000E+00  0.00000000000E+00 -0.80751532797E+03  0.80751532799E+03  0.50400001928E-02 0.  1.
    10030    2    1    2    0    0  0.00000000000E+00  0.00000000000E+00 -0.54328173330E+03  0.10717489227E+04  0.92384561025E+03 0.  0.
        1    1    3    3  502    0  0.22068810637E+03 -0.22903418525E+03  0.11696988872E+03  0.33888324420E+03  0.50400001928E-02 0. -1.
       -1    1    3    3    0  502 -0.22068810637E+03  0.22903418525E+03 -0.66025162203E+03  0.73286567850E+03  0.50400001928E-02 0.  1.
</event>
<event>
 5   0  0.7461157E-03  0.9912872E+03  0.7818609E-02  0.9318153E-01
       -1   -1    0    0    0  501  0.00000000000E+00  0.00000000000E+00  0.50215107420E+03  0.50215107423E+03  0.50400001928E-02 0. -1.
        1   -1    0    0  501    0  0.00000000000E+00  0.00000000000E+00 -0.48922044004E+03  0.48922044007E+03  0.50400001928E-02 0.  1.
    10030    2    1    2    0    0  0.00000000000E+00  0.00000000000E+00  0.12930634161E+02  0.99137151430E+03  0.99128718244E+03 0.  0.
        2    1    3    3  502    0 -0.23921878606E+03  0.34926723758E+03  0.26426493934E+03  0.49904828326E+03  0.25500000920E-02 0. -1.
       -2    1    3    3    0  502  0.23921878606E+03 -0.34926723758E+03 -0.25133430518E+03  0.49232323104E+03  0.25500000920E-02 0.  1.
</event>
<event>
 5   0  0.1191822E-02  0.9986215E+03  0.7818609E-02  0.9310058E-01
       -2   -1    0    0    0  501  0.00000000000E+00  0.00000000000E+00  0.28569138889E+03  0.28569138890E+03  0.25500000920E-02 0.  1.
        2   -1    0    0  501    0  0.00000000000E+00  0.00000000000E+00 -0.87265915540E+03  0.87265915541E+03  0.25500000920E-02 0. -1.
    10030    2    1    2    0    0  0.00000000000E+00  0.00000000000E+00 -0.58696776651E+03  0.11583505443E+04  0.99862146210E+03 0.  0.
        4    1    3    3  502    0 -0.12678527519E+03 -0.22095060630E+03 -0.79160885318E+03  0.83158876000E+03  0.12699999809E+01 0. -1.
       -4    1    3    3    0  502  0.12678527519E+03  0.22095060630E+03  0.20464108667E+03  0.32676178430E+03  0.12699999809E+01 0.  1.
</event>
<event>
 5   0  0.4782125E-03  0.1005127E+04  0.7818609E-02  0.9302939E-01
        4   -1    0    0  501    0  0.00000000000E+00  0.00000000000E+00  0.43270055123E+03  0.43270241498E+03  0.12699999809E+01 0.  1.
       -4   -1    0    0    0  501  0.00000000000E+00  0.00000000000E+00 -0.58370313515E+03  0.58370451675E+03  0.12699999809E+01 0. -1.
    10030    2    1    2    0    0  0.00000000000E+00  0.00000000000E+00 -0.15100258392E+03  0.10164069317E+04  0.10051274897E+04 0.  0.
        2    1    3    3  502    0  0.39396926318E+03  0.40746043191E+01 -0.39099917872E+03  0.55507543676E+03  0.25500000920E-02 0. -1.
       -2    1    3    3    0  502 -0.39396926318E+03 -0.40746043191E+01  0.23999659480E+03  0.46133149497E+03  0.25500000920E-02 0.  1.
</event>
<event>
 5   0  0.1191822E-02  0.9879473E+03  0.7818609E-02  0.9321864E-01
       -2   -1    0    0    0  501  0.00000000000E+00  0.00000000000E+00  0.29344176660E+03  0.29344176661E+03  0.25500000920E-02 0. -1.
        2   -1    0    0  501    0  0.00000000000E+00  0.00000000000E+00 -0.83154485151E+03  0.83154485151E+03  0.25500000920E-02 0.  1.
    10030    2    1    2    0    0  0.00000000000E+00  0.00000000000E+00 -0.53810308490E+03  0.11249866181E+04  0.98794734727E+03 0.  0.
        4    1    3    3  502    0 -0.23356512236E+03  0.26722483741E+03 -0.66028887878E+03  0.74962977292E+03  0.12699999809E+01 0.  1.
       -4    1    3    3    0  502  0.23356512236E+03 -0.26722483741E+03  0.12218579387E+03  0.37535684520E+03  0.12699999809E+01 0. -1.
</event>
<event>
 5   0  0.1240503E-02  0.9516145E+03  0.7818609E-02  0.9363265E-01
        2   -1    0    0  501    0  0.00000000000E+00  0.00000000000E+00  0.25139260548E+04  0.25139260548E+04  0.25500000920E-02 0.  1.
       -2   -1    0    0    0  501  0.00000000000E+00  0.00000000000E+00 -0.90055362037E+02  0.90055362073E+02  0.25500000920E-02 0. -1.
    10030    2    1    2    0    0  0.00000000000E+00  0.00000000000E+00  0.24238706927E+04  0.26039814169E+04  0.95161446194E+03 0.  0.
        1    1    3    3  502    0  0.11991903000E+02 -0.37972427364E+03  0.42807658458E+03  0.57234944922E+03  0.50400001928E-02 0. -1.
       -1    1    3    3    0  502 -0.11991903000E+02  0.37972427364E+03  0.19957941082E+04  0.20316319676E+04  0.50400001928E-02 0.  1.
</event>
<event>
 5   0  0.1221315E-02  0.1002753E+04  0.7818609E-02  0.9305530E-01
        2   -1    0    0  501    0  0.00000000000E+00  0.00000000000E+00  0.81733234412E+03  0.81733234412E+03  0.25500000920E-02 0. -1.
       -2   -1    0    0    0  501  0.00000000000E+00  0.00000000000E+00 -0.30755967888E+03  0.30755967890E+03  0.25500000920E-02 0.  1.
    10030    2    1    2    0    0  0.00000000000E+00  0.00000000000E+00  0.50977266523E+03  0.11248920230E+04  0.10027531567E+04 0.  0.
        5    1    3    3  502    0  0.26978289334E+02  0.31930487480E+03  0.68743281228E+03  0.75846515580E+03  0.46999998093E+01 0. -1.
       -5    1    3    3    0  502 -0.26978289334E+02 -0.31930487480E+03 -0.17766014705E+03  0.36642686721E+03  0.46999998093E+01 0.  1.
</event>
<event>
 5   0  0.1245850E-02  0.9839910E+03  0.7818609E-02  0.9326280E-01
       -2   -1    0    0    0  501  0.00000000000E+00  0.00000000000E+00  0.25268813012E+03  0.25268813013E+03  0.25500000920E-02 0. -1.
        2   -1    0    0  501    0  0.00000000000E+00  0.00000000000E+00 -0.95793810656E+03  0.95793810656E+03  0.25500000920E-02 0.  1.
    10030    2    1    2    0    0  0.00000000000E+00  0.00000000000E+00 -0.70524997644E+03  0.12106262367E+04  0.98399103436E+03 0.  0.
        3    1    3    3  502    0 -0.98043126532E+02 -0.38098381714E+03  0.10889914128E+02  0.39354761340E+03  0.10100000352E+00 0. -1.
       -3    1    3    3    0  502  0.98043126532E+02  0.38098381714E+03 -0.71613989057E+03  0.81707862330E+03  0.10100000352E+00 0.  1.
</event>
<event>
 5   0  0.1191822E-02  0.1028389E+04  0.7818609E-02  0.9277944E-01
        2   -1    0    0  501    0  0.00000000000E+00  0.00000000000E+00  0.19860512632E+04  0.19860512632E+04  0.25500000920E-02 0. -1.
       -2   -1    0    0    0  501  0.00000000000E+00  0.00000000000E+00 -0.13312658491E+03  0.13312658493E+03  0.25500000920E-02 0.  1.
    10030    2    1    2    0    0  0.00000000000E+00  0.00000000000E+00  0.18529246783E+04  0.21191778482E+04  0.10283894635E+04 0.  0.
        4    1    3    3  502    0  0.40820329240E+03 -0.30909409263E+03  0.82924900188E+03  0.97458945513E+03  0.12699999809E+01 0. -1.
       -4    1    3    3    0  502 -0.40820329240E+03  0.30909409263E+03  0.10236756764E+04  0.11445883930E+04  0.12699999809E+01 0.  1.
</event>
<event>
 5   0  0.7224879E-03  0.1033448E+04  0.7818609E-02  0.9272601E-01
        1   -1    0    0  501    0  0.00000000000E+00  0.00000000000E+00  0.20811190124E+04  0.20811190124E+04  0.50400001928E-02 0. -1.
       -1   -1    0    0    0  501  0.00000000000E+00  0.00000000000E+00 -0.12829823335E+03  0.12829823345E+03  0.50400001928E-02 0.  1.
    10030    2    1    2    0    0  0.00000000000E+00  0.00000000000E+00  0.19528207790E+04  0.22094172458E+04  0.10334483883E+04 0.  0.
        3    1    3    3  502    0 -0.14357501730E+03 -0.49603039792E+03  0.93676149000E+03  0.10696644523E+04  0.10100000352E+00 0.  1.
       -3    1    3    3    0  502  0.14357501730E+03  0.49603039792E+03  0.10160592890E+04  0.11397527935E+04  0.10100000352E+00 0. -1.
</event>
<event>
 5   0  0.7461157E-03  0.1002946E+04  0.7818609E-02  0.9305319E-01
        1   -1    0    0  501    0  0.00000000000E+00  0.00000000000E+00  0.36038245385E+03  0.36038245389E+03  0.50400001928E-02 0. -1.
       -1   -1    0    0    0  501  0.00000000000E+00  0.00000000000E+00 -0.69780125636E+03  0.69780125638E+03  0.50400001928E-02 0.  1.
    10030    2    1    2    0    0  0.00000000000E+00  0.00000000000E+00 -0.33741880251E+03  0.10581837103E+04  0.10029463178E+04 0.  0.
        2    1    3    3  502    0  0.49850849025E+03  0.11171784277E+02 -0.11248463228E+03  0.51116368819E+03  0.25500000920E-02 0. -1.
       -2    1    3    3    0  502 -0.49850849025E+03 -0.11171784277E+02 -0.22493417022E+03  0.54702002208E+03  0.25500000920E-02 0.  1.
</event>
<event>
 5   0  0.7224879E-03  0.1000780E+04  0.7818609E-02  0.9307690E-01
        1   -1    0    0  501    0  0.00000000000E+00  0.00000000000E+00  0.47968983756E+03  0.47968983759E+03  0.50400001928E-02 0. -1.
       -1   -1    0    0    0  501  0.00000000000E+00  0.00000000000E+00 -0.52198346572E+03  0.52198346575E+03  0.50400001928E-02 0.  1.
    10030    2    1    2    0    0  0.00000000000E+00  0.00000000000E+00 -0.42293628160E+02  0.10016733033E+04  0.10007800236E+04 0.  0.
        3    1    3    3  502    0 -0.64041702675E+02 -0.29546788808E+03  0.37794150587E+03  0.48398595499E+03  0.10100000352E+00 0. -1.
       -3    1    3    3    0  502  0.64041702675E+02  0.29546788808E+03 -0.42023513403E+03  0.51768734835E+03  0.10100000352E+00 0.  1.
</event>
<event>
 5   0  0.1191822E-02  0.9892701E+03  0.7818609E-02  0.9320392E-01
        2   -1    0    0  501    0  0.00000000000E+00  0.00000000000E+00  0.15589287302E+03  0.15589287304E+03  0.25500000920E-02 0. -1.
       -2   -1    0    0    0  501  0.00000000000E+00  0.00000000000E+00 -0.15694356241E+04  0.15694356241E+04  0.25500000920E-02 0.  1.
    10030    2    1    2    0    0  0.00000000000E+00  0.00000000000E+00 -0.14135427511E+04  0.17253284972E+04  0.98927009150E+03 0.  0.
        4    1    3    3  502    0  0.69653014387E+02  0.17560765830E+03 -0.15040343835E+04  0.15158531036E+04  0.12699999809E+01 0.  1.
       -4    1    3    3    0  502 -0.69653014387E+02 -0.17560765830E+03  0.90491632403E+02  0.20947539355E+03  0.12699999809E+01 0. -1.
</event>
<event>
 5   0  0.7073004E-03  0.9859941E+03  0.7818609E-02  0.9324041E-01
        1   -1    0    0  501    0  0.00000000000E+00  0.00000000000E+00  0.19197143819E+04  0.19197143819E+04  0.50400001928E-02 0. -1.
       -1   -1    0    0    0  501  0.00000000000E+00  0.00000000000E+00 -0.12660534572E+03  0.12660534582E+03  0.50400001928E-02 0.  1.
    10030    2    1    2    0    0  0.00000000000E+00  0.00000000000E+00  0.17931090362E+04  0.20463197277E+04  0.98599412393E+03 0.  0.
        1    1    3    3  502    0  0.80993653135E+02 -0.37516774963E+03  0.15387026078E+04  0.15858488350E+04  0.50400001928E-02 0.  1.
       -1    1    3    3    0  502 -0.80993653135E+02  0.37516774963E+03  0.25440642837E+03  0.46047089271E+03  0.50400001928E-02 0. -1.
</event>
<event>
 5   0  0.6967681E-03  0.9960771E+03  0.7818609E-02  0.9312858E-01
       -1   -1    0    0    0  501  0.00000000000E+00  0.00000000000E+00  0.20479688115E+03  0.20479688122E+03  0.50400001928E-02 0. -1.
        1   -1    0    0  501    0  0.00000000000E+00  0.00000000000E+00 -0.12111628632E+04  0.12111628632E+04  0.50400001928E-02 0.  1.
    10030    2    1    2    0    0  0.00000000000E+00  0.00000000000E+00 -0.10063659820E+04  0.14159597444E+04  0.99607705926E+03 0.  0.
        5    1    3    3  502    0  0.34934712639E+03  0.11923392622E+03 -0.97841035887E+03  0.10457385257E+04  0.46999998093E+01 0.  1.
       -5    1    3    3    0  502 -0.34934712639E+03 -0.11923392622E+03 -0.27955623143E+02  0.37022121865E+03  0.46999998093E+01 0. -1.
</event>
<event>
 5   0  0.7073004E-03  0.9981823E+03  0.7818609E-02  0.9310541E-01
        1   -1    0    0  501    0  0.00000000000E+00  0.00000000000E+00  0.10582003537E+04  0.10582003537E+04  0.50400001928E-02 0.  1.
       -1   -1    0    0    0  501  0.00000000000E+00  0.00000000000E+00 -0.23539206010E+03  0.23539206016E+03  0.50400001928E-02 0. -1.
    10030    2    1    2    0    0  0.00000000000E+00  0.00000000000E+00  0.82280829359E+03  0.12935924139E+04  0.99818227054E+03 0.  0.
        1    1    3    3  502    0  0.37867227487E+03  0.12260649338E+03  0.80162640083E+03  0.89500275447E+03  0.50400001928E-02 0.  1.
       -1    1    3    3    0  502 -0.37867227487E+03 -0.12260649338E+03  0.21181892767E+02  0.39858965940E+03  0.50400001928E-02 0. -1.
</event>
<event>
 5   0  0.7461157E-03  0.9742417E+03  0.7818609E-02  0.9337256E-01
        1   -1    0    0  501    0  0.00000000000E+00  0.00000000000E+00  0.18627984048E+04  0.18627984048E+04  0.50400001928E-02 0. -1.
       -1   -1    0    0    0  501  0.00000000000E+00  0.00000000000E+00 -0.12738184734E+03  0.12738184744E+03  0.50400001928E-02 0.  1.
    10030    2    1    2    0    0  0.00000000000E+00  0.00000000000E+00  0.17354165575E+04  0.19901802523E+04  0.97424165817E+03 0.  0.
        2    1    3    3  502    0  0.11369113759E+03  0.10204515160E+03  0.18125947782E+04  0.18190213626E+04  0.25500000920E-02 0. -1.
       -2    1    3    3    0  502 -0.11369113759E+03 -0.10204515160E+03 -0.77178220741E+02  0.17115888961E+03  0.25500000920E-02 0.  1.
</event>
<event>
 5   0  0.1221315E-02  0.1001016E+04  0.7818609E-02  0.9307431E-01
        2   -1    0    0  501    0  0.00000000000E+00  0.00000000000E+00  0.80006003068E+03  0.80006003069E+03  0.25500000920E-02 0.  1.
       -2   -1    0    0    0  501  0.00000000000E+00  0.00000000000E+00 -0.31311205004E+03  0.31311205005E+03  0.25500000920E-02 0. -1.
    10030    2    1    2    0    0  0.00000000000E+00  0.00000000000E+00  0.48694798064E+03  0.11131720807E+04  0.10010163563E+04 0.  0.
        5    1    3    3  502    0  0.78321447486E+02  0.61772788154E+02  0.78886926688E+03  0.79516472301E+03  0.46999998093E+01 0.  1.
       -5    1    3    3    0  502 -0.78321447486E+02 -0.61772788154E+02 -0.30192128623E+03  0.31800735773E+03  0.46999998093E+01 0. -1.
</event>
<event>
 5   0  0.1191822E-02  0.9908233E+03  0.7818609E-02  0.9318667E-01
       -2   -1    0    0    0  501  0.00000000000E+00  0.00000000000E+00  0.26172296128E+03  0.26172296130E+03  0.25500000920E-02 0. -1.
        2   -1    0    0  501    0  0.00000000000E+00  0.00000000000E+00 -0.93775768611E+03  0.93775768612E+03  0.25500000920E-02 0.  1.
    10030    2    1    2    0    0  0.00000000000E+00  0.00000000000E+00 -0.67603472483E+03  0.11994806474E+04  0.99082333155E+03 0.  0.
        4    1    3    3  502    0 -0.88509116315E+02  0.25903069485E+03  0.16185560002E+03  0.31800882488E+03  0.12699999809E+01 0. -1.
       -4    1    3    3    0  502  0.88509116315E+02 -0.25903069485E+03 -0.83789032485E+03  0.88147182253E+03  0.12699999809E+01 0.  1.
</event>
<event>
 5   0  0.7224879E-03  0.7740106E+03  0.7818609E-02  0.9598417E-01
        1   -1    0    0  501    0  0.00000000000E+00  0.00000000000E+00  0.10562047746E+04  0.10562047746E+04  0.50400001928E-02 0.  1.
       -1   -1    0    0    0  501  0.00000000000E+00  0.00000000000E+00 -0.14180310621E+03  0.14180310630E+03  0.50400001928E-02 0. -1.
    10030    2    1    2    0    0  0.00000000000E+00  0.00000000000E+00  0.91440166835E+03  0.11980078809E+04  0.77401064048E+03 0.  0.
        3    1    3    3  502    0 -0.26022336960E+03  0.22015859863E+03  0.74086140893E+03  0.81551311950E+03  0.10100000352E+00 0.  1.
       -3    1    3    3    0  502  0.26022336960E+03 -0.22015859863E+03  0.17354025941E+03  0.38249476137E+03  0.10100000352E+00 0. -1.
</event>
<event>
 5   0  0.7461157E-03  0.1016880E+04  0.7818609E-02  0.9290223E-01
       -1   -1    0    0    0  501  0.00000000000E+00  0.00000000000E+00  0.51182949559E+03  0.51182949562E+03  0.50400001928E-02 0.  1.
        1   -1    0    0  501    0  0.00000000000E+00  0.00000000000E+00 -0.50507278788E+03  0.50507278791E+03  0.50400001928E-02 0. -1.
    10030    2    1    2    0    0  0.00000000000E+00  0.00000000000E+00  0.67567077149E+01  0.10169022835E+04  0.10168798361E+04 0.  0.
        2    1    3    3  502    0 -0.22521247203E+03  0.60653515754E+02 -0.44841878567E+03  0.50544921988E+03  0.25500000920E-02 0. -1.
       -2    1    3    3    0  502  0.22521247203E+03 -0.60653515754E+02  0.45517549338E+03  0.51145306365E+03  0.25500000920E-02 0.  1.
</event>
<event>
 5   0  0.1191822E-02  0.9876188E+03  0.7818609E-02  0.9322229E-01
       -2   -1    0    0    0  501  0.00000000000E+00  0.00000000000E+00  0.16282242283E+03  0.16282242285E+03  0.25500000920E-02 0. -1.
        2   -1    0    0  501    0  0.00000000000E+00  0.00000000000E+00 -0.14976298275E+04  0.14976298275E+04  0.25500000920E-02 0.  1.
    10030    2    1    2    0    0  0.00000000000E+00  0.00000000000E+00 -0.13348074047E+04  0.16604522504E+04  0.98761878686E+03 0.  0.
        4    1    3    3  502    0 -0.28867718651E+03 -0.12823037249E+03 -0.13055520552E+04  0.13432219952E+04  0.12699999809E+01 0.  1.
       -4    1    3    3    0  502  0.28867718651E+03  0.12823037249E+03 -0.29255349433E+02  0.31723025520E+03  0.12699999809E+01 0. -1.
</event>
<event>
 5   0  0.7073004E-03  0.1000640E+04  0.7818609E-02  0.9307843E-01
       -1   -1    0    0    0  501  0.00000000000E+00  0.00000000000E+00  0.25778035369E+03  0.25778035374E+03  0.50400001928E-02 0. -1.
        1   -1    0    0  501    0  0.00000000000E+00  0.00000000000E+00 -0.97105935114E+03  0.97105935115E+03  0.50400001928E-02 0.  1.
    10030    2    1    2    0    0  0.00000000000E+00  0.00000000000E+00 -0.71327899745E+03  0.12288397049E+04  0.10006398414E+04 0.  0.
        1    1    3    3  502    0  0.13264908940E+03 -0.22124671249E+03 -0.88309253821E+03  0.91999908684E+03  0.50400001928E-02 0.  1.
       -1    1    3    3    0  502 -0.13264908940E+03  0.22124671249E+03  0.16981354076E+03  0.30884061805E+03  0.50400001928E-02 0. -1.
</event>
<event>
 5   0  0.1240503E-02  0.9881684E+03  0.7818609E-02  0.9321618E-01
       -2   -1    0    0    0  501  0.00000000000E+00  0.00000000000E+00  0.21719364009E+03  0.21719364010E+03  0.25500000920E-02 0.  1.
        2   -1    0    0  501    0  0.00000000000E+00  0.00000000000E+00 -0.11239702146E+04  0.11239702146E+04  0.25500000920E-02 0. -1.
    10030    2    1    2    0    0  0.00000000000E+00  0.00000000000E+00 -0.90677657447E+03  0.13411638547E+04  0.98816837080E+03 0.  0.
        1    1    3    3  502    0  0.37618742787E+03  0.25235477684E+03 -0.72114059510E+03  0.85161239553E+03  0.50400001928E-02 0. -1.
       -1    1    3    3    0  502 -0.37618742787E+03 -0.25235477684E+03 -0.18563597937E+03  0.48955145914E+03  0.50400001928E-02 0.  1.
</event>
<event>
 5   0  0.7073004E-03  0.1033596E+04  0.7818609E-02  0.9272445E-01
       -1   -1    0    0    0  501  0.00000000000E+00  0.00000000000E+00  0.76646261176E+03  0.76646261177E+03  0.50400001928E-02 0.  1.
        1   -1    0    0  501    0  0.00000000000E+00  0.00000000000E+00 -0.34845846587E+03  0.34845846591E+03  0.50400001928E-02 0. -1.
    10030    2    1    2    0    0  0.00000000000E+00  0.00000000000E+00  0.41800414589E+03  0.11149210777E+04  0.10335964123E+04 0.  0.
        1    1    3    3  502    0  0.13249972843E+03  0.38583772038E+03  0.55122373004E+03  0.68576564881E+03  0.50400001928E-02 0.  1.
       -1    1    3    3    0  502 -0.13249972843E+03 -0.38583772038E+03 -0.13321958415E+03  0.42915542887E+03  0.50400001928E-02 0. -1.
</event>
<event>
 5   0  0.7073004E-03  0.1003927E+04  0.7818609E-02  0.9304248E-01
       -1   -1    0    0    0  501  0.00000000000E+00  0.00000000000E+00  0.36433222585E+03  0.36433222588E+03  0.50400001928E-02 0. -1.
        1   -1    0    0  501    0  0.00000000000E+00  0.00000000000E+00 -0.69158700847E+03  0.69158700849E+03  0.50400001928E-02 0.  1.
    10030    2    1    2    0    0  0.00000000000E+00  0.00000000000E+00 -0.32725478262E+03  0.10559192344E+04  0.10039271571E+04 0.  0.
        1    1    3    3  502    0  0.13964586615E+03  0.41243757132E+03 -0.42628351286E+03  0.60936307037E+03  0.50400001928E-02 0.  1.
       -1    1    3    3    0  502 -0.13964586615E+03 -0.41243757132E+03  0.99028730234E+02  0.44655616400E+03  0.50400001928E-02 0. -1.
</event>
<event>
 5   0  0.1245850E-02  0.1000009E+04  0.7818609E-02  0.9308535E-01
       -2   -1    0    0    0  501  0.00000000000E+00  0.00000000000E+00  0.42286862950E+03  0.42286862951E+03  0.25500000920E-02 0. -1.
        2   -1    0    0  501    0  0.00000000000E+00  0.00000000000E+00 -0.59121094561E+03  0.59121094561E+03  0.25500000920E-02 0.  1.
    10030    2    1    2    0    0  0.00000000000E+00  0.00000000000E+00 -0.16834231611E+03  0.10140795751E+04  0.10000091246E+04 0.  0.
        3    1    3    3  502    0 -0.28732178634E+03  0.12996335757E+02 -0.49892695926E+03  0.57589133916E+03  0.10100000352E+00 0.  1.
       -3    1    3    3    0  502  0.28732178634E+03 -0.12996335757E+02  0.33058464315E+03  0.43818823596E+03  0.10100000352E+00 0. -1.
</event>
<event>
 5   0  0.6967681E-03  0.1007704E+04  0.7818609E-02  0.9300135E-01
       -1   -1    0    0    0  501  0.00000000000E+00  0.00000000000E+00  0.65322372465E+03  0.65322372467E+03  0.50400001928E-02 0. -1.
        1   -1    0    0  501    0  0.00000000000E+00  0.00000000000E+00 -0.38863711285E+03  0.38863711288E+03  0.50400001928E-02 0.  1.
    10030    2    1    2    0    0  0.00000000000E+00  0.00000000000E+00  0.26458661180E+03  0.10418608376E+04  0.10077042868E+04 0.  0.
        5    1    3    3  502    0  0.50037258372E+03  0.42985349701E+02  0.90622964964E+02  0.51034799364E+03  0.46999998093E+01 0.  1.
       -5    1    3    3    0  502 -0.50037258372E+03 -0.42985349701E+02  0.17396364684E+03  0.53151284392E+03  0.46999998093E+01 0. -1.
</event>
<event>
 5   0  0.1245850E-02  0.9767913E+03  0.7818609E-02  0.9334372E-01
        2   -1    0    0  501    0  0.00000000000E+00  0.00000000000E+00  0.15834190014E+04  0.15834190014E+04  0.25500000920E-02 0.  1.
       -2   -1    0    0    0  501  0.00000000000E+00  0.00000000000E+00 -0.15064258651E+03  0.15064258653E+03  0.25500000920E-02 0. -1.
    10030    2    1    2    0    0  0.00000000000E+00  0.00000000000E+00  0.14327764149E+04  0.17340615879E+04  0.97679134703E+03 0.  0.
        3    1    3    3  502    0  0.27054978081E+03 -0.30517013693E+03  0.11934167084E+04  0.12611778013E+04  0.10100000352E+00 0.  1.
       -3    1    3    3    0  502 -0.27054978081E+03  0.30517013693E+03  0.23935970649E+03  0.47288378664E+03  0.10100000352E+00 0. -1.
</event>
<event>
 5   0  0.1191822E-02  0.9432120E+03  0.7818609E-02  0.9373120E-01
       -2   -1    0    0    0  501  0.00000000000E+00  0.00000000000E+00  0.13821037676E+03  0.13821037678E+03  0.25500000920E-02 0.  1.
        2   -1    0    0  501    0  0.00000000000E+00  0.00000000000E+00 -0.16092293705E+04  0.16092293705E+04  0.25500000920E-02 0. -1.
    10030    2    1    2    0    0  0.00000000000E+00  0.00000000000E+00 -0.14710189937E+04  0.17474397473E+04  0.94321195413E+03 0.  0.
        4    1    3    3  502    0  0.18768111793E+03 -0.59648805400E+02  0.58385092099E+02  0.20540840755E+03  0.12699999809E+01 0.  1.
       -4    1    3    3    0  502 -0.18768111793E+03  0.59648805400E+02 -0.15294040858E+04  0.15420313397E+04  0.12699999809E+01 0. -1.
</event>
<event>
 5   0  0.1245850E-02  0.9820602E+03  0.7818609E-02  0.9328443E-01
        2   -1    0    0  501    0  0.00000000000E+00  0.00000000000E+00  0.11435642618E+04  0.11435642618E+04  0.25500000920E-02 0.  1.
       -2   -1    0    0    0  501  0.00000000000E+00  0.00000000000E+00 -0.21084130608E+03  0.21084130610E+03  0.25500000920E-02 0. -1.
    10030    2    1    2    0    0  0.00000000000E+00  0.00000000000E+00  0.93272295568E+03  0.13544055679E+04  0.98206024774E+03 0.  0.
        3    1    3    3  502    0  0.36815269843E+03 -0.74674616222E+02  0.30241519650E+02  0.37686505195E+03  0.10100000352E+00 0. -1.
       -3    1    3    3    0  502 -0.36815269843E+03  0.74674616222E+02  0.90248143603E+03  0.97754051591E+03  0.10100000352E+00 0.  1.
</event>
<event>
 5   0  0.1240503E-02  0.1000359E+04  0.7818609E-02  0.9308151E-01
        2   -1    0    0  501    0  0.00000000000E+00  0.00000000000E+00  0.10244522419E+04  0.10244522419E+04  0.25500000920E-02 0. -1.
       -2   -1    0    0    0  501  0.00000000000E+00  0.00000000000E+00 -0.24420794860E+03  0.24420794861E+03  0.25500000920E-02 0.  1.
    10030    2    1    2    0    0  0.00000000000E+00  0.00000000000E+00  0.78024429329E+03  0.12686601905E+04  0.10003586965E+04 0.  0.
        1    1    3    3  502    0  0.43428008380E+03 -0.72883777527E+02  0.69095194746E+03  0.81934475646E+03  0.50400001928E-02 0. -1.
       -1    1    3    3    0  502 -0.43428008380E+03  0.72883777527E+02  0.89292345827E+02  0.44931543403E+03  0.50400001928E-02 0.  1.
</event>
<event>
 5   0  0.7461157E-03  0.9921433E+03  0.7818609E-02  0.9317204E-01
       -1   -1    0    0    0  501  0.00000000000E+00  0.00000000000E+00  0.11813738283E+03  0.11813738294E+03  0.50400001928E-02 0. -1.
        1   -1    0    0  501    0  0.00000000000E+00  0.00000000000E+00 -0.20830585140E+04  0.20830585140E+04  0.50400001928E-02 0.  1.
    10030    2    1    2    0    0  0.00000000000E+00  0.00000000000E+00 -0.19649211312E+04  0.22011958970E+04  0.99214329865E+03 0.  0.
        2    1    3    3  502    0 -0.43431814067E+03 -0.23677983167E+02 -0.45326251047E+03  0.62820362750E+03  0.25500000920E-02 0. -1.
       -2    1    3    3    0  502  0.43431814067E+03  0.23677983167E+02 -0.15116586207E+04  0.15729922695E+04  0.25500000920E-02 0.  1.
</event>
<event>
 5   0  0.7241200E-03  0.1033979E+04  0.7818609E-02  0.9272042E-01
        1   -1    0    0  501    0  0.00000000000E+00  0.00000000000E+00  0.18621836046E+04  0.18621836046E+04  0.50400001928E-02 0.  1.
       -1   -1    0    0    0  501  0.00000000000E+00  0.00000000000E+00 -0.14352954084E+03  0.14352954093E+03  0.50400001928E-02 0. -1.
    10030    2    1    2    0    0  0.00000000000E+00  0.00000000000E+00  0.17186540638E+04  0.20057131455E+04  0.10339794153E+04 0.  0.
        4    1    3    3  502    0  0.19266188363E+03 -0.33858953690E+03  0.20003682462E+03  0.43792444555E+03  0.12699999809E+01 0. -1.
       -4    1    3    3    0  502 -0.19266188363E+03  0.33858953690E+03  0.15186172391E+04  0.15677887000E+04  0.12699999809E+01 0.  1.
</event>
<event>
 5   0  0.1221315E-02  0.1002744E+04  0.7818609E-02  0.9305540E-01
       -2   -1    0    0    0  501  0.00000000000E+00  0.00000000000E+00  0.26065132017E+03  0.26065132018E+03  0.25500000920E-02 0. -1.
        2   -1    0    0  501    0  0.00000000000E+00  0.00000000000E+00 -0.96440665918E+03  0.96440665918E+03  0.25500000920E-02 0.  1.
    10030    2    1    2    0    0  0.00000000000E+00  0.00000000000E+00 -0.70375533901E+03  0.12250579794E+04  0.10027439731E+04 0.  0.
        5    1    3    3  502    0 -0.13092230903E+03 -0.48339483745E+03 -0.32347310432E+03  0.59621150533E+03  0.46999998093E+01 0. -1.
       -5    1    3    3    0  502  0.13092230903E+03  0.48339483745E+03 -0.38028223469E+03  0.62884647403E+03  0.46999998093E+01 0.  1.
</event>
<event>
 5   0  0.7073004E-03  0.8316016E+03  0.7818609E-02  0.9515369E-01
       -1   -1    0    0    0  501  0.00000000000E+00  0.00000000000E+00  0.42851545390E+03  0.42851545393E+03  0.50400001928E-02 0.  1.
        1   -1    0    0  501    0  0.00000000000E+00  0.00000000000E+00 -0.40346335937E+03  0.40346335940E+03  0.50400001928E-02 0. -1.
    10030    2    1    2    0    0  0.00000000000E+00  0.00000000000E+00  0.25052094534E+02  0.83197881333E+03  0.83160155026E+03 0.  0.
        1    1    3    3  502    0 -0.62960387022E+01 -0.15661533802E+03  0.39782708049E+03  0.42759138229E+03  0.50400001928E-02 0.  1.
       -1    1    3    3    0  502  0.62960387022E+01  0.15661533802E+03 -0.37277498596E+03  0.40438743105E+03  0.50400001928E-02 0. -1.
</event>
<event>
 5   0  0.7241200E-03  0.1036876E+04  0.7818609E-02  0.9269000E-01
       -1   -1    0    0    0  501  0.00000000000E+00  0.00000000000E+00  0.24305797905E+03  0.24305797910E+03  0.50400001928E-02 0.  1.
        1   -1    0    0  501    0  0.00000000000E+00  0.00000000000E+00 -0.11058176103E+04  0.11058176103E+04  0.50400001928E-02 0. -1.
    10030    2    1    2    0    0  0.00000000000E+00  0.00000000000E+00 -0.86275963128E+03  0.13488755894E+04  0.10368756794E+04 0.  0.
        4    1    3    3  502    0  0.29738068961E+03  0.41555685716E+03 -0.31757188029E+03  0.60164465271E+03  0.12699999809E+01 0. -1.
       -4    1    3    3    0  502 -0.29738068961E+03 -0.41555685716E+03 -0.54518775099E+03  0.74723093673E+03  0.12699999809E+01 0.  1.
</event>
<event>
 5   0  0.6967681E-03  0.1019287E+04  0.7818609E-02  0.9287641E-01
        1   -1    0    0  501    0  0.00000000000E+00  0.00000000000E+00  0.69818197121E+03  0.69818197123E+03  0.50400001928E-02 0.  1.
       -1   -1    0    0    0  501  0.00000000000E+00  0.00000000000E+00 -0.37201805199E+03  0.37201805202E+03  0.50400001928E-02 0. -1.
    10030    2    1    2    0    0  0.00000000000E+00  0.00000000000E+00  0.32616391922E+03  0.10702000233E+04  0.10192866072E+04 0.  0.
        5    1    3    3  502    0  0.21919304711E+03  0.32919902217E+03 -0.17436979544E+03  0.43225513722E+03  0.46999998093E+01 0. -1.
       -5    1    3    3    0  502 -0.21919304711E+03 -0.32919902217E+03  0.50053371467E+03  0.63794488603E+03  0.46999998093E+01 0.  1.
</event>
<event>
 5   0  0.1191822E-02  0.1008403E+04  0.7818609E-02  0.9299376E-01
        2   -1    0    0  501    0  0.00000000000E+00  0.00000000000E+00  0.31373885137E+03  0.31373885138E+03  0.25500000920E-02 0.  1.
       -2   -1    0    0    0  501  0.00000000000E+00  0.00000000000E+00 -0.81028921601E+03  0.81028921601E+03  0.25500000920E-02 0. -1.
    10030    2    1    2    0    0  0.00000000000E+00  0.00000000000E+00 -0.49655036464E+03  0.11240280674E+04  0.10084031097E+04 0.  0.
        4    1    3    3  502    0  0.24686182336E+02  0.21194432299E+03 -0.75747882402E+03  0.78695971014E+03  0.12699999809E+01 0. -1.
       -4    1    3    3    0  502 -0.24686182336E+02 -0.21194432299E+03  0.26092845937E+03  0.33706835725E+03  0.12699999809E+01 0.  1.
</event>
<event>
 5   0  0.7073004E-03  0.7722444E+03  0.7818609E-02  0.9601085E-01
        1   -1    0    0  501    0  0.00000000000E+00  0.00000000000E+00  0.47217980208E+03  0.47217980211E+03  0.50400001928E-02 0.  1.
       -1   -1    0    0    0  501  0.00000000000E+00  0.00000000000E+00 -0.31574907891E+03  0.31574907895E+03  0.50400001928E-02 0. -1.
    10030    2    1    2    0    0  0.00000000000E+00  0.00000000000E+00  0.15643072317E+03  0.78792888105E+03  0.77224435928E+03 0.  0.
        1    1    3    3  502    0 -0.10490456133E+03  0.36998449959E+02 -0.29904633834E+03  0.31906514192E+03  0.50400001928E-02 0. -1.
       -1    1    3    3    0  502  0.10490456133E+03 -0.36998449959E+02  0.45547706151E+03  0.46886373913E+03  0.50400001928E-02 0.  1.
</event>
<event>
 5   0  0.1216322E-02  0.1018088E+04  0.7818609E-02  0.9288925E-01
        2   -1    0    0  501    0  0.00000000000E+00  0.00000000000E+00  0.63750184430E+03  0.63750184430E+03  0.25500000920E-02 0. -1.
       -2   -1    0    0    0  501  0.00000000000E+00  0.00000000000E+00 -0.40647097593E+03  0.40647097593E+03  0.25500000920E-02 0.  1.
    10030    2    1    2    0    0  0.00000000000E+00  0.00000000000E+00  0.23103086837E+03  0.10439728202E+04  0.10180883985E+04 0.  0.
        2    1    3    3  502    0  0.40261620688E+03 -0.21423632855E+03 -0.11635067669E+03  0.47067451013E+03  0.25500000920E-02 0.  1.
       -2    1    3    3    0  502 -0.40261620688E+03  0.21423632855E+03  0.34738154506E+03  0.57329831011E+03  0.25500000920E-02 0. -1.
</event>
<event>
 5   0  0.1221315E-02  0.9888218E+03  0.7818609E-02  0.9320891E-01
       -2   -1    0    0    0  501  0.00000000000E+00  0.00000000000E+00  0.19849640338E+03  0.19849640340E+03  0.25500000920E-02 0. -1.
        2   -1    0    0  501    0  0.00000000000E+00  0.00000000000E+00 -0.12314688379E+04  0.12314688379E+04  0.25500000920E-02 0.  1.
    10030    2    1    2    0    0  0.00000000000E+00  0.00000000000E+00 -0.10329724345E+04  0.14299652413E+04  0.98882179428E+03 0.  0.
        5    1    3    3  502    0 -0.21021612427E+03  0.38051154706E+03 -0.17598411185E+03  0.46901210429E+03  0.46999998093E+01 0. -1.
       -5    1    3    3    0  502  0.21021612427E+03 -0.38051154706E+03 -0.85698832267E+03  0.96095313702E+03  0.46999998093E+01 0.  1.
</event>
<event>
 5   0  0.7224879E-03  0.1004357E+04  0.7818609E-02  0.9303779E-01
       -1   -1    0    0    0  501  0.00000000000E+00  0.00000000000E+00  0.34350867025E+03  0.34350867029E+03  0.50400001928E-02 0. -1.
        1   -1    0    0  501    0  0.00000000000E+00  0.00000000000E+00 -0.73413918687E+03  0.73413918689E+03  0.50400001928E-02 0.  1.
    10030    2    1    2    0    0  0.00000000000E+00  0.00000000000E+00 -0.39063051662E+03  0.10776478572E+04  0.10043568607E+04 0.  0.
        3    1    3    3  502    0  0.21305849872E+03 -0.44474122803E+03 -0.93555305884E+02  0.50193753520E+03  0.10100000352E+00 0. -1.
       -3    1    3    3    0  502 -0.21305849872E+03  0.44474122803E+03 -0.29707521074E+03  0.57571032197E+03  0.10100000352E+00 0.  1.
</event>
<event>
 5   0  0.4782125E-03  0.1007462E+04  0.7818609E-02  0.9300399E-01
        3   -1    0    0  501    0  0.00000000000E+00  0.00000000000E+00  0.59351955026E+03  0.59351955886E+03  0.10100000352E+00 0.  1.
       -3   -1    0    0    0  501  0.00000000000E+00  0.00000000000E+00 -0.42752558204E+03  0.42752559398E+03  0.10100000352E+00 0. -1.
    10030    2    1    2    0    0  0.00000000000E+00  0.00000000000E+00  0.16599396822E+03  0.10210451528E+04  0.10074617644E+04 0.  0.
        1    1    3    3  502    0 -0.72180374094E+02  0.21054092336E+03 -0.37498882639E+03  0.43606663109E+03  0.50400001928E-02 0. -1.
       -1    1    3    3    0  502  0.72180374094E+02 -0.21054092336E+03  0.54098279460E+03  0.58497852174E+03  0.50400001928E-02 0.  1.
</event>
<event>
 5   0  0.6967681E-03  0.9939702E+03  0.7818609E-02  0.9315183E-01
       -1   -1    0    0    0  501  0.00000000000E+00  0.00000000000E+00  0.81758852092E+03  0.81758852094E+03  0.50400001928E-02 0. -1.
        1   -1    0    0  501    0  0.00000000000E+00  0.00000000000E+00 -0.30210083260E+03  0.30210083265E+03  0.50400001928E-02 0.  1.
    10030    2    1    2    0    0  0.00000000000E+00  0.00000000000E+00  0.51548768832E+03  0.11196893536E+04  0.99397016642E+03 0.  0.
        5    1    3    3  502    0  0.35048810900E+03  0.19187463968E+03  0.59060787298E+03  0.71309013563E+03  0.46999998093E+01 0. -1.
       -5    1    3    3    0  502 -0.35048810900E+03 -0.19187463968E+03 -0.75120184662E+02  0.40659921796E+03  0.46999998093E+01 0.  1.
</event>
<event>
 5   0  0.1216322E-02  0.9946667E+03  0.7818609E-02  0.9314414E-01
       -2   -1    0    0    0  501  0.00000000000E+00  0.00000000000E+00  0.39456323318E+03  0.39456323318E+03  0.25500000920E-02 0. -1.
        2   -1    0    0  501    0  0.00000000000E+00  0.00000000000E+00 -0.62687155604E+03  0.62687155605E+03  0.25500000920E-02 0.  1.
    10030    2    1    2    0    0  0.00000000000E+00  0.00000000000E+00 -0.23230832286E+03  0.10214347892E+04  0.99466671392E+03 0.  0.
        2    1    3    3  502    0 -0.19917404598E+03 -0.36675738283E+03  0.16160443151E+03  0.44754583088E+03  0.25500000920E-02 0. -1.
       -2    1    3    3    0  502  0.19917404598E+03  0.36675738283E+03 -0.39391275437E+03  0.57388895835E+03  0.25500000920E-02 0.  1.
</event>
<event>
 5   0  0.7241200E-03  0.9966097E+03  0.7818609E-02  0.9312271E-01
        1   -1    0    0  501    0  0.00000000000E+00  0.00000000000E+00  0.74905422487E+03  0.74905422488E+03  0.50400001928E-02 0. -1.
       -1   -1    0    0    0  501  0.00000000000E+00  0.00000000000E+00 -0.33149499925E+03  0.33149499929E+03  0.50400001928E-02 0.  1.
    10030    2    1    2    0    0  0.00000000000E+00  0.00000000000E+00  0.41755922561E+03  0.10805492242E+04  0.99660971246E+03 0.  0.
        4    1    3    3  502    0  0.27242182248E+03  0.28741845870E+03 -0.11915697236E+03  0.41354929177E+03  0.12699999809E+01 0.  1.
       -4    1    3    3    0  502 -0.27242182248E+03 -0.28741845870E+03  0.53671619797E+03  0.66699993240E+03  0.12699999809E+01 0. -1.
</event>
<event>
 5   0  0.1245850E-02  0.9980054E+03  0.7818609E-02  0.9310735E-01
        2   -1    0    0  501    0  0.00000000000E+00  0.00000000000E+00  0.94165425593E+03  0.94165425593E+03  0.25500000920E-02 0. -1.
       -2   -1    0    0    0  501  0.00000000000E+00  0.00000000000E+00 -0.26443218810E+03  0.26443218811E+03  0.25500000920E-02 0.  1.
    10030    2    1    2    0    0  0.00000000000E+00  0.00000000000E+00  0.67722206783E+03  0.12060864440E+04  0.99800540147E+03 0.  0.
        3    1    3    3  502    0 -0.30089009197E+03 -0.24483452313E+03  0.71794220558E+03  0.81603909951E+03  0.10100000352E+00 0. -1.
       -3    1    3    3    0  502  0.30089009197E+03  0.24483452313E+03 -0.40720137758E+02  0.39004734454E+03  0.10100000352E+00 0.  1.
</event>
<event>
 5   0  0.1221315E-02  0.1012072E+04  0.7818609E-02  0.9295402E-01
       -2   -1    0    0    0  501  0.00000000000E+00  0.00000000000E+00  0.20607712687E+03  0.20607712689E+03  0.25500000920E-02 0.  1.
        2   -1    0    0  501    0  0.00000000000E+00  0.00000000000E+00 -0.12426060340E+04  0.12426060341E+04  0.25500000920E-02 0. -1.
    10030    2    1    2    0    0  0.00000000000E+00  0.00000000000E+00 -0.10365289072E+04  0.14486831609E+04  0.10120724902E+04 0.  0.
        5    1    3    3  502    0 -0.11484226303E+03  0.23608897770E+03  0.10092899569E+03  0.28131033209E+03  0.46999998093E+01 0.  1.
       -5    1    3    3    0  502  0.11484226303E+03 -0.23608897770E+03 -0.11374579029E+04  0.11673728289E+04  0.46999998093E+01 0. -1.
</event>
<event>
 5   0  0.1191822E-02  0.1003041E+04  0.7818609E-02  0.9305216E-01
        2   -1    0    0  501    0  0.00000000000E+00  0.00000000000E+00  0.16903020427E+04  0.16903020427E+04  0.25500000920E-02 0.  1.
       -2   -1    0    0    0  501  0.00000000000E+00  0.00000000000E+00 -0.14880338642E+03  0.14880338644E+03  0.25500000920E-02 0. -1.
    10030    2    1    2    0    0  0.00000000000E+00  0.00000000000E+00  0.15414986563E+04  0.18391054291E+04  0.10030407131E+04 0.  0.
        4    1    3    3  502    0 -0.31743028616E+03 -0.25482180367E+03  0.23360034104E+03  0.46932597460E+03  0.12699999809E+01 0. -1.
       -4    1    3    3    0  502  0.31743028616E+03  0.25482180367E+03  0.13078983152E+04  0.13697794545E+04  0.12699999809E+01 0.  1.
</event>
<event>
 5   0  0.7241200E-03  0.1039273E+04  0.7818609E-02  0.9266490E-01
        1   -1    0    0  501    0  0.00000000000E+00  0.00000000000E+00  0.56581642409E+03  0.56581642411E+03  0.50400001928E-02 0.  1.
       -1   -1    0    0    0  501  0.00000000000E+00  0.00000000000E+00 -0.47722553570E+03  0.47722553573E+03  0.50400001928E-02 0. -1.
    10030    2    1    2    0    0  0.00000000000E+00  0.00000000000E+00  0.88590888384E+02  0.10430419598E+04  0.10392729115E+04 0.  0.
        4    1    3    3  502    0  0.33925346634E+03 -0.35529597219E+03 -0.12570685112E+03  0.50708181549E+03  0.12699999809E+01 0. -1.
       -4    1    3    3    0  502 -0.33925346634E+03  0.35529597219E+03  0.21429773950E+03  0.53596014435E+03  0.12699999809E+01 0.  1.
</event>
<event>
 5   0  0.1240503E-02  0.1008309E+04  0.7818609E-02  0.9299478E-01
        2   -1    0    0  501    0  0.00000000000E+00  0.00000000000E+00  0.13620749365E+04  0.13620749365E+04  0.25500000920E-02 0.  1.
       -2   -1    0    0    0  501  0.00000000000E+00  0.00000000000E+00 -0.18660628194E+03  0.18660628196E+03  0.25500000920E-02 0. -1.
    10030    2    1    2    0    0  0.00000000000E+00  0.00000000000E+00  0.11754686546E+04  0.15486812185E+04  0.10083089599E+04 0.  0.
        1    1    3    3  502    0  0.23400448621E+03  0.66164742187E+02  0.12660403102E+04  0.12891834391E+04  0.50400001928E-02 0.  1.
       -1    1    3    3    0  502 -0.23400448621E+03 -0.66164742187E+02 -0.90571655591E+02  0.25949777937E+03  0.50400001928E-02 0. -1.
</event>
<event>
 5   0  0.7241200E-03  0.9497640E+03  0.7818609E-02  0.9365426E-01
        1   -1    0    0  501    0  0.00000000000E+00  0.00000000000E+00  0.18962280064E+03  0.18962280070E+03  0.50400001928E-02 0.  1.
       -1   -1    0    0    0  501  0.00000000000E+00  0.00000000000E+00 -0.11892710501E+04  0.11892710501E+04  0.50400001928E-02 0. -1.
    10030    2    1    2    0    0  0.00000000000E+00  0.00000000000E+00 -0.99964824943E+03  0.13788938508E+04  0.94976398602E+03 0.  0.
        4    1    3    3  502    0 -0.10281845011E+03  0.45364611430E+02  0.17003629168E+03  0.20382231242E+03  0.12699999809E+01 0.  1.
       -4    1    3    3    0  502  0.10281845011E+03 -0.45364611430E+02 -0.11696845411E+04  0.11750715384E+04  0.12699999809E+01 0. -1.
</event>
<event>
 5   0  0.1191822E-02  0.1005532E+04  0.7818609E-02  0.9302498E-01
       -2   -1    0    0    0  501  0.00000000000E+00  0.00000000000E+00  0.47359674419E+03  0.47359674420E+03  0.25500000920E-02 0.  1.
        2   -1    0    0  501    0  0.00000000000E+00  0.00000000000E+00 -0.53373187074E+03  0.53373187075E+03  0.25500000920E-02 0. -1.
    10030    2    1    2    0    0  0.00000000000E+00  0.00000000000E+00 -0.60135126551E+02  0.10073286149E+04  0.10055320507E+04 0.  0.
        4    1    3    3  502    0 -0.17764657362E+03 -0.46152077198E+03 -0.12085141162E+03  0.50908388766E+03  0.12699999809E+01 0. -1.
       -4    1    3    3    0  502  0.17764657362E+03  0.46152077198E+03  0.60716285071E+02  0.49824472728E+03  0.12699999809E+01 0.  1.
</event>
<event>
 5   0  0.7073004E-03  0.1211765E+04  0.7818609E-02  0.9102621E-01
        1   -1    0    0  501    0  0.00000000000E+00  0.00000000000E+00  0.83671951465E+03  0.83671951466E+03  0.50400001928E-02 0. -1.
       -1   -1    0    0    0  501  0.00000000000E+00  0.00000000000E+00 -0.43872946650E+03  0.43872946653E+03  0.50400001928E-02 0.  1.
    10030    2    1    2    0    0  0.00000000000E+00  0.00000000000E+00  0.39799004815E+03  0.12754489812E+04  0.12117648391E+04 0.  0.
        1    1    3    3  502    0 -0.25718947270E+03 -0.18771391506E+03 -0.34356670688E+03  0.46842397555E+03  0.50400001928E-02 0.  1.
       -1    1    3    3    0  502  0.25718947270E+03  0.18771391506E+03  0.74155675503E+03  0.80702500564E+03  0.50400001928E-02 0. -1.
</event>
<event>
 5   0  0.1221315E-02  0.1000869E+04  0.7818609E-02  0.9307592E-01
       -2   -1    0    0    0  501  0.00000000000E+00  0.00000000000E+00  0.77569625840E+03  0.77569625840E+03  0.25500000920E-02 0.  1.
        2   -1    0    0  501    0  0.00000000000E+00  0.00000000000E+00 -0.32285166705E+03  0.32285166706E+03  0.25500000920E-02 0. -1.
    10030    2    1    2    0    0  0.00000000000E+00  0.00000000000E+00  0.45284459135E+03  0.10985479255E+04  0.10008692825E+04 0.  0.
        5    1    3    3  502    0 -0.43492365085E+03  0.22583162805E+03  0.33756814698E+03  0.59509062348E+03  0.46999998093E+01 0.  1.
       -5    1    3    3    0  502  0.43492365085E+03 -0.22583162805E+03  0.11527644437E+03  0.50345730198E+03  0.46999998093E+01 0. -1.
</event>
<event>
 5   0  0.1221315E-02  0.1032979E+04  0.7818609E-02  0.9273096E-01
       -2   -1    0    0    0  501  0.00000000000E+00  0.00000000000E+00  0.17248156342E+03  0.17248156344E+03  0.25500000920E-02 0.  1.
        2   -1    0    0  501    0  0.00000000000E+00  0.00000000000E+00 -0.15466082706E+04  0.15466082706E+04  0.25500000920E-02 0. -1.
    10030    2    1    2    0    0  0.00000000000E+00  0.00000000000E+00 -0.13741267072E+04  0.17190898340E+04  0.10329790173E+04 0.  0.
        5    1    3    3  502    0 -0.15111690218E+03 -0.45751836794E+03 -0.37759286794E+03  0.61217468017E+03  0.46999998093E+01 0. -1.
       -5    1    3    3    0  502  0.15111690218E+03  0.45751836794E+03 -0.99653383924E+03  0.11069151539E+04  0.46999998093E+01 0.  1.
</event>
<event>
 5   0  0.1216322E-02  0.9816598E+03  0.7818609E-02  0.9328892E-01
       -2   -1    0    0    0  501  0.00000000000E+00  0.00000000000E+00  0.57426817966E+03  0.57426817966E+03  0.25500000920E-02 0. -1.
        2   -1    0    0  501    0  0.00000000000E+00  0.00000000000E+00 -0.41951481115E+03  0.41951481116E+03  0.25500000920E-02 0.  1.
    10030    2    1    2    0    0  0.00000000000E+00  0.00000000000E+00  0.15475336851E+03  0.99378299082E+03  0.98165983303E+03 0.  0.
        2    1    3    3  502    0  0.45330225752E+03  0.18136913946E+03  0.26392987561E+02  0.48895223818E+03  0.25500000920E-02 0. -1.
       -2    1    3    3    0  502 -0.45330225752E+03 -0.18136913946E+03  0.12836038094E+03  0.50483075265E+03  0.25500000920E-02 0.  1.
</event>
<event>
 5   0  0.1216322E-02  0.8536421E+03  0.7818609E-02  0.9485462E-01
       -2   -1    0    0    0  501  0.00000000000E+00  0.00000000000E+00  0.17702769703E+03  0.17702769705E+03  0.25500000920E-02 0. -1.
        2   -1    0    0  501    0  0.00000000000E+00  0.00000000000E+00 -0.10290830869E+04  0.10290830869E+04  0.25500000920E-02 0.  1.
    10030    2    1    2    0    0  0.00000000000E+00  0.00000000000E+00 -0.85205538988E+03  0.12061107840E+04  0.85364210053E+03 0.  0.
        2    1    3    3  502    0 -0.20912475818E+03  0.23179774270E+03 -0.14796526547E+02  0.31254166955E+03  0.25500000920E-02 0. -1.
       -2    1    3    3    0  502  0.20912475818E+03 -0.23179774270E+03 -0.83725886333E+03  0.89356911442E+03  0.25500000920E-02 0.  1.
</event>
<event>
 5   0  0.1240503E-02  0.1026306E+04  0.7818609E-02  0.9280155E-01
       -2   -1    0    0    0  501  0.00000000000E+00  0.00000000000E+00  0.26642143072E+03  0.26642143073E+03  0.25500000920E-02 0.  1.
        2   -1    0    0  501    0  0.00000000000E+00  0.00000000000E+00 -0.98838056287E+03  0.98838056288E+03  0.25500000920E-02 0. -1.
    10030    2    1    2    0    0  0.00000000000E+00  0.00000000000E+00 -0.72195913216E+03  0.12548019936E+04  0.10263055367E+04 0.  0.
        1    1    3    3  502    0  0.10083514239E+03  0.21045354708E+03 -0.91975048904E+03  0.94889376831E+03  0.50400001928E-02 0. -1.
       -1    1    3    3    0  502 -0.10083514239E+03 -0.21045354708E+03  0.19779135688E+03  0.30590822530E+03  0.50400001928E-02 0.  1.
</event>
<event>
 5   0  0.7224879E-03  0.9874024E+03  0.7818609E-02  0.9322471E-01
        1   -1    0    0  501    0  0.00000000000E+00  0.00000000000E+00  0.89122903529E+03  0.89122903530E+03  0.50400001928E-02 0. -1.
       -1   -1    0    0    0  501  0.00000000000E+00  0.00000000000E+00 -0.27348848932E+03  0.27348848937E+03  0.50400001928E-02 0.  1.
    10030    2    1    2    0    0  0.00000000000E+00  0.00000000000E+00  0.61774054597E+03  0.11647175247E+04  0.98740241550E+03 0.  0.
        3    1    3    3  502    0 -0.53288796537E+02  0.22879496848E+03  0.82107589914E+03  0.85402135558E+03  0.10100000352E+00 0. -1.
       -3    1    3    3    0  502  0.53288796537E+02 -0.22879496848E+03 -0.20333535317E+03  0.31069616909E+03  0.10100000352E+00 0.  1.
</event>
<event>
 5   0  0.7224879E-03  0.9698152E+03  0.7818609E-02  0.9342285E-01
        1   -1    0    0  501    0  0.00000000000E+00  0.00000000000E+00  0.48519753252E+03  0.48519753254E+03  0.50400001928E-02 0. -1.
       -1   -1    0    0    0  501  0.00000000000E+00  0.00000000000E+00 -0.48461780428E+03  0.48461780430E+03  0.50400001928E-02 0.  1.
    10030    2    1    2    0    0  0.00000000000E+00  0.00000000000E+00  0.57972824237E+00  0.96981533685E+03  0.96981516357E+03 0.  0.
        3    1    3    3  502    0  0.18955900458E+03  0.16069897620E+03 -0.41609774071E+03  0.48465876366E+03  0.10100000352E+00 0.  1.
       -3    1    3    3    0  502 -0.18955900458E+03 -0.16069897620E+03  0.41667746895E+03  0.48515657318E+03  0.10100000352E+00 0. -1.
</event>
<event>
 5   0  0.4782125E-03  0.1000931E+04  0.7818609E-02  0.9307524E-01
        3   -1    0    0  501    0  0.00000000000E+00  0.00000000000E+00  0.16341873836E+03  0.16341876957E+03  0.10100000352E+00 0.  1.
       -3   -1    0    0    0  501  0.00000000000E+00  0.00000000000E+00 -0.15326632439E+04  0.15326632472E+04  0.10100000352E+00 0. -1.
    10030    2    1    2    0    0  0.00000000000E+00  0.00000000000E+00 -0.13692445055E+04  0.16960820168E+04  0.10009314121E+04 0.  0.
        4    1    3    3  502    0 -0.31095337089E+03  0.35106338522E+03 -0.38855985810E+03  0.60903027473E+03  0.12699999809E+01 0.  1.
       -4    1    3    3    0  502  0.31095337089E+03 -0.35106338522E+03 -0.98068464743E+03  0.10870517421E+04  0.12699999809E+01 0. -1.
</event>
<event>
 5   0  0.1245850E-02  0.1014509E+04  0.7818609E-02  0.9292773E-01
       -2   -1    0    0    0  501  0.00000000000E+00  0.00000000000E+00  0.20651983021E+03  0.20651983023E+03  0.25500000920E-02 0.  1.
        2   -1    0    0  501    0  0.00000000000E+00  0.00000000000E+00 -0.12459194998E+04  0.12459194998E+04  0.25500000920E-02 0. -1.
    10030    2    1    2    0    0  0.00000000000E+00  0.00000000000E+00 -0.10393996695E+04  0.14524393300E+04  0.10145089129E+04 0.  0.
        3    1    3    3  502    0  0.34638025637E+02 -0.35878643883E+03 -0.10306658621E+04  0.10918789452E+04  0.10100000352E+00 0. -1.
       -3    1    3    3    0  502 -0.34638025637E+02  0.35878643883E+03 -0.87338074877E+01  0.36056038482E+03  0.10100000352E+00 0.  1.
</event>
<event>
 5   0  0.7073004E-03  0.9970273E+03  0.7818609E-02  0.9311811E-01
       -1   -1    0    0    0  501  0.00000000000E+00  0.00000000000E+00  0.91903223726E+03  0.91903223727E+03  0.50400001928E-02 0.  1.
        1   -1    0    0  501    0  0.00000000000E+00  0.00000000000E+00 -0.27041040821E+03  0.27041040825E+03  0.50400001928E-02 0. -1.
    10030    2    1    2    0    0  0.00000000000E+00  0.00000000000E+00  0.64862182905E+03  0.11894426455E+04  0.99702734660E+03 0.  0.
        1    1    3    3  502    0  0.42767676781E+03  0.21757588413E+03  0.48555960357E+03  0.68265277538E+03  0.50400001928E-02 0.  1.
       -1    1    3    3    0  502 -0.42767676781E+03 -0.21757588413E+03  0.16306222548E+03  0.50678987015E+03  0.50400001928E-02 0. -1.
</event>
<event>
 5   0  0.1216322E-02  0.9879589E+03  0.7818609E-02  0.9321851E-01
        2   -1    0    0  501    0  0.00000000000E+00  0.00000000000E+00  0.17308345405E+04  0.17308345405E+04  0.25500000920E-02 0. -1.
       -2   -1    0    0    0  501  0.00000000000E+00  0.00000000000E+00 -0.14098152494E+03  0.14098152497E+03  0.25500000920E-02 0.  1.
    10030    2    1    2    0    0  0.00000000000E+00  0.00000000000E+00  0.15898530155E+04  0.18718160655E+04  0.98795889179E+03 0.  0.
        2    1    3    3  502    0  0.28374255919E+03 -0.20555693597E+03  0.14546608750E+04  0.14962625956E+04  0.25500000920E-02 0. -1.
       -2    1    3    3    0  502 -0.28374255919E+03  0.20555693597E+03  0.13519214053E+03  0.37555346981E+03  0.25500000920E-02 0.  1.
</event>
<event>
 5   0  0.7241200E-03  0.1007713E+04  0.7818609E-02  0.9300125E-01
        1   -1    0    0  501    0  0.00000000000E+00  0.00000000000E+00  0.28110264675E+03  0.28110264679E+03  0.50400001928E-02 0.  1.
       -1   -1    0    0    0  501  0.00000000000E+00  0.00000000000E+00 -0.90312735462E+03  0.90312735463E+03  0.50400001928E-02 0. -1.
    10030    2    1    2    0    0  0.00000000000E+00  0.00000000000E+00 -0.62202470787E+03  0.11842300014E+04  0.10077132326E+04 0.  0.
        4    1    3    3  502    0 -0.13241372861E+02 -0.37139982727E+03  0.88814709877E+02  0.38210316832E+03  0.12699999809E+01 0.  1.
       -4    1    3    3    0  502  0.13241372861E+02  0.37139982727E+03 -0.71083941775E+03  0.80212683310E+03  0.12699999809E+01 0. -1.
</event>
<event>
 5   0  0.7073004E-03  0.9943238E+03  0.7818609E-02  0.9314792E-01
        1   -1    0    0  501    0  0.00000000000E+00  0.00000000000E+00  0.15074763292E+04  0.15074763292E+04  0.50400001928E-02 0. -1.
       -1   -1    0    0    0  501  0.00000000000E+00  0.00000000000E+00 -0.16396275667E+03  0.16396275675E+03  0.50400001928E-02 0.  1.
    10030    2    1    2    0    0  0.00000000000E+00  0.00000000000E+00  0.13435135725E+04  0.16714390859E+04  0.99432383985E+03 0.  0.
        1    1    3    3  502    0  0.32665456159E+03  0.20011133454E+03  0.12044505629E+04  0.12639022539E+04  0.50400001928E-02 0. -1.
       -1    1    3    3    0  502 -0.32665456159E+03 -0.20011133454E+03  0.13906300958E+03  0.40753683205E+03  0.50400001928E-02 0.  1.
</event>
<event>
 5   0  0.7461157E-03  0.1007312E+04  0.7818609E-02  0.9300561E-01
       -1   -1    0    0    0  501  0.00000000000E+00  0.00000000000E+00  0.36431595289E+03  0.36431595293E+03  0.50400001928E-02 0. -1.
        1   -1    0    0  501    0  0.00000000000E+00  0.00000000000E+00 -0.69628943491E+03  0.69628943493E+03  0.50400001928E-02 0.  1.
    10030    2    1    2    0    0  0.00000000000E+00  0.00000000000E+00 -0.33197348201E+03  0.10606053879E+04  0.10073119656E+04 0.  0.
        2    1    3    3  502    0  0.49123856222E+03 -0.10492735089E+03 -0.12738259943E+03  0.51821945218E+03  0.25500000920E-02 0. -1.
       -2    1    3    3    0  502 -0.49123856222E+03  0.10492735089E+03 -0.20459088258E+03  0.54238593568E+03  0.25500000920E-02 0.  1.
</event>
<event>
 5   0  0.7224879E-03  0.9506796E+03  0.7818609E-02  0.9364357E-01
       -1   -1    0    0    0  501  0.00000000000E+00  0.00000000000E+00  0.16431498753E+03  0.16431498761E+03  0.50400001928E-02 0.  1.
        1   -1    0    0  501    0  0.00000000000E+00  0.00000000000E+00 -0.13750901346E+04  0.13750901346E+04  0.50400001928E-02 0. -1.
    10030    2    1    2    0    0  0.00000000000E+00  0.00000000000E+00 -0.12107751471E+04  0.15394051222E+04  0.95067958513E+03 0.  0.
        3    1    3    3  502    0  0.10547448808E+03  0.10121291845E+03 -0.13377891490E+04  0.13457521094E+04  0.10100000352E+00 0. -1.
       -3    1    3    3    0  502 -0.10547448808E+03 -0.10121291845E+03  0.12701400193E+03  0.19365301285E+03  0.10100000352E+00 0.  1.
</event>
<event>
 5   0  0.1191822E-02  0.8250256E+03  0.7818609E-02  0.9524484E-01
        2   -1    0    0  501    0  0.00000000000E+00  0.00000000000E+00  0.76600365664E+03  0.76600365665E+03  0.25500000920E-02 0. -1.
       -2   -1    0    0    0  501  0.00000000000E+00  0.00000000000E+00 -0.22214883345E+03  0.22214883347E+03  0.25500000920E-02 0.  1.
    10030    2    1    2    0    0  0.00000000000E+00  0.00000000000E+00  0.54385482319E+03  0.98815249011E+03  0.82502562082E+03 0.  0.
        4    1    3    3  502    0  0.27181213213E+03 -0.29372582737E+02  0.64190690682E+03  0.69770385818E+03  0.12699999809E+01 0. -1.
       -4    1    3    3    0  502 -0.27181213213E+03  0.29372582737E+02 -0.98052083626E+02  0.29044863194E+03  0.12699999809E+01 0.  1.
</event>
<event>
 5   0  0.1191822E-02  0.9949847E+03  0.7818609E-02  0.9314063E-01
        2   -1    0    0  501    0  0.00000000000E+00  0.00000000000E+00  0.38740995566E+03  0.38740995567E+03  0.25500000920E-02 0.  1.
       -2   -1    0    0    0  501  0.00000000000E+00  0.00000000000E+00 -0.63885463145E+03  0.63885463146E+03  0.25500000920E-02 0. -1.
    10030    2    1    2    0    0  0.00000000000E+00  0.00000000000E+00 -0.25144467579E+03  0.10262645871E+04  0.99498471235E+03 0.  0.
        4    1    3    3  502    0 -0.20681065797E+03 -0.26272826493E+03  0.25423360912E+03  0.42003943904E+03  0.12699999809E+01 0.  1.
       -4    1    3    3    0  502  0.20681065797E+03  0.26272826493E+03 -0.50567828491E+03  0.60622514809E+03  0.12699999809E+01 0. -1.
</event>
<event>
 5   0  0.7461157E-03  0.1006959E+04  0.7818609E-02  0.9300945E-01
        1   -1    0    0  501    0  0.00000000000E+00  0.00000000000E+00  0.14014683836E+04  0.14014683836E+04  0.50400001928E-02 0. -1.
       -1   -1    0    0    0  501  0.00000000000E+00  0.00000000000E+00 -0.18087579728E+03  0.18087579735E+03  0.50400001928E-02 0.  1.
    10030    2    1    2    0    0  0.00000000000E+00  0.00000000000E+00  0.12205925864E+04  0.15823441810E+04  0.10069592073E+04 0.  0.
        2    1    3    3  502    0 -0.23450190069E+03 -0.16755230784E+03  0.12590173787E+04  0.12915841735E+04  0.25500000920E-02 0. -1.
       -2    1    3    3    0  502  0.23450190069E+03  0.16755230784E+03 -0.38424792358E+02  0.29076000751E+03  0.25500000920E-02 0.  1.
</event>
<event>
 5   0  0.1191822E-02  0.9914267E+03  0.7818609E-02  0.9317998E-01
        2   -1    0    0  501    0  0.00000000000E+00  0.00000000000E+00  0.59890871537E+03  0.59890871538E+03  0.25500000920E-02 0. -1.
       -2   -1    0    0    0  501  0.00000000000E+00  0.00000000000E+00 -0.41029910439E+03  0.41029910440E+03  0.25500000920E-02 0.  1.
    10030    2    1    2    0    0  0.00000000000E+00  0.00000000000E+00  0.18860961098E+03  0.10092078198E+04  0.99142666806E+03 0.  0.
        4    1    3    3  502    0  0.45942223922E+03  0.12938683628E+02  0.28336108956E+03  0.53993640682E+03  0.12699999809E+01 0. -1.
       -4    1    3    3    0  502 -0.45942223922E+03 -0.12938683628E+02 -0.94751478581E+02  0.46927141296E+03  0.12699999809E+01 0.  1.
</event>
<event>
 5   0  0.1240503E-02  0.1003195E+04  0.7818609E-02  0.9305048E-01
        2   -1    0    0  501    0  0.00000000000E+00  0.00000000000E+00  0.21993570702E+03  0.21993570704E+03  0.25500000920E-02 0. -1.
       -2   -1    0    0    0  501  0.00000000000E+00  0.00000000000E+00 -0.11439701889E+04  0.11439701890E+04  0.25500000920E-02 0.  1.
    10030    2    1    2    0    0  0.00000000000E+00  0.00000000000E+00 -0.92403448193E+03  0.13639058960E+04  0.10031946817E+04 0.  0.
        1    1    3    3  502    0  0.45283635535E+02  0.15044235415E+03 -0.11096549258E+04  0.11207218941E+04  0.50400001928E-02 0.  1.
       -1    1    3    3    0  502 -0.45283635535E+02 -0.15044235415E+03  0.18562044386E+03  0.24318400189E+03  0.50400001928E-02 0. -1.
</event>
<event>
 5   0  0.4782125E-03  0.9953544E+03  0.7818609E-02  0.9313655E-01
       -3   -1    0    0    0  501  0.00000000000E+00  0.00000000000E+00  0.34485996863E+03  0.34485998342E+03  0.10100000352E+00 0.  1.
        3   -1    0    0  501    0  0.00000000000E+00  0.00000000000E+00 -0.71821198532E+03  0.71821199242E+03  0.10100000352E+00 0. -1.
    10030    2    1    2    0    0  0.00000000000E+00  0.00000000000E+00 -0.37335201669E+03  0.10630719758E+04  0.99535435774E+03 0.  0.
        5    1    3    3  502    0  0.24439700424E+03  0.32050084838E+03  0.12509067826E+03  0.42204319362E+03  0.46999998093E+01 0.  1.
       -5    1    3    3    0  502 -0.24439700424E+03 -0.32050084838E+03 -0.49844269495E+03  0.64102878223E+03  0.46999998093E+01 0. -1.
</event>
<event>
 5   0  0.1191822E-02  0.1050916E+04  0.7818609E-02  0.9254399E-01
        2   -1    0    0  501    0  0.00000000000E+00  0.00000000000E+00  0.80227334096E+03  0.80227334097E+03  0.25500000920E-02 0.  1.
       -2   -1    0    0    0  501  0.00000000000E+00  0.00000000000E+00 -0.34415449795E+03  0.34415449796E+03  0.25500000920E-02 0. -1.
    10030    2    1    2    0    0  0.00000000000E+00  0.00000000000E+00  0.45811884301E+03  0.11464278389E+04  0.10509157509E+04 0.  0.
        4    1    3    3  502    0 -0.10149096832E+03  0.35360343973E+03  0.63834990920E+03  0.73676863989E+03  0.12699999809E+01 0.  1.
       -4    1    3    3    0  502  0.10149096832E+03 -0.35360343973E+03 -0.18023106619E+03  0.40965919904E+03  0.12699999809E+01 0. -1.
</event>
<event>
 5   0  0.7224879E-03  0.7404896E+03  0.7818609E-02  0.9650390E-01
       -1   -1    0    0    0  501  0.00000000000E+00  0.00000000000E+00  0.43833963520E+03  0.43833963523E+03  0.50400001928E-02 0. -1.
        1   -1    0    0  501    0  0.00000000000E+00  0.00000000000E+00 -0.31272830272E+03  0.31272830276E+03  0.50400001928E-02 0.  1.
    10030    2    1    2    0    0  0.00000000000E+00  0.00000000000E+00  0.12561133248E+03  0.75106793799E+03  0.74048959522E+03 0.  0.
        3    1    3    3  502    0 -0.28302539384E+03 -0.11914106695E+03 -0.14699026445E+03  0.34044693483E+03  0.10100000352E+00 0. -1.
       -3    1    3    3    0  502  0.28302539384E+03  0.11914106695E+03  0.27260159693E+03  0.41062100316E+03  0.10100000352E+00 0.  1.
</event>
<event>
 5   0  0.1221315E-02  0.9831815E+03  0.7818609E-02  0.9327186E-01
       -2   -1    0    0    0  501  0.00000000000E+00  0.00000000000E+00  0.15444174991E+04  0.15444174991E+04  0.25500000920E-02 0.  1.
        2   -1    0    0  501    0  0.00000000000E+00  0.00000000000E+00 -0.15647418393E+03  0.15647418395E+03  0.25500000920E-02 0. -1.
    10030    2    1    2    0    0  0.00000000000E+00  0.00000000000E+00  0.13879433151E+04  0.17008916830E+04  0.98318150478E+03 0.  0.
        5    1    3    3  502    0  0.34447666801E+03 -0.24542020777E+03  0.26063094835E+03  0.49683582240E+03  0.46999998093E+01 0.  1.
       -5    1    3    3    0  502 -0.34447666801E+03  0.24542020777E+03  0.11273123668E+04  0.12040558606E+04  0.46999998093E+01 0. -1.
</event>
<event>
 5   0  0.7224879E-03  0.9879113E+03  0.7818609E-02  0.9321904E-01
       -1   -1    0    0    0  501  0.00000000000E+00  0.00000000000E+00  0.73841838793E+03  0.73841838794E+03  0.50400001928E-02 0.  1.
        1   -1    0    0  501    0  0.00000000000E+00  0.00000000000E+00 -0.33042537314E+03  0.33042537318E+03  0.50400001928E-02 0. -1.
    10030    2    1    2    0    0  0.00000000000E+00  0.00000000000E+00  0.40799301479E+03  0.10688437611E+04  0.98791127414E+03 0.  0.
        3    1    3    3  502    0  0.30981967213E+03  0.75384875481E+02  0.61215689936E+03  0.69022256434E+03  0.10100000352E+00 0.  1.
       -3    1    3    3    0  502 -0.30981967213E+03 -0.75384875481E+02 -0.20416388457E+03  0.37862119678E+03  0.10100000352E+00 0. -1.
</event>
<event>
 5   0  0.7224879E-03  0.8555789E+03  0.7818609E-02  0.9482880E-01
       -1   -1    0    0    0  501  0.00000000000E+00  0.00000000000E+00  0.37835812210E+03  0.37835812214E+03  0.50400001928E-02 0.  1.
        1   -1    0    0  501    0  0.00000000000E+00  0.00000000000E+00 -0.48367884402E+03  0.48367884404E+03  0.50400001928E-02 0. -1.
    10030    2    1    2    0    0  0.00000000000E+00  0.00000000000E+00 -0.10532072191E+03  0.86203696618E+03  0.85557891313E+03 0.  0.
        3    1    3    3  502    0  0.26972549117E+03 -0.93683389453E+02  0.26829614539E+03  0.39180511722E+03  0.10100000352E+00 0.  1.
       -3    1    3    3    0  502 -0.26972549117E+03  0.93683389453E+02 -0.37361686730E+03  0.47023184896E+03  0.10100000352E+00 0. -1.
</event>
<event>
 5   0  0.1245850E-02  0.9798025E+03  0.7818609E-02  0.9330979E-01
        2   -1    0    0  501    0  0.00000000000E+00  0.00000000000E+00  0.54685027071E+03  0.54685027072E+03  0.25500000920E-02 0. -1.
       -2   -1    0    0    0  501  0.00000000000E+00  0.00000000000E+00 -0.43888289666E+03  0.43888289667E+03  0.25500000920E-02 0.  1.
    10030    2    1    2    0    0  0.00000000000E+00  0.00000000000E+00  0.10796737405E+03  0.98573316739E+03  0.97980249205E+03 0.  0.
        3    1    3    3  502    0 -0.24055031513E+03  0.24426080618E+03  0.40606689106E+03  0.53143026426E+03  0.10100000352E+00 0. -1.
       -3    1    3    3    0  502  0.24055031513E+03 -0.24426080618E+03 -0.29809951701E+03  0.45430290313E+03  0.10100000352E+00 0.  1.
</event>
<event>
 5   0  0.7073004E-03  0.1002985E+04  0.7818609E-02  0.9305276E-01
        1   -1    0    0  501    0  0.00000000000E+00  0.00000000000E+00  0.14378911089E+04  0.14378911089E+04  0.50400001928E-02 0. -1.
       -1   -1    0    0    0  501  0.00000000000E+00  0.00000000000E+00 -0.17490543861E+03  0.17490543869E+03  0.50400001928E-02 0.  1.
    10030    2    1    2    0    0  0.00000000000E+00  0.00000000000E+00  0.12629856703E+04  0.16127965476E+04  0.10029854937E+04 0.  0.
        1    1    3    3  502    0 -0.38793496046E+03  0.23339247207E+03  0.28463729257E+03  0.53477468892E+03  0.50400001928E-02 0.  1.
       -1    1    3    3    0  502  0.38793496046E+03 -0.23339247207E+03  0.97834837771E+03  0.10780218587E+04  0.50400001928E-02 0. -1.
</event>
<event>
 5   0  0.7241200E-03  0.9353521E+03  0.7818609E-02  0.9382437E-01
        1   -1    0    0  501    0  0.00000000000E+00  0.00000000000E+00  0.83984381984E+03  0.83984381986E+03  0.50400001928E-02 0.  1.
       -1   -1    0    0    0  501  0.00000000000E+00  0.00000000000E+00 -0.26043043950E+03  0.26043043955E+03  0.50400001928E-02 0. -1.
    10030    2    1    2    0    0  0.00000000000E+00  0.00000000000E+00  0.57941338034E+03  0.11002742594E+04  0.93535211583E+03 0.  0.
        4    1    3    3  502    0 -0.10529381672E+03  0.27549725569E+03  0.71665407533E+03  0.77497109773E+03  0.12699999809E+01 0.  1.
       -4    1    3    3    0  502  0.10529381672E+03 -0.27549725569E+03 -0.13724069499E+03  0.32530316167E+03  0.12699999809E+01 0. -1.
</event>
<event>
 5   0  0.6967681E-03  0.8828315E+03  0.7818609E-02  0.9447301E-01
        1   -1    0    0  501    0  0.00000000000E+00  0.00000000000E+00  0.57080600684E+03  0.57080600686E+03  0.50400001928E-02 0.  1.
       -1   -1    0    0    0  501  0.00000000000E+00  0.00000000000E+00 -0.34135563790E+03  0.34135563793E+03  0.50400001928E-02 0. -1.
    10030    2    1    2    0    0  0.00000000000E+00  0.00000000000E+00  0.22945036894E+03  0.91216164479E+03  0.88283146434E+03 0.  0.
        5    1    3    3  502    0 -0.18945449565E+01 -0.16597917042E+03 -0.30785296412E+03  0.34978309254E+03  0.46999998093E+01 0. -1.
       -5    1    3    3    0  502  0.18945449565E+01  0.16597917042E+03  0.53730333306E+03  0.56237855225E+03  0.46999998093E+01 0.  1.
</event>
<event>
 5   0  0.7241200E-03  0.9972785E+03  0.7818609E-02  0.9311535E-01
       -1   -1    0    0    0  501  0.00000000000E+00  0.00000000000E+00  0.86328885013E+03  0.86328885014E+03  0.50400001928E-02 0. -1.
        1   -1    0    0  501    0  0.00000000000E+00  0.00000000000E+00 -0.28801613183E+03  0.28801613188E+03  0.50400001928E-02 0.  1.
    10030    2    1    2    0    0  0.00000000000E+00  0.00000000000E+00  0.57527271829E+03  0.11513049820E+04  0.99727852740E+03 0.  0.
        4    1    3    3  502    0  0.20999980081E+03 -0.16436669496E+03 -0.19877246476E+03  0.33260852725E+03  0.12699999809E+01 0.  1.
       -4    1    3    3    0  502 -0.20999980081E+03  0.16436669496E+03  0.77404518305E+03  0.81869645477E+03  0.12699999809E+01 0. -1.
</event>
<event>
 5   0  0.7073004E-03  0.9521619E+03  0.7818609E-02  0.9362627E-01
        1   -1    0    0  501    0  0.00000000000E+00  0.00000000000E+00  0.89450614118E+03  0.89450614119E+03  0.50400001928E-02 0. -1.
       -1   -1    0    0    0  501  0.00000000000E+00  0.00000000000E+00 -0.25338349514E+03  0.25338349519E+03  0.50400001928E-02 0.  1.
    10030    2    1    2    0    0  0.00000000000E+00  0.00000000000E+00  0.64112264604E+03  0.11478896364E+04  0.95216194528E+03 0.  0.
        1    1    3    3  502    0 -0.32063667704E+03 -0.34841346360E+03  0.26084924512E+03  0.54059425541E+03  0.50400001928E-02 0.  1.
       -1    1    3    3    0  502  0.32063667704E+03  0.34841346360E+03  0.38027340092E+03  0.60729538097E+03  0.50400001928E-02 0. -1.
</event>
<event>
 5   0  0.1191822E-02  0.9699379E+03  0.7818609E-02  0.9342145E-01
        2   -1    0    0  501    0  0.00000000000E+00  0.00000000000E+00  0.14211031899E+04  0.14211031899E+04  0.25500000920E-02 0.  1.
       -2   -1    0    0    0  501  0.00000000000E+00  0.00000000000E+00 -0.16550162826E+03  0.16550162828E+03  0.25500000920E-02 0. -1.
    10030    2    1    2    0    0  0.00000000000E+00  0.00000000000E+00  0.12556015616E+04  0.15866048182E+04  0.96993791938E+03 0.  0.
        4    1    3    3  502    0 -0.21391524332E+03 -0.42333243282E+03  0.79319420441E+03  0.92419085627E+03  0.12699999809E+01 0.  1.
       -4    1    3    3    0  502  0.21391524332E+03  0.42333243282E+03  0.46240735721E+03  0.66241396189E+03  0.12699999809E+01 0. -1.
</event>
<event>
 5   0  0.7241200E-03  0.1010292E+04  0.7818609E-02  0.9297328E-01
       -1   -1    0    0    0  501  0.00000000000E+00  0.00000000000E+00  0.29607984090E+03  0.29607984094E+03  0.50400001928E-02 0. -1.
        1   -1    0    0  501    0  0.00000000000E+00  0.00000000000E+00 -0.86183726022E+03  0.86183726024E+03  0.50400001928E-02 0.  1.
    10030    2    1    2    0    0  0.00000000000E+00  0.00000000000E+00 -0.56575741932E+03  0.11579171012E+04  0.10102923120E+04 0.  0.
        4    1    3    3  502    0 -0.48714968188E+03 -0.13267682944E+03 -0.26464593319E+03  0.57005002980E+03  0.12699999809E+01 0. -1.
       -4    1    3    3    0  502  0.48714968188E+03  0.13267682944E+03 -0.30111148613E+03  0.58786707137E+03  0.12699999809E+01 0.  1.
</event>
<event>
 5   0  0.7241200E-03  0.1009270E+04  0.7818609E-02  0.9298436E-01
       -1   -1    0    0    0  501  0.00000000000E+00  0.00000000000E+00  0.73651770326E+03  0.73651770328E+03  0.50400001928E-02 0.  1.
        1   -1    0    0  501    0  0.00000000000E+00  0.00000000000E+00 -0.34575719847E+03  0.34575719850E+03  0.50400001928E-02 0. -1.
    10030    2    1    2    0    0  0.00000000000E+00  0.00000000000E+00  0.39076050479E+03  0.10822749018E+04  0.10092696324E+04 0.  0.
        4    1    3    3  502    0 -0.30134531626E+02  0.17901180330E+03  0.70029094578E+03  0.72343786005E+03  0.12699999809E+01 0.  1.
       -4    1    3    3    0  502  0.30134531626E+02 -0.17901180330E+03 -0.30953044099E+03  0.35883704173E+03  0.12699999809E+01 0. -1.
</event>
<event>
 5   0  0.7224879E-03  0.1054544E+04  0.7818609E-02  0.9250665E-01
       -1   -1    0    0    0  501  0.00000000000E+00  0.00000000000E+00  0.20400983666E+03  0.20400983673E+03  0.50400001928E-02 0.  1.
        1   -1    0    0  501    0  0.00000000000E+00  0.00000000000E+00 -0.13627573805E+04  0.13627573805E+04  0.50400001928E-02 0. -1.
    10030    2    1    2    0    0  0.00000000000E+00  0.00000000000E+00 -0.11587475439E+04  0.15667672173E+04  0.10545442820E+04 0.  0.
        3    1    3    3  502    0  0.51859520399E+03  0.79892075700E+02 -0.65646251846E+03  0.84039679777E+03  0.10100000352E+00 0.  1.
       -3    1    3    3    0  502 -0.51859520399E+03 -0.79892075700E+02 -0.50228502539E+03  0.72637041948E+03  0.10100000352E+00 0. -1.
</event>
<event>
 5   0  0.7224879E-03  0.1025132E+04  0.7818609E-02  0.9281402E-01
       -1   -1    0    0    0  501  0.00000000000E+00  0.00000000000E+00  0.30477521470E+03  0.30477521474E+03  0.50400001928E-02 0. -1.
        1   -1    0    0  501    0  0.00000000000E+00  0.00000000000E+00 -0.86202586894E+03  0.86202586896E+03  0.50400001928E-02 0.  1.
    10030    2    1    2    0    0  0.00000000000E+00  0.00000000000E+00 -0.55725065425E+03  0.11668010837E+04  0.10251324194E+04 0.  0.
        3    1    3    3  502    0 -0.44551215281E+03  0.25137294426E+03 -0.24166158637E+03  0.56574708831E+03  0.10100000352E+00 0.  1.
       -3    1    3    3    0  502  0.44551215281E+03 -0.25137294426E+03 -0.31558906787E+03  0.60105399538E+03  0.10100000352E+00 0. -1.
</event>
<event>
 5   0  0.1191822E-02  0.7331551E+03  0.7818609E-02  0.9662154E-01
       -2   -1    0    0    0  501  0.00000000000E+00  0.00000000000E+00  0.60053886774E+02  0.60053886828E+02  0.25500000920E-02 0. -1.
        2   -1    0    0  501    0  0.00000000000E+00  0.00000000000E+00 -0.22376420811E+04  0.22376420811E+04  0.25500000920E-02 0.  1.
    10030    2    1    2    0    0  0.00000000000E+00  0.00000000000E+00 -0.21775881943E+04  0.22976959679E+04  0.73315511113E+03 0.  0.
        4    1    3    3  502    0  0.12313077585E+03 -0.79370019232E+01 -0.21706009954E+04  0.21741054432E+04  0.12699999809E+01 0.  1.
       -4    1    3    3    0  502 -0.12313077585E+03  0.79370019232E+01 -0.69871989429E+01  0.12359052476E+03  0.12699999809E+01 0. -1.
</event>
<event>
 5   0  0.7461157E-03  0.7801217E+03  0.7818609E-02  0.9589244E-01
        1   -1    0    0  501    0  0.00000000000E+00  0.00000000000E+00  0.27142525739E+03  0.27142525744E+03  0.50400001928E-02 0.  1.
       -1   -1    0    0    0  501  0.00000000000E+00  0.00000000000E+00 -0.56055013159E+03  0.56055013161E+03  0.50400001928E-02 0. -1.
    10030    2    1    2    0    0  0.00000000000E+00  0.00000000000E+00 -0.28912487420E+03  0.83197538905E+03  0.78012169250E+03 0.  0.
        2    1    3    3  502    0 -0.34183684763E+03 -0.16852500378E+03 -0.23311374757E+03  0.44676070396E+03  0.25500000920E-02 0.  1.
       -2    1    3    3    0  502  0.34183684763E+03  0.16852500378E+03 -0.56011126631E+02  0.38521468509E+03  0.25500000920E-02 0. -1.
</event>
<event>
 5   0  0.7241200E-03  0.7812564E+03  0.7818609E-02  0.9587551E-01
       -1   -1    0    0    0  501  0.00000000000E+00  0.00000000000E+00  0.64574820472E+02  0.64574820668E+02  0.50400001928E-02 0.  1.
        1   -1    0    0  501    0  0.00000000000E+00  0.00000000000E+00 -0.23630013588E+04  0.23630013588E+04  0.50400001928E-02 0. -1.
    10030    2    1    2    0    0  0.00000000000E+00  0.00000000000E+00 -0.22984265383E+04  0.24275761795E+04  0.78125639521E+03 0.  0.
        4    1    3    3  502    0 -0.30816264771E+03  0.24350904704E+02 -0.18912698634E+04  0.19163664820E+04  0.12699999809E+01 0. -1.
       -4    1    3    3    0  502  0.30816264771E+03 -0.24350904704E+02 -0.40715667487E+03  0.51120969748E+03  0.12699999809E+01 0.  1.
</event>
<event>
 5   0  0.1191822E-02  0.9934451E+03  0.7818609E-02  0.9315763E-01
       -2   -1    0    0    0  501  0.00000000000E+00  0.00000000000E+00  0.31029245794E+03  0.31029245795E+03  0.25500000920E-02 0. -1.
        2   -1    0    0  501    0  0.00000000000E+00  0.00000000000E+00 -0.79516360547E+03  0.79516360547E+03  0.25500000920E-02 0.  1.
    10030    2    1    2    0    0  0.00000000000E+00  0.00000000000E+00 -0.48487114753E+03  0.11054560634E+04  0.99344505558E+03 0.  0.
        4    1    3    3  502    0 -0.82265273812E+02  0.35432101197E+03 -0.61883585335E+03  0.71782336343E+03  0.12699999809E+01 0. -1.
       -4    1    3    3    0  502  0.82265273812E+02 -0.35432101197E+03  0.13396470582E+03  0.38763270000E+03  0.12699999809E+01 0.  1.
</event>
<event>
 5   0  0.1221315E-02  0.9795731E+03  0.7818609E-02  0.9331237E-01
       -2   -1    0    0    0  501  0.00000000000E+00  0.00000000000E+00  0.18192061454E+03  0.18192061456E+03  0.25500000920E-02 0.  1.
        2   -1    0    0  501    0  0.00000000000E+00  0.00000000000E+00 -0.13186569518E+04  0.13186569518E+04  0.25500000920E-02 0. -1.
    10030    2    1    2    0    0  0.00000000000E+00  0.00000000000E+00 -0.11367363372E+04  0.15005775663E+04  0.97957313776E+03 0.  0.
        5    1    3    3  502    0  0.46719790606E+03  0.62751632094E+02 -0.36481316103E+03  0.59608924098E+03  0.46999998093E+01 0.  1.
       -5    1    3    3    0  502 -0.46719790606E+03 -0.62751632094E+02 -0.77192317620E+03  0.90448832536E+03  0.46999998093E+01 0. -1.
</event>
<event>
 5   0  0.7241200E-03  0.8975011E+03  0.7818609E-02  0.9428711E-01
        1   -1    0    0  501    0  0.00000000000E+00  0.00000000000E+00  0.95694932137E+03  0.95694932139E+03  0.50400001928E-02 0. -1.
       -1   -1    0    0    0  501  0.00000000000E+00  0.00000000000E+00 -0.21043649439E+03  0.21043649445E+03  0.50400001928E-02 0.  1.
    10030    2    1    2    0    0  0.00000000000E+00  0.00000000000E+00  0.74651282698E+03  0.11673858158E+04  0.89750110985E+03 0.  0.
        4    1    3    3  502    0  0.34409590975E+03  0.28693322299E+03  0.40623332248E+03  0.60478078240E+03  0.12699999809E+01 0. -1.
       -4    1    3    3    0  502 -0.34409590975E+03 -0.28693322299E+03  0.34027950451E+03  0.56260503344E+03  0.12699999809E+01 0.  1.
</event>
<event>
 5   0  0.1191822E-02  0.1024824E+04  0.7818609E-02  0.9281729E-01
       -2   -1    0    0    0  501  0.00000000000E+00  0.00000000000E+00  0.12129103585E+03  0.12129103587E+03  0.25500000920E-02 0.  1.
        2   -1    0    0  501    0  0.00000000000E+00  0.00000000000E+00 -0.21647614182E+04  0.21647614182E+04  0.25500000920E-02 0. -1.
    10030    2    1    2    0    0  0.00000000000E+00  0.00000000000E+00 -0.20434703824E+04  0.22860524541E+04  0.10248241894E+04 0.  0.
        4    1    3    3  502    0 -0.42980167255E+03  0.24067273997E+03 -0.13365034665E+04  0.14243931952E+04  0.12699999809E+01 0.  1.
       -4    1    3    3    0  502  0.42980167255E+03 -0.24067273997E+03 -0.70696691582E+03  0.86165925890E+03  0.12699999809E+01 0. -1.
</event>
<event>
 5   0  0.1245850E-02  0.9719382E+03  0.7818609E-02  0.9339870E-01
       -2   -1    0    0    0  501  0.00000000000E+00  0.00000000000E+00  0.12904772638E+03  0.12904772641E+03  0.25500000920E-02 0.  1.
        2   -1    0    0  501    0  0.00000000000E+00  0.00000000000E+00 -0.18300666766E+04  0.18300666766E+04  0.25500000920E-02 0. -1.
    10030    2    1    2    0    0  0.00000000000E+00  0.00000000000E+00 -0.17010189502E+04  0.19591144030E+04  0.97193815393E+03 0.  0.
        3    1    3    3  502    0 -0.23954194105E+02 -0.10164166174E+03 -0.18071841324E+04  0.18101986989E+04  0.10100000352E+00 0. -1.
       -3    1    3    3    0  502  0.23954194105E+02  0.10164166174E+03  0.10616518220E+03  0.14891570411E+03  0.10100000352E+00 0.  1.
</event>
<event>
 5   0  0.6967681E-03  0.1000887E+04  0.7818609E-02  0.9307572E-01
        1   -1    0    0  501    0  0.00000000000E+00  0.00000000000E+00  0.77054432028E+03  0.77054432029E+03  0.50400001928E-02 0.  1.
       -1   -1    0    0    0  501  0.00000000000E+00  0.00000000000E+00 -0.32502184615E+03  0.32502184619E+03  0.50400001928E-02 0. -1.
    10030    2    1    2    0    0  0.00000000000E+00  0.00000000000E+00  0.44552247413E+03  0.10955661665E+04  0.10008870816E+04 0.  0.
        5    1    3    3  502    0  0.17520359775E+03  0.46368633401E+03  0.14755744615E+03  0.51720074142E+03  0.46999998093E+01 0. -1.
       -5    1    3    3    0  502 -0.17520359775E+03 -0.46368633401E+03  0.29796502797E+03  0.57836542506E+03  0.46999998093E+01 0.  1.
</event>
<event>
 5   0  0.1216322E-02  0.9944591E+03  0.7818609E-02  0.9314643E-01
        2   -1    0    0  501    0  0.00000000000E+00  0.00000000000E+00  0.97170060603E+03  0.97170060603E+03  0.25500000920E-02 0. -1.
       -2   -1    0    0    0  501  0.00000000000E+00  0.00000000000E+00 -0.25443766350E+03  0.25443766351E+03  0.25500000920E-02 0.  1.
    10030    2    1    2    0    0  0.00000000000E+00  0.00000000000E+00  0.71726294253E+03  0.12261382695E+04  0.99445911295E+03 0.  0.
        2    1    3    3  502    0  0.46744386528E+03  0.31046199460E+02  0.56409621614E+03  0.73326132774E+03  0.25500000920E-02 0. -1.
       -2    1    3    3    0  502 -0.46744386528E+03 -0.31046199460E+02  0.15316672639E+03  0.49287694181E+03  0.25500000920E-02 0.  1.
</event>
<event>
 5   0  0.6967681E-03  0.9982717E+03  0.7818609E-02  0.9310442E-01
        1   -1    0    0  501    0  0.00000000000E+00  0.00000000000E+00  0.15847179915E+04  0.15847179915E+04  0.50400001928E-02 0. -1.
       -1   -1    0    0    0  501  0.00000000000E+00  0.00000000000E+00 -0.15721193550E+03  0.15721193559E+03  0.50400001928E-02 0.  1.
    10030    2    1    2    0    0  0.00000000000E+00  0.00000000000E+00  0.14275060560E+04  0.17419299271E+04  0.99827167195E+03 0.  0.
        5    1    3    3  502    0  0.66686106086E+02 -0.23896513240E+02  0.15758629269E+04  0.15774612942E+04  0.46999998093E+01 0. -1.
       -5    1    3    3    0  502 -0.66686106086E+02  0.23896513240E+02 -0.14835687090E+03  0.16446863297E+03  0.46999998093E+01 0.  1.
</event>
<event>
 5   0  0.1216322E-02  0.9978676E+03  0.7818609E-02  0.9310887E-01
       -2   -1    0    0    0  501  0.00000000000E+00  0.00000000000E+00  0.16886627323E+03  0.16886627325E+03  0.25500000920E-02 0. -1.
        2   -1    0    0  501    0  0.00000000000E+00  0.00000000000E+00 -0.14741542682E+04  0.14741542682E+04  0.25500000920E-02 0.  1.
    10030    2    1    2    0    0  0.00000000000E+00  0.00000000000E+00 -0.13052879950E+04  0.16430205415E+04  0.99786760136E+03 0.  0.
        2    1    3    3  502    0  0.39912504531E+03  0.27043968145E+03 -0.86412247034E+03  0.98951809829E+03  0.25500000920E-02 0.  1.
       -2    1    3    3    0  502 -0.39912504531E+03 -0.27043968145E+03 -0.44116552464E+03  0.65350244317E+03  0.25500000920E-02 0. -1.
</event>
<event>
 5   0  0.7224879E-03  0.9967405E+03  0.7818609E-02  0.9312127E-01
        1   -1    0    0  501    0  0.00000000000E+00  0.00000000000E+00  0.10017995889E+04  0.10017995889E+04  0.50400001928E-02 0.  1.
       -1   -1    0    0    0  501  0.00000000000E+00  0.00000000000E+00 -0.24792675287E+03  0.24792675292E+03  0.50400001928E-02 0. -1.
    10030    2    1    2    0    0  0.00000000000E+00  0.00000000000E+00  0.75387283602E+03  0.12497263418E+04  0.99674052620E+03 0.  0.
        3    1    3    3  502    0  0.46806376951E+03 -0.15032123544E+03  0.27436298878E+03  0.56298776715E+03  0.10100000352E+00 0. -1.
       -3    1    3    3    0  502 -0.46806376951E+03  0.15032123544E+03  0.47950984724E+03  0.68673857468E+03  0.10100000352E+00 0.  1.
</event>
<event>
 5   0  0.1245850E-02  0.1042837E+04  0.7818609E-02  0.9262771E-01
        2   -1    0    0  501    0  0.00000000000E+00  0.00000000000E+00  0.33587380592E+03  0.33587380593E+03  0.25500000920E-02 0.  1.
       -2   -1    0    0    0  501  0.00000000000E+00  0.00000000000E+00 -0.80946263166E+03  0.80946263166E+03  0.25500000920E-02 0. -1.
    10030    2    1    2    0    0  0.00000000000E+00  0.00000000000E+00 -0.47358882573E+03  0.11453364376E+04  0.10428370819E+04 0.  0.
        3    1    3    3  502    0 -0.11702415170E+03  0.43932740565E+03  0.43590092926E+02  0.45673113298E+03  0.10100000352E+00 0.  1.
       -3    1    3    3    0  502  0.11702415170E+03 -0.43932740565E+03 -0.51717891866E+03  0.68860530461E+03  0.10100000352E+00 0. -1.
</event>
<event>
 5   0  0.7461157E-03  0.9188717E+03  0.7818609E-02  0.9402294E-01
        1   -1    0    0  501    0  0.00000000000E+00  0.00000000000E+00  0.15089644445E+04  0.15089644445E+04  0.50400001928E-02 0. -1.
       -1   -1    0    0    0  501  0.00000000000E+00  0.00000000000E+00 -0.13988485994E+03  0.13988486003E+03  0.50400001928E-02 0.  1.
    10030    2    1    2    0    0  0.00000000000E+00  0.00000000000E+00  0.13690795845E+04  0.16488493045E+04  0.91887165602E+03 0.  0.
        2    1    3    3  502    0 -0.21063240092E+03 -0.81718518338E+02 -0.33315312934E+02  0.22837214068E+03  0.25500000920E-02 0.  1.
       -2    1    3    3    0  502  0.21063240092E+03  0.81718518338E+02  0.14023948975E+04  0.14204771638E+04  0.25500000920E-02 0. -1.
</event>
<event>
 5   0  0.7073004E-03  0.1017730E+04  0.7818609E-02  0.9289310E-01
        1   -1    0    0  501    0  0.00000000000E+00  0.00000000000E+00  0.91063711940E+03  0.91063711941E+03  0.50400001928E-02 0.  1.
       -1   -1    0    0    0  501  0.00000000000E+00  0.00000000000E+00 -0.28435406335E+03  0.28435406340E+03  0.50400001928E-02 0. -1.
    10030    2    1    2    0    0  0.00000000000E+00  0.00000000000E+00  0.62628305605E+03  0.11949911828E+04  0.10177295617E+04 0.  0.
        1    1    3    3  502    0 -0.35242439318E+03  0.13281095581E+03 -0.88662088434E+02  0.38691429134E+03  0.50400001928E-02 0. -1.
       -1    1    3    3    0  502  0.35242439318E+03 -0.13281095581E+03  0.71494514448E+03  0.80807689147E+03  0.50400001928E-02 0.  1.
</event>
<event>
 5   0  0.1216322E-02  0.1046200E+04  0.7818609E-02  0.9259276E-01
       -2   -1    0    0    0  501  0.00000000000E+00  0.00000000000E+00  0.42837527305E+03  0.42837527306E+03  0.25500000920E-02 0. -1.
        2   -1    0    0  501    0  0.00000000000E+00  0.00000000000E+00 -0.63877136817E+03  0.63877136817E+03  0.25500000920E-02 0.  1.
    10030    2    1    2    0    0  0.00000000000E+00  0.00000000000E+00 -0.21039609511E+03  0.10671466412E+04  0.10462004765E+04 0.  0.
        2    1    3    3  502    0 -0.40441277781E+03 -0.29183516612E+03 -0.26620767211E+03  0.56531759546E+03  0.25500000920E-02 0.  1.
       -2    1    3    3    0  502  0.40441277781E+03  0.29183516612E+03  0.55811577000E+02  0.50182904577E+03  0.25500000920E-02 0. -1.
</event>
<event>
 5   0  0.7224879E-03  0.1022220E+04  0.7818609E-02  0.9284504E-01
       -1   -1    0    0    0  501  0.00000000000E+00  0.00000000000E+00  0.31231207108E+03  0.31231207112E+03  0.50400001928E-02 0.  1.
        1   -1    0    0  501    0  0.00000000000E+00  0.00000000000E+00 -0.83645033990E+03  0.83645033992E+03  0.50400001928E-02 0. -1.
    10030    2    1    2    0    0  0.00000000000E+00  0.00000000000E+00 -0.52413826882E+03  0.11487624110E+04  0.10222202073E+04 0.  0.
        3    1    3    3  502    0 -0.38242532824E+03 -0.31868836475E+03 -0.39226474752E+03  0.63378470150E+03  0.10100000352E+00 0. -1.
       -3    1    3    3    0  502  0.38242532824E+03  0.31868836475E+03 -0.13187352131E+03  0.51497770954E+03  0.10100000352E+00 0.  1.
</event>
<event>
 5   0  0.1191822E-02  0.9933625E+03  0.7818609E-02  0.9315855E-01
        2   -1    0    0  501    0  0.00000000000E+00  0.00000000000E+00  0.99676979775E+03  0.99676979775E+03  0.25500000920E-02 0. -1.
       -2   -1    0    0    0  501  0.00000000000E+00  0.00000000000E+00 -0.24749173389E+03  0.24749173390E+03  0.25500000920E-02 0.  1.
    10030    2    1    2    0    0  0.00000000000E+00  0.00000000000E+00  0.74927806386E+03  0.12442615317E+04  0.99336254317E+03 0.  0.
        4    1    3    3  502    0 -0.30789295914E+03 -0.32024109217E+03  0.65286375994E+03  0.78967406779E+03  0.12699999809E+01 0. -1.
       -4    1    3    3    0  502  0.30789295914E+03  0.32024109217E+03  0.96414303923E+02  0.45458746387E+03  0.12699999809E+01 0.  1.
</event>
<event>
 5   0  0.1245850E-02  0.1015572E+04  0.7818609E-02  0.9291628E-01
       -2   -1    0    0    0  501  0.00000000000E+00  0.00000000000E+00  0.23891469632E+03  0.23891469633E+03  0.25500000920E-02 0. -1.
        2   -1    0    0  501    0  0.00000000000E+00  0.00000000000E+00 -0.10792421345E+04  0.10792421345E+04  0.25500000920E-02 0.  1.
    10030    2    1    2    0    0  0.00000000000E+00  0.00000000000E+00 -0.84032743823E+03  0.13181568309E+04  0.10155723644E+04 0.  0.
        3    1    3    3  502    0 -0.31125958392E+03 -0.39506271919E+03 -0.51092445865E+03  0.71693855617E+03  0.10100000352E+00 0. -1.
       -3    1    3    3    0  502  0.31125958392E+03  0.39506271919E+03 -0.32940297957E+03  0.60121827470E+03  0.10100000352E+00 0.  1.
</event>
<event>
 5   0  0.1221315E-02  0.9646619E+03  0.7818609E-02  0.9348175E-01
       -2   -1    0    0    0  501  0.00000000000E+00  0.00000000000E+00  0.36779513179E+03  0.36779513180E+03  0.25500000920E-02 0.  1.
        2   -1    0    0  501    0  0.00000000000E+00  0.00000000000E+00 -0.63253455331E+03  0.63253455331E+03  0.25500000920E-02 0. -1.
    10030    2    1    2    0    0  0.00000000000E+00  0.00000000000E+00 -0.26473942152E+03  0.10003296851E+04  0.96466186698E+03 0.  0.
        5    1    3    3  502    0 -0.77302815284E+02 -0.69290480641E+02  0.35604870391E+03  0.37090384942E+03  0.46999998093E+01 0.  1.
       -5    1    3    3    0  502  0.77302815284E+02  0.69290480641E+02 -0.62078812543E+03  0.62942583569E+03  0.46999998093E+01 0. -1.
</event>
<event>
 5   0  0.7241200E-03  0.9976269E+03  0.7818609E-02  0.9311151E-01
        1   -1    0    0  501    0  0.00000000000E+00  0.00000000000E+00  0.15312258295E+04  0.15312258295E+04  0.50400001928E-02 0. -1.
       -1   -1    0    0    0  501  0.00000000000E+00  0.00000000000E+00 -0.16249390895E+03  0.16249390903E+03  0.50400001928E-02 0.  1.
    10030    2    1    2    0    0  0.00000000000E+00  0.00000000000E+00  0.13687319205E+04  0.16937197385E+04  0.99762692545E+03 0.  0.
        4    1    3    3  502    0 -0.67455248151E+02  0.47264397977E+03  0.43909730123E+03  0.64865290793E+03  0.12699999809E+01 0. -1.
       -4    1    3    3    0  502  0.67455248151E+02 -0.47264397977E+03  0.92963461929E+03  0.10450668306E+04  0.12699999809E+01 0.  1.
</event>
<event>
 5   0  0.7224879E-03  0.1012911E+04  0.7818609E-02  0.9294496E-01
        1   -1    0    0  501    0  0.00000000000E+00  0.00000000000E+00  0.28617229548E+03  0.28617229552E+03  0.50400001928E-02 0. -1.
       -1   -1    0    0    0  501  0.00000000000E+00  0.00000000000E+00 -0.89630386837E+03  0.89630386839E+03  0.50400001928E-02 0.  1.
    10030    2    1    2    0    0  0.00000000000E+00  0.00000000000E+00 -0.61013157289E+03  0.11824761639E+04  0.10129113199E+04 0.  0.
        3    1    3    3  502    0 -0.41510367819E+03 -0.21214306106E+03 -0.53614557483E+03  0.71047014688E+03  0.10100000352E+00 0.  1.
       -3    1    3    3    0  502  0.41510367819E+03  0.21214306106E+03 -0.73985998069E+02  0.47200601703E+03  0.10100000352E+00 0. -1.
</event>
<event>
 5   0  0.6967681E-03  0.9944676E+03  0.7818609E-02  0.9314634E-01
        1   -1    0    0  501    0  0.00000000000E+00  0.00000000000E+00  0.16254351744E+04  0.16254351744E+04  0.50400001928E-02 0.  1.
       -1   -1    0    0    0  501  0.00000000000E+00  0.00000000000E+00 -0.15210784176E+03  0.15210784185E+03  0.50400001928E-02 0. -1.
    10030    2    1    2    0    0  0.00000000000E+00  0.00000000000E+00  0.14733273327E+04  0.17775430163E+04  0.99446756889E+03 0.  0.
        5    1    3    3  502    0  0.32057594428E+03 -0.11459696399E+03  0.13843899727E+04  0.14256433939E+04  0.46999998093E+01 0.  1.
       -5    1    3    3    0  502 -0.32057594428E+03  0.11459696399E+03  0.88937359972E+02  0.35189962234E+03  0.46999998093E+01 0. -1.
</event>
<event>
 5   0  0.1191822E-02  0.1016324E+04  0.7818609E-02  0.9290820E-01
        2   -1    0    0  501    0  0.00000000000E+00  0.00000000000E+00  0.19279975647E+04  0.19279975647E+04  0.25500000920E-02 0. -1.
       -2   -1    0    0    0  501  0.00000000000E+00  0.00000000000E+00 -0.13393611778E+03  0.13393611780E+03  0.25500000920E-02 0.  1.
    10030    2    1    2    0    0  0.00000000000E+00  0.00000000000E+00  0.17940614470E+04  0.20619336825E+04  0.10163237849E+04 0.  0.
        4    1    3    3  502    0  0.38639657296E+03  0.26819306780E+03  0.50679571574E+03  0.69142848047E+03  0.12699999809E+01 0.  1.
       -4    1    3    3    0  502 -0.38639657296E+03 -0.26819306780E+03  0.12872657312E+04  0.13705052021E+04  0.12699999809E+01 0. -1.
</event>
<event>
 5   0  0.1240503E-02  0.9984027E+03  0.7818609E-02  0.9310298E-01
        2   -1    0    0  501    0  0.00000000000E+00  0.00000000000E+00  0.82612535247E+03  0.82612535247E+03  0.25500000920E-02 0. -1.
       -2   -1    0    0    0  501  0.00000000000E+00  0.00000000000E+00 -0.30165153309E+03  0.30165153310E+03  0.25500000920E-02 0.  1.
    10030    2    1    2    0    0  0.00000000000E+00  0.00000000000E+00  0.52447381938E+03  0.11277768856E+04  0.99840268249E+03 0.  0.
        1    1    3    3  502    0 -0.12486534591E+02 -0.10684629012E+03 -0.28840343118E+03  0.30781257674E+03  0.50400001928E-02 0.  1.
       -1    1    3    3    0  502  0.12486534591E+02  0.10684629012E+03  0.81287725056E+03  0.81996430883E+03  0.50400001928E-02 0. -1.
</event>
<event>
 5   0  0.1221315E-02  0.1015487E+04  0.7818609E-02  0.9291720E-01
        2   -1    0    0  501    0  0.00000000000E+00  0.00000000000E+00  0.11830278716E+04  0.11830278716E+04  0.25500000920E-02 0.  1.
       -2   -1    0    0    0  501  0.00000000000E+00  0.00000000000E+00 -0.21791828146E+03  0.21791828148E+03  0.25500000920E-02 0. -1.
    10030    2    1    2    0    0  0.00000000000E+00  0.00000000000E+00  0.96510959016E+03  0.14009461531E+04  0.10154868797E+04 0.  0.
        5    1    3    3  502    0  0.16906473038E+03  0.44613010623E+03  0.72216678851E+03  0.86554140003E+03  0.46999998093E+01 0.  1.
       -5    1    3    3    0  502 -0.16906473038E+03 -0.44613010623E+03  0.24294280166E+03  0.53540475308E+03  0.46999998093E+01 0. -1.
</event>
<event>
 5   0  0.1191822E-02  0.1002950E+04  0.7818609E-02  0.9305315E-01
        2   -1    0    0  501    0  0.00000000000E+00  0.00000000000E+00  0.14912746495E+04  0.14912746495E+04  0.25500000920E-02 0. -1.
       -2   -1    0    0    0  501  0.00000000000E+00  0.00000000000E+00 -0.16863231466E+03  0.16863231468E+03  0.25500000920E-02 0.  1.
    10030    2    1    2    0    0  0.00000000000E+00  0.00000000000E+00  0.13226423348E+04  0.16599069641E+04  0.10029498411E+04 0.  0.
        4    1    3    3  502    0  0.26247799628E+03  0.24657139989E+03  0.12388829583E+04  0.12901646217E+04  0.12699999809E+01 0. -1.
       -4    1    3    3    0  502 -0.26247799628E+03 -0.24657139989E+03  0.83759376534E+02  0.36974234249E+03  0.12699999809E+01 0.  1.
</event>
<event>
 5   0  0.1216322E-02  0.1010145E+04  0.7818609E-02  0.9297488E-01
        2   -1    0    0  501    0  0.00000000000E+00  0.00000000000E+00  0.67189582299E+03  0.67189582299E+03  0.25500000920E-02 0.  1.
       -2   -1    0    0    0  501  0.00000000000E+00  0.00000000000E+00 -0.37966899176E+03  0.37966899177E+03  0.25500000920E-02 0. -1.
    10030    2    1    2    0    0  0.00000000000E+00  0.00000000000E+00  0.29222683122E+03  0.10515648148E+04  0.10101445633E+04 0.  0.
        2    1    3    3  502    0  0.14114415896E+03 -0.38957318733E+03  0.44676199022E+03  0.60933177974E+03  0.25500000920E-02 0.  1.
       -2    1    3    3    0  502 -0.14114415896E+03  0.38957318733E+03 -0.15453515899E+03  0.44223303502E+03  0.25500000920E-02 0. -1.
</event>
<event>
 5   0  0.1221315E-02  0.9664325E+03  0.7818609E-02  0.9346147E-01
        2   -1    0    0  501    0  0.00000000000E+00  0.00000000000E+00  0.38990834964E+03  0.38990834965E+03  0.25500000920E-02 0. -1.
       -2   -1    0    0    0  501  0.00000000000E+00  0.00000000000E+00 -0.59885335266E+03  0.59885335266E+03  0.25500000920E-02 0.  1.
    10030    2    1    2    0    0  0.00000000000E+00  0.00000000000E+00 -0.20894500302E+03  0.98876170231E+03  0.96643245479E+03 0.  0.
        5    1    3    3  502    0 -0.99124447864E+02 -0.42712956793E+03 -0.31216658111E+03  0.53827073887E+03  0.46999998093E+01 0.  1.
       -5    1    3    3    0  502  0.99124447864E+02  0.42712956793E+03  0.10322157809E+03  0.45049096344E+03  0.46999998093E+01 0. -1.
</event>
<event>
 5   0  0.1221315E-02  0.9902888E+03  0.7818609E-02  0.9319260E-01
        2   -1    0    0  501    0  0.00000000000E+00  0.00000000000E+00  0.87061142726E+03  0.87061142727E+03  0.25500000920E-02 0. -1.
       -2   -1    0    0    0  501  0.00000000000E+00  0.00000000000E+00 -0.28160434058E+03  0.28160434059E+03  0.25500000920E-02 0.  1.
    10030    2    1    2    0    0  0.00000000000E+00  0.00000000000E+00  0.58900708669E+03  0.11522157679E+04  0.99028875967E+03 0.  0.
        5    1    3    3  502    0 -0.27512294668E+03  0.29484243741E+03  0.62874063854E+03  0.74696825852E+03  0.46999998093E+01 0. -1.
       -5    1    3    3    0  502  0.27512294668E+03 -0.29484243741E+03 -0.39733551846E+02  0.40524750934E+03  0.46999998093E+01 0.  1.
</event>
<event>
 5   0  0.7461157E-03  0.9993247E+03  0.7818609E-02  0.9309286E-01
       -1   -1    0    0    0  501  0.00000000000E+00  0.00000000000E+00  0.95058945033E+03  0.95058945034E+03  0.50400001928E-02 0.  1.
        1   -1    0    0  501    0  0.00000000000E+00  0.00000000000E+00 -0.26263965548E+03  0.26263965553E+03  0.50400001928E-02 0. -1.
    10030    2    1    2    0    0  0.00000000000E+00  0.00000000000E+00  0.68794979485E+03  0.12132291059E+04  0.99932474356E+03 0.  0.
        2    1    3    3  502    0 -0.55836128424E+02  0.48650516174E+03  0.22343787566E+03  0.53826520408E+03  0.25500000920E-02 0. -1.
       -2    1    3    3    0  502  0.55836128424E+02 -0.48650516174E+03  0.46451191920E+03  0.67496390179E+03  0.25500000920E-02 0.  1.
</event>
<event>
 5   0  0.7461157E-03  0.1025268E+04  0.7818609E-02  0.9281257E-01
        1   -1    0    0  501    0  0.00000000000E+00  0.00000000000E+00  0.15393904844E+04  0.15393904844E+04  0.50400001928E-02 0.  1.
       -1   -1    0    0    0  501  0.00000000000E+00  0.00000000000E+00 -0.17071286420E+03  0.17071286427E+03  0.50400001928E-02 0. -1.
    10030    2    1    2    0    0  0.00000000000E+00  0.00000000000E+00  0.13686776202E+04  0.17101033487E+04  0.10252682747E+04 0.  0.
        2    1    3    3  502    0 -0.11425365634E+03 -0.24648399032E+03  0.14094407787E+04  0.14353855106E+04  0.25500000920E-02 0.  1.
       -2    1    3    3    0  502  0.11425365634E+03  0.24648399032E+03 -0.40763158448E+02  0.27471783809E+03  0.25500000920E-02 0. -1.
</event>
<event>
 5   0  0.4782125E-03  0.1001089E+04  0.7818609E-02  0.9307351E-01
        4   -1    0    0  501    0  0.00000000000E+00  0.00000000000E+00  0.37546176945E+03  0.37546391733E+03  0.12699999809E+01 0. -1.
       -4   -1    0    0    0  501  0.00000000000E+00  0.00000000000E+00 -0.66729327655E+03  0.66729448508E+03  0.12699999809E+01 0.  1.
    10030    2    1    2    0    0  0.00000000000E+00  0.00000000000E+00 -0.29183150709E+03  0.10427584024E+04  0.10010891355E+04 0.  0.
        4    1    3    3  502    0  0.34070572390E+03 -0.34850568316E+03 -0.27121980687E+02  0.48813299031E+03  0.12699999809E+01 0. -1.
       -4    1    3    3    0  502 -0.34070572390E+03  0.34850568316E+03 -0.26470952641E+03  0.55462541211E+03  0.12699999809E+01 0.  1.
</event>
<event>
 5   0  0.6967681E-03  0.7548063E+03  0.7818609E-02  0.9627840E-01
        1   -1    0    0  501    0  0.00000000000E+00  0.00000000000E+00  0.87861715372E+03  0.87861715373E+03  0.50400001928E-02 0. -1.
       -1   -1    0    0    0  501  0.00000000000E+00  0.00000000000E+00 -0.16211056080E+03  0.16211056088E+03  0.50400001928E-02 0.  1.
    10030    2    1    2    0    0  0.00000000000E+00  0.00000000000E+00  0.71650659291E+03  0.10407277146E+04  0.75480625215E+03 0.  0.
        5    1    3    3  502    0 -0.33538784014E+03 -0.17225220853E+03  0.33622684969E+03  0.50519937758E+03  0.46999998093E+01 0.  1.
       -5    1    3    3    0  502  0.33538784014E+03  0.17225220853E+03  0.38027974323E+03  0.53552833703E+03  0.46999998093E+01 0. -1.
</event>
<event>
 5   0  0.1245850E-02  0.1021206E+04  0.7818609E-02  0.9285587E-01
       -2   -1    0    0    0  501  0.00000000000E+00  0.00000000000E+00  0.11586434451E+03  0.11586434453E+03  0.25500000920E-02 0.  1.
        2   -1    0    0  501    0  0.00000000000E+00  0.00000000000E+00 -0.22501780310E+04  0.22501780310E+04  0.25500000920E-02 0. -1.
    10030    2    1    2    0    0  0.00000000000E+00  0.00000000000E+00 -0.21343136865E+04  0.23660423756E+04  0.10212059589E+04 0.  0.
        3    1    3    3  502    0  0.25231628441E+03 -0.57090379000E+02 -0.47209517928E+02  0.26296685635E+03  0.10100000352E+00 0.  1.
       -3    1    3    3    0  502 -0.25231628441E+03  0.57090379000E+02 -0.20871041686E+04  0.21030755192E+04  0.10100000352E+00 0. -1.
</event>
<event>
 5   0  0.7073004E-03  0.1011665E+04  0.7818609E-02  0.9295843E-01
       -1   -1    0    0    0  501  0.00000000000E+00  0.00000000000E+00  0.14977689993E+03  0.14977690002E+03  0.50400001928E-02 0. -1.
        1   -1    0    0  501    0  0.00000000000E+00  0.00000000000E+00 -0.17083169397E+04  0.17083169397E+04  0.50400001928E-02 0.  1.
    10030    2    1    2    0    0  0.00000000000E+00  0.00000000000E+00 -0.15585400398E+04  0.18580938397E+04  0.10116647971E+04 0.  0.
        1    1    3    3  502    0 -0.17307943017E+03  0.15065808873E+02 -0.16518000400E+04  0.16609114485E+04  0.50400001928E-02 0.  1.
       -1    1    3    3    0  502  0.17307943017E+03 -0.15065808873E+02  0.93260000194E+02  0.19718239121E+03  0.50400001928E-02 0. -1.
</event>
<event>
 5   0  0.7461157E-03  0.8338789E+03  0.7818609E-02  0.9512233E-01
       -1   -1    0    0    0  501  0.00000000000E+00  0.00000000000E+00  0.99804641212E+03  0.99804641213E+03  0.50400001928E-02 0. -1.
        1   -1    0    0  501    0  0.00000000000E+00  0.00000000000E+00 -0.17417876265E+03  0.17417876272E+03  0.50400001928E-02 0.  1.
    10030    2    1    2    0    0  0.00000000000E+00  0.00000000000E+00  0.82386764947E+03  0.11722251749E+04  0.83387886213E+03 0.  0.
        2    1    3    3  502    0  0.29393132297E+03 -0.29570063653E+03  0.41474536039E+03  0.58808860135E+03  0.25500000920E-02 0.  1.
       -2    1    3    3    0  502 -0.29393132297E+03  0.29570063653E+03  0.40912228908E+03  0.58413657350E+03  0.25500000920E-02 0. -1.
</event>
<event>
 5   0  0.6967681E-03  0.9769406E+03  0.7818609E-02  0.9334204E-01
       -1   -1    0    0    0  501  0.00000000000E+00  0.00000000000E+00  0.26831713404E+03  0.26831713409E+03  0.50400001928E-02 0. -1.
        1   -1    0    0  501    0  0.00000000000E+00  0.00000000000E+00 -0.88925834270E+03  0.88925834272E+03  0.50400001928E-02 0.  1.
    10030    2    1    2    0    0  0.00000000000E+00  0.00000000000E+00 -0.62094120866E+03  0.11575754768E+04  0.97694063273E+03 0.  0.
        5    1    3    3  502    0 -0.38203196176E+02  0.47664210435E+03 -0.19237253763E+03  0.51543812730E+03  0.46999998093E+01 0. -1.
       -5    1    3    3    0  502  0.38203196176E+02 -0.47664210435E+03 -0.42856867103E+03  0.64213734950E+03  0.46999998093E+01 0.  1.
</event>
<event>
 5   0  0.1216322E-02  0.9908838E+03  0.7818609E-02  0.9318600E-01
       -2   -1    0    0    0  501  0.00000000000E+00  0.00000000000E+00  0.34785621041E+03  0.34785621041E+03  0.25500000920E-02 0. -1.
        2   -1    0    0  501    0  0.00000000000E+00  0.00000000000E+00 -0.70564415093E+03  0.70564415093E+03  0.25500000920E-02 0.  1.
    10030    2    1    2    0    0  0.00000000000E+00  0.00000000000E+00 -0.35778794052E+03  0.10535003613E+04  0.99088384838E+03 0.  0.
        2    1    3    3  502    0 -0.12091895484E+02 -0.11441587244E+03  0.33345620327E+03  0.35274671552E+03  0.25500000920E-02 0. -1.
       -2    1    3    3    0  502  0.12091895484E+02  0.11441587244E+03 -0.69124414380E+03  0.70075364583E+03  0.25500000920E-02 0.  1.
</event>
<event>
 5   0  0.1191822E-02  0.1001600E+04  0.7818609E-02  0.9306792E-01
       -2   -1    0    0    0  501  0.00000000000E+00  0.00000000000E+00  0.68317447344E+03  0.68317447344E+03  0.25500000920E-02 0. -1.
        2   -1    0    0  501    0  0.00000000000E+00  0.00000000000E+00 -0.36711049758E+03  0.36711049759E+03  0.25500000920E-02 0.  1.
    10030    2    1    2    0    0  0.00000000000E+00  0.00000000000E+00  0.31606397586E+03  0.10502849710E+04  0.10015997622E+04 0.  0.
        4    1    3    3  502    0 -0.23323826053E+03 -0.42200107889E+03  0.16125095217E+02  0.48243821196E+03  0.12699999809E+01 0.  1.
       -4    1    3    3    0  502  0.23323826053E+03  0.42200107889E+03  0.29993888064E+03  0.56784675907E+03  0.12699999809E+01 0. -1.
</event>
<event>
 5   0  0.7224879E-03  0.1005328E+04  0.7818609E-02  0.9302721E-01
       -1   -1    0    0    0  501  0.00000000000E+00  0.00000000000E+00  0.55254595679E+03  0.55254595681E+03  0.50400001928E-02 0. -1.
        1   -1    0    0  501    0  0.00000000000E+00  0.00000000000E+00 -0.45728492945E+03  0.45728492947E+03  0.50400001928E-02 0.  1.
    10030    2    1    2    0    0  0.00000000000E+00  0.00000000000E+00  0.95261027343E+02  0.10098308863E+04  0.10053276857E+04 0.  0.
        3    1    3    3  502    0 -0.90150612805E+02  0.22959105183E+03  0.48757840984E+03  0.54641733137E+03  0.10100000352E+00 0. -1.
       -3    1    3    3    0  502  0.90150612805E+02 -0.22959105183E+03 -0.39231738250E+03  0.46341355492E+03  0.10100000352E+00 0.  1.
</event>
<event>
 5   0  0.1216322E-02  0.1005115E+04  0.7818609E-02  0.9302953E-01
        2   -1    0    0  501    0  0.00000000000E+00  0.00000000000E+00  0.15120861080E+03  0.15120861082E+03  0.25500000920E-02 0.  1.
       -2   -1    0    0    0  501  0.00000000000E+00  0.00000000000E+00 -0.16703017474E+04  0.16703017474E+04  0.25500000920E-02 0. -1.
    10030    2    1    2    0    0  0.00000000000E+00  0.00000000000E+00 -0.15190931366E+04  0.18215103582E+04  0.10051149324E+04 0.  0.
        2    1    3    3  502    0  0.60062745597E+02 -0.44066855153E+03 -0.11836562395E+04  0.12644518176E+04  0.25500000920E-02 0. -1.
       -2    1    3    3    0  502 -0.60062745597E+02  0.44066855153E+03 -0.33543689706E+03  0.55705854058E+03  0.25500000920E-02 0.  1.
</event>
<event>
 5   0  0.6967681E-03  0.9911876E+03  0.7818609E-02  0.9318263E-01
        1   -1    0    0  501    0  0.00000000000E+00  0.00000000000E+00  0.30724015877E+03  0.30724015881E+03  0.50400001928E-02 0. -1.
       -1   -1    0    0    0  501  0.00000000000E+00  0.00000000000E+00 -0.79941772162E+03  0.79941772164E+03  0.50400001928E-02 0.  1.
    10030    2    1    2    0    0  0.00000000000E+00  0.00000000000E+00 -0.49217756285E+03  0.11066578805E+04  0.99118762653E+03 0.  0.
        5    1    3    3  502    0  0.18875154634E+03 -0.91762988395E+02 -0.74732443590E+03  0.77624963432E+03  0.46999998093E+01 0.  1.
       -5    1    3    3    0  502 -0.18875154634E+03  0.91762988395E+02  0.25514687305E+03  0.33040824613E+03  0.46999998093E+01 0. -1.
</event>
<event>
 5   0  0.4782125E-03  0.1002039E+04  0.7818609E-02  0.9306311E-01
       -3   -1    0    0    0  501  0.00000000000E+00  0.00000000000E+00  0.61450418087E+03  0.61450418917E+03  0.10100000352E+00 0. -1.
        3   -1    0    0  501    0  0.00000000000E+00  0.00000000000E+00 -0.40849273164E+03  0.40849274413E+03  0.10100000352E+00 0.  1.
    10030    2    1    2    0    0  0.00000000000E+00  0.00000000000E+00  0.20601144922E+03  0.10229969333E+04  0.10020389256E+04 0.  0.
        4    1    3    3  502    0  0.35860355992E+02  0.49305736163E+03  0.18611702781E+03  0.52823544743E+03  0.12699999809E+01 0. -1.
       -4    1    3    3    0  502 -0.35860355992E+02 -0.49305736163E+03  0.19894421418E+02  0.49476148586E+03  0.12699999809E+01 0.  1.
</event>
<event>
 5   0  0.7241200E-03  0.8648067E+03  0.7818609E-02  0.9470677E-01
        1   -1    0    0  501    0  0.00000000000E+00  0.00000000000E+00  0.94134964377E+03  0.94134964378E+03  0.50400001928E-02 0. -1.
       -1   -1    0    0    0  501  0.00000000000E+00  0.00000000000E+00 -0.19862190121E+03  0.19862190127E+03  0.50400001928E-02 0.  1.
    10030    2    1    2    0    0  0.00000000000E+00  0.00000000000E+00  0.74272774256E+03  0.11399715450E+04  0.86480669745E+03 0.  0.
        4    1    3    3  502    0 -0.35400569484E+03  0.66500174283E+02  0.56021701976E+02  0.36453031308E+03  0.12699999809E+01 0.  1.
       -4    1    3    3    0  502  0.35400569484E+03 -0.66500174283E+02  0.68670604059E+03  0.77544123197E+03  0.12699999809E+01 0. -1.
</event>
<event>
 5   0  0.7461157E-03  0.9243418E+03  0.7818609E-02  0.9395654E-01
       -1   -1    0    0    0  501  0.00000000000E+00  0.00000000000E+00  0.31913816173E+03  0.31913816177E+03  0.50400001928E-02 0. -1.
        1   -1    0    0  501    0  0.00000000000E+00  0.00000000000E+00 -0.66930863445E+03  0.66930863446E+03  0.50400001928E-02 0.  1.
    10030    2    1    2    0    0  0.00000000000E+00  0.00000000000E+00 -0.35017047271E+03  0.98844679624E+03  0.92434177068E+03 0.  0.
        2    1    3    3  502    0 -0.15106894995E+03 -0.17156249620E+03 -0.60462203074E+03  0.64639254158E+03  0.25500000920E-02 0.  1.
       -2    1    3    3    0  502  0.15106894995E+03  0.17156249620E+03  0.25445155803E+03  0.34205425466E+03  0.25500000920E-02 0. -1.
</event>
<event>
 5   0  0.6967681E-03  0.1000653E+04  0.7818609E-02  0.9307829E-01
       -1   -1    0    0    0  501  0.00000000000E+00  0.00000000000E+00  0.78335910248E+03  0.78335910250E+03  0.50400001928E-02 0. -1.
        1   -1    0    0  501    0  0.00000000000E+00  0.00000000000E+00 -0.31955554667E+03  0.31955554671E+03  0.50400001928E-02 0.  1.
    10030    2    1    2    0    0  0.00000000000E+00  0.00000000000E+00  0.46380355581E+03  0.11029146492E+04  0.10006532791E+04 0.  0.
        5    1    3    3  502    0 -0.15215496219E+03  0.77081267564E+02  0.75029895187E+03  0.76945647148E+03  0.46999998093E+01 0. -1.
       -5    1    3    3    0  502  0.15215496219E+03 -0.77081267564E+02 -0.28649539606E+03  0.33345817772E+03  0.46999998093E+01 0.  1.
</event>
<event>
 5   0  0.7073004E-03  0.9788814E+03  0.7818609E-02  0.9332015E-01
        1   -1    0    0  501    0  0.00000000000E+00  0.00000000000E+00  0.49949657818E+03  0.49949657821E+03  0.50400001928E-02 0. -1.
       -1   -1    0    0    0  501  0.00000000000E+00  0.00000000000E+00 -0.47958723225E+03  0.47958723227E+03  0.50400001928E-02 0.  1.
    10030    2    1    2    0    0  0.00000000000E+00  0.00000000000E+00  0.19909345936E+02  0.97908381048E+03  0.97888136457E+03 0.  0.
        1    1    3    3  502    0 -0.29417948609E+03 -0.14155506846E+03 -0.35477506373E+03  0.48212524650E+03  0.50400001928E-02 0.  1.
       -1    1    3    3    0  502  0.29417948609E+03  0.14155506846E+03  0.37468440966E+03  0.49695856398E+03  0.50400001928E-02 0. -1.
</event>
<event>
 5   0  0.1245850E-02  0.9247583E+03  0.7818609E-02  0.9395151E-01
        2   -1    0    0  501    0  0.00000000000E+00  0.00000000000E+00  0.52834238677E+03  0.52834238677E+03  0.25500000920E-02 0. -1.
       -2   -1    0    0    0  501  0.00000000000E+00  0.00000000000E+00 -0.40465136502E+03  0.40465136503E+03  0.25500000920E-02 0.  1.
    10030    2    1    2    0    0  0.00000000000E+00  0.00000000000E+00  0.12369102174E+03  0.93299375181E+03  0.92475827763E+03 0.  0.
        3    1    3    3  502    0 -0.23896209085E+03 -0.33605835329E+02  0.45977175308E+03  0.51925168094E+03  0.10100000352E+00 0. -1.
       -3    1    3    3    0  502  0.23896209085E+03  0.33605835329E+02 -0.33608073133E+03  0.41374207087E+03  0.10100000352E+00 0.  1.
</event>
<event>
 5   0  0.1245850E-02  0.9404941E+03  0.7818609E-02  0.9376331E-01
       -2   -1    0    0    0  501  0.00000000000E+00  0.00000000000E+00  0.62010974274E+03  0.62010974275E+03  0.25500000920E-02 0.  1.
        2   -1    0    0  501    0  0.00000000000E+00  0.00000000000E+00 -0.35660187084E+03  0.35660187085E+03  0.25500000920E-02 0. -1.
    10030    2    1    2    0    0  0.00000000000E+00  0.00000000000E+00  0.26350787190E+03  0.97671161360E+03  0.94049411354E+03 0.  0.
        3    1    3    3  502    0 -0.13699277791E+03  0.23559812575E+03 -0.26622513803E+03  0.38098468785E+03  0.10100000352E+00 0. -1.
       -3    1    3    3    0  502  0.13699277791E+03 -0.23559812575E+03  0.52973300993E+03  0.59572692575E+03  0.10100000352E+00 0.  1.
</event>
<event>
 5   0  0.6967681E-03  0.9988537E+03  0.7818609E-02  0.9309803E-01
       -1   -1    0    0    0  501  0.00000000000E+00  0.00000000000E+00  0.22548077523E+03  0.22548077529E+03  0.50400001928E-02 0. -1.
        1   -1    0    0  501    0  0.00000000000E+00  0.00000000000E+00 -0.11062015543E+04  0.11062015543E+04  0.50400001928E-02 0.  1.
    10030    2    1    2    0    0  0.00000000000E+00  0.00000000000E+00 -0.88072077906E+03  0.13316823296E+04  0.99885371114E+03 0.  0.
        5    1    3    3  502    0  0.40755150460E+03  0.28860440149E+03 -0.44541334717E+03  0.66918298640E+03  0.46999998093E+01 0.  1.
       -5    1    3    3    0  502 -0.40755150460E+03 -0.28860440149E+03 -0.43530743189E+03  0.66249934318E+03  0.46999998093E+01 0. -1.
</event>
<event>
 5   0  0.7224879E-03  0.1002850E+04  0.7818609E-02  0.9305425E-01
        1   -1    0    0  501    0  0.00000000000E+00  0.00000000000E+00  0.59494134931E+03  0.59494134933E+03  0.50400001928E-02 0. -1.
       -1   -1    0    0    0  501  0.00000000000E+00  0.00000000000E+00 -0.42260777356E+03  0.42260777359E+03  0.50400001928E-02 0.  1.
    10030    2    1    2    0    0  0.00000000000E+00  0.00000000000E+00  0.17233357575E+03  0.10175491229E+04  0.10028496180E+04 0.  0.
        3    1    3    3  502    0  0.36918689426E+03  0.23984510876E+03  0.32968927336E+03  0.55001787813E+03  0.10100000352E+00 0. -1.
       -3    1    3    3    0  502 -0.36918689426E+03 -0.23984510876E+03 -0.15735569760E+03  0.46753124480E+03  0.10100000352E+00 0.  1.
</event>
<event>
 5   0  0.7224879E-03  0.9926972E+03  0.7818609E-02  0.9316591E-01
       -1   -1    0    0    0  501  0.00000000000E+00  0.00000000000E+00  0.26649063220E+03  0.26649063224E+03  0.50400001928E-02 0.  1.
        1   -1    0    0  501    0  0.00000000000E+00  0.00000000000E+00 -0.92446757560E+03  0.92446757562E+03  0.50400001928E-02 0. -1.
    10030    2    1    2    0    0  0.00000000000E+00  0.00000000000E+00 -0.65797694341E+03  0.11909582079E+04  0.99269723220E+03 0.  0.
        3    1    3    3  502    0 -0.73128205066E+01  0.42586723869E+03 -0.23246944204E+02  0.42656396114E+03  0.10100000352E+00 0.  1.
       -3    1    3    3    0  502  0.73128205066E+01 -0.42586723869E+03 -0.63472999920E+03  0.76439424672E+03  0.10100000352E+00 0. -1.
</event>
<event>
 5   0  0.1216322E-02  0.1005405E+04  0.7818609E-02  0.9302636E-01
        2   -1    0    0  501    0  0.00000000000E+00  0.00000000000E+00  0.69692155485E+03  0.69692155486E+03  0.25500000920E-02 0.  1.
       -2   -1    0    0    0  501  0.00000000000E+00  0.00000000000E+00 -0.36260884052E+03  0.36260884052E+03  0.25500000920E-02 0. -1.
    10030    2    1    2    0    0  0.00000000000E+00  0.00000000000E+00  0.33431271434E+03  0.10595303954E+04  0.10054052257E+04 0.  0.
        2    1    3    3  502    0 -0.16672545054E+03  0.39456272483E+03  0.44444253502E+03  0.61725706689E+03  0.25500000920E-02 0.  1.
       -2    1    3    3    0  502  0.16672545054E+03 -0.39456272483E+03 -0.11012982069E+03  0.44227332849E+03  0.25500000920E-02 0. -1.
</event>
<event>
 5   0  0.1216322E-02  0.1006640E+04  0.7818609E-02  0.9301292E-01
       -2   -1    0    0    0  501  0.00000000000E+00  0.00000000000E+00  0.59703260804E+03  0.59703260805E+03  0.25500000920E-02 0.  1.
        2   -1    0    0  501    0  0.00000000000E+00  0.00000000000E+00 -0.42431722947E+03  0.42431722948E+03  0.25500000920E-02 0. -1.
    10030    2    1    2    0    0  0.00000000000E+00  0.00000000000E+00  0.17271537857E+03  0.10213498375E+04  0.10066403969E+04 0.  0.
        2    1    3    3  502    0 -0.28181145607E+03  0.60242665788E+02  0.50504281558E+03  0.58147667291E+03  0.25500000920E-02 0.  1.
       -2    1    3    3    0  502  0.28181145607E+03 -0.60242665788E+02 -0.33232743701E+03  0.43987316462E+03  0.25500000920E-02 0. -1.
</event>
<event>
 5   0  0.7241200E-03  0.9922257E+03  0.7818609E-02  0.9317113E-01
        1   -1    0    0  501    0  0.00000000000E+00  0.00000000000E+00  0.11532513342E+04  0.11532513342E+04  0.50400001928E-02 0. -1.
       -1   -1    0    0    0  501  0.00000000000E+00  0.00000000000E+00 -0.21342092896E+03  0.21342092902E+03  0.50400001928E-02 0.  1.
    10030    2    1    2    0    0  0.00000000000E+00  0.00000000000E+00  0.93983040523E+03  0.13666722632E+04  0.99222572254E+03 0.  0.
        4    1    3    3  502    0 -0.15053848656E+03  0.50049456022E+02 -0.17754087382E+03  0.23809485244E+03  0.12699999809E+01 0.  1.
       -4    1    3    3    0  502  0.15053848656E+03 -0.50049456022E+02  0.11173712791E+04  0.11285774108E+04  0.12699999809E+01 0. -1.
</event>
<event>
 5   0  0.1240503E-02  0.9835728E+03  0.7818609E-02  0.9326748E-01
        2   -1    0    0  501    0  0.00000000000E+00  0.00000000000E+00  0.61519896434E+03  0.61519896434E+03  0.25500000920E-02 0.  1.
       -2   -1    0    0    0  501  0.00000000000E+00  0.00000000000E+00 -0.39313116601E+03  0.39313116602E+03  0.25500000920E-02 0. -1.
    10030    2    1    2    0    0  0.00000000000E+00  0.00000000000E+00  0.22206779832E+03  0.10083301304E+04  0.98357284669E+03 0.  0.
        1    1    3    3  502    0  0.96132970139E+02 -0.17904146503E+03 -0.34807380046E+03  0.40305429503E+03  0.50400001928E-02 0. -1.
       -1    1    3    3    0  502 -0.96132970139E+02  0.17904146503E+03  0.57014159879E+03  0.60527583534E+03  0.50400001928E-02 0.  1.
</event>
<event>
 5   0  0.4782125E-03  0.9839362E+03  0.7818609E-02  0.9326341E-01
       -3   -1    0    0    0  501  0.00000000000E+00  0.00000000000E+00  0.29481509796E+04  0.29481509813E+04  0.10100000352E+00 0.  1.
        3   -1    0    0  501    0  0.00000000000E+00  0.00000000000E+00 -0.82096378722E+02  0.82096440850E+02  0.10100000352E+00 0. -1.
    10030    2    1    2    0    0  0.00000000000E+00  0.00000000000E+00  0.28660546009E+04  0.30302474222E+04  0.98393620952E+03 0.  0.
        2    1    3    3  502    0  0.49038108720E+03  0.16960365611E+02  0.13232167794E+04  0.14112632320E+04  0.25500000920E-02 0. -1.
       -2    1    3    3    0  502 -0.49038108720E+03 -0.16960365611E+02  0.15428378215E+04  0.16189841902E+04  0.25500000920E-02 0.  1.
</event>
<event>
 5   0  0.1221315E-02  0.1003029E+04  0.7818609E-02  0.9305229E-01
        2   -1    0    0  501    0  0.00000000000E+00  0.00000000000E+00  0.82237932382E+03  0.82237932383E+03  0.25500000920E-02 0. -1.
       -2   -1    0    0    0  501  0.00000000000E+00  0.00000000000E+00 -0.30584038652E+03  0.30584038653E+03  0.25500000920E-02 0.  1.
    10030    2    1    2    0    0  0.00000000000E+00  0.00000000000E+00  0.51653893730E+03  0.11282197104E+04  0.10030290330E+04 0.  0.
        5    1    3    3  502    0 -0.39038949066E+03  0.28486576628E+03  0.10760225238E+03  0.49512906796E+03  0.46999998093E+01 0.  1.
       -5    1    3    3    0  502  0.39038949066E+03 -0.28486576628E+03  0.40893668492E+03  0.63309064240E+03  0.46999998093E+01 0. -1.
</event>
<event>
 5   0  0.1221315E-02  0.9685484E+03  0.7818609E-02  0.9343729E-01
       -2   -1    0    0    0  501  0.00000000000E+00  0.00000000000E+00  0.22573446084E+03  0.22573446085E+03  0.25500000920E-02 0.  1.
        2   -1    0    0  501    0  0.00000000000E+00  0.00000000000E+00 -0.10389265506E+04  0.10389265506E+04  0.25500000920E-02 0. -1.
    10030    2    1    2    0    0  0.00000000000E+00  0.00000000000E+00 -0.81319208980E+03  0.12646610115E+04  0.96854844953E+03 0.  0.
        5    1    3    3  502    0 -0.71697949375E+02  0.15473380230E+03 -0.99838958392E+03  0.10128607983E+04  0.46999998093E+01 0. -1.
       -5    1    3    3    0  502  0.71697949375E+02 -0.15473380230E+03  0.18519749412E+03  0.25180021316E+03  0.46999998093E+01 0.  1.
</event>
<event>
 5   0  0.4782125E-03  0.9973481E+03  0.7818609E-02  0.9311458E-01
        3   -1    0    0  501    0  0.00000000000E+00  0.00000000000E+00  0.24370223923E+03  0.24370226016E+03  0.10100000352E+00 0. -1.
       -3   -1    0    0    0  501  0.00000000000E+00  0.00000000000E+00 -0.10204082944E+04  0.10204082994E+04  0.10100000352E+00 0.  1.
    10030    2    1    2    0    0  0.00000000000E+00  0.00000000000E+00 -0.77670605522E+03  0.12641105596E+04  0.99734808903E+03 0.  0.
        5    1    3    3  502    0  0.30127471031E+03 -0.25778606239E+03 -0.77161102607E+03  0.86754006857E+03  0.46999998093E+01 0. -1.
       -5    1    3    3    0  502 -0.30127471031E+03  0.25778606239E+03 -0.50950291472E+01  0.39657049103E+03  0.46999998093E+01 0.  1.
</event>
<event>
 5   0  0.1216322E-02  0.1009254E+04  0.7818609E-02  0.9298453E-01
        2   -1    0    0  501    0  0.00000000000E+00  0.00000000000E+00  0.95902877099E+03  0.95902877099E+03  0.25500000920E-02 0. -1.
       -2   -1    0    0    0  501  0.00000000000E+00  0.00000000000E+00 -0.26552759979E+03  0.26552759980E+03  0.25500000920E-02 0.  1.
    10030    2    1    2    0    0  0.00000000000E+00  0.00000000000E+00  0.69350117119E+03  0.12245563708E+04  0.10092543935E+04 0.  0.
        2    1    3    3  502    0 -0.58897795858E+02 -0.23094449473E+03 -0.19293386103E+03  0.30663950290E+03  0.25500000920E-02 0.  1.
       -2    1    3    3    0  502  0.58897795858E+02  0.23094449473E+03  0.88643503222E+03  0.91791686789E+03  0.25500000920E-02 0. -1.
</event>
<event>
 5   0  0.6967681E-03  0.9667689E+03  0.7818609E-02  0.9345762E-01
       -1   -1    0    0    0  501  0.00000000000E+00  0.00000000000E+00  0.49817005012E+03  0.49817005014E+03  0.50400001928E-02 0.  1.
        1   -1    0    0  501    0  0.00000000000E+00  0.00000000000E+00 -0.46903768860E+03  0.46903768863E+03  0.50400001928E-02 0. -1.
    10030    2    1    2    0    0  0.00000000000E+00  0.00000000000E+00  0.29132361517E+02  0.96720773877E+03  0.96676890489E+03 0.  0.
        5    1    3    3  502    0 -0.20328055588E+03  0.11657464451E+03 -0.40838546813E+03  0.47086453755E+03  0.46999998093E+01 0. -1.
       -5    1    3    3    0  502  0.20328055588E+03 -0.11657464451E+03  0.43751782965E+03  0.49634320122E+03  0.46999998093E+01 0.  1.
</event>
<event>
 5   0  0.1245850E-02  0.9704692E+03  0.7818609E-02  0.9341540E-01
        2   -1    0    0  501    0  0.00000000000E+00  0.00000000000E+00  0.11407782101E+04  0.11407782101E+04  0.25500000920E-02 0. -1.
       -2   -1    0    0    0  501  0.00000000000E+00  0.00000000000E+00 -0.20639650482E+03  0.20639650484E+03  0.25500000920E-02 0.  1.
    10030    2    1    2    0    0  0.00000000000E+00  0.00000000000E+00  0.93438170526E+03  0.13471747149E+04  0.97046923774E+03 0.  0.
        3    1    3    3  502    0 -0.42980190401E+03  0.19888808642E+03  0.32050094072E+03  0.57184526824E+03  0.10100000352E+00 0.  1.
       -3    1    3    3    0  502  0.42980190401E+03 -0.19888808642E+03  0.61388076454E+03  0.77532944668E+03  0.10100000352E+00 0. -1.
</event>
<event>
 5   0  0.7224879E-03  0.9910091E+03  0.7818609E-02  0.9318461E-01
        1   -1    0    0  501    0  0.00000000000E+00  0.00000000000E+00  0.76694551559E+03  0.76694551560E+03  0.50400001928E-02 0. -1.
       -1   -1    0    0    0  501  0.00000000000E+00  0.00000000000E+00 -0.32013322679E+03  0.32013322683E+03  0.50400001928E-02 0.  1.
    10030    2    1    2    0    0  0.00000000000E+00  0.00000000000E+00  0.44681228879E+03  0.10870787424E+04  0.99100906698E+03 0.  0.
        3    1    3    3  502    0  0.44505515440E+03 -0.12251359429E+03  0.42098064910E+03  0.62474665934E+03  0.10100000352E+00 0. -1.
       -3    1    3    3    0  502 -0.44505515440E+03  0.12251359429E+03  0.25831639697E+02  0.46233208309E+03  0.10100000352E+00 0.  1.
</event>
<event>
 5   0  0.1191822E-02  0.1008541E+04  0.7818609E-02  0.9299226E-01
        2   -1    0    0  501    0  0.00000000000E+00  0.00000000000E+00  0.44702320742E+03  0.44702320742E+03  0.25500000920E-02 0. -1.
       -2   -1    0    0    0  501  0.00000000000E+00  0.00000000000E+00 -0.56884963124E+03  0.56884963125E+03  0.25500000920E-02 0.  1.
    10030    2    1    2    0    0  0.00000000000E+00  0.00000000000E+00 -0.12182642383E+03  0.10158728387E+04  0.10085414948E+04 0.  0.
        4    1    3    3  502    0  0.47066361986E+03 -0.15048114966E+03  0.40409034886E+02  0.49578556097E+03  0.12699999809E+01 0.  1.
       -4    1    3    3    0  502 -0.47066361986E+03  0.15048114966E+03 -0.16223545871E+03  0.52008727770E+03  0.12699999809E+01 0. -1.
</event>
<event>
 5   0  0.7461157E-03  0.9980016E+03  0.7818609E-02  0.9310739E-01
       -1   -1    0    0    0  501  0.00000000000E+00  0.00000000000E+00  0.12236823171E+03  0.12236823181E+03  0.50400001928E-02 0. -1.
        1   -1    0    0  501    0  0.00000000000E+00  0.00000000000E+00 -0.20348566112E+04  0.20348566113E+04  0.50400001928E-02 0.  1.
    10030    2    1    2    0    0  0.00000000000E+00  0.00000000000E+00 -0.19124883795E+04  0.21572248431E+04  0.99800161405E+03 0.  0.
        2    1    3    3  502    0 -0.14137870834E+03  0.47374251631E+03 -0.80992991104E+03  0.94889745059E+03  0.25500000920E-02 0.  1.
       -2    1    3    3    0  502  0.14137870834E+03 -0.47374251631E+03 -0.11025584685E+04  0.12083273925E+04  0.25500000920E-02 0. -1.
</event>
<event>
 5   0  0.7073004E-03  0.1008244E+04  0.7818609E-02  0.9299549E-01
        1   -1    0    0  501    0  0.00000000000E+00  0.00000000000E+00  0.81421873162E+03  0.81421873163E+03  0.50400001928E-02 0.  1.
       -1   -1    0    0    0  501  0.00000000000E+00  0.00000000000E+00 -0.31212590366E+03  0.31212590370E+03  0.50400001928E-02 0. -1.
    10030    2    1    2    0    0  0.00000000000E+00  0.00000000000E+00  0.50209282796E+03  0.11263446353E+04  0.10082435369E+04 0.  0.
        1    1    3    3  502    0 -0.31044410565E+03 -0.24498951315E+02 -0.19182844333E+03  0.36575113540E+03  0.50400001928E-02 0. -1.
       -1    1    3    3    0  502  0.31044410565E+03  0.24498951315E+02  0.69392127130E+03  0.76059349993E+03  0.50400001928E-02 0.  1.
</event>
<event>
 5   0  0.1221315E-02  0.9529723E+03  0.7818609E-02  0.9361683E-01
       -2   -1    0    0    0  501  0.00000000000E+00  0.00000000000E+00  0.33443149816E+03  0.33443149817E+03  0.25500000920E-02 0.  1.
        2   -1    0    0  501    0  0.00000000000E+00  0.00000000000E+00 -0.67888059449E+03  0.67888059449E+03  0.25500000920E-02 0. -1.
    10030    2    1    2    0    0  0.00000000000E+00  0.00000000000E+00 -0.34444909633E+03  0.10133120927E+04  0.95297230661E+03 0.  0.
        5    1    3    3  502    0  0.33809156099E+03  0.30709414225E+03 -0.31647659669E+03  0.55569077918E+03  0.46999998093E+01 0. -1.
       -5    1    3    3    0  502 -0.33809156099E+03 -0.30709414225E+03 -0.27972499634E+02  0.45762131348E+03  0.46999998093E+01 0.  1.
</event>
<event>
 5   0  0.6967681E-03  0.9465745E+03  0.7818609E-02  0.9369163E-01
       -1   -1    0    0    0  501  0.00000000000E+00  0.00000000000E+00  0.19222824506E+03  0.19222824513E+03  0.50400001928E-02 0.  1.
        1   -1    0    0  501    0  0.00000000000E+00  0.00000000000E+00 -0.11652856236E+04  0.11652856236E+04  0.50400001928E-02 0. -1.
    10030    2    1    2    0    0  0.00000000000E+00  0.00000000000E+00 -0.97305737857E+03  0.13575138688E+04  0.94657447774E+03 0.  0.
        5    1    3    3  502    0 -0.34351381201E+03 -0.16013739937E+03 -0.80051233681E+02  0.38739645808E+03  0.46999998093E+01 0.  1.
       -5    1    3    3    0  502  0.34351381201E+03  0.16013739937E+03 -0.89300614489E+03  0.97011741069E+03  0.46999998093E+01 0. -1.
</event>
<event>
 5   0  0.1245850E-02  0.9880903E+03  0.7818609E-02  0.9321704E-01
        2   -1    0    0  501    0  0.00000000000E+00  0.00000000000E+00  0.49047402394E+03  0.49047402395E+03  0.25500000920E-02 0. -1.
       -2   -1    0    0    0  501  0.00000000000E+00  0.00000000000E+00 -0.49764231150E+03  0.49764231151E+03  0.25500000920E-02 0.  1.
    10030    2    1    2    0    0  0.00000000000E+00  0.00000000000E+00 -0.71682875611E+01  0.98811633546E+03  0.98809033395E+03 0.  0.
        3    1    3    3  502    0 -0.30906986866E+03 -0.36429292702E+03 -0.12947270744E+03  0.49497142601E+03  0.10100000352E+00 0.  1.
       -3    1    3    3    0  502  0.30906986866E+03  0.36429292702E+03  0.12230441988E+03  0.49314490945E+03  0.10100000352E+00 0. -1.
</event>
<event>
 5   0  0.1240503E-02  0.1009349E+04  0.7818609E-02  0.9298350E-01
        2   -1    0    0  501    0  0.00000000000E+00  0.00000000000E+00  0.18443296218E+03  0.18443296220E+03  0.25500000920E-02 0. -1.
       -2   -1    0    0    0  501  0.00000000000E+00  0.00000000000E+00 -0.13809695011E+04  0.13809695011E+04  0.25500000920E-02 0.  1.
    10030    2    1    2    0    0  0.00000000000E+00  0.00000000000E+00 -0.11965365389E+04  0.15654024633E+04  0.10093488907E+04 0.  0.
        1    1    3    3  502    0 -0.18233639089E+03  0.18285893902E+03  0.74209427977E+02  0.26868381092E+03  0.50400001928E-02 0. -1.
       -1    1    3    3    0  502  0.18233639089E+03 -0.18285893902E+03 -0.12707459669E+04  0.12967186524E+04  0.50400001928E-02 0.  1.
</event>
<event>
 5   0  0.7461157E-03  0.1000275E+04  0.7818609E-02  0.9308243E-01
       -1   -1    0    0    0  501  0.00000000000E+00  0.00000000000E+00  0.46008861872E+03  0.46008861875E+03  0.50400001928E-02 0. -1.
        1   -1    0    0  501    0  0.00000000000E+00  0.00000000000E+00 -0.54367231967E+03  0.54367231969E+03  0.50400001928E-02 0.  1.
    10030    2    1    2    0    0  0.00000000000E+00  0.00000000000E+00 -0.83583700943E+02  0.10037609384E+04  0.10002748555E+04 0.  0.
        2    1    3    3  502    0 -0.20558778724E+03 -0.18428703749E+03  0.37668598703E+03  0.46703359973E+03  0.25500000920E-02 0. -1.
       -2    1    3    3    0  502  0.20558778724E+03  0.18428703749E+03 -0.46026968797E+03  0.53672733871E+03  0.25500000920E-02 0.  1.
</event>
<event>
 5   0  0.7461157E-03  0.1008538E+04  0.7818609E-02  0.9299230E-01
        1   -1    0    0  501    0  0.00000000000E+00  0.00000000000E+00  0.84222784066E+03  0.84222784067E+03  0.50400001928E-02 0.  1.
       -1   -1    0    0    0  501  0.00000000000E+00  0.00000000000E+00 -0.30192187179E+03  0.30192187184E+03  0.50400001928E-02 0. -1.
    10030    2    1    2    0    0  0.00000000000E+00  0.00000000000E+00  0.54030596886E+03  0.11441497125E+04  0.10085375673E+04 0.  0.
        2    1    3    3  502    0  0.15639108825E+03  0.42155727774E+03  0.52914470258E+03  0.69437945474E+03  0.25500000920E-02 0.  1.
       -2    1    3    3    0  502 -0.15639108825E+03 -0.42155727774E+03  0.11161266283E+02  0.44977025776E+03  0.25500000920E-02 0. -1.
</event>
<event>
 5   0  0.1245850E-02  0.9994283E+03  0.7818609E-02  0.9309172E-01
        2   -1    0    0  501    0  0.00000000000E+00  0.00000000000E+00  0.30360365191E+03  0.30360365192E+03  0.25500000920E-02 0. -1.
       -2   -1    0    0    0  501  0.00000000000E+00  0.00000000000E+00 -0.82250081585E+03  0.82250081585E+03  0.25500000920E-02 0.  1.
    10030    2    1    2    0    0  0.00000000000E+00  0.00000000000E+00 -0.51889716394E+03  0.11261044678E+04  0.99942833940E+03 0.  0.
        3    1    3    3  502    0 -0.23387254937E+03  0.21837214814E+03 -0.69193730963E+03  0.76233851739E+03  0.10100000352E+00 0.  1.
       -3    1    3    3    0  502  0.23387254937E+03 -0.21837214814E+03  0.17304014570E+03  0.36376595038E+03  0.10100000352E+00 0. -1.
</event>
<event>
 5   0  0.1245850E-02  0.7608345E+03  0.7818609E-02  0.9618504E-01
       -2   -1    0    0    0  501  0.00000000000E+00  0.00000000000E+00  0.22906347188E+03  0.22906347189E+03  0.25500000920E-02 0. -1.
        2   -1    0    0  501    0  0.00000000000E+00  0.00000000000E+00 -0.63177807990E+03  0.63177807990E+03  0.25500000920E-02 0.  1.
    10030    2    1    2    0    0  0.00000000000E+00  0.00000000000E+00 -0.40271460802E+03  0.86084155179E+03  0.76083449040E+03 0.  0.
        3    1    3    3  502    0 -0.36284065794E+03  0.35567809764E+02 -0.78456982572E+02  0.37292615953E+03  0.10100000352E+00 0. -1.
       -3    1    3    3    0  502  0.36284065794E+03 -0.35567809764E+02 -0.32425762545E+03  0.48791539226E+03  0.10100000352E+00 0.  1.
</event>
<event>
 5   0  0.7241200E-03  0.1012108E+04  0.7818609E-02  0.9295364E-01
       -1   -1    0    0    0  501  0.00000000000E+00  0.00000000000E+00  0.12177439691E+03  0.12177439701E+03  0.50400001928E-02 0.  1.
        1   -1    0    0  501    0  0.00000000000E+00  0.00000000000E+00 -0.21029913795E+04  0.21029913795E+04  0.50400001928E-02 0. -1.
    10030    2    1    2    0    0  0.00000000000E+00  0.00000000000E+00 -0.19812169826E+04  0.22247657765E+04  0.10121077157E+04 0.  0.
        4    1    3    3  502    0  0.15433359951E+03 -0.46872325366E+03 -0.12370421778E+04  0.13318390710E+04  0.12699999809E+01 0.  1.
       -4    1    3    3    0  502 -0.15433359951E+03  0.46872325366E+03 -0.74417480482E+03  0.89292670555E+03  0.12699999809E+01 0. -1.
</event>
<event>
 5   0  0.7241200E-03  0.1011726E+04  0.7818609E-02  0.9295777E-01
       -1   -1    0    0    0  501  0.00000000000E+00  0.00000000000E+00  0.70344068119E+03  0.70344068120E+03  0.50400001928E-02 0. -1.
        1   -1    0    0  501    0  0.00000000000E+00  0.00000000000E+00 -0.36377940465E+03  0.36377940468E+03  0.50400001928E-02 0.  1.
    10030    2    1    2    0    0  0.00000000000E+00  0.00000000000E+00  0.33966127654E+03  0.10672200859E+04  0.10117257182E+04 0.  0.
        4    1    3    3  502    0  0.37935640640E+03  0.16558803012E+03 -0.13692063518E+03  0.43598113725E+03  0.12699999809E+01 0.  1.
       -4    1    3    3    0  502 -0.37935640640E+03 -0.16558803012E+03  0.47658191172E+03  0.63123894864E+03  0.12699999809E+01 0. -1.
</event>
<event>
 5   0  0.7073004E-03  0.1011309E+04  0.7818609E-02  0.9296228E-01
       -1   -1    0    0    0  501  0.00000000000E+00  0.00000000000E+00  0.38484369927E+03  0.38484369930E+03  0.50400001928E-02 0.  1.
        1   -1    0    0  501    0  0.00000000000E+00  0.00000000000E+00 -0.66439003994E+03  0.66439003996E+03  0.50400001928E-02 0. -1.
    10030    2    1    2    0    0  0.00000000000E+00  0.00000000000E+00 -0.27954634067E+03  0.10492337393E+04  0.10113086982E+04 0.  0.
        1    1    3    3  502    0 -0.53970042845E+02  0.35890716696E+03 -0.50505484768E+03  0.62193851722E+03  0.50400001928E-02 0. -1.
       -1    1    3    3    0  502  0.53970042845E+02 -0.35890716696E+03  0.22550850701E+03  0.42729522204E+03  0.50400001928E-02 0.  1.
</event>
<event>
 5   0  0.7073004E-03  0.1006406E+04  0.7818609E-02  0.9301547E-01
       -1   -1    0    0    0  501  0.00000000000E+00  0.00000000000E+00  0.23941348802E+03  0.23941348807E+03  0.50400001928E-02 0. -1.
        1   -1    0    0  501    0  0.00000000000E+00  0.00000000000E+00 -0.10576389993E+04  0.10576389994E+04  0.50400001928E-02 0.  1.
    10030    2    1    2    0    0  0.00000000000E+00  0.00000000000E+00 -0.81822551132E+03  0.12970524874E+04  0.10064055682E+04 0.  0.
        1    1    3    3  502    0  0.13551883185E+03  0.41545440964E+03 -0.73065488071E+03  0.85136612277E+03  0.50400001928E-02 0.  1.
       -1    1    3    3    0  502 -0.13551883185E+03 -0.41545440964E+03 -0.87570630612E+02  0.44568636466E+03  0.50400001928E-02 0. -1.
</event>
<event>
 5   0  0.7461157E-03  0.9318090E+03  0.7818609E-02  0.9386669E-01
       -1   -1    0    0    0  501  0.00000000000E+00  0.00000000000E+00  0.20827875848E+03  0.20827875854E+03  0.50400001928E-02 0.  1.
        1   -1    0    0  501    0  0.00000000000E+00  0.00000000000E+00 -0.10421946524E+04  0.10421946525E+04  0.50400001928E-02 0. -1.
    10030    2    1    2    0    0  0.00000000000E+00  0.00000000000E+00 -0.83391589396E+03  0.12504734110E+04  0.93180901122E+03 0.  0.
        2    1    3    3  502    0  0.81098090395E+02  0.17677436745E+03 -0.98511205511E+03  0.10041274015E+04  0.25500000920E-02 0. -1.
       -2    1    3    3    0  502 -0.81098090395E+02 -0.17677436745E+03  0.15119616115E+03  0.24634600952E+03  0.25500000920E-02 0.  1.
</event>
<event>
 5   0  0.6967681E-03  0.9821678E+03  0.7818609E-02  0.9328322E-01
       -1   -1    0    0    0  501  0.00000000000E+00  0.00000000000E+00  0.41888804830E+03  0.41888804833E+03  0.50400001928E-02 0.  1.
        1   -1    0    0  501    0  0.00000000000E+00  0.00000000000E+00 -0.57572275329E+03  0.57572275331E+03  0.50400001928E-02 0. -1.
    10030    2    1    2    0    0  0.00000000000E+00  0.00000000000E+00 -0.15683470499E+03  0.99461080163E+03  0.98216776675E+03 0.  0.
        5    1    3    3  502    0  0.57849304143E+02  0.43906587012E+03 -0.29327484958E+03  0.53118509739E+03  0.46999998093E+01 0. -1.
       -5    1    3    3    0  502 -0.57849304143E+02 -0.43906587012E+03  0.13644014459E+03  0.46342570424E+03  0.46999998093E+01 0.  1.
</event>
<event>
 5   0  0.4782125E-03  0.9984926E+03  0.7818609E-02  0.9310200E-01
        3   -1    0    0  501    0  0.00000000000E+00  0.00000000000E+00  0.42446301571E+03  0.42446302772E+03  0.10100000352E+00 0.  1.
       -3   -1    0    0    0  501  0.00000000000E+00  0.00000000000E+00 -0.58720516385E+03  0.58720517253E+03  0.10100000352E+00 0. -1.
    10030    2    1    2    0    0  0.00000000000E+00  0.00000000000E+00 -0.16274214814E+03  0.10116682003E+04  0.99849263424E+03 0.  0.
        5    1    3    3  502    0 -0.39537186943E+03  0.11513389500E+03 -0.36731857427E+03  0.55183308520E+03  0.46999998093E+01 0. -1.
       -5    1    3    3    0  502  0.39537186943E+03 -0.11513389500E+03  0.20457642613E+03  0.45983511506E+03  0.46999998093E+01 0.  1.
</event>
<event>
 5   0  0.7461157E-03  0.1005532E+04  0.7818609E-02  0.9302498E-01
       -1   -1    0    0    0  501  0.00000000000E+00  0.00000000000E+00  0.25127966593E+03  0.25127966598E+03  0.50400001928E-02 0.  1.
        1   -1    0    0  501    0  0.00000000000E+00  0.00000000000E+00 -0.10059449737E+04  0.10059449737E+04  0.50400001928E-02 0. -1.
    10030    2    1    2    0    0  0.00000000000E+00  0.00000000000E+00 -0.75466530776E+03  0.12572246397E+04  0.10055317339E+04 0.  0.
        2    1    3    3  502    0 -0.22082957639E+03 -0.32650369933E+03 -0.76754733297E+03  0.86284371461E+03  0.25500000920E-02 0. -1.
       -2    1    3    3    0  502  0.22082957639E+03  0.32650369933E+03  0.12882025211E+02  0.39438092508E+03  0.25500000920E-02 0.  1.
</event>
<event>
 5   0  0.1240503E-02  0.9974496E+03  0.7818609E-02  0.9311346E-01
        2   -1    0    0  501    0  0.00000000000E+00  0.00000000000E+00  0.96890599646E+03  0.96890599646E+03  0.25500000920E-02 0. -1.
       -2   -1    0    0    0  501  0.00000000000E+00  0.00000000000E+00 -0.25670851065E+03  0.25670851066E+03  0.25500000920E-02 0.  1.
    10030    2    1    2    0    0  0.00000000000E+00  0.00000000000E+00  0.71219748581E+03  0.12256145071E+04  0.99744957831E+03 0.  0.
        1    1    3    3  502    0  0.45704092531E+03 -0.19874325707E+03  0.37879321737E+03  0.62599488112E+03  0.50400001928E-02 0.  1.
       -1    1    3    3    0  502 -0.45704092531E+03  0.19874325707E+03  0.33340426844E+03  0.59961962600E+03  0.50400001928E-02 0. -1.
</event>
<event>
 5   0  0.1240503E-02  0.8763128E+03  0.7818609E-02  0.9455686E-01
        2   -1    0    0  501    0  0.00000000000E+00  0.00000000000E+00  0.37953804919E+03  0.37953804920E+03  0.25500000920E-02 0.  1.
       -2   -1    0    0    0  501  0.00000000000E+00  0.00000000000E+00 -0.50582818750E+03  0.50582818750E+03  0.25500000920E-02 0. -1.
    10030    2    1    2    0    0  0.00000000000E+00  0.00000000000E+00 -0.12629013830E+03  0.88536623671E+03  0.87631282888E+03 0.  0.
        1    1    3    3  502    0 -0.14826416381E+03 -0.28790145314E+03  0.23505079700E+03  0.40014795537E+03  0.50400001928E-02 0.  1.
       -1    1    3    3    0  502  0.14826416381E+03  0.28790145314E+03 -0.36134093531E+03  0.48521828134E+03  0.50400001928E-02 0. -1.
</event>
<event>
 5   0  0.1216322E-02  0.9767035E+03  0.7818609E-02  0.9334472E-01
        2   -1    0    0  501    0  0.00000000000E+00  0.00000000000E+00  0.17327192057E+04  0.17327192057E+04  0.25500000920E-02 0. -1.
       -2   -1    0    0    0  501  0.00000000000E+00  0.00000000000E+00 -0.13763767697E+03  0.13763767699E+03  0.25500000920E-02 0.  1.
    10030    2    1    2    0    0  0.00000000000E+00  0.00000000000E+00  0.15950815287E+04  0.18703568827E+04  0.97670352990E+03 0.  0.
        2    1    3    3  502    0 -0.39900302227E+03 -0.24788475788E+03  0.54178534870E+03  0.71706459196E+03  0.25500000920E-02 0.  1.
       -2    1    3    3    0  502  0.39900302227E+03  0.24788475788E+03  0.10532961800E+04  0.11532922907E+04  0.25500000920E-02 0. -1.
</event>
<event>
 5   0  0.7241200E-03  0.1055373E+04  0.7818609E-02  0.9249815E-01
        1   -1    0    0  501    0  0.00000000000E+00  0.00000000000E+00  0.24358200438E+04  0.24358200438E+04  0.50400001928E-02 0. -1.
       -1   -1    0    0    0  501  0.00000000000E+00  0.00000000000E+00 -0.11431587807E+03  0.11431587818E+03  0.50400001928E-02 0.  1.
    10030    2    1    2    0    0  0.00000000000E+00  0.00000000000E+00  0.23215041657E+04  0.25501359220E+04  0.10553727442E+04 0.  0.
        4    1    3    3  502    0  0.25782659344E+03 -0.24818656265E+03  0.20977804611E+04  0.21280873098E+04  0.12699999809E+01 0. -1.
       -4    1    3    3    0  502 -0.25782659344E+03  0.24818656265E+03  0.22372370465E+03  0.42204861223E+03  0.12699999809E+01 0.  1.
</event>
<event>
 5   0  0.7241200E-03  0.1027803E+04  0.7818609E-02  0.9278566E-01
       -1   -1    0    0    0  501  0.00000000000E+00  0.00000000000E+00  0.50620753989E+03  0.50620753992E+03  0.50400001928E-02 0. -1.
        1   -1    0    0  501    0  0.00000000000E+00  0.00000000000E+00 -0.52171191735E+03  0.52171191737E+03  0.50400001928E-02 0.  1.
    10030    2    1    2    0    0  0.00000000000E+00  0.00000000000E+00 -0.15504377453E+02  0.10279194573E+04  0.10278025224E+04 0.  0.
        4    1    3    3  502    0  0.31155688407E+03 -0.40123015687E+03 -0.85475652939E+02  0.51513205194E+03  0.12699999809E+01 0. -1.
       -4    1    3    3    0  502 -0.31155688407E+03  0.40123015687E+03  0.69971275486E+02  0.51278740535E+03  0.12699999809E+01 0.  1.
</event>
<event>
 5   0  0.7073004E-03  0.9832654E+03  0.7818609E-02  0.9327092E-01
       -1   -1    0    0    0  501  0.00000000000E+00  0.00000000000E+00  0.97123589477E+03  0.97123589478E+03  0.50400001928E-02 0.  1.
        1   -1    0    0  501    0  0.00000000000E+00  0.00000000000E+00 -0.24886097867E+03  0.24886097872E+03  0.50400001928E-02 0. -1.
    10030    2    1    2    0    0  0.00000000000E+00  0.00000000000E+00  0.72237491610E+03  0.12200968735E+04  0.98326540737E+03 0.  0.
        1    1    3    3  502    0  0.19467849170E+02  0.49112516108E+03  0.37476876740E+03  0.61808943531E+03  0.50400001928E-02 0. -1.
       -1    1    3    3    0  502 -0.19467849170E+02 -0.49112516108E+03  0.34760614870E+03  0.60200743819E+03  0.50400001928E-02 0.  1.
</event>
<event>
 5   0  0.7461157E-03  0.1202843E+04  0.7818609E-02  0.9110372E-01
        1   -1    0    0  501    0  0.00000000000E+00  0.00000000000E+00  0.11509928401E+04  0.11509928401E+04  0.50400001928E-02 0.  1.
       -1   -1    0    0    0  501  0.00000000000E+00  0.00000000000E+00 -0.31425732023E+03  0.31425732027E+03  0.50400001928E-02 0. -1.
    10030    2    1    2    0    0  0.00000000000E+00  0.00000000000E+00  0.83673551988E+03  0.14652501604E+04  0.12028431744E+04 0.  0.
        2    1    3    3  502    0 -0.25168747902E+03  0.42973026467E+03  0.76248388335E+01  0.49806909725E+03  0.25500000920E-02 0. -1.
       -2    1    3    3    0  502  0.25168747902E+03 -0.42973026467E+03  0.82911068105E+03  0.96718106314E+03  0.25500000920E-02 0.  1.
</event>
<event>
 5   0  0.4782125E-03  0.6917082E+03  0.7818609E-02  0.9731518E-01
        4   -1    0    0  501    0  0.00000000000E+00  0.00000000000E+00  0.15501741884E+03  0.15502262108E+03  0.12699999809E+01 0.  1.
       -4   -1    0    0    0  501  0.00000000000E+00  0.00000000000E+00 -0.77160463642E+03  0.77160568158E+03  0.12699999809E+01 0. -1.
    10030    2    1    2    0    0  0.00000000000E+00  0.00000000000E+00 -0.61658721758E+03  0.92662830266E+03  0.69170818587E+03 0.  0.
        5    1    3    3  502    0  0.24596796647E+03  0.13205201663E+03 -0.58170471528E+03  0.64524448189E+03  0.46999998093E+01 0. -1.
       -5    1    3    3    0  502 -0.24596796647E+03 -0.13205201663E+03 -0.34882502297E+02  0.28138382077E+03  0.46999998093E+01 0.  1.
</event>
<event>
 5   0  0.1245850E-02  0.9775259E+03  0.7818609E-02  0.9333543E-01
        2   -1    0    0  501    0  0.00000000000E+00  0.00000000000E+00  0.75612326799E+03  0.75612326799E+03  0.25500000920E-02 0. -1.
       -2   -1    0    0    0  501  0.00000000000E+00  0.00000000000E+00 -0.31593951286E+03  0.31593951287E+03  0.25500000920E-02 0.  1.
    10030    2    1    2    0    0  0.00000000000E+00  0.00000000000E+00  0.44018375513E+03  0.10720627809E+04  0.97752589113E+03 0.  0.
        3    1    3    3  502    0  0.19427632721E+03  0.26094251675E+03  0.62013555978E+03  0.70028737748E+03  0.10100000352E+00 0. -1.
       -3    1    3    3    0  502 -0.19427632721E+03 -0.26094251675E+03 -0.17995180465E+03  0.37177540338E+03  0.10100000352E+00 0.  1.
</event>
<event>
 5   0  0.1240503E-02  0.1006454E+04  0.7818609E-02  0.9301494E-01
       -2   -1    0    0    0  501  0.00000000000E+00  0.00000000000E+00  0.27443046270E+03  0.27443046271E+03  0.25500000920E-02 0.  1.
        2   -1    0    0  501    0  0.00000000000E+00  0.00000000000E+00 -0.92277421056E+03  0.92277421056E+03  0.25500000920E-02 0. -1.
    10030    2    1    2    0    0  0.00000000000E+00  0.00000000000E+00 -0.64834374786E+03  0.11972046733E+04  0.10064538809E+04 0.  0.
        1    1    3    3  502    0  0.87003892441E+02  0.36939846227E+03 -0.71727871721E+03  0.81148854546E+03  0.50400001928E-02 0. -1.
       -1    1    3    3    0  502 -0.87003892441E+02 -0.36939846227E+03  0.68934969350E+02  0.38571612781E+03  0.50400001928E-02 0.  1.
</event>
<event>
 5   0  0.1245850E-02  0.9785760E+03  0.7818609E-02  0.9332359E-01
        2   -1    0    0  501    0  0.00000000000E+00  0.00000000000E+00  0.56994658218E+03  0.56994658219E+03  0.25500000920E-02 0.  1.
       -2   -1    0    0    0  501  0.00000000000E+00  0.00000000000E+00 -0.42004414391E+03  0.42004414392E+03  0.25500000920E-02 0. -1.
    10030    2    1    2    0    0  0.00000000000E+00  0.00000000000E+00  0.14990243827E+03  0.98999072611E+03  0.97857595350E+03 0.  0.
        3    1    3    3  502    0 -0.67174311055E+02 -0.14933024871E+03 -0.39150278184E+03  0.42436582053E+03  0.10100000352E+00 0. -1.
       -3    1    3    3    0  502  0.67174311055E+02  0.14933024871E+03  0.54140522011E+03  0.56562490558E+03  0.10100000352E+00 0.  1.
</event>
<event>
 5   0  0.7073004E-03  0.1004253E+04  0.7818609E-02  0.9303893E-01
       -1   -1    0    0    0  501  0.00000000000E+00  0.00000000000E+00  0.48387579734E+03  0.48387579737E+03  0.50400001928E-02 0. -1.
        1   -1    0    0  501    0  0.00000000000E+00  0.00000000000E+00 -0.52106525980E+03  0.52106525983E+03  0.50400001928E-02 0.  1.
    10030    2    1    2    0    0  0.00000000000E+00  0.00000000000E+00 -0.37189462461E+02  0.10049410572E+04  0.10042526935E+04 0.  0.
        1    1    3    3  502    0 -0.30896541007E+03 -0.36443083263E+03 -0.17317200778E+03  0.50819090969E+03  0.50400001928E-02 0.  1.
       -1    1    3    3    0  502  0.30896541007E+03  0.36443083263E+03  0.13598254531E+03  0.49675014751E+03  0.50400001928E-02 0. -1.
</event>
<event>
 5   0  0.1216322E-02  0.1067357E+04  0.7818609E-02  0.9237606E-01
        2   -1    0    0  501    0  0.00000000000E+00  0.00000000000E+00  0.64631649169E+03  0.64631649169E+03  0.25500000920E-02 0. -1.
       -2   -1    0    0    0  501  0.00000000000E+00  0.00000000000E+00 -0.44067040435E+03  0.44067040436E+03  0.25500000920E-02 0.  1.
    10030    2    1    2    0    0  0.00000000000E+00  0.00000000000E+00  0.20564608733E+03  0.10869868961E+04  0.10673566409E+04 0.  0.
        2    1    3    3  502    0  0.14018475253E+03  0.51478098166E+03  0.11575805089E+03  0.54594061058E+03  0.25500000920E-02 0. -1.
       -2    1    3    3    0  502 -0.14018475253E+03 -0.51478098166E+03  0.89888036442E+02  0.54104628548E+03  0.25500000920E-02 0.  1.
</event>
<event>
 5   0  0.1216322E-02  0.9965309E+03  0.7818609E-02  0.9312358E-01
       -2   -1    0    0    0  501  0.00000000000E+00  0.00000000000E+00  0.24123972440E+03  0.24123972441E+03  0.25500000920E-02 0.  1.
        2   -1    0    0  501    0  0.00000000000E+00  0.00000000000E+00 -0.10291359046E+04  0.10291359047E+04  0.25500000920E-02 0. -1.
    10030    2    1    2    0    0  0.00000000000E+00  0.00000000000E+00 -0.78789618025E+03  0.12703756291E+04  0.99653090673E+03 0.  0.
        2    1    3    3  502    0 -0.49512555408E+03  0.13072271116E+02 -0.46316696314E+03  0.67811786168E+03  0.25500000920E-02 0.  1.
       -2    1    3    3    0  502  0.49512555408E+03 -0.13072271116E+02 -0.32472921711E+03  0.59225776738E+03  0.25500000920E-02 0. -1.
</event>
<event>
 5   0  0.7241200E-03  0.1085670E+04  0.7818609E-02  0.9219272E-01
        1   -1    0    0  501    0  0.00000000000E+00  0.00000000000E+00  0.45432374983E+03  0.45432374985E+03  0.50400001928E-02 0.  1.
       -1   -1    0    0    0  501  0.00000000000E+00  0.00000000000E+00 -0.64859027539E+03  0.64859027541E+03  0.50400001928E-02 0. -1.
    10030    2    1    2    0    0  0.00000000000E+00  0.00000000000E+00 -0.19426652557E+03  0.11029140253E+04  0.10856702373E+04 0.  0.
        4    1    3    3  502    0 -0.31665507787E+03  0.26750463759E+03  0.25891771941E+03  0.48874243502E+03  0.12699999809E+01 0.  1.
       -4    1    3    3    0  502  0.31665507787E+03 -0.26750463759E+03 -0.45318424497E+03  0.61417159024E+03  0.12699999809E+01 0. -1.
</event>
<event>
 5   0  0.7461157E-03  0.9941042E+03  0.7818609E-02  0.9315035E-01
        1   -1    0    0  501    0  0.00000000000E+00  0.00000000000E+00  0.24719118851E+03  0.24719118856E+03  0.50400001928E-02 0.  1.
       -1   -1    0    0    0  501  0.00000000000E+00  0.00000000000E+00 -0.99947243174E+03  0.99947243175E+03  0.50400001928E-02 0. -1.
    10030    2    1    2    0    0  0.00000000000E+00  0.00000000000E+00 -0.75228124323E+03  0.12466636203E+04  0.99410417628E+03 0.  0.
        2    1    3    3  502    0  0.32776650785E+03  0.37228832187E+03 -0.33586799940E+03  0.59902987513E+03  0.25500000920E-02 0.  1.
       -2    1    3    3    0  502 -0.32776650785E+03 -0.37228832187E+03 -0.41641324383E+03  0.64763374519E+03  0.25500000920E-02 0. -1.
</event>
<event>
 5   0  0.6967681E-03  0.1007256E+04  0.7818609E-02  0.9300622E-01
       -1   -1    0    0    0  501  0.00000000000E+00  0.00000000000E+00  0.13774155050E+03  0.13774155059E+03  0.50400001928E-02 0. -1.
        1   -1    0    0  501    0  0.00000000000E+00  0.00000000000E+00 -0.18414279460E+04  0.18414279460E+04  0.50400001928E-02 0.  1.
    10030    2    1    2    0    0  0.00000000000E+00  0.00000000000E+00 -0.17036863955E+04  0.19791694966E+04  0.10072559566E+04 0.  0.
        5    1    3    3  502    0  0.51173081123E+02 -0.42010827131E+02  0.12910948105E+03  0.14517211139E+03  0.46999998093E+01 0. -1.
       -5    1    3    3    0  502 -0.51173081123E+02  0.42010827131E+02 -0.18327958766E+04  0.18339973852E+04  0.46999998093E+01 0.  1.
</event>
<event>
 5   0  0.1191822E-02  0.1016037E+04  0.7818609E-02  0.9291128E-01
        2   -1    0    0  501    0  0.00000000000E+00  0.00000000000E+00  0.84873582278E+03  0.84873582279E+03  0.25500000920E-02 0.  1.
       -2   -1    0    0    0  501  0.00000000000E+00  0.00000000000E+00 -0.30407934089E+03  0.30407934090E+03  0.25500000920E-02 0. -1.
    10030    2    1    2    0    0  0.00000000000E+00  0.00000000000E+00  0.54465648190E+03  0.11528151637E+04  0.10160374591E+04 0.  0.
        4    1    3    3  502    0 -0.13911510461E+03 -0.26006884885E+03 -0.19698798696E+03  0.35467548320E+03  0.12699999809E+01 0. -1.
       -4    1    3    3    0  502  0.13911510461E+03  0.26006884885E+03  0.74164446886E+03  0.79813968048E+03  0.12699999809E+01 0.  1.
</event>
<event>
 5   0  0.6967681E-03  0.1006039E+04  0.7818609E-02  0.9301945E-01
       -1   -1    0    0    0  501  0.00000000000E+00  0.00000000000E+00  0.39949020634E+03  0.39949020637E+03  0.50400001928E-02 0. -1.
        1   -1    0    0  501    0  0.00000000000E+00  0.00000000000E+00 -0.63337939514E+03  0.63337939516E+03  0.50400001928E-02 0.  1.
    10030    2    1    2    0    0  0.00000000000E+00  0.00000000000E+00 -0.23388918880E+03  0.10328696015E+04  0.10060394928E+04 0.  0.
        5    1    3    3  502    0  0.35531251470E+03 -0.16149536997E+03  0.20881708414E+03  0.44266737202E+03  0.46999998093E+01 0. -1.
       -5    1    3    3    0  502 -0.35531251470E+03  0.16149536997E+03 -0.44270627294E+03  0.59020222951E+03  0.46999998093E+01 0.  1.
</event>
<event>
 5   0  0.1240503E-02  0.1031341E+04  0.7818609E-02  0.9274823E-01
       -2   -1    0    0    0  501  0.00000000000E+00  0.00000000000E+00  0.52869443677E+03  0.52869443677E+03  0.25500000920E-02 0. -1.
        2   -1    0    0  501    0  0.00000000000E+00  0.00000000000E+00 -0.50296735600E+03  0.50296735601E+03  0.25500000920E-02 0.  1.
    10030    2    1    2    0    0  0.00000000000E+00  0.00000000000E+00  0.25727080763E+02  0.10316617928E+04  0.10313409582E+04 0.  0.
        1    1    3    3  502    0 -0.34798817805E+03  0.11766157236E+03  0.37488222402E+03  0.52485874251E+03  0.50400001928E-02 0. -1.
       -1    1    3    3    0  502  0.34798817805E+03 -0.11766157236E+03 -0.34915514326E+03  0.50680305027E+03  0.50400001928E-02 0.  1.
</event>
<event>
 5   0  0.6967681E-03  0.9745912E+03  0.7818609E-02  0.9336860E-01
        1   -1    0    0  501    0  0.00000000000E+00  0.00000000000E+00  0.16803056716E+03  0.16803056724E+03  0.50400001928E-02 0. -1.
       -1   -1    0    0    0  501  0.00000000000E+00  0.00000000000E+00 -0.14131774893E+04  0.14131774893E+04  0.50400001928E-02 0.  1.
    10030    2    1    2    0    0  0.00000000000E+00  0.00000000000E+00 -0.12451469221E+04  0.15812080565E+04  0.97459122731E+03 0.  0.
        5    1    3    3  502    0 -0.47142336664E+03 -0.98622083327E+02 -0.50259442718E+03  0.69612466855E+03  0.46999998093E+01 0. -1.
       -5    1    3    3    0  502  0.47142336664E+03  0.98622083327E+02 -0.74255249491E+03  0.88508338795E+03  0.46999998093E+01 0.  1.
</event>
<event>
 5   0  0.7073004E-03  0.1021265E+04  0.7818609E-02  0.9285524E-01
        1   -1    0    0  501    0  0.00000000000E+00  0.00000000000E+00  0.46083928070E+03  0.46083928072E+03  0.50400001928E-02 0. -1.
       -1   -1    0    0    0  501  0.00000000000E+00  0.00000000000E+00 -0.56580618541E+03  0.56580618543E+03  0.50400001928E-02 0.  1.
    10030    2    1    2    0    0  0.00000000000E+00  0.00000000000E+00 -0.10496690471E+03  0.10266454662E+04  0.10212653240E+04 0.  0.
        1    1    3    3  502    0 -0.97931867573E+02 -0.39925490111E+02  0.44970911819E+03  0.46197725751E+03  0.50400001928E-02 0. -1.
       -1    1    3    3    0  502  0.97931867573E+02  0.39925490111E+02 -0.55467602290E+03  0.56466820865E+03  0.50400001928E-02 0.  1.
</event>
<event>
 5   0  0.7224879E-03  0.9868516E+03  0.7818609E-02  0.9323084E-01
       -1   -1    0    0    0  501  0.00000000000E+00  0.00000000000E+00  0.39037925520E+03  0.39037925523E+03  0.50400001928E-02 0. -1.
        1   -1    0    0  501    0  0.00000000000E+00  0.00000000000E+00 -0.62367305782E+03  0.62367305784E+03  0.50400001928E-02 0.  1.
    10030    2    1    2    0    0  0.00000000000E+00  0.00000000000E+00 -0.23329380262E+03  0.10140523131E+04  0.98685160754E+03 0.  0.
        3    1    3    3  502    0  0.34134601720E+03  0.47847560892E+02 -0.47945457140E+03  0.59049402095E+03  0.10100000352E+00 0.  1.
       -3    1    3    3    0  502 -0.34134601720E+03 -0.47847560892E+02  0.24616076878E+03  0.42355829212E+03  0.10100000352E+00 0. -1.
</event>
<event>
 5   0  0.6967681E-03  0.1020210E+04  0.7818609E-02  0.9286652E-01
       -1   -1    0    0    0  501  0.00000000000E+00  0.00000000000E+00  0.31137146071E+03  0.31137146075E+03  0.50400001928E-02 0. -1.
        1   -1    0    0  501    0  0.00000000000E+00  0.00000000000E+00 -0.83568134852E+03  0.83568134853E+03  0.50400001928E-02 0.  1.
    10030    2    1    2    0    0  0.00000000000E+00  0.00000000000E+00 -0.52430988780E+03  0.11470528093E+04  0.10202104140E+04 0.  0.
        5    1    3    3  502    0 -0.42391194629E+03 -0.23081446593E+03 -0.44761336990E+03  0.65829816558E+03  0.46999998093E+01 0.  1.
       -5    1    3    3    0  502  0.42391194629E+03  0.23081446593E+03 -0.76696517901E+02  0.48875464371E+03  0.46999998093E+01 0. -1.
</event>
<event>
 5   0  0.1191822E-02  0.9880385E+03  0.7818609E-02  0.9321762E-01
        2   -1    0    0  501    0  0.00000000000E+00  0.00000000000E+00  0.40290936571E+03  0.40290936572E+03  0.25500000920E-02 0. -1.
       -2   -1    0    0    0  501  0.00000000000E+00  0.00000000000E+00 -0.60573177982E+03  0.60573177983E+03  0.25500000920E-02 0.  1.
    10030    2    1    2    0    0  0.00000000000E+00  0.00000000000E+00 -0.20282241411E+03  0.10086411455E+04  0.98803847537E+03 0.  0.
        4    1    3    3  502    0 -0.14867660184E+03  0.85282453325E+01  0.37944798266E+03  0.40762709349E+03  0.12699999809E+01 0. -1.
       -4    1    3    3    0  502  0.14867660184E+03 -0.85282453325E+01 -0.58227039678E+03  0.60101405205E+03  0.12699999809E+01 0.  1.
</event>
<event>
 5   0  0.1245850E-02  0.1009575E+04  0.7818609E-02  0.9298105E-01
       -2   -1    0    0    0  501  0.00000000000E+00  0.00000000000E+00  0.17933181095E+03  0.17933181097E+03  0.25500000920E-02 0. -1.
        2   -1    0    0  501    0  0.00000000000E+00  0.00000000000E+00 -0.14208882568E+04  0.14208882568E+04  0.25500000920E-02 0.  1.
    10030    2    1    2    0    0  0.00000000000E+00  0.00000000000E+00 -0.12415564458E+04  0.16002200677E+04  0.10095750874E+04 0.  0.
        3    1    3    3  502    0  0.72278168044E+02 -0.49384293813E+03 -0.50105265327E+03  0.70721902737E+03  0.10100000352E+00 0. -1.
       -3    1    3    3    0  502 -0.72278168044E+02  0.49384293813E+03 -0.74050379254E+03  0.89300104036E+03  0.10100000352E+00 0.  1.
</event>
<event>
 5   0  0.1216322E-02  0.9208873E+03  0.7818609E-02  0.9399841E-01
        2   -1    0    0  501    0  0.00000000000E+00  0.00000000000E+00  0.12712033348E+04  0.12712033348E+04  0.25500000920E-02 0.  1.
       -2   -1    0    0    0  501  0.00000000000E+00  0.00000000000E+00 -0.16677768097E+03  0.16677768099E+03  0.25500000920E-02 0. -1.
    10030    2    1    2    0    0  0.00000000000E+00  0.00000000000E+00  0.11044256538E+04  0.14379810158E+04  0.92088727700E+03 0.  0.
        2    1    3    3  502    0 -0.34143716646E+02  0.43103469652E+03  0.30506046136E+03  0.52916782601E+03  0.25500000920E-02 0. -1.
       -2    1    3    3    0  502  0.34143716646E+02 -0.43103469652E+03  0.79936519246E+03  0.90881318977E+03  0.25500000920E-02 0.  1.
</event>
<event>
 5   0  0.1240503E-02  0.9931519E+03  0.7818609E-02  0.9316088E-01
       -2   -1    0    0    0  501  0.00000000000E+00  0.00000000000E+00  0.77097959543E+03  0.77097959544E+03  0.25500000920E-02 0. -1.
        2   -1    0    0  501    0  0.00000000000E+00  0.00000000000E+00 -0.31983685374E+03  0.31983685375E+03  0.25500000920E-02 0.  1.
    10030    2    1    2    0    0  0.00000000000E+00  0.00000000000E+00  0.45114274170E+03  0.10908164492E+04  0.99315192817E+03 0.  0.
        1    1    3    3  502    0 -0.79299666161E+02 -0.34898018297E+03 -0.15253788076E+03  0.38902880388E+03  0.50400001928E-02 0.  1.
       -1    1    3    3    0  502  0.79299666161E+02  0.34898018297E+03  0.60368062245E+03  0.70178764531E+03  0.50400001928E-02 0. -1.
</event>
<event>
 5   0  0.1221315E-02  0.9626103E+03  0.7818609E-02  0.9350531E-01
        2   -1    0    0  501    0  0.00000000000E+00  0.00000000000E+00  0.72232034697E+03  0.72232034698E+03  0.25500000920E-02 0. -1.
       -2   -1    0    0    0  501  0.00000000000E+00  0.00000000000E+00 -0.32070898921E+03  0.32070898922E+03  0.25500000920E-02 0.  1.
    10030    2    1    2    0    0  0.00000000000E+00  0.00000000000E+00  0.40161135776E+03  0.10430293362E+04  0.96261026043E+03 0.  0.
        5    1    3    3  502    0  0.41082180048E+02  0.47942195205E+03  0.19000363603E+03  0.51735541490E+03  0.46999998093E+01 0.  1.
       -5    1    3    3    0  502 -0.41082180048E+02 -0.47942195205E+03  0.21160772174E+03  0.52567392129E+03  0.46999998093E+01 0. -1.
</event>
<event>
 5   0  0.1245850E-02  0.9904933E+03  0.7818609E-02  0.9319033E-01
        2   -1    0    0  501    0  0.00000000000E+00  0.00000000000E+00  0.12038179353E+04  0.12038179353E+04  0.25500000920E-02 0.  1.
       -2   -1    0    0    0  501  0.00000000000E+00  0.00000000000E+00 -0.20374281463E+03  0.20374281465E+03  0.25500000920E-02 0. -1.
    10030    2    1    2    0    0  0.00000000000E+00  0.00000000000E+00  0.10000751206E+04  0.14075607499E+04  0.99049332042E+03 0.  0.
        3    1    3    3  502    0  0.18209927133E+03 -0.41901079564E+03  0.77167788389E+03  0.89678144393E+03  0.10100000352E+00 0.  1.
       -3    1    3    3    0  502 -0.18209927133E+03  0.41901079564E+03  0.22839723675E+03  0.51077930600E+03  0.10100000352E+00 0. -1.
</event>
<event>
 5   0  0.7073004E-03  0.9670351E+03  0.7818609E-02  0.9345458E-01
        1   -1    0    0  501    0  0.00000000000E+00  0.00000000000E+00  0.18275688351E+04  0.18275688351E+04  0.50400001928E-02 0.  1.
       -1   -1    0    0    0  501  0.00000000000E+00  0.00000000000E+00 -0.12792363292E+03  0.12792363302E+03  0.50400001928E-02 0. -1.
    10030    2    1    2    0    0  0.00000000000E+00  0.00000000000E+00  0.16996452022E+04  0.19554924682E+04  0.96703514913E+03 0.  0.
        1    1    3    3  502    0 -0.40667990159E+03 -0.24958781146E+03  0.10078435193E+04  0.11150924524E+04  0.50400001928E-02 0. -1.
       -1    1    3    3    0  502  0.40667990159E+03  0.24958781146E+03  0.69180168291E+03  0.84040001576E+03  0.50400001928E-02 0.  1.
</event>
<event>
 5   0  0.7224879E-03  0.9912179E+03  0.7818609E-02  0.9318230E-01
       -1   -1    0    0    0  501  0.00000000000E+00  0.00000000000E+00  0.10659802217E+03  0.10659802229E+03  0.50400001928E-02 0.  1.
        1   -1    0    0  501    0  0.00000000000E+00  0.00000000000E+00 -0.23042475557E+04  0.23042475557E+04  0.50400001928E-02 0. -1.
    10030    2    1    2    0    0  0.00000000000E+00  0.00000000000E+00 -0.21976495335E+04  0.24108455780E+04  0.99121790174E+03 0.  0.
        3    1    3    3  502    0 -0.86003075582E+02 -0.32910059045E+02 -0.22832579284E+04  0.22851140845E+04  0.10100000352E+00 0. -1.
       -3    1    3    3    0  502  0.86003075582E+02  0.32910059045E+02  0.85608394890E+02  0.12573149356E+03  0.10100000352E+00 0.  1.
</event>
<event>
 5   0  0.6967681E-03  0.9837999E+03  0.7818609E-02  0.9326493E-01
       -1   -1    0    0    0  501  0.00000000000E+00  0.00000000000E+00  0.73747851090E+03  0.73747851092E+03  0.50400001928E-02 0. -1.
        1   -1    0    0  501    0  0.00000000000E+00  0.00000000000E+00 -0.32809842738E+03  0.32809842742E+03  0.50400001928E-02 0.  1.
    10030    2    1    2    0    0  0.00000000000E+00  0.00000000000E+00  0.40938008352E+03  0.10655769383E+04  0.98379985705E+03 0.  0.
        5    1    3    3  502    0 -0.12347625812E+03 -0.98408108636E+01 -0.31090439530E+03  0.33470413934E+03  0.46999998093E+01 0.  1.
       -5    1    3    3    0  502  0.12347625812E+03  0.98408108636E+01  0.72028447882E+03  0.73087279899E+03  0.46999998093E+01 0. -1.
</event>
<event>
 5   0  0.7224879E-03  0.1020945E+04  0.7818609E-02  0.9285866E-01
        1   -1    0    0  501    0  0.00000000000E+00  0.00000000000E+00  0.10163683658E+04  0.10163683658E+04  0.50400001928E-02 0. -1.
       -1   -1    0    0    0  501  0.00000000000E+00  0.00000000000E+00 -0.25638566167E+03  0.25638566172E+03  0.50400001928E-02 0.  1.
    10030    2    1    2    0    0  0.00000000000E+00  0.00000000000E+00  0.75998270415E+03  0.12727540276E+04  0.10209452013E+04 0.  0.
        3    1    3    3  502    0 -0.37538044181E+02  0.24591378874E+01  0.10146380049E+04  0.10153351384E+04  0.10100000352E+00 0. -1.
       -3    1    3    3    0  502  0.37538044181E+02 -0.24591378874E+01 -0.25465530071E+03  0.25741888917E+03  0.10100000352E+00 0.  1.
</event>
<event>
 5   0  0.1216322E-02  0.9766323E+03  0.7818609E-02  0.9334552E-01
        2   -1    0    0  501    0  0.00000000000E+00  0.00000000000E+00  0.23271893539E+04  0.23271893539E+04  0.25500000920E-02 0. -1.
       -2   -1    0    0    0  501  0.00000000000E+00  0.00000000000E+00 -0.10246379677E+03  0.10246379680E+03  0.25500000920E-02 0.  1.
    10030    2    1    2    0    0  0.00000000000E+00  0.00000000000E+00  0.22247255572E+04  0.24296531507E+04  0.97663228913E+03 0.  0.
        2    1    3    3  502    0  0.20600746763E+03 -0.43682329868E+03  0.93298339521E+03  0.10505768352E+04  0.25500000920E-02 0. -1.
       -2    1    3    3    0  502 -0.20600746763E+03  0.43682329868E+03  0.12917421620E+04  0.13790763155E+04  0.25500000920E-02 0.  1.
</event>
<event>
 5   0  0.1245850E-02  0.9361165E+03  0.7818609E-02  0.9381527E-01
        2   -1    0    0  501    0  0.00000000000E+00  0.00000000000E+00  0.68990560622E+03  0.68990560622E+03  0.25500000920E-02 0.  1.
       -2   -1    0    0    0  501  0.00000000000E+00  0.00000000000E+00 -0.31754858116E+03  0.31754858117E+03  0.25500000920E-02 0. -1.
    10030    2    1    2    0    0  0.00000000000E+00  0.00000000000E+00  0.37235702505E+03  0.10074541874E+04  0.93611654488E+03 0.  0.
        3    1    3    3  502    0  0.11718881393E+03 -0.19769654846E+03  0.62500324071E+03  0.66591756583E+03  0.10100000352E+00 0.  1.
       -3    1    3    3    0  502 -0.11718881393E+03  0.19769654846E+03 -0.25264621566E+03  0.34153662157E+03  0.10100000352E+00 0. -1.
</event>
<event>
 5   0  0.7224879E-03  0.9972478E+03  0.7818609E-02  0.9311569E-01
        1   -1    0    0  501    0  0.00000000000E+00  0.00000000000E+00  0.73640168482E+03  0.73640168484E+03  0.50400001928E-02 0.  1.
       -1   -1    0    0    0  501  0.00000000000E+00  0.00000000000E+00 -0.33762249106E+03  0.33762249109E+03  0.50400001928E-02 0. -1.
    10030    2    1    2    0    0  0.00000000000E+00  0.00000000000E+00  0.39877919377E+03  0.10740241759E+04  0.99724775513E+03 0.  0.
        3    1    3    3  502    0  0.49368261886E+03 -0.20954711023E+02  0.12743151929E+03  0.51029445459E+03  0.10100000352E+00 0. -1.
       -3    1    3    3    0  502 -0.49368261886E+03  0.20954711023E+02  0.27134767448E+03  0.56372972134E+03  0.10100000352E+00 0.  1.
</event>
<event>
 5   0  0.7461157E-03  0.9977253E+03  0.7818609E-02  0.9311043E-01
       -1   -1    0    0    0  501  0.00000000000E+00  0.00000000000E+00  0.21547080319E+03  0.21547080325E+03  0.50400001928E-02 0. -1.
        1   -1    0    0  501    0  0.00000000000E+00  0.00000000000E+00 -0.11549775722E+04  0.11549775722E+04  0.50400001928E-02 0.  1.
    10030    2    1    2    0    0  0.00000000000E+00  0.00000000000E+00 -0.93950676897E+03  0.13704483754E+04  0.99772530325E+03 0.  0.
        2    1    3    3  502    0  0.41084418430E+03  0.14932777750E+03 -0.79990331341E+03  0.91155748020E+03  0.25500000920E-02 0.  1.
       -2    1    3    3    0  502 -0.41084418430E+03 -0.14932777750E+03 -0.13960345556E+03  0.45889089522E+03  0.25500000920E-02 0. -1.
</event>
<event>
 5   0  0.1216322E-02  0.9988084E+03  0.7818609E-02  0.9309853E-01
       -2   -1    0    0    0  501  0.00000000000E+00  0.00000000000E+00  0.13556698333E+03  0.13556698335E+03  0.25500000920E-02 0. -1.
        2   -1    0    0  501    0  0.00000000000E+00  0.00000000000E+00 -0.18397146210E+04  0.18397146210E+04  0.25500000920E-02 0.  1.
    10030    2    1    2    0    0  0.00000000000E+00  0.00000000000E+00 -0.17041476376E+04  0.19752816043E+04  0.99880841282E+03 0.  0.
        2    1    3    3  502    0 -0.47222866046E+03  0.15112881562E+03 -0.73399814460E+03  0.88577260229E+03  0.25500000920E-02 0. -1.
       -2    1    3    3    0  502  0.47222866046E+03 -0.15112881562E+03 -0.97014949303E+03  0.10895090020E+04  0.25500000920E-02 0.  1.
</event>
<event>
 5   0  0.7241200E-03  0.1040690E+04  0.7818609E-02  0.9265009E-01
       -1   -1    0    0    0  501  0.00000000000E+00  0.00000000000E+00  0.25441511418E+03  0.25441511423E+03  0.50400001928E-02 0.  1.
        1   -1    0    0  501    0  0.00000000000E+00  0.00000000000E+00 -0.10642402899E+04  0.10642402899E+04  0.50400001928E-02 0. -1.
    10030    2    1    2    0    0  0.00000000000E+00  0.00000000000E+00 -0.80982517575E+03  0.13186554042E+04  0.10406897999E+04 0.  0.
        4    1    3    3  502    0  0.17424817320E+03 -0.48792532040E+03 -0.34383299788E+03  0.62181692441E+03  0.12699999809E+01 0. -1.
       -4    1    3    3    0  502 -0.17424817320E+03  0.48792532040E+03 -0.46599217787E+03  0.69683847977E+03  0.12699999809E+01 0.  1.
</event>
<event>
 5   0  0.4782125E-03  0.1009672E+04  0.7818609E-02  0.9298000E-01
       -3   -1    0    0    0  501  0.00000000000E+00  0.00000000000E+00  0.23541720043E+03  0.23541722210E+03  0.10100000352E+00 0. -1.
        3   -1    0    0  501    0  0.00000000000E+00  0.00000000000E+00 -0.10825853219E+04  0.10825853266E+04  0.10100000352E+00 0.  1.
    10030    2    1    2    0    0  0.00000000000E+00  0.00000000000E+00 -0.84716812146E+03  0.13180025487E+04  0.10096716755E+04 0.  0.
        4    1    3    3  502    0 -0.23885989618E+03 -0.26696839127E+03  0.40755086313E+02  0.36053954277E+03  0.12699999809E+01 0. -1.
       -4    1    3    3    0  502  0.23885989618E+03  0.26696839127E+03 -0.88792320777E+03  0.95746300594E+03  0.12699999809E+01 0.  1.
</event>
<event>
 5   0  0.1240503E-02  0.9792530E+03  0.7818609E-02  0.9331597E-01
       -2   -1    0    0    0  501  0.00000000000E+00  0.00000000000E+00  0.44692529858E+03  0.44692529859E+03  0.25500000920E-02 0. -1.
        2   -1    0    0  501    0  0.00000000000E+00  0.00000000000E+00 -0.53640752386E+03  0.53640752387E+03  0.25500000920E-02 0.  1.
    10030    2    1    2    0    0  0.00000000000E+00  0.00000000000E+00 -0.89482225284E+02  0.98333282246E+03  0.97925296583E+03 0.  0.
        1    1    3    3  502    0 -0.12957075553E+03  0.18583529121E+03  0.39113040120E+03  0.45200257402E+03  0.50400001928E-02 0. -1.
       -1    1    3    3    0  502  0.12957075553E+03 -0.18583529121E+03 -0.48061262648E+03  0.53133024844E+03  0.50400001928E-02 0.  1.
</event>
<event>
 5   0  0.7241200E-03  0.9708021E+03  0.7818609E-02  0.9341161E-01
       -1   -1    0    0    0  501  0.00000000000E+00  0.00000000000E+00  0.18073045925E+03  0.18073045932E+03  0.50400001928E-02 0. -1.
        1   -1    0    0  501    0  0.00000000000E+00  0.00000000000E+00 -0.13036773283E+04  0.13036773283E+04  0.50400001928E-02 0.  1.
    10030    2    1    2    0    0  0.00000000000E+00  0.00000000000E+00 -0.11229468691E+04  0.14844077877E+04  0.97080214736E+03 0.  0.
        4    1    3    3  502    0 -0.21433989416E+03 -0.27693647434E+03 -0.47526976911E+02  0.35340603770E+03  0.12699999809E+01 0. -1.
       -4    1    3    3    0  502  0.21433989416E+03  0.27693647434E+03 -0.10754198922E+04  0.11310017500E+04  0.12699999809E+01 0.  1.
</event>
<event>
 5   0  0.7073004E-03  0.1009038E+04  0.7818609E-02  0.9298687E-01
        1   -1    0    0  501    0  0.00000000000E+00  0.00000000000E+00  0.12873275887E+04  0.12873275887E+04  0.50400001928E-02 0. -1.
       -1   -1    0    0    0  501  0.00000000000E+00  0.00000000000E+00 -0.19772694279E+03  0.19772694286E+03  0.50400001928E-02 0.  1.
    10030    2    1    2    0    0  0.00000000000E+00  0.00000000000E+00  0.10896006459E+04  0.14850545315E+04  0.10090378556E+04 0.  0.
        1    1    3    3  502    0  0.11726310199E+03 -0.11720555157E+03  0.12460895996E+04  0.12570708280E+04  0.50400001928E-02 0. -1.
       -1    1    3    3    0  502 -0.11726310199E+03  0.11720555157E+03 -0.15648895372E+03  0.22798370352E+03  0.50400001928E-02 0.  1.
</event>
<event>
 5   0  0.7461157E-03  0.9894312E+03  0.7818609E-02  0.9320213E-01
       -1   -1    0    0    0  501  0.00000000000E+00  0.00000000000E+00  0.13841600942E+03  0.13841600951E+03  0.50400001928E-02 0.  1.
        1   -1    0    0  501    0  0.00000000000E+00  0.00000000000E+00 -0.17681736256E+04  0.17681736256E+04  0.50400001928E-02 0. -1.
    10030    2    1    2    0    0  0.00000000000E+00  0.00000000000E+00 -0.16297576161E+04  0.19065896351E+04  0.98943122511E+03 0.  0.
        2    1    3    3  502    0 -0.16020692551E+03 -0.26374766831E+03 -0.15599764576E+04  0.15902061627E+04  0.25500000920E-02 0. -1.
       -2    1    3    3    0  502  0.16020692551E+03  0.26374766831E+03 -0.69781158543E+02  0.31638347241E+03  0.25500000920E-02 0.  1.
</event>
<event>
 5   0  0.1240503E-02  0.9997601E+03  0.7818609E-02  0.9308808E-01
       -2   -1    0    0    0  501  0.00000000000E+00  0.00000000000E+00  0.16496796930E+03  0.16496796932E+03  0.25500000920E-02 0. -1.
        2   -1    0    0  501    0  0.00000000000E+00  0.00000000000E+00 -0.15147187707E+04  0.15147187707E+04  0.25500000920E-02 0.  1.
    10030    2    1    2    0    0  0.00000000000E+00  0.00000000000E+00 -0.13497508014E+04  0.16796867400E+04  0.99976013061E+03 0.  0.
        1    1    3    3  502    0 -0.18482297332E+03  0.46416337861E+03 -0.70263026709E+03  0.86214642942E+03  0.50400001928E-02 0.  1.
       -1    1    3    3    0  502  0.18482297332E+03 -0.46416337861E+03 -0.64712053432E+03  0.81754031061E+03  0.50400001928E-02 0. -1.
</event>
<event>
 5   0  0.1221315E-02  0.1123957E+04  0.7818609E-02  0.9182151E-01
        2   -1    0    0  501    0  0.00000000000E+00  0.00000000000E+00  0.23174457793E+03  0.23174457795E+03  0.25500000920E-02 0. -1.
       -2   -1    0    0    0  501  0.00000000000E+00  0.00000000000E+00 -0.13627926829E+04  0.13627926829E+04  0.25500000920E-02 0.  1.
    10030    2    1    2    0    0  0.00000000000E+00  0.00000000000E+00 -0.11310481050E+04  0.15945372609E+04  0.11239569656E+04 0.  0.
        5    1    3    3  502    0  0.55306472121E+03  0.70621562896E+02 -0.46591547497E+03  0.72661359113E+03  0.46999998093E+01 0. -1.
       -5    1    3    3    0  502 -0.55306472121E+03 -0.70621562896E+02 -0.66513263003E+03  0.86792366976E+03  0.46999998093E+01 0.  1.
</event>
<event>
 5   0  0.7224879E-03  0.9960563E+03  0.7818609E-02  0.9312881E-01
        1   -1    0    0  501    0  0.00000000000E+00  0.00000000000E+00  0.31153192643E+03  0.31153192647E+03  0.50400001928E-02 0. -1.
       -1   -1    0    0    0  501  0.00000000000E+00  0.00000000000E+00 -0.79616893896E+03  0.79616893897E+03  0.50400001928E-02 0.  1.
    10030    2    1    2    0    0  0.00000000000E+00  0.00000000000E+00 -0.48463701253E+03  0.11077008654E+04  0.99605631036E+03 0.  0.
        3    1    3    3  502    0 -0.39867100088E+03  0.90505359275E+02  0.73995842881E+02  0.41545779806E+03  0.10100000352E+00 0. -1.
       -3    1    3    3    0  502  0.39867100088E+03 -0.90505359275E+02 -0.55863285541E+03  0.69224306739E+03  0.10100000352E+00 0.  1.
</event>
<event>
 5   0  0.1191822E-02  0.9737096E+03  0.7818609E-02  0.9337859E-01
        2   -1    0    0  501    0  0.00000000000E+00  0.00000000000E+00  0.23158726645E+03  0.23158726647E+03  0.25500000920E-02 0. -1.
       -2   -1    0    0    0  501  0.00000000000E+00  0.00000000000E+00 -0.10234914480E+04  0.10234914480E+04  0.25500000920E-02 0.  1.
    10030    2    1    2    0    0  0.00000000000E+00  0.00000000000E+00 -0.79190418155E+03  0.12550787145E+04  0.97370958030E+03 0.  0.
        4    1    3    3  502    0  0.18815212933E+03  0.37312307290E+03 -0.71794585826E+03  0.83070447187E+03  0.12699999809E+01 0.  1.
       -4    1    3    3    0  502 -0.18815212933E+03 -0.37312307290E+03 -0.73958323296E+02  0.42437424260E+03  0.12699999809E+01 0. -1.
</event>
<event>
 5   0  0.7241200E-03  0.1000448E+04  0.7818609E-02  0.9308054E-01
        1   -1    0    0  501    0  0.00000000000E+00  0.00000000000E+00  0.26698627945E+03  0.26698627950E+03  0.50400001928E-02 0. -1.
       -1   -1    0    0    0  501  0.00000000000E+00  0.00000000000E+00 -0.93721687479E+03  0.93721687480E+03  0.50400001928E-02 0.  1.
    10030    2    1    2    0    0  0.00000000000E+00  0.00000000000E+00 -0.67023059534E+03  0.12042031543E+04  0.10004479926E+04 0.  0.
        4    1    3    3  502    0 -0.48615599544E+03 -0.27323353773E+02 -0.47302921691E+03  0.67886115702E+03  0.12699999809E+01 0.  1.
       -4    1    3    3    0  502  0.48615599544E+03  0.27323353773E+02 -0.19720137843E+03  0.52534199729E+03  0.12699999809E+01 0. -1.
</event>
<event>
 5   0  0.6967681E-03  0.1002889E+04  0.7818609E-02  0.9305381E-01
       -1   -1    0    0    0  501  0.00000000000E+00  0.00000000000E+00  0.59957471962E+03  0.59957471964E+03  0.50400001928E-02 0.  1.
        1   -1    0    0  501    0  0.00000000000E+00  0.00000000000E+00 -0.41937524638E+03  0.41937524641E+03  0.50400001928E-02 0. -1.
    10030    2    1    2    0    0  0.00000000000E+00  0.00000000000E+00  0.18019947324E+03  0.10189499660E+04  0.10028894172E+04 0.  0.
        5    1    3    3  502    0 -0.32726633595E+03  0.22247383469E+01  0.47607352007E+03  0.57773375409E+03  0.46999998093E+01 0.  1.
       -5    1    3    3    0  502  0.32726633595E+03 -0.22247383469E+01 -0.29587404683E+03  0.44121621196E+03  0.46999998093E+01 0. -1.
</event>
<event>
 5   0  0.7461157E-03  0.9962711E+03  0.7818609E-02  0.9312644E-01
        1   -1    0    0  501    0  0.00000000000E+00  0.00000000000E+00  0.39904742466E+03  0.39904742470E+03  0.50400001928E-02 0.  1.
       -1   -1    0    0    0  501  0.00000000000E+00  0.00000000000E+00 -0.62182837911E+03  0.62182837913E+03  0.50400001928E-02 0. -1.
    10030    2    1    2    0    0  0.00000000000E+00  0.00000000000E+00 -0.22278095444E+03  0.10208758038E+04  0.99627107414E+03 0.  0.
        2    1    3    3  502    0 -0.26337418226E+03  0.32889052407E+03  0.16088609725E+03  0.45102025786E+03  0.25500000920E-02 0.  1.
       -2    1    3    3    0  502  0.26337418226E+03 -0.32889052407E+03 -0.38366705170E+03  0.56985554596E+03  0.25500000920E-02 0. -1.
</event>
<event>
 5   0  0.7461157E-03  0.1005926E+04  0.7818609E-02  0.9302069E-01
       -1   -1    0    0    0  501  0.00000000000E+00  0.00000000000E+00  0.43393414589E+03  0.43393414592E+03  0.50400001928E-02 0.  1.
        1   -1    0    0  501    0  0.00000000000E+00  0.00000000000E+00 -0.58297321517E+03  0.58297321519E+03  0.50400001928E-02 0. -1.
    10030    2    1    2    0    0  0.00000000000E+00  0.00000000000E+00 -0.14903906927E+03  0.10169073611E+04  0.10059264073E+04 0.  0.
        2    1    3    3  502    0 -0.91183924810E+02  0.63066559659E+02 -0.57046652605E+03  0.58114022098E+03  0.25500000920E-02 0. -1.
       -2    1    3    3    0  502  0.91183924810E+02 -0.63066559659E+02  0.42142745677E+03  0.43576714013E+03  0.25500000920E-02 0.  1.
</event>
<event>
 5   0  0.6967681E-03  0.9989516E+03  0.7818609E-02  0.9309695E-01
       -1   -1    0    0    0  501  0.00000000000E+00  0.00000000000E+00  0.29923959048E+03  0.29923959052E+03  0.50400001928E-02 0. -1.
        1   -1    0    0  501    0  0.00000000000E+00  0.00000000000E+00 -0.83370014430E+03  0.83370014432E+03  0.50400001928E-02 0.  1.
    10030    2    1    2    0    0  0.00000000000E+00  0.00000000000E+00 -0.53446055383E+03  0.11329397348E+04  0.99895163005E+03 0.  0.
        5    1    3    3  502    0 -0.13942573887E+03 -0.15014924652E+03 -0.78381273412E+03  0.81016592440E+03  0.46999998093E+01 0.  1.
       -5    1    3    3    0  502  0.13942573887E+03  0.15014924652E+03  0.24935218029E+03  0.32277381044E+03  0.46999998093E+01 0. -1.
</event>
<event>
 5   0  0.6967681E-03  0.9871851E+03  0.7818609E-02  0.9322713E-01
       -1   -1    0    0    0  501  0.00000000000E+00  0.00000000000E+00  0.88442351227E+02  0.88442351371E+02  0.50400001928E-02 0.  1.
        1   -1    0    0  501    0  0.00000000000E+00  0.00000000000E+00 -0.27547163209E+04  0.27547163209E+04  0.50400001928E-02 0. -1.
    10030    2    1    2    0    0  0.00000000000E+00  0.00000000000E+00 -0.26662739697E+04  0.28431586723E+04  0.98718506593E+03 0.  0.
        5    1    3    3  502    0  0.14265599940E+03 -0.21748188005E+03 -0.25412636076E+04  0.25545433870E+04  0.46999998093E+01 0. -1.
       -5    1    3    3    0  502 -0.14265599940E+03  0.21748188005E+03 -0.12501036206E+03  0.28861528535E+03  0.46999998093E+01 0.  1.
</event>
<event>
 5   0  0.7461157E-03  0.9545498E+03  0.7818609E-02  0.9359848E-01
       -1   -1    0    0    0  501  0.00000000000E+00  0.00000000000E+00  0.44615714186E+03  0.44615714189E+03  0.50400001928E-02 0.  1.
        1   -1    0    0  501    0  0.00000000000E+00  0.00000000000E+00 -0.51056302322E+03  0.51056302325E+03  0.50400001928E-02 0. -1.
    10030    2    1    2    0    0  0.00000000000E+00  0.00000000000E+00 -0.64405881367E+02  0.95672016514E+03  0.95454981893E+03 0.  0.
        2    1    3    3  502    0 -0.71469149554E+02  0.34433104885E+03  0.29120645549E+03  0.45658833785E+03  0.25500000920E-02 0.  1.
       -2    1    3    3    0  502  0.71469149554E+02 -0.34433104885E+03 -0.35561233685E+03  0.50013182729E+03  0.25500000920E-02 0. -1.
</event>
<event>
 5   0  0.7461157E-03  0.9917924E+03  0.7818609E-02  0.9317593E-01
       -1   -1    0    0    0  501  0.00000000000E+00  0.00000000000E+00  0.80034286106E+03  0.80034286108E+03  0.50400001928E-02 0. -1.
        1   -1    0    0  501    0  0.00000000000E+00  0.00000000000E+00 -0.30725958645E+03  0.30725958649E+03  0.50400001928E-02 0.  1.
    10030    2    1    2    0    0  0.00000000000E+00  0.00000000000E+00  0.49308327461E+03  0.11076024476E+04  0.99179235032E+03 0.  0.
        2    1    3    3  502    0 -0.20887351618E+03 -0.44884709778E+03  0.27854350671E+03  0.56804783961E+03  0.25500000920E-02 0.  1.
       -2    1    3    3    0  502  0.20887351618E+03  0.44884709778E+03  0.21453976790E+03  0.53955460796E+03  0.25500000920E-02 0. -1.
</event>
<event>
 5   0  0.4782125E-03  0.9951204E+03  0.7818609E-02  0.9313913E-01
        4   -1    0    0  501    0  0.00000000000E+00  0.00000000000E+00  0.40164311022E+03  0.40164511809E+03  0.12699999809E+01 0. -1.
       -4   -1    0    0    0  501  0.00000000000E+00  0.00000000000E+00 -0.61637916127E+03  0.61638046963E+03  0.12699999809E+01 0.  1.
    10030    2    1    2    0    0  0.00000000000E+00  0.00000000000E+00 -0.21473605104E+03  0.10180255877E+04  0.99512035737E+03 0.  0.
        4    1    3    3  502    0 -0.12439033983E+03 -0.18411324066E+03  0.34806885828E+03  0.41294574102E+03  0.12699999809E+01 0. -1.
       -4    1    3    3    0  502  0.12439033983E+03  0.18411324066E+03 -0.56280490932E+03  0.60507984670E+03  0.12699999809E+01 0.  1.
</event>
<event>
 5   0  0.1240503E-02  0.9876905E+03  0.7818609E-02  0.9322150E-01
        2   -1    0    0  501    0  0.00000000000E+00  0.00000000000E+00  0.11471764607E+04  0.11471764607E+04  0.25500000920E-02 0.  1.
       -2   -1    0    0    0  501  0.00000000000E+00  0.00000000000E+00 -0.21259423939E+03  0.21259423941E+03  0.25500000920E-02 0. -1.
    10030    2    1    2    0    0  0.00000000000E+00  0.00000000000E+00  0.93458222133E+03  0.13597707001E+04  0.98769045177E+03 0.  0.
        1    1    3    3  502    0 -0.23280108077E+03  0.40194742053E+03  0.69817379311E+03  0.83857302454E+03  0.50400001928E-02 0. -1.
       -1    1    3    3    0  502  0.23280108077E+03 -0.40194742053E+03  0.23640842822E+03  0.52119767559E+03  0.50400001928E-02 0.  1.
</event>
<event>
 5   0  0.6967681E-03  0.1005553E+04  0.7818609E-02  0.9302476E-01
       -1   -1    0    0    0  501  0.00000000000E+00  0.00000000000E+00  0.30133152977E+03  0.30133152981E+03  0.50400001928E-02 0. -1.
        1   -1    0    0  501    0  0.00000000000E+00  0.00000000000E+00 -0.83889008475E+03  0.83889008476E+03  0.50400001928E-02 0.  1.
    10030    2    1    2    0    0  0.00000000000E+00  0.00000000000E+00 -0.53755855498E+03  0.11402216146E+04  0.10055526492E+04 0.  0.
        5    1    3    3  502    0 -0.10153085311E+03  0.26386399141E+03  0.20262448336E+03  0.34786705988E+03  0.46999998093E+01 0. -1.
       -5    1    3    3    0  502  0.10153085311E+03 -0.26386399141E+03 -0.74018303834E+03  0.79235455469E+03  0.46999998093E+01 0.  1.
</event>
<event>
 5   0  0.7461157E-03  0.9996388E+03  0.7818609E-02  0.9308941E-01
       -1   -1    0    0    0  501  0.00000000000E+00  0.00000000000E+00  0.11196550030E+03  0.11196550041E+03  0.50400001928E-02 0. -1.
        1   -1    0    0  501    0  0.00000000000E+00  0.00000000000E+00 -0.22312181494E+04  0.22312181494E+04  0.50400001928E-02 0.  1.
    10030    2    1    2    0    0  0.00000000000E+00  0.00000000000E+00 -0.21192526491E+04  0.23431836498E+04  0.99963884781E+03 0.  0.
        2    1    3    3  502    0 -0.98574265754E+02 -0.18272521636E+03  0.61061943775E+01  0.20770815145E+03  0.25500000920E-02 0. -1.
       -2    1    3    3    0  502  0.98574265754E+02  0.18272521636E+03 -0.21253588435E+04  0.21354754984E+04  0.25500000920E-02 0.  1.
</event>
<event>
 5   0  0.7073004E-03  0.7731117E+03  0.7818609E-02  0.9599774E-01
       -1   -1    0    0    0  501  0.00000000000E+00  0.00000000000E+00  0.79289327023E+03  0.79289327025E+03  0.50400001928E-02 0. -1.
        1   -1    0    0  501    0  0.00000000000E+00  0.00000000000E+00 -0.18845591546E+03  0.18845591553E+03  0.50400001928E-02 0.  1.
    10030    2    1    2    0    0  0.00000000000E+00  0.00000000000E+00  0.60443735477E+03  0.98134918578E+03  0.77311170511E+03 0.  0.
        1    1    3    3  502    0  0.26386179157E+03 -0.18181455761E+03  0.57666210985E+03  0.65971112419E+03  0.50400001928E-02 0. -1.
       -1    1    3    3    0  502 -0.26386179157E+03  0.18181455761E+03  0.27775244915E+02  0.32163806159E+03  0.50400001928E-02 0.  1.
</event>
<event>
 5   0  0.1221315E-02  0.7780478E+03  0.7818609E-02  0.9592347E-01
        2   -1    0    0  501    0  0.00000000000E+00  0.00000000000E+00  0.48595261950E+03  0.48595261951E+03  0.25500000920E-02 0. -1.
       -2   -1    0    0    0  501  0.00000000000E+00  0.00000000000E+00 -0.31142874079E+03  0.31142874080E+03  0.25500000920E-02 0.  1.
    10030    2    1    2    0    0  0.00000000000E+00  0.00000000000E+00  0.17452387872E+03  0.79738136030E+03  0.77804784526E+03 0.  0.
        5    1    3    3  502    0  0.19642356360E+03 -0.14014722788E+03 -0.22543293459E+03  0.33025075294E+03  0.46999998093E+01 0.  1.
       -5    1    3    3    0  502 -0.19642356360E+03  0.14014722788E+03  0.39995681331E+03  0.46713060736E+03  0.46999998093E+01 0. -1.
</event>
<event>
 5   0  0.1221315E-02  0.9973265E+03  0.7818609E-02  0.9311482E-01
        2   -1    0    0  501    0  0.00000000000E+00  0.00000000000E+00  0.70719478235E+03  0.70719478235E+03  0.25500000920E-02 0.  1.
       -2   -1    0    0    0  501  0.00000000000E+00  0.00000000000E+00 -0.35162170102E+03  0.35162170103E+03  0.25500000920E-02 0. -1.
    10030    2    1    2    0    0  0.00000000000E+00  0.00000000000E+00  0.35557308133E+03  0.10588164834E+04  0.99732649084E+03 0.  0.
        5    1    3    3  502    0 -0.18985052659E+03  0.35534585604E+03 -0.13414680319E+03  0.42465439437E+03  0.46999998093E+01 0.  1.
       -5    1    3    3    0  502  0.18985052659E+03 -0.35534585604E+03  0.48971988452E+03  0.63416208902E+03  0.46999998093E+01 0. -1.
</event>
<event>
 5   0  0.1191822E-02  0.1001574E+04  0.7818609E-02  0.9306820E-01
       -2   -1    0    0    0  501  0.00000000000E+00  0.00000000000E+00  0.65180485202E+03  0.65180485202E+03  0.25500000920E-02 0.  1.
        2   -1    0    0  501    0  0.00000000000E+00  0.00000000000E+00 -0.38475905066E+03  0.38475905067E+03  0.25500000920E-02 0. -1.
    10030    2    1    2    0    0  0.00000000000E+00  0.00000000000E+00  0.26704580136E+03  0.10365639027E+04  0.10015743928E+04 0.  0.
        4    1    3    3  502    0  0.14319441472E+03 -0.23993374543E+03  0.56362923218E+03  0.62908852069E+03  0.12699999809E+01 0.  1.
       -4    1    3    3    0  502 -0.14319441472E+03  0.23993374543E+03 -0.29658343082E+03  0.40747538200E+03  0.12699999809E+01 0. -1.
</event>
<event>
 5   0  0.6967681E-03  0.1031783E+04  0.7818609E-02  0.9274356E-01
        1   -1    0    0  501    0  0.00000000000E+00  0.00000000000E+00  0.59686249879E+03  0.59686249881E+03  0.50400001928E-02 0.  1.
       -1   -1    0    0    0  501  0.00000000000E+00  0.00000000000E+00 -0.44590532412E+03  0.44590532415E+03  0.50400001928E-02 0. -1.
    10030    2    1    2    0    0  0.00000000000E+00  0.00000000000E+00  0.15095717467E+03  0.10427678230E+04  0.10317832447E+04 0.  0.
        5    1    3    3  502    0  0.20137627403E+03 -0.41718108182E+03  0.30489665040E+03  0.55459581336E+03  0.46999998093E+01 0.  1.
       -5    1    3    3    0  502 -0.20137627403E+03  0.41718108182E+03 -0.15393947573E+03  0.48817200960E+03  0.46999998093E+01 0. -1.
</event>
<event>
 5   0  0.1216322E-02  0.7184483E+03  0.7818609E-02  0.9686193E-01
       -2   -1    0    0    0  501  0.00000000000E+00  0.00000000000E+00  0.32804877313E+03  0.32804877314E+03  0.25500000920E-02 0.  1.
        2   -1    0    0  501    0  0.00000000000E+00  0.00000000000E+00 -0.39336221644E+03  0.39336221644E+03  0.25500000920E-02 0. -1.
    10030    2    1    2    0    0  0.00000000000E+00  0.00000000000E+00 -0.65313443306E+02  0.72141098958E+03  0.71844830713E+03 0.  0.
        2    1    3    3  502    0  0.11745047929E+03  0.16384226752E+03 -0.33120938359E+03  0.38773516670E+03  0.25500000920E-02 0. -1.
       -2    1    3    3    0  502 -0.11745047929E+03 -0.16384226752E+03  0.26589594028E+03  0.33367582288E+03  0.25500000920E-02 0.  1.
</event>
<event>
 5   0  0.7461157E-03  0.9474692E+03  0.7818609E-02  0.9368114E-01
        1   -1    0    0  501    0  0.00000000000E+00  0.00000000000E+00  0.51253453479E+03  0.51253453482E+03  0.50400001928E-02 0. -1.
       -1   -1    0    0    0  501  0.00000000000E+00  0.00000000000E+00 -0.43787193551E+03  0.43787193554E+03  0.50400001928E-02 0.  1.
    10030    2    1    2    0    0  0.00000000000E+00  0.00000000000E+00  0.74662599278E+02  0.95040647036E+03  0.94746923706E+03 0.  0.
        2    1    3    3  502    0 -0.79117865875E+02  0.72474171228E+02 -0.42552341266E+03  0.43884201818E+03  0.25500000920E-02 0.  1.
       -2    1    3    3    0  502  0.79117865875E+02 -0.72474171228E+02  0.50018601193E+03  0.51156445218E+03  0.25500000920E-02 0. -1.
</event>
<event>
 5   0  0.1216322E-02  0.1053565E+04  0.7818609E-02  0.9251671E-01
        2   -1    0    0  501    0  0.00000000000E+00  0.00000000000E+00  0.73412017910E+03  0.73412017911E+03  0.25500000920E-02 0. -1.
       -2   -1    0    0    0  501  0.00000000000E+00  0.00000000000E+00 -0.37800318394E+03  0.37800318395E+03  0.25500000920E-02 0.  1.
    10030    2    1    2    0    0  0.00000000000E+00  0.00000000000E+00  0.35611699516E+03  0.11121233631E+04  0.10535649294E+04 0.  0.
        2    1    3    3  502    0  0.30472224969E+03 -0.34632899908E+03 -0.90441904454E+02  0.47008420858E+03  0.25500000920E-02 0.  1.
       -2    1    3    3    0  502 -0.30472224969E+03  0.34632899908E+03  0.44655889961E+03  0.64203915449E+03  0.25500000920E-02 0. -1.
</event>
<event>
 5   0  0.6967681E-03  0.1020949E+04  0.7818609E-02  0.9285862E-01
       -1   -1    0    0    0  501  0.00000000000E+00  0.00000000000E+00  0.63565779480E+03  0.63565779482E+03  0.50400001928E-02 0. -1.
        1   -1    0    0  501    0  0.00000000000E+00  0.00000000000E+00 -0.40994430261E+03  0.40994430264E+03  0.50400001928E-02 0.  1.
    10030    2    1    2    0    0  0.00000000000E+00  0.00000000000E+00  0.22571349219E+03  0.10456020975E+04  0.10209491494E+04 0.  0.
        5    1    3    3  502    0  0.37212913050E+03 -0.14461559013E+03  0.43860707782E+03  0.59312057576E+03  0.46999998093E+01 0. -1.
       -5    1    3    3    0  502 -0.37212913050E+03  0.14461559013E+03 -0.21289358563E+03  0.45248152170E+03  0.46999998093E+01 0.  1.
</event>
<event>
 5   0  0.1191822E-02  0.9912851E+03  0.7818609E-02  0.9318155E-01
        2   -1    0    0  501    0  0.00000000000E+00  0.00000000000E+00  0.13135511133E+04  0.13135511133E+04  0.25500000920E-02 0.  1.
       -2   -1    0    0    0  501  0.00000000000E+00  0.00000000000E+00 -0.18702091750E+03  0.18702091752E+03  0.25500000920E-02 0. -1.
    10030    2    1    2    0    0  0.00000000000E+00  0.00000000000E+00  0.11265301958E+04  0.15005720308E+04  0.99128509401E+03 0.  0.
        4    1    3    3  502    0  0.83787506453E+02 -0.48831220727E+03  0.58417278091E+03  0.76598212046E+03  0.12699999809E+01 0.  1.
       -4    1    3    3    0  502 -0.83787506453E+02  0.48831220727E+03  0.54235741485E+03  0.73458991032E+03  0.12699999809E+01 0. -1.
</event>
<event>
 5   0  0.7073004E-03  0.9729883E+03  0.7818609E-02  0.9338677E-01
       -1   -1    0    0    0  501  0.00000000000E+00  0.00000000000E+00  0.34112235962E+03  0.34112235966E+03  0.50400001928E-02 0.  1.
        1   -1    0    0  501    0  0.00000000000E+00  0.00000000000E+00 -0.69381718836E+03  0.69381718838E+03  0.50400001928E-02 0. -1.
    10030    2    1    2    0    0  0.00000000000E+00  0.00000000000E+00 -0.35269482874E+03  0.10349395480E+04  0.97298829688E+03 0.  0.
        1    1    3    3  502    0  0.31676937248E+03 -0.90247895834E+02 -0.55717886864E+03  0.64725250847E+03  0.50400001928E-02 0. -1.
       -1    1    3    3    0  502 -0.31676937248E+03  0.90247895834E+02  0.20448403990E+03  0.38768703956E+03  0.50400001928E-02 0.  1.
</event>
<event>
 5   0  0.6967681E-03  0.9520922E+03  0.7818609E-02  0.9362708E-01
        1   -1    0    0  501    0  0.00000000000E+00  0.00000000000E+00  0.55299138405E+03  0.55299138407E+03  0.50400001928E-02 0.  1.
       -1   -1    0    0    0  501  0.00000000000E+00  0.00000000000E+00 -0.40980725081E+03  0.40980725084E+03  0.50400001928E-02 0. -1.
    10030    2    1    2    0    0  0.00000000000E+00  0.00000000000E+00  0.14318413325E+03  0.96279863491E+03  0.95209217798E+03 0.  0.
        5    1    3    3  502    0 -0.14913355523E+03  0.61266228526E+02 -0.38133224814E+03  0.41404195623E+03  0.46999998093E+01 0. -1.
       -5    1    3    3    0  502  0.14913355523E+03 -0.61266228526E+02  0.52451638138E+03  0.54875667868E+03  0.46999998093E+01 0.  1.
</event>
<event>
 5   0  0.7241200E-03  0.1021570E+04  0.7818609E-02  0.9285198E-01
       -1   -1    0    0    0  501  0.00000000000E+00  0.00000000000E+00  0.40931243851E+03  0.40931243854E+03  0.50400001928E-02 0.  1.
        1   -1    0    0  501    0  0.00000000000E+00  0.00000000000E+00 -0.63741398681E+03  0.63741398683E+03  0.50400001928E-02 0. -1.
    10030    2    1    2    0    0  0.00000000000E+00  0.00000000000E+00 -0.22810154830E+03  0.10467264254E+04  0.10215703075E+04 0.  0.
        4    1    3    3  502    0  0.10963438080E+03  0.36033389478E+03  0.23946658356E+03  0.44632507293E+03  0.12699999809E+01 0.  1.
       -4    1    3    3    0  502 -0.10963438080E+03 -0.36033389478E+03 -0.46756813186E+03  0.60040135244E+03  0.12699999809E+01 0. -1.
</event>
<event>
 5   0  0.1216322E-02  0.1083200E+04  0.7818609E-02  0.9221723E-01
        2   -1    0    0  501    0  0.00000000000E+00  0.00000000000E+00  0.72697527415E+03  0.72697527415E+03  0.25500000920E-02 0. -1.
       -2   -1    0    0    0  501  0.00000000000E+00  0.00000000000E+00 -0.40349448621E+03  0.40349448622E+03  0.25500000920E-02 0.  1.
    10030    2    1    2    0    0  0.00000000000E+00  0.00000000000E+00  0.32348078793E+03  0.11304697604E+04  0.10831999164E+04 0.  0.
        2    1    3    3  502    0 -0.13510707841E+03  0.25294618647E+03 -0.31776016613E+03  0.42802712423E+03  0.25500000920E-02 0.  1.
       -2    1    3    3    0  502  0.13510707841E+03 -0.25294618647E+03  0.64124095407E+03  0.70244263614E+03  0.25500000920E-02 0. -1.
</event>
<event>
 5   0  0.1245850E-02  0.9814684E+03  0.7818609E-02  0.9329107E-01
        2   -1    0    0  501    0  0.00000000000E+00  0.00000000000E+00  0.61747924700E+03  0.61747924701E+03  0.25500000920E-02 0. -1.
       -2   -1    0    0    0  501  0.00000000000E+00  0.00000000000E+00 -0.39000506205E+03  0.39000506206E+03  0.25500000920E-02 0.  1.
    10030    2    1    2    0    0  0.00000000000E+00  0.00000000000E+00  0.22747418495E+03  0.10074843091E+04  0.98146835313E+03 0.  0.
        3    1    3    3  502    0  0.35855875555E+03 -0.30925015978E+03  0.24607285685E+03  0.53362149843E+03  0.10100000352E+00 0. -1.
       -3    1    3    3    0  502 -0.35855875555E+03  0.30925015978E+03 -0.18598671901E+02  0.47386281064E+03  0.10100000352E+00 0.  1.
</event>
<event>
 5   0  0.6967681E-03  0.1000569E+04  0.7818609E-02  0.9307921E-01
        1   -1    0    0  501    0  0.00000000000E+00  0.00000000000E+00  0.11013844419E+04  0.11013844419E+04  0.50400001928E-02 0. -1.
       -1   -1    0    0    0  501  0.00000000000E+00  0.00000000000E+00 -0.22724558516E+03  0.22724558522E+03  0.50400001928E-02 0.  1.
    10030    2    1    2    0    0  0.00000000000E+00  0.00000000000E+00  0.87413885670E+03  0.13286300271E+04  0.10005693420E+04 0.  0.
        5    1    3    3  502    0 -0.28825238274E+03 -0.36478009969E+03  0.19183045724E+03  0.50296617342E+03  0.46999998093E+01 0.  1.
       -5    1    3    3    0  502  0.28825238274E+03  0.36478009969E+03  0.68230839946E+03  0.82566385367E+03  0.46999998093E+01 0. -1.
</event>
<event>
 5   0  0.1221315E-02  0.1010395E+04  0.7818609E-02  0.9297216E-01
        2   -1    0    0  501    0  0.00000000000E+00  0.00000000000E+00  0.32259577212E+03  0.32259577213E+03  0.25500000920E-02 0. -1.
       -2   -1    0    0    0  501  0.00000000000E+00  0.00000000000E+00 -0.79115930231E+03  0.79115930231E+03  0.25500000920E-02 0.  1.
    10030    2    1    2    0    0  0.00000000000E+00  0.00000000000E+00 -0.46856353019E+03  0.11137550744E+04  0.10103952613E+04 0.  0.
        5    1    3    3  502    0 -0.15346211648E+03 -0.47670481339E+03 -0.30743684990E+03  0.58765432610E+03  0.46999998093E+01 0. -1.
       -5    1    3    3    0  502  0.15346211648E+03  0.47670481339E+03 -0.16112668029E+03  0.52610074834E+03  0.46999998093E+01 0.  1.
</event>
<event>
 5   0  0.1221315E-02  0.1003163E+04  0.7818609E-02  0.9305082E-01
        2   -1    0    0  501    0  0.00000000000E+00  0.00000000000E+00  0.13781248126E+04  0.13781248126E+04  0.25500000920E-02 0. -1.
       -2   -1    0    0    0  501  0.00000000000E+00  0.00000000000E+00 -0.18255544721E+03  0.18255544723E+03  0.25500000920E-02 0.  1.
    10030    2    1    2    0    0  0.00000000000E+00  0.00000000000E+00  0.11955693653E+04  0.15606802598E+04  0.10031633795E+04 0.  0.
        5    1    3    3  502    0 -0.54660086587E+02 -0.45937830290E+03  0.29632875824E+03  0.54940783868E+03  0.46999998093E+01 0.  1.
       -5    1    3    3    0  502  0.54660086587E+02  0.45937830290E+03  0.89924060711E+03  0.10112724211E+04  0.46999998093E+01 0. -1.
</event>
<event>
 5   0  0.1221315E-02  0.9931141E+03  0.7818609E-02  0.9316130E-01
        2   -1    0    0  501    0  0.00000000000E+00  0.00000000000E+00  0.16948849932E+03  0.16948849934E+03  0.25500000920E-02 0. -1.
       -2   -1    0    0    0  501  0.00000000000E+00  0.00000000000E+00 -0.14547825465E+04  0.14547825465E+04  0.25500000920E-02 0.  1.
    10030    2    1    2    0    0  0.00000000000E+00  0.00000000000E+00 -0.12852940472E+04  0.16242710458E+04  0.99311411360E+03 0.  0.
        5    1    3    3  502    0 -0.99062822746E+01 -0.27008915527E+03  0.38608061847E+02  0.27305486383E+03  0.46999998093E+01 0. -1.
       -5    1    3    3    0  502  0.99062822746E+01  0.27008915527E+03 -0.13239021090E+04  0.13512161820E+04  0.46999998093E+01 0.  1.
</event>
<event>
 5   0  0.7241200E-03  0.9858155E+03  0.7818609E-02  0.9324240E-01
       -1   -1    0    0    0  501  0.00000000000E+00  0.00000000000E+00  0.11176460335E+04  0.11176460336E+04  0.50400001928E-02 0.  1.
        1   -1    0    0  501    0  0.00000000000E+00  0.00000000000E+00 -0.21738370451E+03  0.21738370457E+03  0.50400001928E-02 0. -1.
    10030    2    1    2    0    0  0.00000000000E+00  0.00000000000E+00  0.90026232904E+03  0.13350297381E+04  0.98581546985E+03 0.  0.
        4    1    3    3  502    0 -0.32185856848E+03 -0.37133731282E+03  0.50209026734E+03  0.70255290723E+03  0.12699999809E+01 0. -1.
       -4    1    3    3    0  502  0.32185856848E+03  0.37133731282E+03  0.39817206171E+03  0.63247683090E+03  0.12699999809E+01 0.  1.
</event>
<event>
 5   0  0.1191822E-02  0.1026029E+04  0.7818609E-02  0.9280449E-01
        2   -1    0    0  501    0  0.00000000000E+00  0.00000000000E+00  0.26786224483E+03  0.26786224484E+03  0.25500000920E-02 0.  1.
       -2   -1    0    0    0  501  0.00000000000E+00  0.00000000000E+00 -0.98253389547E+03  0.98253389547E+03  0.25500000920E-02 0. -1.
    10030    2    1    2    0    0  0.00000000000E+00  0.00000000000E+00 -0.71467165064E+03  0.12503961403E+04  0.10260287225E+04 0.  0.
        4    1    3    3  502    0  0.12156917195E+03  0.49132218581E+03 -0.25533356714E+03  0.56689804837E+03  0.12699999809E+01 0.  1.
       -4    1    3    3    0  502 -0.12156917195E+03 -0.49132218581E+03 -0.45933808350E+03  0.68349809194E+03  0.12699999809E+01 0. -1.
</event>
<event>
 5   0  0.7073004E-03  0.1087471E+04  0.7818609E-02  0.9217490E-01
       -1   -1    0    0    0  501  0.00000000000E+00  0.00000000000E+00  0.15821053191E+03  0.15821053199E+03  0.50400001928E-02 0. -1.
        1   -1    0    0  501    0  0.00000000000E+00  0.00000000000E+00 -0.18687009430E+04  0.18687009430E+04  0.50400001928E-02 0.  1.
    10030    2    1    2    0    0  0.00000000000E+00  0.00000000000E+00 -0.17104904111E+04  0.20269114750E+04  0.10874707725E+04 0.  0.
        1    1    3    3  502    0  0.55746208668E+02 -0.51279722350E+03 -0.53468258384E+03  0.74293613299E+03  0.50400001928E-02 0. -1.
       -1    1    3    3    0  502 -0.55746208668E+02  0.51279722350E+03 -0.11758078272E+04  0.12839753420E+04  0.50400001928E-02 0.  1.
</event>
<event>
 5   0  0.4782125E-03  0.1004424E+04  0.7818609E-02  0.9303706E-01
       -3   -1    0    0    0  501  0.00000000000E+00  0.00000000000E+00  0.31952189089E+03  0.31952190685E+03  0.10100000352E+00 0. -1.
        3   -1    0    0  501    0  0.00000000000E+00  0.00000000000E+00 -0.78935669590E+03  0.78935670236E+03  0.10100000352E+00 0.  1.
    10030    2    1    2    0    0  0.00000000000E+00  0.00000000000E+00 -0.46983480501E+03  0.11088786092E+04  0.10044237283E+04 0.  0.
        3    1    3    3  502    0  0.11321572632E+03 -0.15742990413E+03 -0.74635994038E+03  0.77113886312E+03  0.10100000352E+00 0.  1.
       -3    1    3    3    0  502 -0.11321572632E+03  0.15742990413E+03  0.27652513537E+03  0.33773974610E+03  0.10100000352E+00 0. -1.
</event>
<event>
 5   0  0.7073004E-03  0.9742058E+03  0.7818609E-02  0.9337297E-01
        1   -1    0    0  501    0  0.00000000000E+00  0.00000000000E+00  0.11962555165E+04  0.11962555166E+04  0.50400001928E-02 0. -1.
       -1   -1    0    0    0  501  0.00000000000E+00  0.00000000000E+00 -0.19834328751E+03  0.19834328757E+03  0.50400001928E-02 0.  1.
    10030    2    1    2    0    0  0.00000000000E+00  0.00000000000E+00  0.99791222903E+03  0.13945988041E+04  0.97420583431E+03 0.  0.
        1    1    3    3  502    0 -0.43057190775E+02 -0.24050565671E+03 -0.10427848712E+03  0.26565183133E+03  0.50400001928E-02 0.  1.
       -1    1    3    3    0  502  0.43057190775E+02  0.24050565671E+03  0.11021907162E+04  0.11289469728E+04  0.50400001928E-02 0. -1.
</event>
<event>
 5   0  0.7461157E-03  0.1020580E+04  0.7818609E-02  0.9286256E-01
        1   -1    0    0  501    0  0.00000000000E+00  0.00000000000E+00  0.41889753241E+03  0.41889753244E+03  0.50400001928E-02 0. -1.
       -1   -1    0    0    0  501  0.00000000000E+00  0.00000000000E+00 -0.62162232259E+03  0.62162232261E+03  0.50400001928E-02 0.  1.
    10030    2    1    2    0    0  0.00000000000E+00  0.00000000000E+00 -0.20272479018E+03  0.10405198551E+04  0.10205803389E+04 0.  0.
        2    1    3    3  502    0 -0.31433530855E+03  0.23136603691E+03  0.23378349896E+03  0.45496335416E+03  0.25500000920E-02 0. -1.
       -2    1    3    3    0  502  0.31433530855E+03 -0.23136603691E+03 -0.43650828914E+03  0.58555650089E+03  0.25500000920E-02 0.  1.
</event>
<event>
 5   0  0.1191822E-02  0.9194754E+03  0.7818609E-02  0.9401558E-01
        2   -1    0    0  501    0  0.00000000000E+00  0.00000000000E+00  0.42112014891E+03  0.42112014892E+03  0.25500000920E-02 0.  1.
       -2   -1    0    0    0  501  0.00000000000E+00  0.00000000000E+00 -0.50189653160E+03  0.50189653160E+03  0.25500000920E-02 0. -1.
    10030    2    1    2    0    0  0.00000000000E+00  0.00000000000E+00 -0.80776382688E+02  0.92301668052E+03  0.91947537679E+03 0.  0.
        4    1    3    3  502    0  0.22191543443E+03 -0.12987504160E+02 -0.44435825914E+03  0.49686115834E+03  0.12699999809E+01 0. -1.
       -4    1    3    3    0  502 -0.22191543443E+03  0.12987504160E+02  0.36358187645E+03  0.42615552218E+03  0.12699999809E+01 0.  1.
</event>
<event>
 5   0  0.7241200E-03  0.1025497E+04  0.7818609E-02  0.9281014E-01
       -1   -1    0    0    0  501  0.00000000000E+00  0.00000000000E+00  0.49223792883E+03  0.49223792885E+03  0.50400001928E-02 0.  1.
        1   -1    0    0  501    0  0.00000000000E+00  0.00000000000E+00 -0.53411320929E+03  0.53411320932E+03  0.50400001928E-02 0. -1.
    10030    2    1    2    0    0  0.00000000000E+00  0.00000000000E+00 -0.41875280467E+02  0.10263511382E+04  0.10254965235E+04 0.  0.
        4    1    3    3  502    0  0.23244182707E+03  0.15035229450E+03 -0.45289220997E+03  0.53079938035E+03  0.12699999809E+01 0. -1.
       -4    1    3    3    0  502 -0.23244182707E+03 -0.15035229450E+03  0.41101692950E+03  0.49555175781E+03  0.12699999809E+01 0.  1.
</event>
<event>
 5   0  0.7073004E-03  0.9962588E+03  0.7818609E-02  0.9312658E-01
       -1   -1    0    0    0  501  0.00000000000E+00  0.00000000000E+00  0.29677064668E+03  0.29677064672E+03  0.50400001928E-02 0. -1.
        1   -1    0    0  501    0  0.00000000000E+00  0.00000000000E+00 -0.83611005214E+03  0.83611005215E+03  0.50400001928E-02 0.  1.
    10030    2    1    2    0    0  0.00000000000E+00  0.00000000000E+00 -0.53933940546E+03  0.11328806989E+04  0.99625884368E+03 0.  0.
        1    1    3    3  502    0  0.26920000728E+03  0.40338489614E+03 -0.14029142059E+03  0.50484621527E+03  0.50400001928E-02 0.  1.
       -1    1    3    3    0  502 -0.26920000728E+03 -0.40338489614E+03 -0.39904798486E+03  0.62803448361E+03  0.50400001928E-02 0. -1.
</event>
<event>
 5   0  0.1240503E-02  0.1028770E+04  0.7818609E-02  0.9277541E-01
        2   -1    0    0  501    0  0.00000000000E+00  0.00000000000E+00  0.20498200406E+04  0.20498200406E+04  0.25500000920E-02 0. -1.
       -2   -1    0    0    0  501  0.00000000000E+00  0.00000000000E+00 -0.12908056255E+03  0.12908056258E+03  0.25500000920E-02 0.  1.
    10030    2    1    2    0    0  0.00000000000E+00  0.00000000000E+00  0.19207394781E+04  0.21789006032E+04  0.10287699918E+04 0.  0.
        1    1    3    3  502    0 -0.12072610432E+03  0.41871792369E+03  0.15392082688E+04  0.15997067189E+04  0.50400001928E-02 0.  1.
       -1    1    3    3    0  502  0.12072610432E+03 -0.41871792369E+03  0.38153120929E+03  0.57919388427E+03  0.50400001928E-02 0. -1.
</event>
<event>
 5   0  0.1221315E-02  0.9686539E+03  0.7818609E-02  0.9343609E-01
       -2   -1    0    0    0  501  0.00000000000E+00  0.00000000000E+00  0.80313062223E+03  0.80313062224E+03  0.25500000920E-02 0.  1.
        2   -1    0    0  501    0  0.00000000000E+00  0.00000000000E+00 -0.29207278721E+03  0.29207278722E+03  0.25500000920E-02 0. -1.
    10030    2    1    2    0    0  0.00000000000E+00  0.00000000000E+00  0.51105783503E+03  0.10952034095E+04  0.96865390999E+03 0.  0.
        5    1    3    3  502    0 -0.23539414078E+03 -0.40811762485E+03  0.12871456547E+03  0.48842596838E+03  0.46999998093E+01 0. -1.
       -5    1    3    3    0  502  0.23539414078E+03  0.40811762485E+03  0.38234326955E+03  0.60677744108E+03  0.46999998093E+01 0.  1.
</event>
<event>
 5   0  0.7241200E-03  0.1072375E+04  0.7818609E-02  0.9232543E-01
        1   -1    0    0  501    0  0.00000000000E+00  0.00000000000E+00  0.11870902079E+04  0.11870902079E+04  0.50400001928E-02 0. -1.
       -1   -1    0    0    0  501  0.00000000000E+00  0.00000000000E+00 -0.24218628693E+03  0.24218628699E+03  0.50400001928E-02 0.  1.
    10030    2    1    2    0    0  0.00000000000E+00  0.00000000000E+00  0.94490392098E+03  0.14292764949E+04  0.10723748780E+04 0.  0.
        4    1    3    3  502    0 -0.17298686470E+03  0.47605464079E+03  0.23800209384E+03  0.55964192655E+03  0.12699999809E+01 0.  1.
       -4    1    3    3    0  502  0.17298686470E+03 -0.47605464079E+03  0.70690182715E+03  0.86963456837E+03  0.12699999809E+01 0. -1.
</event>
<event>
 5   0  0.1191822E-02  0.1009494E+04  0.7818609E-02  0.9298192E-01
       -2   -1    0    0    0  501  0.00000000000E+00  0.00000000000E+00  0.74968253066E+03  0.74968253067E+03  0.25500000920E-02 0. -1.
        2   -1    0    0  501    0  0.00000000000E+00  0.00000000000E+00 -0.33983683143E+03  0.33983683144E+03  0.25500000920E-02 0.  1.
    10030    2    1    2    0    0  0.00000000000E+00  0.00000000000E+00  0.40984569923E+03  0.10895193621E+04  0.10094943998E+04 0.  0.
        4    1    3    3  502    0  0.20306720723E+03 -0.37879429361E+03 -0.80721032086E+02  0.43730870726E+03  0.12699999809E+01 0. -1.
       -4    1    3    3    0  502 -0.20306720723E+03  0.37879429361E+03  0.49056673132E+03  0.65221065485E+03  0.12699999809E+01 0.  1.
</event>
<event>
 5   0  0.1216322E-02  0.9555279E+03  0.7818609E-02  0.9358713E-01
       -2   -1    0    0    0  501  0.00000000000E+00  0.00000000000E+00  0.56314751941E+03  0.56314751942E+03  0.25500000920E-02 0. -1.
        2   -1    0    0  501    0  0.00000000000E+00  0.00000000000E+00 -0.40532608652E+03  0.40532608652E+03  0.25500000920E-02 0.  1.
    10030    2    1    2    0    0  0.00000000000E+00  0.00000000000E+00  0.15782143290E+03  0.96847360594E+03  0.95552787543E+03 0.  0.
        2    1    3    3  502    0  0.17286785311E+03 -0.41059508451E+03 -0.96015972832E+02  0.45573093499E+03  0.25500000920E-02 0.  1.
       -2    1    3    3    0  502 -0.17286785311E+03  0.41059508451E+03  0.25383740573E+03  0.51274267095E+03  0.25500000920E-02 0. -1.
</event>
<event>
 5   0  0.7073004E-03  0.1002569E+04  0.7818609E-02  0.9305732E-01
       -1   -1    0    0    0  501  0.00000000000E+00  0.00000000000E+00  0.73864861384E+03  0.73864861386E+03  0.50400001928E-02 0. -1.
        1   -1    0    0  501    0  0.00000000000E+00  0.00000000000E+00 -0.34019687261E+03  0.34019687264E+03  0.50400001928E-02 0.  1.
    10030    2    1    2    0    0  0.00000000000E+00  0.00000000000E+00  0.39845174124E+03  0.10788454865E+04  0.10025685980E+04 0.  0.
        1    1    3    3  502    0 -0.49496815870E+02 -0.46335491450E+02  0.73369186107E+03  0.73681792838E+03  0.50400001928E-02 0. -1.
       -1    1    3    3    0  502  0.49496815870E+02  0.46335491450E+02 -0.33524011983E+03  0.34202755813E+03  0.50400001928E-02 0.  1.
</event>
<event>
 5   0  0.1216322E-02  0.9891193E+03  0.7818609E-02  0.9320560E-01
       -2   -1    0    0    0  501  0.00000000000E+00  0.00000000000E+00  0.43717448635E+03  0.43717448636E+03  0.25500000920E-02 0. -1.
        2   -1    0    0  501    0  0.00000000000E+00  0.00000000000E+00 -0.55947741441E+03  0.55947741441E+03  0.25500000920E-02 0.  1.
    10030    2    1    2    0    0  0.00000000000E+00  0.00000000000E+00 -0.12230292805E+03  0.99665190077E+03  0.98911930782E+03 0.  0.
        2    1    3    3  502    0 -0.39607631142E+03  0.24372842198E+03  0.10838343126E+03  0.47752168153E+03  0.25500000920E-02 0. -1.
       -2    1    3    3    0  502  0.39607631142E+03 -0.24372842198E+03 -0.23068635931E+03  0.51913021924E+03  0.25500000920E-02 0.  1.
</event>
<event>
 5   0  0.7461157E-03  0.1010123E+04  0.7818609E-02  0.9297511E-01
        1   -1    0    0  501    0  0.00000000000E+00  0.00000000000E+00  0.36513860246E+03  0.36513860249E+03  0.50400001928E-02 0.  1.
       -1   -1    0    0    0  501  0.00000000000E+00  0.00000000000E+00 -0.69860325169E+03  0.69860325170E+03  0.50400001928E-02 0. -1.
    10030    2    1    2    0    0  0.00000000000E+00  0.00000000000E+00 -0.33346464923E+03  0.10637418542E+04  0.10101227946E+04 0.  0.
        2    1    3    3  502    0 -0.18629441598E+03 -0.29745491287E+03  0.21572918414E+03  0.41197586764E+03  0.25500000920E-02 0. -1.
       -2    1    3    3    0  502  0.18629441598E+03  0.29745491287E+03 -0.54919383337E+03  0.65176598656E+03  0.25500000920E-02 0.  1.
</event>
<event>
 5   0  0.7241200E-03  0.9972714E+03  0.7818609E-02  0.9311543E-01
        1   -1    0    0  501    0  0.00000000000E+00  0.00000000000E+00  0.88253952368E+03  0.88253952370E+03  0.50400001928E-02 0.  1.
       -1   -1    0    0    0  501  0.00000000000E+00  0.00000000000E+00 -0.28172967820E+03  0.28172967824E+03  0.50400001928E-02 0. -1.
    10030    2    1    2    0    0  0.00000000000E+00  0.00000000000E+00  0.60080984549E+03  0.11642692019E+04  0.99727142953E+03 0.  0.
        4    1    3    3  502    0  0.34132574204E+03  0.10710706513E+02  0.72459116282E+03  0.80103180184E+03  0.12699999809E+01 0.  1.
       -4    1    3    3    0  502 -0.34132574204E+03 -0.10710706513E+02 -0.12378131734E+03  0.36323740010E+03  0.12699999809E+01 0. -1.
</event>
<event>
 5   0  0.1240503E-02  0.1008691E+04  0.7818609E-02  0.9299064E-01
       -2   -1    0    0    0  501  0.00000000000E+00  0.00000000000E+00  0.32556748595E+03  0.32556748596E+03  0.25500000920E-02 0. -1.
        2   -1    0    0  501    0  0.00000000000E+00  0.00000000000E+00 -0.78129494870E+03  0.78129494871E+03  0.25500000920E-02 0.  1.
    10030    2    1    2    0    0  0.00000000000E+00  0.00000000000E+00 -0.45572746275E+03  0.11068624347E+04  0.10086907004E+04 0.  0.
        1    1    3    3  502    0 -0.19476684775E+03  0.14539478171E+03 -0.71279049160E+03  0.75308967094E+03  0.50400001928E-02 0.  1.
       -1    1    3    3    0  502  0.19476684775E+03 -0.14539478171E+03  0.25706302885E+03  0.35377276373E+03  0.50400001928E-02 0. -1.
</event>
<event>
 5   0  0.1216322E-02  0.9980548E+03  0.7818609E-02  0.9310681E-01
       -2   -1    0    0    0  501  0.00000000000E+00  0.00000000000E+00  0.25362819215E+03  0.25362819216E+03  0.25500000920E-02 0. -1.
        2   -1    0    0  501    0  0.00000000000E+00  0.00000000000E+00 -0.98186374761E+03  0.98186374761E+03  0.25500000920E-02 0.  1.
    10030    2    1    2    0    0  0.00000000000E+00  0.00000000000E+00 -0.72823555546E+03  0.12354919398E+04  0.99805476253E+03 0.  0.
        2    1    3    3  502    0  0.13822618020E+02  0.12660715579E+03 -0.96140660772E+03  0.96980570324E+03  0.25500000920E-02 0.  1.
       -2    1    3    3    0  502 -0.13822618020E+02 -0.12660715579E+03  0.23317105226E+03  0.26568623653E+03  0.25500000920E-02 0. -1.
</event>
<event>
 5   0  0.7073004E-03  0.9937313E+03  0.7818609E-02  0.9315447E-01
        1   -1    0    0  501    0  0.00000000000E+00  0.00000000000E+00  0.68152984150E+03  0.68152984152E+03  0.50400001928E-02 0.  1.
       -1   -1    0    0    0  501  0.00000000000E+00  0.00000000000E+00 -0.36223719720E+03  0.36223719723E+03  0.50400001928E-02 0. -1.
    10030    2    1    2    0    0  0.00000000000E+00  0.00000000000E+00  0.31929264430E+03  0.10437670388E+04  0.99373127076E+03 0.  0.
        1    1    3    3  502    0 -0.54869280570E+02 -0.23906073292E+03  0.61350848580E+03  0.66072182812E+03  0.50400001928E-02 0.  1.
       -1    1    3    3    0  502  0.54869280570E+02  0.23906073292E+03 -0.29421584150E+03  0.38304521064E+03  0.50400001928E-02 0. -1.
</event>
<event>
 5   0  0.7461157E-03  0.9920366E+03  0.7818609E-02  0.9317322E-01
       -1   -1    0    0    0  501  0.00000000000E+00  0.00000000000E+00  0.26349664090E+03  0.26349664095E+03  0.50400001928E-02 0.  1.
        1   -1    0    0  501    0  0.00000000000E+00  0.00000000000E+00 -0.93372778705E+03  0.93372778706E+03  0.50400001928E-02 0. -1.
    10030    2    1    2    0    0  0.00000000000E+00  0.00000000000E+00 -0.67023114615E+03  0.11972244280E+04  0.99203656271E+03 0.  0.
        2    1    3    3  502    0 -0.17588281440E+03 -0.39823885735E+03 -0.62199013227E+03  0.75921056141E+03  0.25500000920E-02 0.  1.
       -2    1    3    3    0  502  0.17588281440E+03  0.39823885735E+03 -0.48241013877E+02  0.43801386660E+03  0.25500000920E-02 0. -1.
</event>
<event>
 5   0  0.1240503E-02  0.1010686E+04  0.7818609E-02  0.9296902E-01
       -2   -1    0    0    0  501  0.00000000000E+00  0.00000000000E+00  0.40217188576E+03  0.40217188577E+03  0.25500000920E-02 0. -1.
        2   -1    0    0  501    0  0.00000000000E+00  0.00000000000E+00 -0.63498062693E+03  0.63498062694E+03  0.25500000920E-02 0.  1.
    10030    2    1    2    0    0  0.00000000000E+00  0.00000000000E+00 -0.23280874117E+03  0.10371525127E+04  0.10106856211E+04 0.  0.
        1    1    3    3  502    0 -0.23041630756E+01 -0.26882067099E+03  0.32270477298E+03  0.42000980090E+03  0.50400001928E-02 0. -1.
       -1    1    3    3    0  502  0.23041630756E+01  0.26882067099E+03 -0.55551351415E+03  0.61714271182E+03  0.50400001928E-02 0.  1.
</event>
<event>
 5   0  0.7461157E-03  0.1011803E+04  0.7818609E-02  0.9295693E-01
       -1   -1    0    0    0  501  0.00000000000E+00  0.00000000000E+00  0.23263219744E+03  0.23263219749E+03  0.50400001928E-02 0. -1.
        1   -1    0    0  501    0  0.00000000000E+00  0.00000000000E+00 -0.11001759987E+04  0.11001759988E+04  0.50400001928E-02 0.  1.
    10030    2    1    2    0    0  0.00000000000E+00  0.00000000000E+00 -0.86754380131E+03  0.13328081963E+04  0.10118030642E+04 0.  0.
        2    1    3    3  502    0 -0.27632029962E+03  0.29402071592E+03 -0.83577440200E+03  0.92807324087E+03  0.25500000920E-02 0.  1.
       -2    1    3    3    0  502  0.27632029962E+03 -0.29402071592E+03 -0.31769399307E+02  0.40473495538E+03  0.25500000920E-02 0. -1.
</event>
<event>
 5   0  0.7224879E-03  0.9490807E+03  0.7818609E-02  0.9366226E-01
        1   -1    0    0  501    0  0.00000000000E+00  0.00000000000E+00  0.10679297861E+04  0.10679297861E+04  0.50400001928E-02 0. -1.
       -1   -1    0    0    0  501  0.00000000000E+00  0.00000000000E+00 -0.21086455597E+03  0.21086455603E+03  0.50400001928E-02 0.  1.
    10030    2    1    2    0    0  0.00000000000E+00  0.00000000000E+00  0.85706523008E+03  0.12787943421E+04  0.94908069244E+03 0.  0.
        3    1    3    3  502    0 -0.27949207387E+03  0.18021512396E+03 -0.27589173395E+02  0.33369819141E+03  0.10100000352E+00 0.  1.
       -3    1    3    3    0  502  0.27949207387E+03 -0.18021512396E+03  0.88465440348E+03  0.94509615069E+03  0.10100000352E+00 0. -1.
</event>
<event>
 5   0  0.1191822E-02  0.9467577E+03  0.7818609E-02  0.9368948E-01
        2   -1    0    0  501    0  0.00000000000E+00  0.00000000000E+00  0.11321425450E+04  0.11321425450E+04  0.25500000920E-02 0. -1.
       -2   -1    0    0    0  501  0.00000000000E+00  0.00000000000E+00 -0.19793226734E+03  0.19793226736E+03  0.25500000920E-02 0.  1.
    10030    2    1    2    0    0  0.00000000000E+00  0.00000000000E+00  0.93421027763E+03  0.13300748123E+04  0.94675771111E+03 0.  0.
        4    1    3    3  502    0 -0.27020461407E+03 -0.13385055651E+03 -0.45547468660E+02  0.30496342362E+03  0.12699999809E+01 0.  1.
       -4    1    3    3    0  502  0.27020461407E+03  0.13385055651E+03  0.97975774629E+03  0.10251113887E+04  0.12699999809E+01 0. -1.
</event>
<event>
 5   0  0.1191822E-02  0.1035249E+04  0.7818609E-02  0.9270708E-01
        2   -1    0    0  501    0  0.00000000000E+00  0.00000000000E+00  0.63770988934E+03  0.63770988935E+03  0.25500000920E-02 0. -1.
       -2   -1    0    0    0  501  0.00000000000E+00  0.00000000000E+00 -0.42015176303E+03  0.42015176303E+03  0.25500000920E-02 0.  1.
    10030    2    1    2    0    0  0.00000000000E+00  0.00000000000E+00  0.21755812632E+03  0.10578616524E+04  0.10352486355E+04 0.  0.
        4    1    3    3  502    0 -0.27203002214E+03  0.41162577489E+03  0.26871369658E+03  0.56182272572E+03  0.12699999809E+01 0. -1.
       -4    1    3    3    0  502  0.27203002214E+03 -0.41162577489E+03 -0.51155570269E+02  0.49603892667E+03  0.12699999809E+01 0.  1.
</event>
<event>
 5   0  0.1191822E-02  0.1052108E+04  0.7818609E-02  0.9253170E-01
        2   -1    0    0  501    0  0.00000000000E+00  0.00000000000E+00  0.10634132760E+04  0.10634132760E+04  0.25500000920E-02 0. -1.
       -2   -1    0    0    0  501  0.00000000000E+00  0.00000000000E+00 -0.26023066657E+03  0.26023066659E+03  0.25500000920E-02 0.  1.
    10030    2    1    2    0    0  0.00000000000E+00  0.00000000000E+00  0.80318260940E+03  0.13236439426E+04  0.10521078760E+04 0.  0.
        4    1    3    3  502    0  0.89512894913E+01 -0.49330268326E+03  0.63118272103E+03  0.80113725611E+03  0.12699999809E+01 0. -1.
       -4    1    3    3    0  502 -0.89512894913E+01  0.49330268326E+03  0.17199988836E+03  0.52250668645E+03  0.12699999809E+01 0.  1.
</event>
<event>
 5   0  0.1245850E-02  0.9945910E+03  0.7818609E-02  0.9314497E-01
       -2   -1    0    0    0  501  0.00000000000E+00  0.00000000000E+00  0.32518945624E+03  0.32518945625E+03  0.25500000920E-02 0.  1.
        2   -1    0    0  501    0  0.00000000000E+00  0.00000000000E+00 -0.76048843769E+03  0.76048843770E+03  0.25500000920E-02 0. -1.
    10030    2    1    2    0    0  0.00000000000E+00  0.00000000000E+00 -0.43529898145E+03  0.10856778939E+04  0.99459101451E+03 0.  0.
        3    1    3    3  502    0  0.40780460658E+03 -0.28448612611E+03 -0.20879096343E+03  0.53928714958E+03  0.10100000352E+00 0. -1.
       -3    1    3    3    0  502 -0.40780460658E+03  0.28448612611E+03 -0.22650801803E+03  0.54639074436E+03  0.10100000352E+00 0.  1.
</event>
<event>
 5   0  0.7073004E-03  0.9890997E+03  0.7818609E-02  0.9320581E-01
        1   -1    0    0  501    0  0.00000000000E+00  0.00000000000E+00  0.32842807805E+03  0.32842807809E+03  0.50400001928E-02 0. -1.
       -1   -1    0    0    0  501  0.00000000000E+00  0.00000000000E+00 -0.74469747463E+03  0.74469747465E+03  0.50400001928E-02 0.  1.
    10030    2    1    2    0    0  0.00000000000E+00  0.00000000000E+00 -0.41626939659E+03  0.10731255527E+04  0.98909971257E+03 0.  0.
        1    1    3    3  502    0  0.81100450652E+02 -0.10257691781E+03  0.30933188812E+03  0.33583556124E+03  0.50400001928E-02 0. -1.
       -1    1    3    3    0  502 -0.81100450652E+02  0.10257691781E+03 -0.72560128471E+03  0.73728999149E+03  0.50400001928E-02 0.  1.
</event>
<event>
 5   0  0.1216322E-02  0.9916657E+03  0.7818609E-02  0.9317733E-01
       -2   -1    0    0    0  501  0.00000000000E+00  0.00000000000E+00  0.10711591560E+04  0.10711591560E+04  0.25500000920E-02 0. -1.
        2   -1    0    0  501    0  0.00000000000E+00  0.00000000000E+00 -0.22951791929E+03  0.22951791930E+03  0.25500000920E-02 0.  1.
    10030    2    1    2    0    0  0.00000000000E+00  0.00000000000E+00  0.84164123673E+03  0.13006770753E+04  0.99166571126E+03 0.  0.
        2    1    3    3  502    0  0.22427837339E+03  0.23581771675E+02  0.10000013018E+04  0.10251143802E+04  0.25500000920E-02 0. -1.
       -2    1    3    3    0  502 -0.22427837339E+03 -0.23581771675E+02 -0.15836006512E+03  0.27556269515E+03  0.25500000920E-02 0.  1.
</event>
<event>
 5   0  0.1240503E-02  0.1036703E+04  0.7818609E-02  0.9269181E-01
       -2   -1    0    0    0  501  0.00000000000E+00  0.00000000000E+00  0.37688774755E+03  0.37688774756E+03  0.25500000920E-02 0.  1.
        2   -1    0    0  501    0  0.00000000000E+00  0.00000000000E+00 -0.71291324932E+03  0.71291324932E+03  0.25500000920E-02 0. -1.
    10030    2    1    2    0    0  0.00000000000E+00  0.00000000000E+00 -0.33602550177E+03  0.10898009969E+04  0.10367029830E+04 0.  0.
        1    1    3    3  502    0  0.23952308085E+03 -0.56942202781E+02  0.31150239867E+03  0.39704844178E+03  0.50400001928E-02 0.  1.
       -1    1    3    3    0  502 -0.23952308085E+03  0.56942202781E+02 -0.64752790044E+03  0.69275255509E+03  0.50400001928E-02 0. -1.
</event>
<event>
 5   0  0.7461157E-03  0.9978192E+03  0.7818609E-02  0.9310940E-01
        1   -1    0    0  501    0  0.00000000000E+00  0.00000000000E+00  0.10489237917E+04  0.10489237917E+04  0.50400001928E-02 0.  1.
       -1   -1    0    0    0  501  0.00000000000E+00  0.00000000000E+00 -0.23730112320E+03  0.23730112325E+03  0.50400001928E-02 0. -1.
    10030    2    1    2    0    0  0.00000000000E+00  0.00000000000E+00  0.81162266850E+03  0.12862249150E+04  0.99781921001E+03 0.  0.
        2    1    3    3  502    0  0.75479073107E+02 -0.23569792778E+03 -0.15259602521E+03  0.29075101127E+03  0.25500000920E-02 0. -1.
       -2    1    3    3    0  502 -0.75479073107E+02  0.23569792778E+03  0.96421869371E+03  0.99547390370E+03  0.25500000920E-02 0.  1.
</event>
<event>
 5   0  0.7461157E-03  0.1014894E+04  0.7818609E-02  0.9292359E-01
        1   -1    0    0  501    0  0.00000000000E+00  0.00000000000E+00  0.50070127951E+03  0.50070127953E+03  0.50400001928E-02 0.  1.
       -1   -1    0    0    0  501  0.00000000000E+00  0.00000000000E+00 -0.51428313340E+03  0.51428313343E+03  0.50400001928E-02 0. -1.
    10030    2    1    2    0    0  0.00000000000E+00  0.00000000000E+00 -0.13581853896E+02  0.10149844130E+04  0.10148935372E+04 0.  0.
        2    1    3    3  502    0 -0.26782581794E+03 -0.28568022284E+03 -0.32955557563E+03  0.51181123074E+03  0.25500000920E-02 0. -1.
       -2    1    3    3    0  502  0.26782581794E+03  0.28568022284E+03  0.31597372173E+03  0.50317318222E+03  0.25500000920E-02 0.  1.
</event>
<event>
 5   0  0.1191822E-02  0.1004526E+04  0.7818609E-02  0.9303595E-01
        2   -1    0    0  501    0  0.00000000000E+00  0.00000000000E+00  0.19917979494E+04  0.19917979494E+04  0.25500000920E-02 0.  1.
       -2   -1    0    0    0  501  0.00000000000E+00  0.00000000000E+00 -0.12665345589E+03  0.12665345592E+03  0.25500000920E-02 0. -1.
    10030    2    1    2    0    0  0.00000000000E+00  0.00000000000E+00  0.18651444935E+04  0.21184514053E+04  0.10045259454E+04 0.  0.
        4    1    3    3  502    0  0.18665118904E+03 -0.10873799244E+03  0.18888256272E+04  0.19011382066E+04  0.12699999809E+01 0.  1.
       -4    1    3    3    0  502 -0.18665118904E+03  0.10873799244E+03 -0.23681133725E+02  0.21731319878E+03  0.12699999809E+01 0. -1.
</event>
<event>
 5   0  0.1191822E-02  0.9741201E+03  0.7818609E-02  0.9337394E-01
        2   -1    0    0  501    0  0.00000000000E+00  0.00000000000E+00  0.20672909144E+04  0.20672909144E+04  0.25500000920E-02 0.  1.
       -2   -1    0    0    0  501  0.00000000000E+00  0.00000000000E+00 -0.11475284355E+03  0.11475284357E+03  0.25500000920E-02 0. -1.
    10030    2    1    2    0    0  0.00000000000E+00  0.00000000000E+00  0.19525380708E+04  0.21820437580E+04  0.97412013816E+03 0.  0.
        4    1    3    3  502    0 -0.27407922501E+03 -0.10317752693E+03  0.18480375178E+04  0.18710984217E+04  0.12699999809E+01 0.  1.
       -4    1    3    3    0  502  0.27407922501E+03  0.10317752693E+03  0.10450055303E+03  0.31094533624E+03  0.12699999809E+01 0. -1.
</event>
<event>
 5   0  0.1191822E-02  0.1015743E+04  0.7818609E-02  0.9291445E-01
       -2   -1    0    0    0  501  0.00000000000E+00  0.00000000000E+00  0.18002947629E+03  0.18002947631E+03  0.25500000920E-02 0. -1.
        2   -1    0    0  501    0  0.00000000000E+00  0.00000000000E+00 -0.14327279495E+04  0.14327279495E+04  0.25500000920E-02 0.  1.
    10030    2    1    2    0    0  0.00000000000E+00  0.00000000000E+00 -0.12526984732E+04  0.16127574258E+04  0.10157426100E+04 0.  0.
        4    1    3    3  502    0 -0.75555961048E+02 -0.13286361020E+03  0.14264273342E+03  0.20906937715E+03  0.12699999809E+01 0. -1.
       -4    1    3    3    0  502  0.75555961048E+02  0.13286361020E+03 -0.13953412066E+04  0.14036880486E+04  0.12699999809E+01 0.  1.
</event>
<event>
 5   0  0.7224879E-03  0.9868512E+03  0.7818609E-02  0.9323085E-01
       -1   -1    0    0    0  501  0.00000000000E+00  0.00000000000E+00  0.37995318867E+03  0.37995318870E+03  0.50400001928E-02 0. -1.
        1   -1    0    0  501    0  0.00000000000E+00  0.00000000000E+00 -0.64078637028E+03  0.64078637030E+03  0.50400001928E-02 0.  1.
    10030    2    1    2    0    0  0.00000000000E+00  0.00000000000E+00 -0.26083318161E+03  0.10207395590E+04  0.98685120393E+03 0.  0.
        3    1    3    3  502    0 -0.33165575026E+02 -0.19751278120E+03 -0.59685406245E+03  0.62956019265E+03  0.10100000352E+00 0.  1.
       -3    1    3    3    0  502  0.33165575026E+02  0.19751278120E+03  0.33602088084E+03  0.39117936636E+03  0.10100000352E+00 0. -1.
</event>
<event>
 5   0  0.4782125E-03  0.1005190E+04  0.7818609E-02  0.9302870E-01
        3   -1    0    0  501    0  0.00000000000E+00  0.00000000000E+00  0.85822069915E+03  0.85822070509E+03  0.10100000352E+00 0.  1.
       -3   -1    0    0    0  501  0.00000000000E+00  0.00000000000E+00 -0.29433213854E+03  0.29433215587E+03  0.10100000352E+00 0. -1.
    10030    2    1    2    0    0  0.00000000000E+00  0.00000000000E+00  0.56388856061E+03  0.11525528610E+04  0.10051904240E+04 0.  0.
        1    1    3    3  502    0 -0.14659846745E+03 -0.28833960396E+03 -0.15911907322E+03  0.36048539132E+03  0.50400001928E-02 0. -1.
       -1    1    3    3    0  502  0.14659846745E+03  0.28833960396E+03  0.72300763383E+03  0.79206746964E+03  0.50400001928E-02 0.  1.
</event>
<event>
 5   0  0.7224879E-03  0.9966017E+03  0.7818609E-02  0.9312280E-01
       -1   -1    0    0    0  501  0.00000000000E+00  0.00000000000E+00  0.47383015053E+03  0.47383015056E+03  0.50400001928E-02 0.  1.
        1   -1    0    0  501    0  0.00000000000E+00  0.00000000000E+00 -0.52403530445E+03  0.52403530448E+03  0.50400001928E-02 0. -1.
    10030    2    1    2    0    0  0.00000000000E+00  0.00000000000E+00 -0.50205153921E+02  0.99786545503E+03  0.99660168015E+03 0.  0.
        3    1    3    3  502    0 -0.30767586870E+03 -0.31724839326E+03  0.20539084491E+03  0.48733601609E+03  0.10100000352E+00 0.  1.
       -3    1    3    3    0  502  0.30767586870E+03  0.31724839326E+03 -0.25559599883E+03  0.51052943894E+03  0.10100000352E+00 0. -1.
</event>
<event>
 5   0  0.1216322E-02  0.9728914E+03  0.7818609E-02  0.9338787E-01
        2   -1    0    0  501    0  0.00000000000E+00  0.00000000000E+00  0.11179518378E+04  0.11179518378E+04  0.25500000920E-02 0. -1.
       -2   -1    0    0    0  501  0.00000000000E+00  0.00000000000E+00 -0.21166334662E+03  0.21166334663E+03  0.25500000920E-02 0.  1.
    10030    2    1    2    0    0  0.00000000000E+00  0.00000000000E+00  0.90628849121E+03  0.13296151845E+04  0.97289141709E+03 0.  0.
        2    1    3    3  502    0 -0.33855022787E+03 -0.23919569885E+03  0.80103618481E+03  0.90193669874E+03  0.25500000920E-02 0. -1.
       -2    1    3    3    0  502  0.33855022787E+03  0.23919569885E+03  0.10525230639E+03  0.42767848572E+03  0.25500000920E-02 0.  1.
</event>
<event>
 5   0  0.7461157E-03  0.9999491E+03  0.7818609E-02  0.9308601E-01
       -1   -1    0    0    0  501  0.00000000000E+00  0.00000000000E+00  0.23887395228E+03  0.23887395233E+03  0.50400001928E-02 0.  1.
        1   -1    0    0  501    0  0.00000000000E+00  0.00000000000E+00 -0.10464705540E+04  0.10464705540E+04  0.50400001928E-02 0. -1.
    10030    2    1    2    0    0  0.00000000000E+00  0.00000000000E+00 -0.80759660175E+03  0.12853445064E+04  0.99994911316E+03 0.  0.
        2    1    3    3  502    0 -0.37038261621E+03  0.12151361417E+03 -0.13485539760E+01  0.38980849070E+03  0.25500000920E-02 0.  1.
       -2    1    3    3    0  502  0.37038261621E+03 -0.12151361417E+03 -0.80624804778E+03  0.89553601567E+03  0.25500000920E-02 0. -1.
</event>
<event>
 5   0  0.7461157E-03  0.9932652E+03  0.7818609E-02  0.9315962E-01
        1   -1    0    0  501    0  0.00000000000E+00  0.00000000000E+00  0.16433709862E+04  0.16433709862E+04  0.50400001928E-02 0.  1.
       -1   -1    0    0    0  501  0.00000000000E+00  0.00000000000E+00 -0.15008413826E+03  0.15008413834E+03  0.50400001928E-02 0. -1.
    10030    2    1    2    0    0  0.00000000000E+00  0.00000000000E+00  0.14932868479E+04  0.17934551245E+04  0.99326515771E+03 0.  0.
        2    1    3    3  502    0 -0.40158494431E+03 -0.29138003066E+03  0.78583520979E+03  0.92935986933E+03  0.25500000920E-02 0. -1.
       -2    1    3    3    0  502  0.40158494431E+03  0.29138003066E+03  0.70745163811E+03  0.86409525519E+03  0.25500000920E-02 0.  1.
</event>
<event>
 5   0  0.7073004E-03  0.9922299E+03  0.7818609E-02  0.9317108E-01
        1   -1    0    0  501    0  0.00000000000E+00  0.00000000000E+00  0.78607280418E+03  0.78607280420E+03  0.50400001928E-02 0. -1.
       -1   -1    0    0    0  501  0.00000000000E+00  0.00000000000E+00 -0.31311353704E+03  0.31311353708E+03  0.50400001928E-02 0.  1.
    10030    2    1    2    0    0  0.00000000000E+00  0.00000000000E+00  0.47295926714E+03  0.10991863413E+04  0.99222988489E+03 0.  0.
        1    1    3    3  502    0 -0.12348406380E+03 -0.15112664511E+03 -0.26880374140E+03  0.33217921110E+03  0.50400001928E-02 0.  1.
       -1    1    3    3    0  502  0.12348406380E+03  0.15112664511E+03  0.74176300854E+03  0.76700713018E+03  0.50400001928E-02 0. -1.
</event>
<event>
 5   0  0.1216322E-02  0.9992197E+03  0.7818609E-02  0.9309401E-01
       -2   -1    0    0    0  501  0.00000000000E+00  0.00000000000E+00  0.23028710881E+03  0.23028710882E+03  0.25500000920E-02 0. -1.
        2   -1    0    0  501    0  0.00000000000E+00  0.00000000000E+00 -0.10839077721E+04  0.10839077721E+04  0.25500000920E-02 0.  1.
    10030    2    1    2    0    0  0.00000000000E+00  0.00000000000E+00 -0.85362066331E+03  0.13141948809E+04  0.99921966967E+03 0.  0.
        2    1    3    3  502    0 -0.14096915272E+03  0.12094142768E+03  0.18318984530E+03  0.26087861233E+03  0.25500000920E-02 0. -1.
       -2    1    3    3    0  502  0.14096915272E+03 -0.12094142768E+03 -0.10368105086E+04  0.10533162686E+04  0.25500000920E-02 0.  1.
</event>
<event>
 5   0  0.1191822E-02  0.1012355E+04  0.7818609E-02  0.9295097E-01
       -2   -1    0    0    0  501  0.00000000000E+00  0.00000000000E+00  0.33522610148E+03  0.33522610149E+03  0.25500000920E-02 0.  1.
        2   -1    0    0  501    0  0.00000000000E+00  0.00000000000E+00 -0.76430667657E+03  0.76430667657E+03  0.25500000920E-02 0. -1.
    10030    2    1    2    0    0  0.00000000000E+00  0.00000000000E+00 -0.42908057509E+03  0.10995327781E+04  0.10123547748E+04 0.  0.
        4    1    3    3  502    0  0.84413984310E+02  0.37970469662E+03 -0.56633489789E+03  0.68705036704E+03  0.12699999809E+01 0. -1.
       -4    1    3    3    0  502 -0.84413984310E+02 -0.37970469662E+03  0.13725432281E+03  0.41248241103E+03  0.12699999809E+01 0.  1.
</event>
<event>
 5   0  0.7073004E-03  0.1006899E+04  0.7818609E-02  0.9301010E-01
        1   -1    0    0  501    0  0.00000000000E+00  0.00000000000E+00  0.10062542083E+04  0.10062542083E+04  0.50400001928E-02 0.  1.
       -1   -1    0    0    0  501  0.00000000000E+00  0.00000000000E+00 -0.25188604826E+03  0.25188604831E+03  0.50400001928E-02 0. -1.
    10030    2    1    2    0    0  0.00000000000E+00  0.00000000000E+00  0.75436816006E+03  0.12581402567E+04  0.10068989942E+04 0.  0.
        1    1    3    3  502    0  0.47154942509E+03 -0.17546069929E+03  0.35496936045E+03  0.61575040738E+03  0.50400001928E-02 0. -1.
       -1    1    3    3    0  502 -0.47154942509E+03  0.17546069929E+03  0.39939879962E+03  0.64238984928E+03  0.50400001928E-02 0.  1.
</event>
<event>
 5   0  0.1240503E-02  0.9993281E+03  0.7818609E-02  0.9309282E-01
       -2   -1    0    0    0  501  0.00000000000E+00  0.00000000000E+00  0.21759855397E+03  0.21759855398E+03  0.25500000920E-02 0.  1.
        2   -1    0    0  501    0  0.00000000000E+00  0.00000000000E+00 -0.11473612496E+04  0.11473612496E+04  0.25500000920E-02 0. -1.
    10030    2    1    2    0    0  0.00000000000E+00  0.00000000000E+00 -0.92976269565E+03  0.13649598036E+04  0.99932807188E+03 0.  0.
        1    1    3    3  502    0 -0.40331553030E+03 -0.22545045955E+03 -0.72465970803E+03  0.85943180018E+03  0.50400001928E-02 0. -1.
       -1    1    3    3    0  502  0.40331553030E+03  0.22545045955E+03 -0.20510298763E+03  0.50552800343E+03  0.50400001928E-02 0.  1.
</event>
<event>
 5   0  0.7461157E-03  0.9570559E+03  0.7818609E-02  0.9356941E-01
        1   -1    0    0  501    0  0.00000000000E+00  0.00000000000E+00  0.11304287103E+04  0.11304287103E+04  0.50400001928E-02 0. -1.
       -1   -1    0    0    0  501  0.00000000000E+00  0.00000000000E+00 -0.20256827261E+03  0.20256827267E+03  0.50400001928E-02 0.  1.
    10030    2    1    2    0    0  0.00000000000E+00  0.00000000000E+00  0.92786043769E+03  0.13329969830E+04  0.95705588384E+03 0.  0.
        2    1    3    3  502    0 -0.45261682386E+03 -0.11782626645E+02  0.24821020331E+03  0.51634206159E+03  0.25500000920E-02 0.  1.
       -2    1    3    3    0  502  0.45261682386E+03  0.11782626645E+02  0.67965023438E+03  0.81665492139E+03  0.25500000920E-02 0. -1.
</event>
<event>
 5   0  0.7241200E-03  0.1005929E+04  0.7818609E-02  0.9302066E-01
        1   -1    0    0  501    0  0.00000000000E+00  0.00000000000E+00  0.13902723833E+04  0.13902723833E+04  0.50400001928E-02 0.  1.
       -1   -1    0    0    0  501  0.00000000000E+00  0.00000000000E+00 -0.18195956064E+03  0.18195956071E+03  0.50400001928E-02 0. -1.
    10030    2    1    2    0    0  0.00000000000E+00  0.00000000000E+00  0.12083128227E+04  0.15722319440E+04  0.10059291269E+04 0.  0.
        4    1    3    3  502    0  0.26263171829E+03  0.79277613687E+02 -0.54724387923E+02  0.27974404555E+03  0.12699999809E+01 0. -1.
       -4    1    3    3    0  502 -0.26263171829E+03 -0.79277613687E+02  0.12630372106E+04  0.12924878985E+04  0.12699999809E+01 0.  1.
</event>
<event>
 5   0  0.7073004E-03  0.1000257E+04  0.7818609E-02  0.9308263E-01
       -1   -1    0    0    0  501  0.00000000000E+00  0.00000000000E+00  0.38519883826E+03  0.38519883829E+03  0.50400001928E-02 0. -1.
        1   -1    0    0  501    0  0.00000000000E+00  0.00000000000E+00 -0.64934955430E+03  0.64934955432E+03  0.50400001928E-02 0.  1.
    10030    2    1    2    0    0  0.00000000000E+00  0.00000000000E+00 -0.26415071605E+03  0.10345483926E+04  0.10002573548E+04 0.  0.
        1    1    3    3  502    0  0.14965223121E+03 -0.47279009392E+03 -0.19912390006E+03  0.53439366652E+03  0.50400001928E-02 0.  1.
       -1    1    3    3    0  502 -0.14965223121E+03  0.47279009392E+03 -0.65026815981E+02  0.50015472609E+03  0.50400001928E-02 0. -1.
</event>
<event>
 5   0  0.7073004E-03  0.9989102E+03  0.7818609E-02  0.9309741E-01
       -1   -1    0    0    0  501  0.00000000000E+00  0.00000000000E+00  0.38962122318E+03  0.38962122321E+03  0.50400001928E-02 0.  1.
        1   -1    0    0  501    0  0.00000000000E+00  0.00000000000E+00 -0.64025104849E+03  0.64025104851E+03  0.50400001928E-02 0. -1.
    10030    2    1    2    0    0  0.00000000000E+00  0.00000000000E+00 -0.25062982531E+03  0.10298722717E+04  0.99891019953E+03 0.  0.
        1    1    3    3  502    0 -0.29288252903E+03 -0.33059156244E+03 -0.36574800766E+03  0.57344795937E+03  0.50400001928E-02 0. -1.
       -1    1    3    3    0  502  0.29288252903E+03  0.33059156244E+03  0.11511818234E+03  0.45642431235E+03  0.50400001928E-02 0.  1.
</event>
<event>
 5   0  0.7073004E-03  0.9730056E+03  0.7818609E-02  0.9338658E-01
        1   -1    0    0  501    0  0.00000000000E+00  0.00000000000E+00  0.56648932962E+03  0.56648932964E+03  0.50400001928E-02 0. -1.
       -1   -1    0    0    0  501  0.00000000000E+00  0.00000000000E+00 -0.41781012330E+03  0.41781012333E+03  0.50400001928E-02 0.  1.
    10030    2    1    2    0    0  0.00000000000E+00  0.00000000000E+00  0.14867920631E+03  0.98429945298E+03  0.97300560468E+03 0.  0.
        1    1    3    3  502    0  0.25588334072E+02  0.43670333717E+03 -0.14101730759E+03  0.45961989579E+03  0.50400001928E-02 0.  1.
       -1    1    3    3    0  502 -0.25588334072E+02 -0.43670333717E+03  0.28969651391E+03  0.52467955719E+03  0.50400001928E-02 0. -1.
</event>
<event>
 5   0  0.7461157E-03  0.1007193E+04  0.7818609E-02  0.9300690E-01
        1   -1    0    0  501    0  0.00000000000E+00  0.00000000000E+00  0.12891242725E+04  0.12891242725E+04  0.50400001928E-02 0.  1.
       -1   -1    0    0    0  501  0.00000000000E+00  0.00000000000E+00 -0.19673006873E+03  0.19673006880E+03  0.50400001928E-02 0. -1.
    10030    2    1    2    0    0  0.00000000000E+00  0.00000000000E+00  0.10923942038E+04  0.14858543413E+04  0.10071931429E+04 0.  0.
        2    1    3    3  502    0  0.22221105292E+03  0.42977967160E+03  0.34007877615E+03  0.59138979713E+03  0.25500000920E-02 0. -1.
       -2    1    3    3    0  502 -0.22221105292E+03 -0.42977967160E+03  0.75231542766E+03  0.89446454421E+03  0.25500000920E-02 0.  1.
</event>
<event>
 5   0  0.7241200E-03  0.1020623E+04  0.7818609E-02  0.9286211E-01
        1   -1    0    0  501    0  0.00000000000E+00  0.00000000000E+00  0.50677328855E+03  0.50677328858E+03  0.50400001928E-02 0.  1.
       -1   -1    0    0    0  501  0.00000000000E+00  0.00000000000E+00 -0.51387399680E+03  0.51387399682E+03  0.50400001928E-02 0. -1.
    10030    2    1    2    0    0  0.00000000000E+00  0.00000000000E+00 -0.71007082450E+01  0.10206472854E+04  0.10206225851E+04 0.  0.
        4    1    3    3  502    0  0.27268788418E+03  0.43389303369E+01 -0.43488259118E+03  0.51332444857E+03  0.12699999809E+01 0. -1.
       -4    1    3    3    0  502 -0.27268788418E+03 -0.43389303369E+01  0.42778188293E+03  0.50732283682E+03  0.12699999809E+01 0.  1.
</event>
<event>
 5   0  0.1216322E-02  0.1038184E+04  0.7818609E-02  0.9267629E-01
        2   -1    0    0  501    0  0.00000000000E+00  0.00000000000E+00  0.12749830156E+04  0.12749830156E+04  0.25500000920E-02 0. -1.
       -2   -1    0    0    0  501  0.00000000000E+00  0.00000000000E+00 -0.21134112159E+03  0.21134112160E+03  0.25500000920E-02 0.  1.
    10030    2    1    2    0    0  0.00000000000E+00  0.00000000000E+00  0.10636418940E+04  0.14863241372E+04  0.10381836842E+04 0.  0.
        2    1    3    3  502    0  0.23759893888E+02 -0.30826270413E+03  0.11287827649E+04  0.11703593284E+04  0.25500000920E-02 0. -1.
       -2    1    3    3    0  502 -0.23759893888E+02  0.30826270413E+03 -0.65140870878E+02  0.31596480877E+03  0.25500000920E-02 0.  1.
</event>
<event>
 5   0  0.7461157E-03  0.9477019E+03  0.7818609E-02  0.9367841E-01
        1   -1    0    0  501    0  0.00000000000E+00  0.00000000000E+00  0.61195752713E+03  0.61195752715E+03  0.50400001928E-02 0.  1.
       -1   -1    0    0    0  501  0.00000000000E+00  0.00000000000E+00 -0.36691224733E+03  0.36691224737E+03  0.50400001928E-02 0. -1.
    10030    2    1    2    0    0  0.00000000000E+00  0.00000000000E+00  0.24504527980E+03  0.97886977452E+03  0.94770187629E+03 0.  0.
        2    1    3    3  502    0  0.16300828188E+03  0.41336664436E+03  0.29252929719E+03  0.53199348902E+03  0.25500000920E-02 0.  1.
       -2    1    3    3    0  502 -0.16300828188E+03 -0.41336664436E+03 -0.47484017390E+02  0.44687628551E+03  0.25500000920E-02 0. -1.
</event>
<event>
 5   0  0.6967681E-03  0.1004655E+04  0.7818609E-02  0.9303454E-01
       -1   -1    0    0    0  501  0.00000000000E+00  0.00000000000E+00  0.19578607441E+03  0.19578607447E+03  0.50400001928E-02 0. -1.
        1   -1    0    0  501    0  0.00000000000E+00  0.00000000000E+00 -0.12888201256E+04  0.12888201256E+04  0.50400001928E-02 0.  1.
    10030    2    1    2    0    0  0.00000000000E+00  0.00000000000E+00 -0.10930340511E+04  0.14846062000E+04  0.10046552305E+04 0.  0.
        5    1    3    3  502    0 -0.33031512986E+03  0.32802594299E+03 -0.82534120632E+03  0.94758603891E+03  0.46999998093E+01 0.  1.
       -5    1    3    3    0  502  0.33031512986E+03 -0.32802594299E+03 -0.26769284483E+03  0.53702016113E+03  0.46999998093E+01 0. -1.
</event>
<event>
 5   0  0.1240503E-02  0.1026359E+04  0.7818609E-02  0.9280098E-01
       -2   -1    0    0    0  501  0.00000000000E+00  0.00000000000E+00  0.20001618429E+03  0.20001618430E+03  0.25500000920E-02 0.  1.
        2   -1    0    0  501    0  0.00000000000E+00  0.00000000000E+00 -0.13166591706E+04  0.13166591706E+04  0.25500000920E-02 0. -1.
    10030    2    1    2    0    0  0.00000000000E+00  0.00000000000E+00 -0.11166429863E+04  0.15166753549E+04  0.10263588911E+04 0.  0.
        1    1    3    3  502    0 -0.23605185365E+02 -0.26245590671E+02 -0.13148630343E+04  0.13153367762E+04  0.50400001928E-02 0. -1.
       -1    1    3    3    0  502  0.23605185365E+02  0.26245590671E+02  0.19822004802E+03  0.20133857868E+03  0.50400001928E-02 0.  1.
</event>
<event>
 5   0  0.1240503E-02  0.6401196E+03  0.7818609E-02  0.9825498E-01
        2   -1    0    0  501    0  0.00000000000E+00  0.00000000000E+00  0.71379309211E+03  0.71379309212E+03  0.25500000920E-02 0.  1.
       -2   -1    0    0    0  501  0.00000000000E+00  0.00000000000E+00 -0.14351255004E+03  0.14351255006E+03  0.25500000920E-02 0. -1.
    10030    2    1    2    0    0  0.00000000000E+00  0.00000000000E+00  0.57028054207E+03  0.85730564218E+03  0.64011957277E+03 0.  0.
        1    1    3    3  502    0  0.28206637748E+03 -0.38080048641E+02  0.48118383032E+03  0.55906118627E+03  0.50400001928E-02 0.  1.
       -1    1    3    3    0  502 -0.28206637748E+03  0.38080048641E+02  0.89096711753E+02  0.29824445591E+03  0.50400001928E-02 0. -1.
</event>
<event>
 5   0  0.1216322E-02  0.1002336E+04  0.7818609E-02  0.9305986E-01
       -2   -1    0    0    0  501  0.00000000000E+00  0.00000000000E+00  0.91959735536E+03  0.91959735536E+03  0.25500000920E-02 0. -1.
        2   -1    0    0  501    0  0.00000000000E+00  0.00000000000E+00 -0.27312985938E+03  0.27312985939E+03  0.25500000920E-02 0.  1.
    10030    2    1    2    0    0  0.00000000000E+00  0.00000000000E+00  0.64646749598E+03  0.11927272148E+04  0.10023362637E+04 0.  0.
        2    1    3    3  502    0 -0.93417846169E+02 -0.19722594510E+03  0.86008924273E+03  0.88734349204E+03  0.25500000920E-02 0. -1.
       -2    1    3    3    0  502  0.93417846169E+02  0.19722594510E+03 -0.21362174675E+03  0.30538372271E+03  0.25500000920E-02 0.  1.
</event>
<event>
 5   0  0.1221315E-02  0.1014729E+04  0.7818609E-02  0.9292536E-01
        2   -1    0    0  501    0  0.00000000000E+00  0.00000000000E+00  0.65036728283E+03  0.65036728284E+03  0.25500000920E-02 0. -1.
       -2   -1    0    0    0  501  0.00000000000E+00  0.00000000000E+00 -0.39580522857E+03  0.39580522858E+03  0.25500000920E-02 0.  1.
    10030    2    1    2    0    0  0.00000000000E+00  0.00000000000E+00  0.25456205426E+03  0.10461725114E+04  0.10147290693E+04 0.  0.
        5    1    3    3  502    0  0.19467009611E+03 -0.39669612967E+03 -0.12970666328E+03  0.46055420323E+03  0.46999998093E+01 0.  1.
       -5    1    3    3    0  502 -0.19467009611E+03  0.39669612967E+03  0.38426871754E+03  0.58561830819E+03  0.46999998093E+01 0. -1.
</event>
<event>
 5   0  0.7241200E-03  0.1006854E+04  0.7818609E-02  0.9301060E-01
       -1   -1    0    0    0  501  0.00000000000E+00  0.00000000000E+00  0.60955204235E+03  0.60955204237E+03  0.50400001928E-02 0.  1.
        1   -1    0    0  501    0  0.00000000000E+00  0.00000000000E+00 -0.41577828689E+03  0.41577828692E+03  0.50400001928E-02 0. -1.
    10030    2    1    2    0    0  0.00000000000E+00  0.00000000000E+00  0.19377375546E+03  0.10253303293E+04  0.10068535225E+04 0.  0.
        4    1    3    3  502    0  0.13997272474E+03 -0.19391569828E+03 -0.35423370037E+03  0.42740939284E+03  0.12699999809E+01 0. -1.
       -4    1    3    3    0  502 -0.13997272474E+03  0.19391569828E+03  0.54800745583E+03  0.59792093645E+03  0.12699999809E+01 0.  1.
</event>
<event>
 5   0  0.1240503E-02  0.9612320E+03  0.7818609E-02  0.9352118E-01
        2   -1    0    0  501    0  0.00000000000E+00  0.00000000000E+00  0.61423920287E+03  0.61423920288E+03  0.25500000920E-02 0. -1.
       -2   -1    0    0    0  501  0.00000000000E+00  0.00000000000E+00 -0.37606151438E+03  0.37606151439E+03  0.25500000920E-02 0.  1.
    10030    2    1    2    0    0  0.00000000000E+00  0.00000000000E+00  0.23817768849E+03  0.99030071727E+03  0.96123196957E+03 0.  0.
        1    1    3    3  502    0 -0.44384739602E+02 -0.21244394798E+03 -0.32270239901E+03  0.38889494017E+03  0.50400001928E-02 0.  1.
       -1    1    3    3    0  502  0.44384739602E+02  0.21244394798E+03  0.56088008750E+03  0.60140577709E+03  0.50400001928E-02 0. -1.
</event>
<event>
 5   0  0.7073004E-03  0.9991418E+03  0.7818609E-02  0.9309487E-01
        1   -1    0    0  501    0  0.00000000000E+00  0.00000000000E+00  0.48761331264E+03  0.48761331267E+03  0.50400001928E-02 0. -1.
       -1   -1    0    0    0  501  0.00000000000E+00  0.00000000000E+00 -0.51182167375E+03  0.51182167378E+03  0.50400001928E-02 0.  1.
    10030    2    1    2    0    0  0.00000000000E+00  0.00000000000E+00 -0.24208361112E+02  0.99943498644E+03  0.99914175540E+03 0.  0.
        1    1    3    3  502    0  0.17308737982E+03  0.31927192804E+03  0.33103768427E+03  0.49140589488E+03  0.50400001928E-02 0. -1.
       -1    1    3    3    0  502 -0.17308737982E+03 -0.31927192804E+03 -0.35524604538E+03  0.50802909156E+03  0.50400001928E-02 0.  1.
</event>
<event>
 5   0  0.4782125E-03  0.1013145E+04  0.7818609E-02  0.9294244E-01
        4   -1    0    0  501    0  0.00000000000E+00  0.00000000000E+00  0.32915736657E+03  0.32915981661E+03  0.12699999809E+01 0. -1.
       -4   -1    0    0    0  501  0.00000000000E+00  0.00000000000E+00 -0.77960799170E+03  0.77960902613E+03  0.12699999809E+01 0.  1.
    10030    2    1    2    0    0  0.00000000000E+00  0.00000000000E+00 -0.45045062512E+03  0.11087688427E+04  0.10131448963E+04 0.  0.
        3    1    3    3  502    0  0.43451003292E+03  0.18409536645E+03 -0.23652024435E+02  0.47249285827E+03  0.10100000352E+00 0.  1.
       -3    1    3    3    0  502 -0.43451003292E+03 -0.18409536645E+03 -0.42679860069E+03  0.63627598446E+03  0.10100000352E+00 0. -1.
</event>
<event>
 5   0  0.7073004E-03  0.9976872E+03  0.7818609E-02  0.9311085E-01
        1   -1    0    0  501    0  0.00000000000E+00  0.00000000000E+00  0.94434364247E+03  0.94434364249E+03  0.50400001928E-02 0.  1.
       -1   -1    0    0    0  501  0.00000000000E+00  0.00000000000E+00 -0.26351097422E+03  0.26351097426E+03  0.50400001928E-02 0. -1.
    10030    2    1    2    0    0  0.00000000000E+00  0.00000000000E+00  0.68083266826E+03  0.12078546168E+04  0.99768715189E+03 0.  0.
        1    1    3    3  502    0 -0.18120829739E+03 -0.26247444916E+03 -0.12393820131E+03  0.34218410435E+03  0.50400001928E-02 0. -1.
       -1    1    3    3    0  502  0.18120829739E+03  0.26247444916E+03  0.80477086957E+03  0.86567051240E+03  0.50400001928E-02 0.  1.
</event>
<event>
 5   0  0.6967681E-03  0.9969809E+03  0.7818609E-02  0.9311862E-01
       -1   -1    0    0    0  501  0.00000000000E+00  0.00000000000E+00  0.11109321029E+03  0.11109321040E+03  0.50400001928E-02 0.  1.
        1   -1    0    0  501    0  0.00000000000E+00  0.00000000000E+00 -0.22367949701E+04  0.22367949701E+04  0.50400001928E-02 0. -1.
    10030    2    1    2    0    0  0.00000000000E+00  0.00000000000E+00 -0.21257017598E+04  0.23478881805E+04  0.99698091081E+03 0.  0.
        5    1    3    3  502    0 -0.36704615542E+03  0.27686234111E+03 -0.60927672394E+03  0.76329276983E+03  0.46999998093E+01 0.  1.
       -5    1    3    3    0  502  0.36704615542E+03 -0.27686234111E+03 -0.15164250359E+04  0.15845954107E+04  0.46999998093E+01 0. -1.
</event>
<event>
 5   0  0.7461157E-03  0.1014933E+04  0.7818609E-02  0.9292316E-01
        1   -1    0    0  501    0  0.00000000000E+00  0.00000000000E+00  0.10878650013E+04  0.10878650013E+04  0.50400001928E-02 0.  1.
       -1   -1    0    0    0  501  0.00000000000E+00  0.00000000000E+00 -0.23672267288E+03  0.23672267294E+03  0.50400001928E-02 0. -1.
    10030    2    1    2    0    0  0.00000000000E+00  0.00000000000E+00  0.85114232840E+03  0.13245876742E+04  0.10149331227E+04 0.  0.
        2    1    3    3  502    0 -0.70155788910E+02  0.31507911615E+03 -0.85463850320E+02  0.33391728597E+03  0.25500000920E-02 0. -1.
       -2    1    3    3    0  502  0.70155788910E+02 -0.31507911615E+03  0.93660617872E+03  0.99067038826E+03  0.25500000920E-02 0.  1.
</event>
<event>
 5   0  0.1240503E-02  0.1004068E+04  0.7818609E-02  0.9304094E-01
        2   -1    0    0  501    0  0.00000000000E+00  0.00000000000E+00  0.12409317361E+04  0.12409317361E+04  0.25500000920E-02 0.  1.
       -2   -1    0    0    0  501  0.00000000000E+00  0.00000000000E+00 -0.20310390613E+03  0.20310390614E+03  0.25500000920E-02 0. -1.
    10030    2    1    2    0    0  0.00000000000E+00  0.00000000000E+00  0.10378278300E+04  0.14440356423E+04  0.10040678918E+04 0.  0.
        1    1    3    3  502    0 -0.25594130354E+03  0.86810935325E+02  0.11273801571E+04  0.11593222624E+04  0.50400001928E-02 0.  1.
       -1    1    3    3    0  502  0.25594130354E+03 -0.86810935325E+02 -0.89552327149E+02  0.28471337986E+03  0.50400001928E-02 0. -1.
</event>
<event>
 5   0  0.1245850E-02  0.9872990E+03  0.7818609E-02  0.9322586E-01
       -2   -1    0    0    0  501  0.00000000000E+00  0.00000000000E+00  0.23377617727E+03  0.23377617728E+03  0.25500000920E-02 0.  1.
        2   -1    0    0  501    0  0.00000000000E+00  0.00000000000E+00 -0.10424065705E+04  0.10424065705E+04  0.25500000920E-02 0. -1.
    10030    2    1    2    0    0  0.00000000000E+00  0.00000000000E+00 -0.80863039319E+03  0.12761827477E+04  0.98729898857E+03 0.  0.
        3    1    3    3  502    0  0.42477389547E+02  0.31710137978E+03 -0.89025753113E+03  0.94600005054E+03  0.10100000352E+00 0. -1.
       -3    1    3    3    0  502 -0.42477389547E+02 -0.31710137978E+03  0.81627137944E+02  0.33018269720E+03  0.10100000352E+00 0.  1.
</event>
<event>
 5   0  0.7073004E-03  0.9962955E+03  0.7818609E-02  0.9312617E-01
        1   -1    0    0  501    0  0.00000000000E+00  0.00000000000E+00  0.13790587705E+03  0.13790587714E+03  0.50400001928E-02 0.  1.
       -1   -1    0    0    0  501  0.00000000000E+00  0.00000000000E+00 -0.17994243605E+04  0.17994243605E+04  0.50400001928E-02 0. -1.
    10030    2    1    2    0    0  0.00000000000E+00  0.00000000000E+00 -0.16615184835E+04  0.19373302377E+04  0.99629552786E+03 0.  0.
        1    1    3    3  502    0 -0.11576682431E+03  0.31606893792E+03 -0.15448286204E+04  0.15810746338E+04  0.50400001928E-02 0. -1.
       -1    1    3    3    0  502  0.11576682431E+03 -0.31606893792E+03 -0.11668986306E+03  0.35625560388E+03  0.50400001928E-02 0.  1.
</event>
<event>
 5   0  0.7461157E-03  0.9907863E+03  0.7818609E-02  0.9318708E-01
       -1   -1    0    0    0  501  0.00000000000E+00  0.00000000000E+00  0.33441633545E+03  0.33441633549E+03  0.50400001928E-02 0. -1.
        1   -1    0    0  501    0  0.00000000000E+00  0.00000000000E+00 -0.73385882393E+03  0.73385882395E+03  0.50400001928E-02 0.  1.
    10030    2    1    2    0    0  0.00000000000E+00  0.00000000000E+00 -0.39944248848E+03  0.10682751594E+04  0.99078631130E+03 0.  0.
        2    1    3    3  502    0 -0.10263645786E+02 -0.41504545454E+03  0.91687288323E+02  0.42517599956E+03  0.25500000920E-02 0. -1.
       -2    1    3    3    0  502  0.10263645786E+02  0.41504545454E+03 -0.49112977681E+03  0.64309915987E+03  0.25500000920E-02 0.  1.
</event>
<event>
 5   0  0.4782125E-03  0.9968062E+03  0.7818609E-02  0.9312055E-01
        3   -1    0    0  501    0  0.00000000000E+00  0.00000000000E+00  0.10611039130E+04  0.10611039178E+04  0.10100000352E+00 0.  1.
       -3   -1    0    0    0  501  0.00000000000E+00  0.00000000000E+00 -0.23410115028E+03  0.23410117207E+03  0.10100000352E+00 0. -1.
    10030    2    1    2    0    0  0.00000000000E+00  0.00000000000E+00  0.82700276268E+03  0.12952050898E+04  0.99680622754E+03 0.  0.
        4    1    3    3  502    0  0.43159103261E+02  0.44708384240E+03  0.69416619950E+03  0.82681013284E+03  0.12699999809E+01 0.  1.
       -4    1    3    3    0  502 -0.43159103261E+02 -0.44708384240E+03  0.13283656317E+03  0.46839495700E+03  0.12699999809E+01 0. -1.
</event>
<event>
 5   0  0.7241200E-03  0.9204226E+03  0.7818609E-02  0.9400406E-01
        1   -1    0    0  501    0  0.00000000000E+00  0.00000000000E+00  0.10767989288E+04  0.10767989288E+04  0.50400001928E-02 0. -1.
       -1   -1    0    0    0  501  0.00000000000E+00  0.00000000000E+00 -0.19668893499E+03  0.19668893505E+03  0.50400001928E-02 0.  1.
    10030    2    1    2    0    0  0.00000000000E+00  0.00000000000E+00  0.88010999383E+03  0.12734878639E+04  0.92042258676E+03 0.  0.
        4    1    3    3  502    0 -0.39125876185E+03 -0.14203812673E+03  0.71165690787E+03  0.82444855242E+03  0.12699999809E+01 0. -1.
       -4    1    3    3    0  502  0.39125876185E+03  0.14203812673E+03  0.16845308596E+03  0.44903931146E+03  0.12699999809E+01 0.  1.
</event>
<event>
 5   0  0.7461157E-03  0.9723077E+03  0.7818609E-02  0.9339450E-01
        1   -1    0    0  501    0  0.00000000000E+00  0.00000000000E+00  0.53792659374E+03  0.53792659376E+03  0.50400001928E-02 0.  1.
       -1   -1    0    0    0  501  0.00000000000E+00  0.00000000000E+00 -0.43936400170E+03  0.43936400173E+03  0.50400001928E-02 0. -1.
    10030    2    1    2    0    0  0.00000000000E+00  0.00000000000E+00  0.98562592038E+02  0.97729059549E+03  0.97230773086E+03 0.  0.
        2    1    3    3  502    0 -0.22968101225E+02  0.11540865990E+03 -0.42483393084E+03  0.44082940153E+03  0.25500000920E-02 0. -1.
       -2    1    3    3    0  502  0.22968101225E+02 -0.11540865990E+03  0.52339652288E+03  0.53646119396E+03  0.25500000920E-02 0.  1.
</event>
<event>
 5   0  0.7224879E-03  0.9959578E+03  0.7818609E-02  0.9312989E-01
        1   -1    0    0  501    0  0.00000000000E+00  0.00000000000E+00  0.68191927856E+03  0.68191927858E+03  0.50400001928E-02 0.  1.
       -1   -1    0    0    0  501  0.00000000000E+00  0.00000000000E+00 -0.36365444222E+03  0.36365444226E+03  0.50400001928E-02 0. -1.
    10030    2    1    2    0    0  0.00000000000E+00  0.00000000000E+00  0.31826483634E+03  0.10455737208E+04  0.99595778006E+03 0.  0.
        3    1    3    3  502    0 -0.19276923355E+03 -0.29370837619E+03  0.52964264616E+03  0.63556740829E+03  0.10100000352E+00 0.  1.
       -3    1    3    3    0  502  0.19276923355E+03  0.29370837619E+03 -0.21137780982E+03  0.41000631255E+03  0.10100000352E+00 0. -1.
</event>
<event>
 5   0  0.1240503E-02  0.1009035E+04  0.7818609E-02  0.9298691E-01
       -2   -1    0    0    0  501  0.00000000000E+00  0.00000000000E+00  0.10048996650E+03  0.10048996653E+03  0.25500000920E-02 0. -1.
        2   -1    0    0  501    0  0.00000000000E+00  0.00000000000E+00 -0.25329674399E+04  0.25329674399E+04  0.25500000920E-02 0.  1.
    10030    2    1    2    0    0  0.00000000000E+00  0.00000000000E+00 -0.24324774734E+04  0.26334574064E+04  0.10090348125E+04 0.  0.
        1    1    3    3  502    0 -0.11680942759E+03 -0.38400776799E+03 -0.41848914939E+03  0.57986168733E+03  0.50400001928E-02 0.  1.
       -1    1    3    3    0  502  0.11680942759E+03  0.38400776799E+03 -0.20139883240E+04  0.20535957191E+04  0.50400001928E-02 0. -1.
</event>
<event>
 5   0  0.6967681E-03  0.1014022E+04  0.7818609E-02  0.9293298E-01
        1   -1    0    0  501    0  0.00000000000E+00  0.00000000000E+00  0.84485062495E+03  0.84485062496E+03  0.50400001928E-02 0.  1.
       -1   -1    0    0    0  501  0.00000000000E+00  0.00000000000E+00 -0.30426695960E+03  0.30426695964E+03  0.50400001928E-02 0. -1.
    10030    2    1    2    0    0  0.00000000000E+00  0.00000000000E+00  0.54058366535E+03  0.11491175846E+04  0.10140219544E+04 0.  0.
        5    1    3    3  502    0  0.47115394895E+03  0.28548577506E+02  0.60608064522E+02  0.47591647626E+03  0.46999998093E+01 0. -1.
       -5    1    3    3    0  502 -0.47115394895E+03 -0.28548577506E+02  0.47997560083E+03  0.67320110834E+03  0.46999998093E+01 0.  1.
</event>
<event>
 5   0  0.1216322E-02  0.1033378E+04  0.7818609E-02  0.9272675E-01
        2   -1    0    0  501    0  0.00000000000E+00  0.00000000000E+00  0.78200866144E+03  0.78200866144E+03  0.25500000920E-02 0. -1.
       -2   -1    0    0    0  501  0.00000000000E+00  0.00000000000E+00 -0.34138696068E+03  0.34138696069E+03  0.25500000920E-02 0.  1.
    10030    2    1    2    0    0  0.00000000000E+00  0.00000000000E+00  0.44062170076E+03  0.11233956221E+04  0.10333780725E+04 0.  0.
        2    1    3    3  502    0  0.53541980385E+02 -0.50621176454E+03  0.31663189896E+03  0.59947715025E+03  0.25500000920E-02 0. -1.
       -2    1    3    3    0  502 -0.53541980385E+02  0.50621176454E+03  0.12398980180E+03  0.52391847189E+03  0.25500000920E-02 0.  1.
</event>
<event>
 5   0  0.7461157E-03  0.1018245E+04  0.7818609E-02  0.9288757E-01
       -1   -1    0    0    0  501  0.00000000000E+00  0.00000000000E+00  0.52714696132E+03  0.52714696134E+03  0.50400001928E-02 0.  1.
        1   -1    0    0  501    0  0.00000000000E+00  0.00000000000E+00 -0.49171434220E+03  0.49171434223E+03  0.50400001928E-02 0. -1.
    10030    2    1    2    0    0  0.00000000000E+00  0.00000000000E+00  0.35432619114E+02  0.10188613036E+04  0.10182450026E+04 0.  0.
        2    1    3    3  502    0 -0.21093963986E+03  0.30332375045E+03  0.36822090764E+03  0.52162003995E+03  0.25500000920E-02 0.  1.
       -2    1    3    3    0  502  0.21093963986E+03 -0.30332375045E+03 -0.33278828852E+03  0.49724126361E+03  0.25500000920E-02 0. -1.
</event>
<event>
 5   0  0.1245850E-02  0.9192220E+03  0.7818609E-02  0.9401867E-01
       -2   -1    0    0    0  501  0.00000000000E+00  0.00000000000E+00  0.25883648452E+03  0.25883648453E+03  0.25500000920E-02 0.  1.
        2   -1    0    0  501    0  0.00000000000E+00  0.00000000000E+00 -0.81612241884E+03  0.81612241884E+03  0.25500000920E-02 0. -1.
    10030    2    1    2    0    0  0.00000000000E+00  0.00000000000E+00 -0.55728593432E+03  0.10749589034E+04  0.91922197067E+03 0.  0.
        3    1    3    3  502    0 -0.65300053089E+02 -0.47219306425E+02 -0.80779664198E+03  0.81180612515E+03  0.10100000352E+00 0. -1.
       -3    1    3    3    0  502  0.65300053089E+02  0.47219306425E+02  0.25051070766E+03  0.26315277823E+03  0.10100000352E+00 0.  1.
</event>
<event>
 5   0  0.7073004E-03  0.1009102E+04  0.7818609E-02  0.9298618E-01
       -1   -1    0    0    0  501  0.00000000000E+00  0.00000000000E+00  0.17561562260E+03  0.17561562267E+03  0.50400001928E-02 0. -1.
        1   -1    0    0  501    0  0.00000000000E+00  0.00000000000E+00 -0.14495956163E+04  0.14495956163E+04  0.50400001928E-02 0.  1.
    10030    2    1    2    0    0  0.00000000000E+00  0.00000000000E+00 -0.12739799937E+04  0.16252112390E+04  0.10091018516E+04 0.  0.
        1    1    3    3  502    0  0.19360225632E+03  0.27591411655E+03 -0.12416686168E+04  0.12866045963E+04  0.50400001928E-02 0.  1.
       -1    1    3    3    0  502 -0.19360225632E+03 -0.27591411655E+03 -0.32311376955E+02  0.33860664269E+03  0.50400001928E-02 0. -1.
</event>
<event>
 5   0  0.1245850E-02  0.9828517E+03  0.7818609E-02  0.9327555E-01
       -2   -1    0    0    0  501  0.00000000000E+00  0.00000000000E+00  0.25722226864E+03  0.25722226866E+03  0.25500000920E-02 0.  1.
        2   -1    0    0  501    0  0.00000000000E+00  0.00000000000E+00 -0.93887417443E+03  0.93887417444E+03  0.25500000920E-02 0. -1.
    10030    2    1    2    0    0  0.00000000000E+00  0.00000000000E+00 -0.68165190579E+03  0.11960964431E+04  0.98285165743E+03 0.  0.
        3    1    3    3  502    0  0.38839187113E+03  0.27653031431E+03 -0.19589935153E+03  0.51545497032E+03  0.10100000352E+00 0.  1.
       -3    1    3    3    0  502 -0.38839187113E+03 -0.27653031431E+03 -0.48575255426E+03  0.68064147278E+03  0.10100000352E+00 0. -1.
</event>
<event>
 5   0  0.7224879E-03  0.7788503E+03  0.7818609E-02  0.9591145E-01
       -1   -1    0    0    0  501  0.00000000000E+00  0.00000000000E+00  0.20396632791E+03  0.20396632797E+03  0.50400001928E-02 0. -1.
        1   -1    0    0  501    0  0.00000000000E+00  0.00000000000E+00 -0.74351467797E+03  0.74351467799E+03  0.50400001928E-02 0.  1.
    10030    2    1    2    0    0  0.00000000000E+00  0.00000000000E+00 -0.53954835006E+03  0.94748100596E+03  0.77885032875E+03 0.  0.
        3    1    3    3  502    0 -0.20463774390E+03 -0.33112182350E+03 -0.28383951020E+03  0.48175008664E+03  0.10100000352E+00 0.  1.
       -3    1    3    3    0  502  0.20463774390E+03  0.33112182350E+03 -0.25570883986E+03  0.46573091932E+03  0.10100000352E+00 0. -1.
</event>
<event>
 5   0  0.6967681E-03  0.1002925E+04  0.7818609E-02  0.9305343E-01
        1   -1    0    0  501    0  0.00000000000E+00  0.00000000000E+00  0.41385501530E+03  0.41385501533E+03  0.50400001928E-02 0. -1.
       -1   -1    0    0    0  501  0.00000000000E+00  0.00000000000E+00 -0.60761484641E+03  0.60761484643E+03  0.50400001928E-02 0.  1.
    10030    2    1    2    0    0  0.00000000000E+00  0.00000000000E+00 -0.19375983111E+03  0.10214698618E+04  0.10029246265E+04 0.  0.
        5    1    3    3  502    0 -0.20824411819E+03  0.11009045508E+03  0.35397569271E+03  0.42521336066E+03  0.46999998093E+01 0. -1.
       -5    1    3    3    0  502  0.20824411819E+03 -0.11009045508E+03 -0.54773552382E+03  0.59625650110E+03  0.46999998093E+01 0.  1.
</event>
<event>
 5   0  0.7224879E-03  0.1025828E+04  0.7818609E-02  0.9280662E-01
        1   -1    0    0  501    0  0.00000000000E+00  0.00000000000E+00  0.50829994133E+03  0.50829994135E+03  0.50400001928E-02 0.  1.
       -1   -1    0    0    0  501  0.00000000000E+00  0.00000000000E+00 -0.51757020847E+03  0.51757020850E+03  0.50400001928E-02 0. -1.
    10030    2    1    2    0    0  0.00000000000E+00  0.00000000000E+00 -0.92702671468E+01  0.10258701498E+04  0.10258282636E+04 0.  0.
        3    1    3    3  502    0  0.38833895962E+03  0.68142871883E+02  0.32344883051E+03  0.50997034689E+03  0.10100000352E+00 0.  1.
       -3    1    3    3    0  502 -0.38833895962E+03 -0.68142871883E+02 -0.33271909765E+03  0.51589980296E+03  0.10100000352E+00 0. -1.
</event>
<event>
 5   0  0.1221315E-02  0.9684270E+03  0.7818609E-02  0.9343868E-01
        2   -1    0    0  501    0  0.00000000000E+00  0.00000000000E+00  0.26091360658E+03  0.26091360659E+03  0.25500000920E-02 0.  1.
       -2   -1    0    0    0  501  0.00000000000E+00  0.00000000000E+00 -0.89862200979E+03  0.89862200980E+03  0.25500000920E-02 0. -1.
    10030    2    1    2    0    0  0.00000000000E+00  0.00000000000E+00 -0.63770840321E+03  0.11595356164E+04  0.96842699165E+03 0.  0.
        5    1    3    3  502    0 -0.61713652768E+02 -0.29883981915E+03  0.13126701210E+03  0.33221518766E+03  0.46999998093E+01 0.  1.
       -5    1    3    3    0  502  0.61713652768E+02  0.29883981915E+03 -0.76897541531E+03  0.82732042873E+03  0.46999998093E+01 0. -1.
</event>
<event>
 5   0  0.1240503E-02  0.1000642E+04  0.7818609E-02  0.9307841E-01
        2   -1    0    0  501    0  0.00000000000E+00  0.00000000000E+00  0.13826989621E+04  0.13826989621E+04  0.25500000920E-02 0.  1.
       -2   -1    0    0    0  501  0.00000000000E+00  0.00000000000E+00 -0.18103804826E+03  0.18103804828E+03  0.25500000920E-02 0. -1.
    10030    2    1    2    0    0  0.00000000000E+00  0.00000000000E+00  0.12016609139E+04  0.15637370104E+04  0.10006420368E+04 0.  0.
        1    1    3    3  502    0 -0.15509870892E+03 -0.44242042085E+03  0.32777798033E+03  0.57204007089E+03  0.50400001928E-02 0. -1.
       -1    1    3    3    0  502  0.15509870892E+03  0.44242042085E+03  0.87388293355E+03  0.99169693953E+03  0.50400001928E-02 0.  1.
</event>
<event>
 5   0  0.1240503E-02  0.1008283E+04  0.7818609E-02  0.9299507E-01
        2   -1    0    0  501    0  0.00000000000E+00  0.00000000000E+00  0.95124572648E+03  0.95124572649E+03  0.25500000920E-02 0. -1.
       -2   -1    0    0    0  501  0.00000000000E+00  0.00000000000E+00 -0.26718501393E+03  0.26718501394E+03  0.25500000920E-02 0.  1.
    10030    2    1    2    0    0  0.00000000000E+00  0.00000000000E+00  0.68406071256E+03  0.12184307404E+04  0.10082829021E+04 0.  0.
        1    1    3    3  502    0 -0.14491076892E+03 -0.32511853389E+03 -0.89390354912E+02  0.36700385230E+03  0.50400001928E-02 0.  1.
       -1    1    3    3    0  502  0.14491076892E+03  0.32511853389E+03  0.77345106747E+03  0.85142688813E+03  0.50400001928E-02 0. -1.
</event>
<event>
 5   0  0.7461157E-03  0.1023635E+04  0.7818609E-02  0.9282995E-01
       -1   -1    0    0    0  501  0.00000000000E+00  0.00000000000E+00  0.50403793236E+03  0.50403793238E+03  0.50400001928E-02 0.  1.
        1   -1    0    0  501    0  0.00000000000E+00  0.00000000000E+00 -0.51971752046E+03  0.51971752048E+03  0.50400001928E-02 0. -1.
    10030    2    1    2    0    0  0.00000000000E+00  0.00000000000E+00 -0.15679588099E+02  0.10237554529E+04  0.10236353735E+04 0.  0.
        2    1    3    3  502    0 -0.50267304456E+03 -0.63121832491E+02 -0.80599884792E+02  0.51299210218E+03  0.25500000920E-02 0. -1.
       -2    1    3    3    0  502  0.50267304456E+03  0.63121832491E+02  0.64920296693E+02  0.51076335068E+03  0.25500000920E-02 0.  1.
</event>
<event>
 5   0  0.4782125E-03  0.1005016E+04  0.7818609E-02  0.9303060E-01
       -4   -1    0    0    0  501  0.00000000000E+00  0.00000000000E+00  0.22315230181E+03  0.22315591568E+03  0.12699999809E+01 0. -1.
        4   -1    0    0  501    0  0.00000000000E+00  0.00000000000E+00 -0.11315660657E+04  0.11315667784E+04  0.12699999809E+01 0.  1.
    10030    2    1    2    0    0  0.00000000000E+00  0.00000000000E+00 -0.90841376389E+03  0.13547226941E+04  0.10050164234E+04 0.  0.
        4    1    3    3  502    0 -0.17270160298E+03  0.22215331344E+03  0.10699655105E+03  0.30104453687E+03  0.12699999809E+01 0. -1.
       -4    1    3    3    0  502  0.17270160298E+03 -0.22215331344E+03 -0.10154103149E+04  0.10536781572E+04  0.12699999809E+01 0.  1.
</event>
<event>
 5   0  0.1216322E-02  0.9957794E+03  0.7818609E-02  0.9313186E-01
       -2   -1    0    0    0  501  0.00000000000E+00  0.00000000000E+00  0.99569277891E+03  0.99569277891E+03  0.25500000920E-02 0.  1.
        2   -1    0    0  501    0  0.00000000000E+00  0.00000000000E+00 -0.24896651211E+03  0.24896651213E+03  0.25500000920E-02 0. -1.
    10030    2    1    2    0    0  0.00000000000E+00  0.00000000000E+00  0.74672626680E+03  0.12446592910E+04  0.99577940994E+03 0.  0.
        2    1    3    3  502    0 -0.46132635852E+02 -0.32341918078E+03 -0.96263106130E+02  0.34058005255E+03  0.25500000920E-02 0. -1.
       -2    1    3    3    0  502  0.46132635852E+02  0.32341918078E+03  0.84298937293E+03  0.90407923849E+03  0.25500000920E-02 0.  1.
</event>
<event>
 5   0  0.6967681E-03  0.1020271E+04  0.7818609E-02  0.9286587E-01
       -1   -1    0    0    0  501  0.00000000000E+00  0.00000000000E+00  0.29549692711E+03  0.29549692715E+03  0.50400001928E-02 0. -1.
        1   -1    0    0  501    0  0.00000000000E+00  0.00000000000E+00 -0.88068068904E+03  0.88068068905E+03  0.50400001928E-02 0.  1.
    10030    2    1    2    0    0  0.00000000000E+00  0.00000000000E+00 -0.58518376192E+03  0.11761776162E+04  0.10202714098E+04 0.  0.
        5    1    3    3  502    0 -0.32793193916E+03  0.12664291806E+03 -0.71872357302E+03  0.80010214963E+03  0.46999998093E+01 0.  1.
       -5    1    3    3    0  502  0.32793193916E+03 -0.12664291806E+03  0.13353981110E+03  0.37607546658E+03  0.46999998093E+01 0. -1.
</event>
<event>
 5   0  0.7241200E-03  0.9647760E+03  0.7818609E-02  0.9348044E-01
        1   -1    0    0  501    0  0.00000000000E+00  0.00000000000E+00  0.74878386336E+03  0.74878386337E+03  0.50400001928E-02 0.  1.
       -1   -1    0    0    0  501  0.00000000000E+00  0.00000000000E+00 -0.31076817622E+03  0.31076817626E+03  0.50400001928E-02 0. -1.
    10030    2    1    2    0    0  0.00000000000E+00  0.00000000000E+00  0.43801568713E+03  0.10595520396E+04  0.96477602713E+03 0.  0.
        4    1    3    3  502    0  0.26036303506E+03  0.58183290599E+02 -0.22237163516E+03  0.34731104554E+03  0.12699999809E+01 0. -1.
       -4    1    3    3    0  502 -0.26036303506E+03 -0.58183290599E+02  0.66038732229E+03  0.71224099410E+03  0.12699999809E+01 0.  1.
</event>
<event>
 5   0  0.7224879E-03  0.1034800E+04  0.7818609E-02  0.9271179E-01
        1   -1    0    0  501    0  0.00000000000E+00  0.00000000000E+00  0.54528974782E+03  0.54528974784E+03  0.50400001928E-02 0. -1.
       -1   -1    0    0    0  501  0.00000000000E+00  0.00000000000E+00 -0.49093697820E+03  0.49093697822E+03  0.50400001928E-02 0.  1.
    10030    2    1    2    0    0  0.00000000000E+00  0.00000000000E+00  0.54352769617E+02  0.10362267261E+04  0.10348002726E+04 0.  0.
        3    1    3    3  502    0 -0.18444375304E+02  0.33887308243E+03  0.41826273479E+03  0.53862685274E+03  0.10100000352E+00 0. -1.
       -3    1    3    3    0  502  0.18444375304E+02 -0.33887308243E+03 -0.36390996518E+03  0.49759987332E+03  0.10100000352E+00 0.  1.
</event>
<event>
 5   0  0.7224879E-03  0.1015293E+04  0.7818609E-02  0.9291929E-01
        1   -1    0    0  501    0  0.00000000000E+00  0.00000000000E+00  0.68343190425E+03  0.68343190427E+03  0.50400001928E-02 0. -1.
       -1   -1    0    0    0  501  0.00000000000E+00  0.00000000000E+00 -0.37707472472E+03  0.37707472475E+03  0.50400001928E-02 0.  1.
    10030    2    1    2    0    0  0.00000000000E+00  0.00000000000E+00  0.30635717953E+03  0.10605066290E+04  0.10152928586E+04 0.  0.
        3    1    3    3  502    0  0.14416765540E+03  0.60209719518E+01 -0.35520346866E+03  0.38339285246E+03  0.10100000352E+00 0.  1.
       -3    1    3    3    0  502 -0.14416765540E+03 -0.60209719518E+01  0.66156064819E+03  0.67711377656E+03  0.10100000352E+00 0. -1.
</event>
<event>
 5   0  0.1216322E-02  0.9309910E+03  0.7818609E-02  0.9387649E-01
       -2   -1    0    0    0  501  0.00000000000E+00  0.00000000000E+00  0.39855933970E+03  0.39855933971E+03  0.25500000920E-02 0. -1.
        2   -1    0    0  501    0  0.00000000000E+00  0.00000000000E+00 -0.54367324290E+03  0.54367324291E+03  0.25500000920E-02 0.  1.
    10030    2    1    2    0    0  0.00000000000E+00  0.00000000000E+00 -0.14511390320E+03  0.94223258262E+03  0.93099097463E+03 0.  0.
        2    1    3    3  502    0  0.44524071228E+03 -0.12539939615E+03 -0.19756622985E+02  0.46298447554E+03  0.25500000920E-02 0.  1.
       -2    1    3    3    0  502 -0.44524071228E+03  0.12539939615E+03 -0.12535728021E+03  0.47924810708E+03  0.25500000920E-02 0. -1.
</event>
<event>
 5   0  0.1216322E-02  0.1009857E+04  0.7818609E-02  0.9297799E-01
        2   -1    0    0  501    0  0.00000000000E+00  0.00000000000E+00  0.10265726503E+04  0.10265726503E+04  0.25500000920E-02 0.  1.
       -2   -1    0    0    0  501  0.00000000000E+00  0.00000000000E+00 -0.24835351830E+03  0.24835351831E+03  0.25500000920E-02 0. -1.
    10030    2    1    2    0    0  0.00000000000E+00  0.00000000000E+00  0.77821913196E+03  0.12749261686E+04  0.10098572760E+04 0.  0.
        2    1    3    3  502    0  0.14743426884E+03  0.42711171366E+03  0.10458406497E+03  0.46378778145E+03  0.25500000920E-02 0.  1.
       -2    1    3    3    0  502 -0.14743426884E+03 -0.42711171366E+03  0.67363506700E+03  0.81113838712E+03  0.25500000920E-02 0. -1.
</event>
<event>
 5   0  0.7241200E-03  0.1030656E+04  0.7818609E-02  0.9275546E-01
        1   -1    0    0  501    0  0.00000000000E+00  0.00000000000E+00  0.33053161650E+03  0.33053161654E+03  0.50400001928E-02 0. -1.
       -1   -1    0    0    0  501  0.00000000000E+00  0.00000000000E+00 -0.80344228876E+03  0.80344228878E+03  0.50400001928E-02 0.  1.
    10030    2    1    2    0    0  0.00000000000E+00  0.00000000000E+00 -0.47291067226E+03  0.11339739053E+04  0.10306562541E+04 0.  0.
        4    1    3    3  502    0  0.43244252173E+03 -0.12132549864E+03  0.41528045827E+02  0.45105720558E+03  0.12699999809E+01 0. -1.
       -4    1    3    3    0  502 -0.43244252173E+03  0.12132549864E+03 -0.51443871809E+03  0.68291669974E+03  0.12699999809E+01 0.  1.
</event>
<event>
 5   0  0.7073004E-03  0.1068036E+04  0.7818609E-02  0.9236919E-01
        1   -1    0    0  501    0  0.00000000000E+00  0.00000000000E+00  0.65776650265E+03  0.65776650267E+03  0.50400001928E-02 0.  1.
       -1   -1    0    0    0  501  0.00000000000E+00  0.00000000000E+00 -0.43355090673E+03  0.43355090676E+03  0.50400001928E-02 0. -1.
    10030    2    1    2    0    0  0.00000000000E+00  0.00000000000E+00  0.22421559592E+03  0.10913174094E+04  0.10680360737E+04 0.  0.
        1    1    3    3  502    0  0.36365185421E+03  0.10785963178E+03  0.49619916033E+03  0.62457183572E+03  0.50400001928E-02 0.  1.
       -1    1    3    3    0  502 -0.36365185421E+03 -0.10785963178E+03 -0.27198356441E+03  0.46674557371E+03  0.50400001928E-02 0. -1.
</event>
<event>
 5   0  0.7073004E-03  0.9990255E+03  0.7818609E-02  0.9309614E-01
        1   -1    0    0  501    0  0.00000000000E+00  0.00000000000E+00  0.81706113313E+03  0.81706113314E+03  0.50400001928E-02 0.  1.
       -1   -1    0    0    0  501  0.00000000000E+00  0.00000000000E+00 -0.30537857579E+03  0.30537857583E+03  0.50400001928E-02 0. -1.
    10030    2    1    2    0    0  0.00000000000E+00  0.00000000000E+00  0.51168255734E+03  0.11224397090E+04  0.99902545553E+03 0.  0.
        1    1    3    3  502    0  0.14232991564E+03 -0.17559140945E+03  0.75631614688E+03  0.78936953451E+03  0.50400001928E-02 0.  1.
       -1    1    3    3    0  502 -0.14232991564E+03  0.17559140945E+03 -0.24463358954E+03  0.33307017446E+03  0.50400001928E-02 0. -1.
</event>
<event>
 5   0  0.4782125E-03  0.9217739E+03  0.7818609E-02  0.9398765E-01
       -3   -1    0    0    0  501  0.00000000000E+00  0.00000000000E+00  0.40311163508E+03  0.40311164773E+03  0.10100000352E+00 0.  1.
        3   -1    0    0  501    0  0.00000000000E+00  0.00000000000E+00 -0.52694282488E+03  0.52694283456E+03  0.10100000352E+00 0. -1.
    10030    2    1    2    0    0  0.00000000000E+00  0.00000000000E+00 -0.12383118980E+03  0.93005448229E+03  0.92177392915E+03 0.  0.
        4    1    3    3  502    0  0.44363588427E+03 -0.11172485825E+03 -0.11827378693E+03  0.47253099722E+03  0.12699999809E+01 0. -1.
       -4    1    3    3    0  502 -0.44363588427E+03  0.11172485825E+03 -0.55574028706E+01  0.45752348507E+03  0.12699999809E+01 0.  1.
</event>
<event>
 5   0  0.6967681E-03  0.9534436E+03  0.7818609E-02  0.9361135E-01
       -1   -1    0    0    0  501  0.00000000000E+00  0.00000000000E+00  0.19591154642E+03  0.19591154648E+03  0.50400001928E-02 0.  1.
        1   -1    0    0  501    0  0.00000000000E+00  0.00000000000E+00 -0.11600321075E+04  0.11600321075E+04  0.50400001928E-02 0. -1.
    10030    2    1    2    0    0  0.00000000000E+00  0.00000000000E+00 -0.96412056109E+03  0.13559436540E+04  0.95344361999E+03 0.  0.
        5    1    3    3  502    0  0.27339217085E+03 -0.37395267583E+03 -0.32205871993E+03  0.56420545187E+03  0.46999998093E+01 0.  1.
       -5    1    3    3    0  502 -0.27339217085E+03  0.37395267583E+03 -0.64206184116E+03  0.79173820213E+03  0.46999998093E+01 0. -1.
</event>
<event>
 5   0  0.1191822E-02  0.9909572E+03  0.7818609E-02  0.9318519E-01
       -2   -1    0    0    0  501  0.00000000000E+00  0.00000000000E+00  0.17063105776E+03  0.17063105778E+03  0.25500000920E-02 0. -1.
        2   -1    0    0  501    0  0.00000000000E+00  0.00000000000E+00 -0.14387712049E+04  0.14387712049E+04  0.25500000920E-02 0.  1.
    10030    2    1    2    0    0  0.00000000000E+00  0.00000000000E+00 -0.12681401471E+04  0.16094022626E+04  0.99095721920E+03 0.  0.
        4    1    3    3  502    0  0.23903552039E+03  0.23559702499E+03 -0.42104835732E+02  0.33825784290E+03  0.12699999809E+01 0. -1.
       -4    1    3    3    0  502 -0.23903552039E+03 -0.23559702499E+03 -0.12260353114E+04  0.12711444197E+04  0.12699999809E+01 0.  1.
</event>
<event>
 5   0  0.1245850E-02  0.9959689E+03  0.7818609E-02  0.9312977E-01
        2   -1    0    0  501    0  0.00000000000E+00  0.00000000000E+00  0.11165994202E+04  0.11165994202E+04  0.25500000920E-02 0.  1.
       -2   -1    0    0    0  501  0.00000000000E+00  0.00000000000E+00 -0.22209263875E+03  0.22209263877E+03  0.25500000920E-02 0. -1.
    10030    2    1    2    0    0  0.00000000000E+00  0.00000000000E+00  0.89450678149E+03  0.13386920590E+04  0.99596889847E+03 0.  0.
        3    1    3    3  502    0  0.12511934204E+03 -0.45024122588E+03  0.21593950422E+03  0.51478334367E+03  0.10100000352E+00 0. -1.
       -3    1    3    3    0  502 -0.12511934204E+03  0.45024122588E+03  0.67856727727E+03  0.82390871534E+03  0.10100000352E+00 0.  1.
</event>
<event>
 5   0  0.1240503E-02  0.1002294E+04  0.7818609E-02  0.9306033E-01
        2   -1    0    0  501    0  0.00000000000E+00  0.00000000000E+00  0.27036146400E+03  0.27036146401E+03  0.25500000920E-02 0.  1.
       -2   -1    0    0    0  501  0.00000000000E+00  0.00000000000E+00 -0.92893478174E+03  0.92893478175E+03  0.25500000920E-02 0. -1.
    10030    2    1    2    0    0  0.00000000000E+00  0.00000000000E+00 -0.65857331775E+03  0.11992962458E+04  0.10022937046E+04 0.  0.
        1    1    3    3  502    0 -0.10165169784E+03  0.29240198280E+03 -0.80084976788E+03  0.85859905541E+03  0.50400001928E-02 0. -1.
       -1    1    3    3    0  502  0.10165169784E+03 -0.29240198280E+03  0.14227645013E+03  0.34069719034E+03  0.50400001928E-02 0.  1.
</event>
<event>
 5   0  0.4782125E-03  0.9831228E+03  0.7818609E-02  0.9327252E-01
       -3   -1    0    0    0  501  0.00000000000E+00  0.00000000000E+00  0.14174522354E+03  0.14174525953E+03  0.10100000352E+00 0. -1.
        3   -1    0    0  501    0  0.00000000000E+00  0.00000000000E+00 -0.17046963634E+04  0.17046963664E+04  0.10100000352E+00 0.  1.
    10030    2    1    2    0    0  0.00000000000E+00  0.00000000000E+00 -0.15629511398E+04  0.18464416259E+04  0.98312278599E+03 0.  0.
        5    1    3    3  502    0 -0.27141268596E+03  0.17186734712E+03 -0.14802021917E+04  0.15146695512E+04  0.46999998093E+01 0.  1.
       -5    1    3    3    0  502  0.27141268596E+03 -0.17186734712E+03 -0.82748948113E+02  0.33177207465E+03  0.46999998093E+01 0. -1.
</event>
<event>
 5   0  0.1245850E-02  0.1011476E+04  0.7818609E-02  0.9296047E-01
        2   -1    0    0  501    0  0.00000000000E+00  0.00000000000E+00  0.95531374528E+03  0.95531374529E+03  0.25500000920E-02 0.  1.
       -2   -1    0    0    0  501  0.00000000000E+00  0.00000000000E+00 -0.26773516102E+03  0.26773516103E+03  0.25500000920E-02 0. -1.
    10030    2    1    2    0    0  0.00000000000E+00  0.00000000000E+00  0.68757858427E+03  0.12230489063E+04  0.10114763060E+04 0.  0.
        3    1    3    3  502    0 -0.25641197168E+02  0.49391980674E+03  0.47150913523E+03  0.68332651148E+03  0.10100000352E+00 0.  1.
       -3    1    3    3    0  502  0.25641197168E+02 -0.49391980674E+03  0.21606944904E+03  0.53972239484E+03  0.10100000352E+00 0. -1.
</event>
<event>
 5   0  0.1221315E-02  0.9557203E+03  0.7818609E-02  0.9358489E-01
       -2   -1    0    0    0  501  0.00000000000E+00  0.00000000000E+00  0.47468362187E+03  0.47468362188E+03  0.25500000920E-02 0.  1.
        2   -1    0    0  501    0  0.00000000000E+00  0.00000000000E+00 -0.48105795669E+03  0.48105795670E+03  0.25500000920E-02 0. -1.
    10030    2    1    2    0    0  0.00000000000E+00  0.00000000000E+00 -0.63743348219E+01  0.95574157858E+03  0.95572032147E+03 0.  0.
        5    1    3    3  502    0  0.21030289368E+02 -0.15567003981E+02  0.47394359573E+03  0.47468855750E+03  0.46999998093E+01 0.  1.
       -5    1    3    3    0  502 -0.21030289368E+02  0.15567003981E+02 -0.48031793055E+03  0.48105302108E+03  0.46999998093E+01 0. -1.
</event>
<event>
 5   0  0.4782125E-03  0.1000644E+04  0.7818609E-02  0.9307839E-01
       -4   -1    0    0    0  501  0.00000000000E+00  0.00000000000E+00  0.24237257351E+03  0.24237590080E+03  0.12699999809E+01 0. -1.
        4   -1    0    0  501    0  0.00000000000E+00  0.00000000000E+00 -0.10327880422E+04  0.10327888230E+04  0.12699999809E+01 0.  1.
    10030    2    1    2    0    0  0.00000000000E+00  0.00000000000E+00 -0.79041546866E+03  0.12751647238E+04  0.10006440225E+04 0.  0.
        2    1    3    3  502    0 -0.38266733013E+03 -0.31513364642E+03 -0.48143680663E+03  0.69103176442E+03  0.25500000920E-02 0.  1.
       -2    1    3    3    0  502  0.38266733013E+03  0.31513364642E+03 -0.30897866203E+03  0.58413295940E+03  0.25500000920E-02 0. -1.
</event>
<event>
 5   0  0.7073004E-03  0.1020437E+04  0.7818609E-02  0.9286410E-01
       -1   -1    0    0    0  501  0.00000000000E+00  0.00000000000E+00  0.14516409949E+03  0.14516409958E+03  0.50400001928E-02 0.  1.
        1   -1    0    0  501    0  0.00000000000E+00  0.00000000000E+00 -0.17933011809E+04  0.17933011809E+04  0.50400001928E-02 0. -1.
    10030    2    1    2    0    0  0.00000000000E+00  0.00000000000E+00 -0.16481370814E+04  0.19384652805E+04  0.10204370654E+04 0.  0.
        1    1    3    3  502    0  0.39405559280E+03  0.99807705577E+02 -0.23830820914E+03  0.47120291900E+03  0.50400001928E-02 0.  1.
       -1    1    3    3    0  502 -0.39405559280E+03 -0.99807705577E+02 -0.14098288722E+04  0.14672623614E+04  0.50400001928E-02 0. -1.
</event>
<event>
 5   0  0.1240503E-02  0.9832750E+03  0.7818609E-02  0.9327081E-01
       -2   -1    0    0    0  501  0.00000000000E+00  0.00000000000E+00  0.13157627824E+03  0.13157627826E+03  0.25500000920E-02 0. -1.
        2   -1    0    0  501    0  0.00000000000E+00  0.00000000000E+00 -0.18370138022E+04  0.18370138022E+04  0.25500000920E-02 0.  1.
    10030    2    1    2    0    0  0.00000000000E+00  0.00000000000E+00 -0.17054375239E+04  0.19685900804E+04  0.98327501583E+03 0.  0.
        1    1    3    3  502    0  0.25843916902E+03  0.25349431287E+03 -0.18672484742E+03  0.40732829439E+03  0.50400001928E-02 0. -1.
       -1    1    3    3    0  502 -0.25843916902E+03 -0.25349431287E+03 -0.15187126765E+04  0.15612617860E+04  0.50400001928E-02 0.  1.
</event>
<event>
 5   0  0.7224879E-03  0.9847310E+03  0.7818609E-02  0.9325452E-01
        1   -1    0    0  501    0  0.00000000000E+00  0.00000000000E+00  0.53683155671E+03  0.53683155674E+03  0.50400001928E-02 0. -1.
       -1   -1    0    0    0  501  0.00000000000E+00  0.00000000000E+00 -0.45158259759E+03  0.45158259762E+03  0.50400001928E-02 0.  1.
    10030    2    1    2    0    0  0.00000000000E+00  0.00000000000E+00  0.85248959119E+02  0.98841415436E+03  0.98473100668E+03 0.  0.
        3    1    3    3  502    0  0.25067021475E+03  0.39163738024E+01  0.46796986154E+03  0.53089235826E+03  0.10100000352E+00 0. -1.
       -3    1    3    3    0  502 -0.25067021475E+03 -0.39163738024E+01 -0.38272090243E+03  0.45752179610E+03  0.10100000352E+00 0.  1.
</event>
<event>
 5   0  0.7461157E-03  0.1000515E+04  0.7818609E-02  0.9307980E-01
        1   -1    0    0  501    0  0.00000000000E+00  0.00000000000E+00  0.22123114496E+03  0.22123114502E+03  0.50400001928E-02 0.  1.
       -1   -1    0    0    0  501  0.00000000000E+00  0.00000000000E+00 -0.11312042130E+04  0.11312042130E+04  0.50400001928E-02 0. -1.
    10030    2    1    2    0    0  0.00000000000E+00  0.00000000000E+00 -0.90997306799E+03  0.13524353580E+04  0.10005150739E+04 0.  0.
        2    1    3    3  502    0 -0.49163142737E+02 -0.37928164337E+03 -0.19093061024E+02  0.38293096582E+03  0.25500000920E-02 0.  1.
       -2    1    3    3    0  502  0.49163142737E+02  0.37928164337E+03 -0.89088000697E+03  0.96950439216E+03  0.25500000920E-02 0. -1.
</event>
<event>
 5   0  0.7241200E-03  0.1004572E+04  0.7818609E-02  0.9303545E-01
        1   -1    0    0  501    0  0.00000000000E+00  0.00000000000E+00  0.29418225122E+03  0.29418225126E+03  0.50400001928E-02 0.  1.
       -1   -1    0    0    0  501  0.00000000000E+00  0.00000000000E+00 -0.85760104000E+03  0.85760104002E+03  0.50400001928E-02 0. -1.
    10030    2    1    2    0    0  0.00000000000E+00  0.00000000000E+00 -0.56341878879E+03  0.11517832913E+04  0.10045715597E+04 0.  0.
        4    1    3    3  502    0 -0.30527643938E+03  0.24129918893E+03 -0.64585220711E+03  0.75401968764E+03  0.12699999809E+01 0. -1.
       -4    1    3    3    0  502  0.30527643938E+03 -0.24129918893E+03  0.82433418325E+02  0.39776360363E+03  0.12699999809E+01 0.  1.
</event>
<event>
 5   0  0.1191822E-02  0.1026616E+04  0.7818609E-02  0.9279825E-01
       -2   -1    0    0    0  501  0.00000000000E+00  0.00000000000E+00  0.16180109398E+03  0.16180109400E+03  0.25500000920E-02 0.  1.
        2   -1    0    0  501    0  0.00000000000E+00  0.00000000000E+00 -0.16284507361E+04  0.16284507361E+04  0.25500000920E-02 0. -1.
    10030    2    1    2    0    0  0.00000000000E+00  0.00000000000E+00 -0.14666496421E+04  0.17902518301E+04  0.10266160151E+04 0.  0.
        4    1    3    3  502    0  0.16002580941E+03 -0.25325145185E+03 -0.14601913578E+04  0.14906055722E+04  0.12699999809E+01 0. -1.
       -4    1    3    3    0  502 -0.16002580941E+03  0.25325145185E+03 -0.64582843040E+01  0.29964625790E+03  0.12699999809E+01 0.  1.
</event>
<event>
 5   0  0.6967681E-03  0.9921058E+03  0.7818609E-02  0.9317246E-01
       -1   -1    0    0    0  501  0.00000000000E+00  0.00000000000E+00  0.40948663742E+03  0.40948663745E+03  0.50400001928E-02 0. -1.
        1   -1    0    0  501    0  0.00000000000E+00  0.00000000000E+00 -0.60091943586E+03  0.60091943588E+03  0.50400001928E-02 0.  1.
    10030    2    1    2    0    0  0.00000000000E+00  0.00000000000E+00 -0.19143279845E+03  0.10104060733E+04  0.99210579915E+03 0.  0.
        5    1    3    3  502    0  0.14582180732E+03  0.47115344479E+03 -0.41855908315E+02  0.49499856069E+03  0.46999998093E+01 0.  1.
       -5    1    3    3    0  502 -0.14582180732E+03 -0.47115344479E+03 -0.14957689013E+03  0.51540751264E+03  0.46999998093E+01 0. -1.
</event>
<event>
 5   0  0.6967681E-03  0.9801501E+03  0.7818609E-02  0.9330588E-01
       -1   -1    0    0    0  501  0.00000000000E+00  0.00000000000E+00  0.35689334212E+03  0.35689334216E+03  0.50400001928E-02 0. -1.
        1   -1    0    0  501    0  0.00000000000E+00  0.00000000000E+00 -0.67295614294E+03  0.67295614296E+03  0.50400001928E-02 0.  1.
    10030    2    1    2    0    0  0.00000000000E+00  0.00000000000E+00 -0.31606280082E+03  0.10298494851E+04  0.98015012520E+03 0.  0.
        5    1    3    3  502    0 -0.20562197528E+03  0.11785907044E+03 -0.60870990143E+03  0.65323884706E+03  0.46999998093E+01 0.  1.
       -5    1    3    3    0  502  0.20562197528E+03 -0.11785907044E+03  0.29264710062E+03  0.37661063806E+03  0.46999998093E+01 0. -1.
</event>
<event>
 5   0  0.6967681E-03  0.9619366E+03  0.7818609E-02  0.9351306E-01
        1   -1    0    0  501    0  0.00000000000E+00  0.00000000000E+00  0.12088905708E+04  0.12088905708E+04  0.50400001928E-02 0. -1.
       -1   -1    0    0    0  501  0.00000000000E+00  0.00000000000E+00 -0.19135767542E+03  0.19135767549E+03  0.50400001928E-02 0.  1.
    10030    2    1    2    0    0  0.00000000000E+00  0.00000000000E+00  0.10175328953E+04  0.14002482463E+04  0.96193656654E+03 0.  0.
        5    1    3    3  502    0  0.25431322427E+03 -0.29760854400E+03  0.10206157040E+03  0.40457967776E+03  0.46999998093E+01 0.  1.
       -5    1    3    3    0  502 -0.25431322427E+03  0.29760854400E+03  0.91547132494E+03  0.99566856849E+03  0.46999998093E+01 0. -1.
</event>
<event>
 5   0  0.1221315E-02  0.9737133E+03  0.7818609E-02  0.9337855E-01
       -2   -1    0    0    0  501  0.00000000000E+00  0.00000000000E+00  0.60345687386E+03  0.60345687387E+03  0.25500000920E-02 0. -1.
        2   -1    0    0  501    0  0.00000000000E+00  0.00000000000E+00 -0.39278598235E+03  0.39278598235E+03  0.25500000920E-02 0.  1.
    10030    2    1    2    0    0  0.00000000000E+00  0.00000000000E+00  0.21067089152E+03  0.99624285622E+03  0.97371330690E+03 0.  0.
        5    1    3    3  502    0 -0.24704788969E+03  0.18895230124E+03  0.48852980970E+03  0.57915377657E+03  0.46999998093E+01 0. -1.
       -5    1    3    3    0  502  0.24704788969E+03 -0.18895230124E+03 -0.27785891819E+03  0.41708907965E+03  0.46999998093E+01 0.  1.
</event>
<event>
 5   0  0.1240503E-02  0.1026087E+04  0.7818609E-02  0.9280387E-01
       -2   -1    0    0    0  501  0.00000000000E+00  0.00000000000E+00  0.21083090845E+03  0.21083090847E+03  0.25500000920E-02 0. -1.
        2   -1    0    0  501    0  0.00000000000E+00  0.00000000000E+00 -0.12484579228E+04  0.12484579228E+04  0.25500000920E-02 0.  1.
    10030    2    1    2    0    0  0.00000000000E+00  0.00000000000E+00 -0.10376270144E+04  0.14592888313E+04  0.10260867762E+04 0.  0.
        1    1    3    3  502    0  0.32588723861E+03 -0.59093701908E+02  0.38421225027E+02  0.33342277734E+03  0.50400001928E-02 0. -1.
       -1    1    3    3    0  502 -0.32588723861E+03  0.59093701908E+02 -0.10760482394E+04  0.11258660540E+04  0.50400001928E-02 0.  1.
</event>
<event>
 5   0  0.7461157E-03  0.9785285E+03  0.7818609E-02  0.9332413E-01
        1   -1    0    0  501    0  0.00000000000E+00  0.00000000000E+00  0.67511523134E+03  0.67511523136E+03  0.50400001928E-02 0.  1.
       -1   -1    0    0    0  501  0.00000000000E+00  0.00000000000E+00 -0.35457575668E+03  0.35457575672E+03  0.50400001928E-02 0. -1.
    10030    2    1    2    0    0  0.00000000000E+00  0.00000000000E+00  0.32053947466E+03  0.10296909881E+04  0.97852847486E+03 0.  0.
        2    1    3    3  502    0 -0.42175668990E+03 -0.73466717733E+02  0.40951571035E+03  0.59243495940E+03  0.25500000920E-02 0.  1.
       -2    1    3    3    0  502  0.42175668990E+03  0.73466717733E+02 -0.88976235690E+02  0.43725602868E+03  0.25500000920E-02 0. -1.
</event>
<event>
 5   0  0.4782125E-03  0.1001166E+04  0.7818609E-02  0.9307267E-01
        4   -1    0    0  501    0  0.00000000000E+00  0.00000000000E+00  0.63797003905E+03  0.63797130314E+03  0.12699999809E+01 0.  1.
       -4   -1    0    0    0  501  0.00000000000E+00  0.00000000000E+00 -0.39277954298E+03  0.39278159616E+03  0.12699999809E+01 0. -1.
    10030    2    1    2    0    0  0.00000000000E+00  0.00000000000E+00  0.24519049607E+03  0.10307528993E+04  0.10011659004E+04 0.  0.
        2    1    3    3  502    0  0.40645065336E+03  0.13339771394E+03 -0.14506110165E+03  0.45170765648E+03  0.25500000920E-02 0. -1.
       -2    1    3    3    0  502 -0.40645065336E+03 -0.13339771394E+03  0.39025159772E+03  0.57904524282E+03  0.25500000920E-02 0.  1.
</event>
<event>
 5   0  0.1240503E-02  0.9857344E+03  0.7818609E-02  0.9324331E-01
        2   -1    0    0  501    0  0.00000000000E+00  0.00000000000E+00  0.17427394301E+04  0.17427394301E+04  0.25500000920E-02 0.  1.
       -2   -1    0    0    0  501  0.00000000000E+00  0.00000000000E+00 -0.13938863501E+03  0.13938863503E+03  0.25500000920E-02 0. -1.
    10030    2    1    2    0    0  0.00000000000E+00  0.00000000000E+00  0.16033507951E+04  0.18821280652E+04  0.98573438687E+03 0.  0.
        1    1    3    3  502    0  0.20688922335E+03 -0.32971340179E+03  0.13789359042E+04  0.14328217984E+04  0.50400001928E-02 0.  1.
       -1    1    3    3    0  502 -0.20688922335E+03  0.32971340179E+03  0.22441489091E+03  0.44930626675E+03  0.50400001928E-02 0. -1.
</event>
<event>
 5   0  0.4782125E-03  0.1000878E+04  0.7818609E-02  0.9307583E-01
       -3   -1    0    0    0  501  0.00000000000E+00  0.00000000000E+00  0.16586722479E+03  0.16586725554E+03  0.10100000352E+00 0. -1.
        3   -1    0    0  501    0  0.00000000000E+00  0.00000000000E+00 -0.15098765701E+04  0.15098765735E+04  0.10100000352E+00 0.  1.
    10030    2    1    2    0    0  0.00000000000E+00  0.00000000000E+00 -0.13440093453E+04  0.16757438290E+04  0.10008777449E+04 0.  0.
        4    1    3    3  502    0  0.15553860441E+03 -0.44339833336E+03 -0.96026740478E+03  0.10690694276E+04  0.12699999809E+01 0. -1.
       -4    1    3    3    0  502 -0.15553860441E+03  0.44339833336E+03 -0.38374194056E+03  0.60667440142E+03  0.12699999809E+01 0.  1.
</event>
<event>
 5   0  0.1240503E-02  0.1004249E+04  0.7818609E-02  0.9303897E-01
        2   -1    0    0  501    0  0.00000000000E+00  0.00000000000E+00  0.49026814768E+03  0.49026814769E+03  0.25500000920E-02 0. -1.
       -2   -1    0    0    0  501  0.00000000000E+00  0.00000000000E+00 -0.51426767425E+03  0.51426767426E+03  0.25500000920E-02 0.  1.
    10030    2    1    2    0    0  0.00000000000E+00  0.00000000000E+00 -0.23999526569E+02  0.10045358219E+04  0.10042490927E+04 0.  0.
        1    1    3    3  502    0  0.30708890528E+03 -0.20662023666E+02  0.38484836575E+03  0.49278674862E+03  0.50400001928E-02 0. -1.
       -1    1    3    3    0  502 -0.30708890528E+03  0.20662023666E+02 -0.40884789232E+03  0.51174907332E+03  0.50400001928E-02 0.  1.
</event>
<event>
 5   0  0.1245850E-02  0.1005350E+04  0.7818609E-02  0.9302696E-01
       -2   -1    0    0    0  501  0.00000000000E+00  0.00000000000E+00  0.27438321468E+03  0.27438321469E+03  0.25500000920E-02 0. -1.
        2   -1    0    0  501    0  0.00000000000E+00  0.00000000000E+00 -0.92091055611E+03  0.92091055611E+03  0.25500000920E-02 0.  1.
    10030    2    1    2    0    0  0.00000000000E+00  0.00000000000E+00 -0.64652734143E+03  0.11952937708E+04  0.10053504838E+04 0.  0.
        3    1    3    3  502    0 -0.30396988876E+03  0.11422557753E+03  0.13294754583E+03  0.35088493267E+03  0.10100000352E+00 0. -1.
       -3    1    3    3    0  502  0.30396988876E+03 -0.11422557753E+03 -0.77947488726E+03  0.84440883813E+03  0.10100000352E+00 0.  1.
</event>
<event>
 5   0  0.7241200E-03  0.1018150E+04  0.7818609E-02  0.9288860E-01
       -1   -1    0    0    0  501  0.00000000000E+00  0.00000000000E+00  0.19800512921E+03  0.19800512927E+03  0.50400001928E-02 0.  1.
        1   -1    0    0  501    0  0.00000000000E+00  0.00000000000E+00 -0.13088403943E+04  0.13088403943E+04  0.50400001928E-02 0. -1.
    10030    2    1    2    0    0  0.00000000000E+00  0.00000000000E+00 -0.11108352651E+04  0.15068455236E+04  0.10181495203E+04 0.  0.
        4    1    3    3  502    0 -0.36409842792E+03  0.17846500084E+02 -0.29514062220E+02  0.36573057781E+03  0.12699999809E+01 0.  1.
       -4    1    3    3    0  502  0.36409842792E+03 -0.17846500084E+02 -0.10813212029E+04  0.11411149458E+04  0.12699999809E+01 0. -1.
</event>
<event>
 5   0  0.7241200E-03  0.9734523E+03  0.7818609E-02  0.9338151E-01
        1   -1    0    0  501    0  0.00000000000E+00  0.00000000000E+00  0.48649001158E+03  0.48649001161E+03  0.50400001928E-02 0. -1.
       -1   -1    0    0    0  501  0.00000000000E+00  0.00000000000E+00 -0.48696241413E+03  0.48696241416E+03  0.50400001928E-02 0.  1.
    10030    2    1    2    0    0  0.00000000000E+00  0.00000000000E+00 -0.47240254943E+00  0.97345242576E+03  0.97345231114E+03 0.  0.
        4    1    3    3  502    0  0.12965413425E+02 -0.21228616163E+03 -0.43803440409E+03  0.48693867009E+03  0.12699999809E+01 0.  1.
       -4    1    3    3    0  502 -0.12965413425E+02  0.21228616163E+03  0.43756200154E+03  0.48651375567E+03  0.12699999809E+01 0. -1.
</event>
<event>
 5   0  0.7073004E-03  0.1017233E+04  0.7818609E-02  0.9289844E-01
       -1   -1    0    0    0  501  0.00000000000E+00  0.00000000000E+00  0.37605677335E+03  0.37605677338E+03  0.50400001928E-02 0. -1.
        1   -1    0    0  501    0  0.00000000000E+00  0.00000000000E+00 -0.68790299551E+03  0.68790299553E+03  0.50400001928E-02 0.  1.
    10030    2    1    2    0    0  0.00000000000E+00  0.00000000000E+00 -0.31184622216E+03  0.10639597689E+04  0.10172326792E+04 0.  0.
        1    1    3    3  502    0  0.31995919347E+03 -0.45885004452E+00 -0.56945336962E+03  0.65318545316E+03  0.50400001928E-02 0.  1.
       -1    1    3    3    0  502 -0.31995919347E+03  0.45885004452E+00  0.25760714746E+03  0.41077431574E+03  0.50400001928E-02 0. -1.
</event>
<event>
 5   0  0.1221315E-02  0.9890190E+03  0.7818609E-02  0.9320671E-01
        2   -1    0    0  501    0  0.00000000000E+00  0.00000000000E+00  0.11828273773E+04  0.11828273773E+04  0.25500000920E-02 0. -1.
       -2   -1    0    0    0  501  0.00000000000E+00  0.00000000000E+00 -0.20674160651E+03  0.20674160652E+03  0.25500000920E-02 0.  1.
    10030    2    1    2    0    0  0.00000000000E+00  0.00000000000E+00  0.97608577084E+03  0.13895689839E+04  0.98901897297E+03 0.  0.
        5    1    3    3  502    0  0.23341001074E+02  0.17329905360E+03 -0.16181989613E+03  0.23829631363E+03  0.46999998093E+01 0.  1.
       -5    1    3    3    0  502 -0.23341001074E+02 -0.17329905360E+03  0.11379056670E+04  0.11512726702E+04  0.46999998093E+01 0. -1.
</event>
<event>
 5   0  0.7073004E-03  0.1028479E+04  0.7818609E-02  0.9277849E-01
       -1   -1    0    0    0  501  0.00000000000E+00  0.00000000000E+00  0.25450306222E+03  0.25450306227E+03  0.50400001928E-02 0.  1.
        1   -1    0    0  501    0  0.00000000000E+00  0.00000000000E+00 -0.10390541616E+04  0.10390541616E+04  0.50400001928E-02 0. -1.
    10030    2    1    2    0    0  0.00000000000E+00  0.00000000000E+00 -0.78455109935E+03  0.12935572239E+04  0.10284793940E+04 0.  0.
        1    1    3    3  502    0 -0.27004519185E+03  0.10510243039E+03 -0.92658691509E+03  0.97084202513E+03  0.50400001928E-02 0. -1.
       -1    1    3    3    0  502  0.27004519185E+03 -0.10510243039E+03  0.14203581574E+03  0.32271519873E+03  0.50400001928E-02 0.  1.
</event>
<event>
 5   0  0.4782125E-03  0.9856204E+03  0.7818609E-02  0.9324458E-01
        3   -1    0    0  501    0  0.00000000000E+00  0.00000000000E+00  0.26388012612E+03  0.26388014545E+03  0.10100000352E+00 0.  1.
       -3   -1    0    0    0  501  0.00000000000E+00  0.00000000000E+00 -0.92034932848E+03  0.92034933402E+03  0.10100000352E+00 0. -1.
    10030    2    1    2    0    0  0.00000000000E+00  0.00000000000E+00 -0.65646920236E+03  0.11842294795E+04  0.98562043728E+03 0.  0.
        4    1    3    3  502    0  0.76872942314E+02  0.19392474571E+03  0.20821360599E+03  0.29473848557E+03  0.12699999809E+01 0.  1.
       -4    1    3    3    0  502 -0.76872942314E+02 -0.19392474571E+03 -0.86468280835E+03  0.88949099389E+03  0.12699999809E+01 0. -1.
</event>
<event>
 5   0  0.1221315E-02  0.1008856E+04  0.7818609E-02  0.9298885E-01
       -2   -1    0    0    0  501  0.00000000000E+00  0.00000000000E+00  0.54414304124E+03  0.54414304124E+03  0.25500000920E-02 0.  1.
        2   -1    0    0  501    0  0.00000000000E+00  0.00000000000E+00 -0.46761124257E+03  0.46761124257E+03  0.25500000920E-02 0. -1.
    10030    2    1    2    0    0  0.00000000000E+00  0.00000000000E+00  0.76531798670E+02  0.10117542838E+04  0.10088555965E+04 0.  0.
        5    1    3    3  502    0  0.35285757965E+03 -0.35863355998E+03  0.74408479866E+02  0.50861106332E+03  0.46999998093E+01 0. -1.
       -5    1    3    3    0  502 -0.35285757965E+03  0.35863355998E+03  0.21233188041E+01  0.50314322050E+03  0.46999998093E+01 0.  1.
</event>
<event>
 5   0  0.1240503E-02  0.9226163E+03  0.7818609E-02  0.9397743E-01
       -2   -1    0    0    0  501  0.00000000000E+00  0.00000000000E+00  0.39317206275E+03  0.39317206276E+03  0.25500000920E-02 0. -1.
        2   -1    0    0  501    0  0.00000000000E+00  0.00000000000E+00 -0.54125215688E+03  0.54125215688E+03  0.25500000920E-02 0.  1.
    10030    2    1    2    0    0  0.00000000000E+00  0.00000000000E+00 -0.14808009413E+03  0.93442421964E+03  0.92261633845E+03 0.  0.
        1    1    3    3  502    0 -0.39506139205E+03 -0.61146726569E+02  0.15910778649E+03  0.43026470156E+03  0.50400001928E-02 0. -1.
       -1    1    3    3    0  502  0.39506139205E+03  0.61146726569E+02 -0.30718788061E+03  0.50415951809E+03  0.50400001928E-02 0.  1.
</event>
<event>
 5   0  0.1191822E-02  0.1022178E+04  0.7818609E-02  0.9284550E-01
       -2   -1    0    0    0  501  0.00000000000E+00  0.00000000000E+00  0.33075692701E+03  0.33075692702E+03  0.25500000920E-02 0. -1.
        2   -1    0    0  501    0  0.00000000000E+00  0.00000000000E+00 -0.78973923182E+03  0.78973923182E+03  0.25500000920E-02 0.  1.
    10030    2    1    2    0    0  0.00000000000E+00  0.00000000000E+00 -0.45898230481E+03  0.11204961588E+04  0.10221775217E+04 0.  0.
        4    1    3    3  502    0 -0.68891167068E+02  0.50156318332E+03 -0.30621230266E+03  0.59167491663E+03  0.12699999809E+01 0. -1.
       -4    1    3    3    0  502  0.68891167068E+02 -0.50156318332E+03 -0.15277000215E+03  0.52882124221E+03  0.12699999809E+01 0.  1.
</event>
<event>
 5   0  0.1221315E-02  0.1016151E+04  0.7818609E-02  0.9291006E-01
       -2   -1    0    0    0  501  0.00000000000E+00  0.00000000000E+00  0.18992138335E+03  0.18992138337E+03  0.25500000920E-02 0.  1.
        2   -1    0    0  501    0  0.00000000000E+00  0.00000000000E+00 -0.13591972027E+04  0.13591972027E+04  0.25500000920E-02 0. -1.
    10030    2    1    2    0    0  0.00000000000E+00  0.00000000000E+00 -0.11692758194E+04  0.15491185861E+04  0.10161508018E+04 0.  0.
        5    1    3    3  502    0 -0.19506732926E+03  0.20093988323E+03 -0.12308706639E+04  0.12623362392E+04  0.46999998093E+01 0. -1.
       -5    1    3    3    0  502  0.19506732926E+03 -0.20093988323E+03  0.61594844513E+02  0.28678234688E+03  0.46999998093E+01 0.  1.
</event>
<event>
 5   0  0.7241200E-03  0.9923015E+03  0.7818609E-02  0.9317029E-01
       -1   -1    0    0    0  501  0.00000000000E+00  0.00000000000E+00  0.27600342797E+03  0.27600342802E+03  0.50400001928E-02 0. -1.
        1   -1    0    0  501    0  0.00000000000E+00  0.00000000000E+00 -0.89189312442E+03  0.89189312443E+03  0.50400001928E-02 0.  1.
    10030    2    1    2    0    0  0.00000000000E+00  0.00000000000E+00 -0.61588969645E+03  0.11678965525E+04  0.99230148596E+03 0.  0.
        4    1    3    3  502    0  0.41733300557E+03  0.10407972475E+03 -0.16866084676E+02  0.43044802747E+03  0.12699999809E+01 0.  1.
       -4    1    3    3    0  502 -0.41733300557E+03 -0.10407972475E+03 -0.59902361177E+03  0.73744852498E+03  0.12699999809E+01 0. -1.
</event>
<event>
 5   0  0.1240503E-02  0.9973589E+03  0.7818609E-02  0.9311446E-01
        2   -1    0    0  501    0  0.00000000000E+00  0.00000000000E+00  0.22057127368E+04  0.22057127368E+04  0.25500000920E-02 0.  1.
       -2   -1    0    0    0  501  0.00000000000E+00  0.00000000000E+00 -0.11274415263E+03  0.11274415266E+03  0.25500000920E-02 0. -1.
    10030    2    1    2    0    0  0.00000000000E+00  0.00000000000E+00  0.20929685841E+04  0.23184568894E+04  0.99735893937E+03 0.  0.
        1    1    3    3  502    0  0.40791603108E+03 -0.15000823011E+02  0.17123936987E+04  0.17603728845E+04  0.50400001928E-02 0.  1.
       -1    1    3    3    0  502 -0.40791603108E+03  0.15000823011E+02  0.38057488544E+03  0.55808400493E+03  0.50400001928E-02 0. -1.
</event>
<event>
 5   0  0.7241200E-03  0.1003331E+04  0.7818609E-02  0.9304899E-01
        1   -1    0    0  501    0  0.00000000000E+00  0.00000000000E+00  0.69785889690E+03  0.69785889692E+03  0.50400001928E-02 0.  1.
       -1   -1    0    0    0  501  0.00000000000E+00  0.00000000000E+00 -0.36062900630E+03  0.36062900634E+03  0.50400001928E-02 0. -1.
    10030    2    1    2    0    0  0.00000000000E+00  0.00000000000E+00  0.33722989060E+03  0.10584879033E+04  0.10033307741E+04 0.  0.
        4    1    3    3  502    0  0.24764460645E+03  0.42738127152E+03  0.76137909977E+02  0.49978114869E+03  0.12699999809E+01 0. -1.
       -4    1    3    3    0  502 -0.24764460645E+03 -0.42738127152E+03  0.26109198062E+03  0.55870675457E+03  0.12699999809E+01 0.  1.
</event>
<event>
 5   0  0.7461157E-03  0.1021190E+04  0.7818609E-02  0.9285605E-01
       -1   -1    0    0    0  501  0.00000000000E+00  0.00000000000E+00  0.84736384553E+03  0.84736384554E+03  0.50400001928E-02 0.  1.
        1   -1    0    0  501    0  0.00000000000E+00  0.00000000000E+00 -0.30766856423E+03  0.30766856427E+03  0.50400001928E-02 0. -1.
    10030    2    1    2    0    0  0.00000000000E+00  0.00000000000E+00  0.53969528129E+03  0.11550324098E+04  0.10211899290E+04 0.  0.
        2    1    3    3  502    0 -0.28518933153E+03  0.10974862172E+03 -0.19282509477E+03  0.36132981051E+03  0.25500000920E-02 0. -1.
       -2    1    3    3    0  502  0.28518933153E+03 -0.10974862172E+03  0.73252037606E+03  0.79370259930E+03  0.25500000920E-02 0.  1.
</event>
<event>
 5   0  0.4782125E-03  0.9790719E+03  0.7818609E-02  0.9331801E-01
        4   -1    0    0  501    0  0.00000000000E+00  0.00000000000E+00  0.19499737440E+04  0.19499741576E+04  0.12699999809E+01 0. -1.
       -4   -1    0    0    0  501  0.00000000000E+00  0.00000000000E+00 -0.12289304075E+03  0.12289960279E+03  0.12699999809E+01 0.  1.
    10030    2    1    2    0    0  0.00000000000E+00  0.00000000000E+00  0.18270807033E+04  0.20728737604E+04  0.97907187183E+03 0.  0.
        1    1    3    3  502    0  0.16565214022E+03 -0.33207348124E+03  0.23759192474E+03  0.44063970682E+03  0.50400001928E-02 0.  1.
       -1    1    3    3    0  502 -0.16565214022E+03  0.33207348124E+03  0.15894887785E+04  0.16322340535E+04  0.50400001928E-02 0. -1.
</event>
<event>
 5   0  0.7073004E-03  0.1046424E+04  0.7818609E-02  0.9259044E-01
       -1   -1    0    0    0  501  0.00000000000E+00  0.00000000000E+00  0.41647379603E+03  0.41647379607E+03  0.50400001928E-02 0. -1.
        1   -1    0    0  501    0  0.00000000000E+00  0.00000000000E+00 -0.65730576794E+03  0.65730576796E+03  0.50400001928E-02 0.  1.
    10030    2    1    2    0    0  0.00000000000E+00  0.00000000000E+00 -0.24083197191E+03  0.10737795640E+04  0.10464236778E+04 0.  0.
        1    1    3    3  502    0  0.72266260550E+02 -0.44382349240E+03  0.15406301750E+03  0.47532843193E+03  0.50400001928E-02 0. -1.
       -1    1    3    3    0  502 -0.72266260550E+02  0.44382349240E+03 -0.39489498940E+03  0.59845113209E+03  0.50400001928E-02 0.  1.
</event>
<event>
 5   0  0.7241200E-03  0.1007737E+04  0.7818609E-02  0.9300099E-01
        1   -1    0    0  501    0  0.00000000000E+00  0.00000000000E+00  0.88458832028E+03  0.88458832030E+03  0.50400001928E-02 0.  1.
       -1   -1    0    0    0  501  0.00000000000E+00  0.00000000000E+00 -0.28700773656E+03  0.28700773660E+03  0.50400001928E-02 0. -1.
    10030    2    1    2    0    0  0.00000000000E+00  0.00000000000E+00  0.59758058373E+03  0.11715960569E+04  0.10077374492E+04 0.  0.
        4    1    3    3  502    0  0.13527885157E+03  0.45431301874E+03  0.10018834293E+03  0.48449974576E+03  0.12699999809E+01 0. -1.
       -4    1    3    3    0  502 -0.13527885157E+03 -0.45431301874E+03  0.49739224080E+03  0.68709631114E+03  0.12699999809E+01 0.  1.
</event>
<event>
 5   0  0.1191822E-02  0.9820715E+03  0.7818609E-02  0.9328430E-01
       -2   -1    0    0    0  501  0.00000000000E+00  0.00000000000E+00  0.11114188836E+04  0.11114188836E+04  0.25500000920E-02 0.  1.
        2   -1    0    0  501    0  0.00000000000E+00  0.00000000000E+00 -0.21694438368E+03  0.21694438370E+03  0.25500000920E-02 0. -1.
    10030    2    1    2    0    0  0.00000000000E+00  0.00000000000E+00  0.89447449993E+03  0.13283632673E+04  0.98207145307E+03 0.  0.
        4    1    3    3  502    0  0.20489678870E+03 -0.41256933320E+03  0.67725445586E+03  0.81906737183E+03  0.12699999809E+01 0. -1.
       -4    1    3    3    0  502 -0.20489678870E+03  0.41256933320E+03  0.21722004407E+03  0.50929589549E+03  0.12699999809E+01 0.  1.
</event>
<event>
 5   0  0.1191822E-02  0.1011658E+04  0.7818609E-02  0.9295850E-01
       -2   -1    0    0    0  501  0.00000000000E+00  0.00000000000E+00  0.19117495723E+03  0.19117495724E+03  0.25500000920E-02 0.  1.
        2   -1    0    0  501    0  0.00000000000E+00  0.00000000000E+00 -0.13383711540E+04  0.13383711540E+04  0.25500000920E-02 0. -1.
    10030    2    1    2    0    0  0.00000000000E+00  0.00000000000E+00 -0.11471961967E+04  0.15295461112E+04  0.10116581401E+04 0.  0.
        4    1    3    3  502    0 -0.23364431042E+03  0.43128052734E+03 -0.76042196609E+03  0.90489542847E+03  0.12699999809E+01 0.  1.
       -4    1    3    3    0  502  0.23364431042E+03 -0.43128052734E+03 -0.38677423065E+03  0.62465068274E+03  0.12699999809E+01 0. -1.
</event>
<event>
 5   0  0.7224879E-03  0.9845830E+03  0.7818609E-02  0.9325617E-01
        1   -1    0    0  501    0  0.00000000000E+00  0.00000000000E+00  0.87063796449E+03  0.87063796450E+03  0.50400001928E-02 0.  1.
       -1   -1    0    0    0  501  0.00000000000E+00  0.00000000000E+00 -0.27836017118E+03  0.27836017122E+03  0.50400001928E-02 0. -1.
    10030    2    1    2    0    0  0.00000000000E+00  0.00000000000E+00  0.59227779331E+03  0.11489981357E+04  0.98458302416E+03 0.  0.
        3    1    3    3  502    0  0.19106567227E+02  0.15920602901E+03  0.83930868299E+03  0.85448855822E+03  0.10100000352E+00 0.  1.
       -3    1    3    3    0  502 -0.19106567227E+02 -0.15920602901E+03 -0.24703088968E+03  0.29450957751E+03  0.10100000352E+00 0. -1.
</event>
<event>
 5   0  0.1216322E-02  0.1001140E+04  0.7818609E-02  0.9307295E-01
       -2   -1    0    0    0  501  0.00000000000E+00  0.00000000000E+00  0.37118932809E+03  0.37118932810E+03  0.25500000920E-02 0. -1.
        2   -1    0    0  501    0  0.00000000000E+00  0.00000000000E+00 -0.67504714206E+03  0.67504714206E+03  0.25500000920E-02 0.  1.
    10030    2    1    2    0    0  0.00000000000E+00  0.00000000000E+00 -0.30385781397E+03  0.10462364702E+04  0.10011399405E+04 0.  0.
        2    1    3    3  502    0 -0.26553104567E+03 -0.39055059208E+03  0.21478680221E+02  0.47275557628E+03  0.25500000920E-02 0. -1.
       -2    1    3    3    0  502  0.26553104567E+03  0.39055059208E+03 -0.32533649419E+03  0.57348089388E+03  0.25500000920E-02 0.  1.
</event>
<event>
 5   0  0.6967681E-03  0.1000200E+04  0.7818609E-02  0.9308325E-01
        1   -1    0    0  501    0  0.00000000000E+00  0.00000000000E+00  0.10922073482E+04  0.10922073482E+04  0.50400001928E-02 0. -1.
       -1   -1    0    0    0  501  0.00000000000E+00  0.00000000000E+00 -0.22898587834E+03  0.22898587840E+03  0.50400001928E-02 0.  1.
    10030    2    1    2    0    0  0.00000000000E+00  0.00000000000E+00  0.86322146983E+03  0.13211932266E+04  0.10002000980E+04 0.  0.
        5    1    3    3  502    0  0.26495822465E+03 -0.31772108742E+03  0.60506297806E+02  0.41812994663E+03  0.46999998093E+01 0.  1.
       -5    1    3    3    0  502 -0.26495822465E+03  0.31772108742E+03  0.80271517203E+03  0.90306327995E+03  0.46999998093E+01 0. -1.
</event>
<event>
 5   0  0.1240503E-02  0.1008443E+04  0.7818609E-02  0.9299333E-01
       -2   -1    0    0    0  501  0.00000000000E+00  0.00000000000E+00  0.10548057104E+03  0.10548057107E+03  0.25500000920E-02 0. -1.
        2   -1    0    0  501    0  0.00000000000E+00  0.00000000000E+00 -0.24102961357E+04  0.24102961357E+04  0.25500000920E-02 0.  1.
    10030    2    1    2    0    0  0.00000000000E+00  0.00000000000E+00 -0.23048155647E+04  0.25157767068E+04  0.10084431820E+04 0.  0.
        1    1    3    3  502    0 -0.71251137704E+01 -0.32692266521E+03 -0.21099040540E+04  0.21350935140E+04  0.50400001928E-02 0.  1.
       -1    1    3    3    0  502  0.71251137704E+01  0.32692266521E+03 -0.19491151067E+03  0.38068319282E+03  0.50400001928E-02 0. -1.
</event>
<event>
 5   0  0.1191822E-02  0.1085684E+04  0.7818609E-02  0.9219259E-01
        2   -1    0    0  501    0  0.00000000000E+00  0.00000000000E+00  0.13427307365E+04  0.13427307365E+04  0.25500000920E-02 0. -1.
       -2   -1    0    0    0  501  0.00000000000E+00  0.00000000000E+00 -0.21946131188E+03  0.21946131189E+03  0.25500000920E-02 0.  1.
    10030    2    1    2    0    0  0.00000000000E+00  0.00000000000E+00  0.11232694246E+04  0.15621920484E+04  0.10856840221E+04 0.  0.
        4    1    3    3  502    0 -0.31276543482E+03 -0.15896603839E+03 -0.34395992578E+02  0.35252959561E+03  0.12699999809E+01 0.  1.
       -4    1    3    3    0  502  0.31276543482E+03  0.15896603839E+03  0.11576654172E+04  0.12096624528E+04  0.12699999809E+01 0. -1.
</event>
<event>
 5   0  0.7224879E-03  0.9750971E+03  0.7818609E-02  0.9336288E-01
       -1   -1    0    0    0  501  0.00000000000E+00  0.00000000000E+00  0.39015492188E+03  0.39015492191E+03  0.50400001928E-02 0.  1.
        1   -1    0    0  501    0  0.00000000000E+00  0.00000000000E+00 -0.60925434149E+03  0.60925434151E+03  0.50400001928E-02 0. -1.
    10030    2    1    2    0    0  0.00000000000E+00  0.00000000000E+00 -0.21909941961E+03  0.99940926342E+03  0.97509708241E+03 0.  0.
        3    1    3    3  502    0  0.44441398713E+03 -0.16012813587E+03 -0.23321780648E+03  0.52681625574E+03  0.10100000352E+00 0. -1.
       -3    1    3    3    0  502 -0.44441398713E+03  0.16012813587E+03  0.14118386864E+02  0.47259300768E+03  0.10100000352E+00 0.  1.
</event>
<event>
 5   0  0.1191822E-02  0.1003291E+04  0.7818609E-02  0.9304942E-01
       -2   -1    0    0    0  501  0.00000000000E+00  0.00000000000E+00  0.16286110827E+03  0.16286110829E+03  0.25500000920E-02 0. -1.
        2   -1    0    0  501    0  0.00000000000E+00  0.00000000000E+00 -0.15451715355E+04  0.15451715355E+04  0.25500000920E-02 0.  1.
    10030    2    1    2    0    0  0.00000000000E+00  0.00000000000E+00 -0.13823104272E+04  0.17080326438E+04  0.10032912813E+04 0.  0.
        4    1    3    3  502    0 -0.42596929547E+03 -0.12132020610E+03 -0.10921426001E+04  0.11785353219E+04  0.12699999809E+01 0.  1.
       -4    1    3    3    0  502  0.42596929547E+03  0.12132020610E+03 -0.29016782711E+03  0.52949732189E+03  0.12699999809E+01 0. -1.
</event>
<event>
 5   0  0.1221315E-02  0.9711959E+03  0.7818609E-02  0.9340713E-01
       -2   -1    0    0    0  501  0.00000000000E+00  0.00000000000E+00  0.45317807933E+03  0.45317807934E+03  0.25500000920E-02 0.  1.
        2   -1    0    0  501    0  0.00000000000E+00  0.00000000000E+00 -0.52033711773E+03  0.52033711773E+03  0.25500000920E-02 0. -1.
    10030    2    1    2    0    0  0.00000000000E+00  0.00000000000E+00 -0.67159038395E+02  0.97351519707E+03  0.97119591355E+03 0.  0.
        5    1    3    3  502    0  0.23339597901E+03 -0.38187881094E+03  0.15522680327E+03  0.47373258249E+03  0.46999998093E+01 0. -1.
       -5    1    3    3    0  502 -0.23339597901E+03  0.38187881094E+03 -0.22238584167E+03  0.49978261458E+03  0.46999998093E+01 0.  1.
</event>
<event>
 5   0  0.1240503E-02  0.1003578E+04  0.7818609E-02  0.9304629E-01
        2   -1    0    0  501    0  0.00000000000E+00  0.00000000000E+00  0.34094471424E+03  0.34094471425E+03  0.25500000920E-02 0.  1.
       -2   -1    0    0    0  501  0.00000000000E+00  0.00000000000E+00 -0.73851379090E+03  0.73851379090E+03  0.25500000920E-02 0. -1.
    10030    2    1    2    0    0  0.00000000000E+00  0.00000000000E+00 -0.39756907666E+03  0.10794585051E+04  0.10035783445E+04 0.  0.
        1    1    3    3  502    0  0.15700232219E+03 -0.35494906736E+03 -0.54087879296E+03  0.66572399558E+03  0.50400001928E-02 0. -1.
       -1    1    3    3    0  502 -0.15700232219E+03  0.35494906736E+03  0.14330971630E+03  0.41373450957E+03  0.50400001928E-02 0.  1.
</event>
<event>
 5   0  0.7241200E-03  0.8441663E+03  0.7818609E-02  0.9498200E-01
        1   -1    0    0  501    0  0.00000000000E+00  0.00000000000E+00  0.82720826684E+03  0.82720826686E+03  0.50400001928E-02 0. -1.
       -1   -1    0    0    0  501  0.00000000000E+00  0.00000000000E+00 -0.21536801734E+03  0.21536801740E+03  0.50400001928E-02 0.  1.
    10030    2    1    2    0    0  0.00000000000E+00  0.00000000000E+00  0.61184024950E+03  0.10425762843E+04  0.84416634474E+03 0.  0.
        4    1    3    3  502    0  0.18433521130E+02  0.41741278276E+03  0.23203060617E+03  0.47792576936E+03  0.12699999809E+01 0. -1.
       -4    1    3    3    0  502 -0.18433521130E+02 -0.41741278276E+03  0.37980964332E+03  0.56465051490E+03  0.12699999809E+01 0.  1.
</event>
<event>
 5   0  0.1240503E-02  0.6966299E+03  0.7818609E-02  0.9723013E-01
        2   -1    0    0  501    0  0.00000000000E+00  0.00000000000E+00  0.31180634441E+03  0.31180634442E+03  0.25500000920E-02 0.  1.
       -2   -1    0    0    0  501  0.00000000000E+00  0.00000000000E+00 -0.38909825236E+03  0.38909825237E+03  0.25500000920E-02 0. -1.
    10030    2    1    2    0    0  0.00000000000E+00  0.00000000000E+00 -0.77291907952E+02  0.70090459679E+03  0.69662989798E+03 0.  0.
        1    1    3    3  502    0 -0.34684283309E+03  0.11150390202E+02 -0.84782775776E+01  0.34712557279E+03  0.50400001928E-02 0. -1.
       -1    1    3    3    0  502  0.34684283309E+03 -0.11150390202E+02 -0.68813630375E+02  0.35377902400E+03  0.50400001928E-02 0.  1.
</event>
<event>
 5   0  0.7461157E-03  0.9897013E+03  0.7818609E-02  0.9319913E-01
        1   -1    0    0  501    0  0.00000000000E+00  0.00000000000E+00  0.14648314950E+04  0.14648314950E+04  0.50400001928E-02 0.  1.
       -1   -1    0    0    0  501  0.00000000000E+00  0.00000000000E+00 -0.16717088647E+03  0.16717088655E+03  0.50400001928E-02 0. -1.
    10030    2    1    2    0    0  0.00000000000E+00  0.00000000000E+00  0.12976606085E+04  0.16320023815E+04  0.98970132791E+03 0.  0.
        2    1    3    3  502    0  0.48031262632E+03 -0.11397014777E+03  0.59199972468E+03  0.77081326378E+03  0.25500000920E-02 0. -1.
       -2    1    3    3    0  502 -0.48031262632E+03  0.11397014777E+03  0.70566088382E+03  0.86118911776E+03  0.25500000920E-02 0.  1.
</event>
<event>
 5   0  0.1245850E-02  0.1008325E+04  0.7818609E-02  0.9299461E-01
       -2   -1    0    0    0  501  0.00000000000E+00  0.00000000000E+00  0.85060284292E+03  0.85060284292E+03  0.25500000920E-02 0.  1.
        2   -1    0    0  501    0  0.00000000000E+00  0.00000000000E+00 -0.29882304753E+03  0.29882304754E+03  0.25500000920E-02 0. -1.
    10030    2    1    2    0    0  0.00000000000E+00  0.00000000000E+00  0.55177979539E+03  0.11494258905E+04  0.10083248162E+04 0.  0.
        3    1    3    3  502    0 -0.14054011057E+03  0.26279453975E+03  0.73944914204E+03  0.79724371221E+03  0.10100000352E+00 0.  1.
       -3    1    3    3    0  502  0.14054011057E+03 -0.26279453975E+03 -0.18766934665E+03  0.35218217824E+03  0.10100000352E+00 0. -1.
</event>
<event>
 5   0  0.7241200E-03  0.9793267E+03  0.7818609E-02  0.9331514E-01
        1   -1    0    0  501    0  0.00000000000E+00  0.00000000000E+00  0.30974247301E+03  0.30974247305E+03  0.50400001928E-02 0. -1.
       -1   -1    0    0    0  501  0.00000000000E+00  0.00000000000E+00 -0.77409533791E+03  0.77409533793E+03  0.50400001928E-02 0.  1.
    10030    2    1    2    0    0  0.00000000000E+00  0.00000000000E+00 -0.46435286490E+03  0.10838378110E+04  0.97932671636E+03 0.  0.
        4    1    3    3  502    0  0.18671963511E+03 -0.41694163825E+03 -0.37117581727E+02  0.45834908052E+03  0.12699999809E+01 0.  1.
       -4    1    3    3    0  502 -0.18671963511E+03  0.41694163825E+03 -0.42723528318E+03  0.62548873046E+03  0.12699999809E+01 0. -1.
</event>
<event>
 5   0  0.7241200E-03  0.9834012E+03  0.7818609E-02  0.9326940E-01
       -1   -1    0    0    0  501  0.00000000000E+00  0.00000000000E+00  0.10383303170E+03  0.10383303182E+03  0.50400001928E-02 0. -1.
        1   -1    0    0  501    0  0.00000000000E+00  0.00000000000E+00 -0.23284448837E+04  0.23284448837E+04  0.50400001928E-02 0.  1.
    10030    2    1    2    0    0  0.00000000000E+00  0.00000000000E+00 -0.22246118520E+04  0.24322779155E+04  0.98340122344E+03 0.  0.
        4    1    3    3  502    0 -0.41642212307E+03  0.16879118919E+02 -0.17576304317E+04  0.18063661414E+04  0.12699999809E+01 0.  1.
       -4    1    3    3    0  502  0.41642212307E+03 -0.16879118919E+02 -0.46698142026E+03  0.62591177414E+03  0.12699999809E+01 0. -1.
</event>
<event>
 5   0  0.1240503E-02  0.1022148E+04  0.7818609E-02  0.9284581E-01
       -2   -1    0    0    0  501  0.00000000000E+00  0.00000000000E+00  0.35937091919E+03  0.35937091920E+03  0.25500000920E-02 0. -1.
        2   -1    0    0  501    0  0.00000000000E+00  0.00000000000E+00 -0.72681675320E+03  0.72681675320E+03  0.25500000920E-02 0.  1.
    10030    2    1    2    0    0  0.00000000000E+00  0.00000000000E+00 -0.36744583400E+03  0.10861876724E+04  0.10221483350E+04 0.  0.
        1    1    3    3  502    0 -0.39047475489E+01  0.30270780838E+03  0.25383873400E+03  0.39507134445E+03  0.50400001928E-02 0. -1.
       -1    1    3    3    0  502  0.39047475489E+01 -0.30270780838E+03 -0.62128456800E+03  0.69111632795E+03  0.50400001928E-02 0.  1.
</event>
<event>
 5   0  0.1191822E-02  0.1006179E+04  0.7818609E-02  0.9301793E-01
       -2   -1    0    0    0  501  0.00000000000E+00  0.00000000000E+00  0.15259209366E+03  0.15259209368E+03  0.25500000920E-02 0.  1.
        2   -1    0    0  501    0  0.00000000000E+00  0.00000000000E+00 -0.16586646898E+04  0.16586646898E+04  0.25500000920E-02 0. -1.
    10030    2    1    2    0    0  0.00000000000E+00  0.00000000000E+00 -0.15060725961E+04  0.18112567835E+04  0.10061791445E+04 0.  0.
        4    1    3    3  502    0 -0.43308875880E+03 -0.22933826032E+02 -0.29407048454E+03  0.52399512990E+03  0.12699999809E+01 0.  1.
       -4    1    3    3    0  502  0.43308875880E+03  0.22933826032E+02 -0.12120021116E+04  0.12872616536E+04  0.12699999809E+01 0. -1.
</event>
<event>
 5   0  0.6967681E-03  0.1022839E+04  0.7818609E-02  0.9283844E-01
        1   -1    0    0  501    0  0.00000000000E+00  0.00000000000E+00  0.13634344335E+04  0.13634344336E+04  0.50400001928E-02 0.  1.
       -1   -1    0    0    0  501  0.00000000000E+00  0.00000000000E+00 -0.19183171028E+03  0.19183171035E+03  0.50400001928E-02 0. -1.
    10030    2    1    2    0    0  0.00000000000E+00  0.00000000000E+00  0.11716027233E+04  0.15552661439E+04  0.10228391062E+04 0.  0.
        5    1    3    3  502    0 -0.35638716127E+03  0.10387103110E+03  0.50954555983E+02  0.37472584191E+03  0.46999998093E+01 0. -1.
       -5    1    3    3    0  502  0.35638716127E+03 -0.10387103110E+03  0.11206481673E+04  0.11805403020E+04  0.46999998093E+01 0.  1.
</event>
<event>
 5   0  0.1240503E-02  0.9649544E+03  0.7818609E-02  0.9347840E-01
       -2   -1    0    0    0  501  0.00000000000E+00  0.00000000000E+00  0.11074256391E+03  0.11074256393E+03  0.25500000920E-02 0.  1.
        2   -1    0    0  501    0  0.00000000000E+00  0.00000000000E+00 -0.21020306918E+04  0.21020306918E+04  0.25500000920E-02 0. -1.
    10030    2    1    2    0    0  0.00000000000E+00  0.00000000000E+00 -0.19912881279E+04  0.22127732558E+04  0.96495444090E+03 0.  0.
        1    1    3    3  502    0 -0.31292297816E+03 -0.13452824831E+03 -0.21205635532E+03  0.40123127708E+03  0.50400001928E-02 0.  1.
       -1    1    3    3    0  502  0.31292297816E+03  0.13452824831E+03 -0.17792317726E+04  0.18115419787E+04  0.50400001928E-02 0. -1.
</event>
<event>
 5   0  0.1245850E-02  0.1056046E+04  0.7818609E-02  0.9249124E-01
        2   -1    0    0  501    0  0.00000000000E+00  0.00000000000E+00  0.18359971269E+04  0.18359971269E+04  0.25500000920E-02 0. -1.
       -2   -1    0    0    0  501  0.00000000000E+00  0.00000000000E+00 -0.15185651572E+03  0.15185651574E+03  0.25500000920E-02 0.  1.
    10030    2    1    2    0    0  0.00000000000E+00  0.00000000000E+00  0.16841406112E+04  0.19878536426E+04  0.10560456933E+04 0.  0.
        3    1    3    3  502    0  0.19492234684E+03 -0.37034213329E+03  0.23602162983E+03  0.48047293050E+03  0.10100000352E+00 0.  1.
       -3    1    3    3    0  502 -0.19492234684E+03  0.37034213329E+03  0.14481189813E+04  0.15073807121E+04  0.10100000352E+00 0. -1.
</event>
<event>
 5   0  0.7073004E-03  0.9793932E+03  0.7818609E-02  0.9331439E-01
        1   -1    0    0  501    0  0.00000000000E+00  0.00000000000E+00  0.15283694656E+04  0.15283694656E+04  0.50400001928E-02 0. -1.
       -1   -1    0    0    0  501  0.00000000000E+00  0.00000000000E+00 -0.15690103271E+03  0.15690103279E+03  0.50400001928E-02 0.  1.
    10030    2    1    2    0    0  0.00000000000E+00  0.00000000000E+00  0.13714684329E+04  0.16852704984E+04  0.97939317456E+03 0.  0.
        1    1    3    3  502    0 -0.32273236677E+03 -0.10128846475E+03  0.12950454309E+04  0.13384910167E+04  0.50400001928E-02 0. -1.
       -1    1    3    3    0  502  0.32273236677E+03  0.10128846475E+03  0.76423001944E+02  0.34677948167E+03  0.50400001928E-02 0.  1.
</event>
<event>
 5   0  0.7241200E-03  0.1009437E+04  0.7818609E-02  0.9298254E-01
       -1   -1    0    0    0  501  0.00000000000E+00  0.00000000000E+00  0.33960467976E+03  0.33960467980E+03  0.50400001928E-02 0. -1.
        1   -1    0    0  501    0  0.00000000000E+00  0.00000000000E+00 -0.75011042167E+03  0.75011042168E+03  0.50400001928E-02 0.  1.
    10030    2    1    2    0    0  0.00000000000E+00  0.00000000000E+00 -0.41050574190E+03  0.10897151015E+04  0.10094374861E+04 0.  0.
        4    1    3    3  502    0  0.29445503025E+03 -0.28837618127E+03 -0.51975453546E+03  0.66333323209E+03  0.12699999809E+01 0.  1.
       -4    1    3    3    0  502 -0.29445503025E+03  0.28837618127E+03  0.10924879356E+03  0.42638186940E+03  0.12699999809E+01 0. -1.
</event>
<event>
 5   0  0.7224879E-03  0.9643411E+03  0.7818609E-02  0.9348543E-01
        1   -1    0    0  501    0  0.00000000000E+00  0.00000000000E+00  0.42469716904E+03  0.42469716907E+03  0.50400001928E-02 0. -1.
       -1   -1    0    0    0  501  0.00000000000E+00  0.00000000000E+00 -0.54742166839E+03  0.54742166841E+03  0.50400001928E-02 0.  1.
    10030    2    1    2    0    0  0.00000000000E+00  0.00000000000E+00 -0.12272449935E+03  0.97211883749E+03  0.96434108668E+03 0.  0.
        3    1    3    3  502    0 -0.32025597772E+02 -0.26987258420E+03  0.34013585756E+03  0.43537255588E+03  0.10100000352E+00 0. -1.
       -3    1    3    3    0  502  0.32025597772E+02  0.26987258420E+03 -0.46286035691E+03  0.53674628160E+03  0.10100000352E+00 0.  1.
</event>
<event>
 5   0  0.6967681E-03  0.1003999E+04  0.7818609E-02  0.9304170E-01
       -1   -1    0    0    0  501  0.00000000000E+00  0.00000000000E+00  0.16841104174E+03  0.16841104182E+03  0.50400001928E-02 0. -1.
        1   -1    0    0  501    0  0.00000000000E+00  0.00000000000E+00 -0.14963586501E+04  0.14963586501E+04  0.50400001928E-02 0.  1.
    10030    2    1    2    0    0  0.00000000000E+00  0.00000000000E+00 -0.13279476084E+04  0.16647696920E+04  0.10039986437E+04 0.  0.
        5    1    3    3  502    0 -0.31756893187E+03 -0.36102685104E+03 -0.90306126337E+03  0.10230992860E+04  0.46999998093E+01 0.  1.
       -5    1    3    3    0  502  0.31756893187E+03  0.36102685104E+03 -0.42488634503E+03  0.64167040594E+03  0.46999998093E+01 0. -1.
</event>
<event>
 5   0  0.4782125E-03  0.9912718E+03  0.7818609E-02  0.9318170E-01
        3   -1    0    0  501    0  0.00000000000E+00  0.00000000000E+00  0.43343872008E+03  0.43343873185E+03  0.10100000352E+00 0.  1.
       -3   -1    0    0    0  501  0.00000000000E+00  0.00000000000E+00 -0.56675815344E+03  0.56675816244E+03  0.10100000352E+00 0. -1.
    10030    2    1    2    0    0  0.00000000000E+00  0.00000000000E+00 -0.13331943336E+03  0.10001968943E+04  0.99127178717E+03 0.  0.
        1    1    3    3  502    0 -0.85463115048E+02  0.18644039331E+03 -0.52193284402E+03  0.56078325401E+03  0.50400001928E-02 0. -1.
       -1    1    3    3    0  502  0.85463115048E+02 -0.18644039331E+03  0.38861341066E+03  0.43941364028E+03  0.50400001928E-02 0.  1.
</event>
<event>
 5   0  0.7224879E-03  0.1003903E+04  0.7818609E-02  0.9304274E-01
       -1   -1    0    0    0  501  0.00000000000E+00  0.00000000000E+00  0.49529474770E+03  0.49529474772E+03  0.50400001928E-02 0. -1.
        1   -1    0    0  501    0  0.00000000000E+00  0.00000000000E+00 -0.50869776976E+03  0.50869776979E+03  0.50400001928E-02 0.  1.
    10030    2    1    2    0    0  0.00000000000E+00  0.00000000000E+00 -0.13403022067E+02  0.10039925175E+04  0.10039030502E+04 0.  0.
        3    1    3    3  502    0  0.17076976760E+03 -0.23264352598E+03 -0.41743264516E+03  0.50747940565E+03  0.10100000352E+00 0.  1.
       -3    1    3    3    0  502 -0.17076976760E+03  0.23264352598E+03  0.40402962310E+03  0.49651311186E+03  0.10100000352E+00 0. -1.
</event>
<event>
 5   0  0.1191822E-02  0.9983904E+03  0.7818609E-02  0.9310312E-01
       -2   -1    0    0    0  501  0.00000000000E+00  0.00000000000E+00  0.29754854211E+03  0.29754854212E+03  0.25500000920E-02 0. -1.
        2   -1    0    0  501    0  0.00000000000E+00  0.00000000000E+00 -0.83749644259E+03  0.83749644260E+03  0.25500000920E-02 0.  1.
    10030    2    1    2    0    0  0.00000000000E+00  0.00000000000E+00 -0.53994790048E+03  0.11350449847E+04  0.99839039563E+03 0.  0.
        4    1    3    3  502    0 -0.45061442865E+03  0.38550041485E+02 -0.29733254494E+02  0.45323851152E+03  0.12699999809E+01 0. -1.
       -4    1    3    3    0  502  0.45061442865E+03 -0.38550041485E+02 -0.51021464599E+03  0.68180647319E+03  0.12699999809E+01 0.  1.
</event>
<event>
 5   0  0.1240503E-02  0.8915397E+03  0.7818609E-02  0.9436219E-01
        2   -1    0    0  501    0  0.00000000000E+00  0.00000000000E+00  0.51764545825E+03  0.51764545826E+03  0.25500000920E-02 0.  1.
       -2   -1    0    0    0  501  0.00000000000E+00  0.00000000000E+00 -0.38387428643E+03  0.38387428644E+03  0.25500000920E-02 0. -1.
    10030    2    1    2    0    0  0.00000000000E+00  0.00000000000E+00  0.13377117182E+03  0.90151974470E+03  0.89153974879E+03 0.  0.
        1    1    3    3  502    0  0.23611094776E+03 -0.11129210260E+03  0.43228428146E+03  0.50497921915E+03  0.50400001928E-02 0.  1.
       -1    1    3    3    0  502 -0.23611094776E+03  0.11129210260E+03 -0.29851310964E+03  0.39654052555E+03  0.50400001928E-02 0. -1.
</event>
<event>
 5   0  0.7461157E-03  0.1000186E+04  0.7818609E-02  0.9308341E-01
       -1   -1    0    0    0  501  0.00000000000E+00  0.00000000000E+00  0.28615025346E+03  0.28615025350E+03  0.50400001928E-02 0.  1.
        1   -1    0    0  501    0  0.00000000000E+00  0.00000000000E+00 -0.87399132746E+03  0.87399132747E+03  0.50400001928E-02 0. -1.
    10030    2    1    2    0    0  0.00000000000E+00  0.00000000000E+00 -0.58784107400E+03  0.11601415810E+04  0.10001856626E+04 0.  0.
        2    1    3    3  502    0 -0.15117409011E+03  0.26598858467E+03 -0.75277261406E+03  0.81257008386E+03  0.25500000920E-02 0. -1.
       -2    1    3    3    0  502  0.15117409011E+03 -0.26598858467E+03  0.16493154006E+03  0.34757149712E+03  0.25500000920E-02 0.  1.
</event>
<event>
 5   0  0.1221315E-02  0.9714362E+03  0.7818609E-02  0.9340440E-01
        2   -1    0    0  501    0  0.00000000000E+00  0.00000000000E+00  0.74046522549E+03  0.74046522549E+03  0.25500000920E-02 0. -1.
       -2   -1    0    0    0  501  0.00000000000E+00  0.00000000000E+00 -0.31861329967E+03  0.31861329968E+03  0.25500000920E-02 0.  1.
    10030    2    1    2    0    0  0.00000000000E+00  0.00000000000E+00  0.42185192581E+03  0.10590785252E+04  0.97143619202E+03 0.  0.
        5    1    3    3  502    0 -0.26801553904E+03 -0.37580307284E+03  0.37568873135E+03  0.59516753237E+03  0.46999998093E+01 0. -1.
       -5    1    3    3    0  502  0.26801553904E+03  0.37580307284E+03  0.46163194465E+02  0.46391099281E+03  0.46999998093E+01 0.  1.
</event>
<event>
 5   0  0.7461157E-03  0.9897437E+03  0.7818609E-02  0.9319866E-01
       -1   -1    0    0    0  501  0.00000000000E+00  0.00000000000E+00  0.78541076937E+03  0.78541076939E+03  0.50400001928E-02 0. -1.
        1   -1    0    0  501    0  0.00000000000E+00  0.00000000000E+00 -0.31180901683E+03  0.31180901687E+03  0.50400001928E-02 0.  1.
    10030    2    1    2    0    0  0.00000000000E+00  0.00000000000E+00  0.47360175254E+03  0.10972197863E+04  0.98974372408E+03 0.  0.
        2    1    3    3  502    0  0.16769397589E+03 -0.87357425283E+02 -0.27018423984E+03  0.32977585230E+03  0.25500000920E-02 0.  1.
       -2    1    3    3    0  502 -0.16769397589E+03  0.87357425283E+02  0.74378599238E+03  0.76744393396E+03  0.25500000920E-02 0. -1.
</event>
<event>
 5   0  0.1216322E-02  0.1000146E+04  0.7818609E-02  0.9308384E-01
        2   -1    0    0  501    0  0.00000000000E+00  0.00000000000E+00  0.15453788819E+04  0.15453788819E+04  0.25500000920E-02 0. -1.
       -2   -1    0    0    0  501  0.00000000000E+00  0.00000000000E+00 -0.16181993149E+03  0.16181993151E+03  0.25500000920E-02 0.  1.
    10030    2    1    2    0    0  0.00000000000E+00  0.00000000000E+00  0.13835589504E+04  0.17071988134E+04  0.10001461989E+04 0.  0.
        2    1    3    3  502    0  0.18363194031E+03 -0.12220187046E+03  0.14578538873E+04  0.14744463176E+04  0.25500000920E-02 0. -1.
       -2    1    3    3    0  502 -0.18363194031E+03  0.12220187046E+03 -0.74294936930E+02  0.23275249581E+03  0.25500000920E-02 0.  1.
</event>
<event>
 5   0  0.1245850E-02  0.9960714E+03  0.7818609E-02  0.9312864E-01
        2   -1    0    0  501    0  0.00000000000E+00  0.00000000000E+00  0.22382519394E+04  0.22382519395E+04  0.25500000920E-02 0.  1.
       -2   -1    0    0    0  501  0.00000000000E+00  0.00000000000E+00 -0.11081843708E+03  0.11081843711E+03  0.25500000920E-02 0. -1.
    10030    2    1    2    0    0  0.00000000000E+00  0.00000000000E+00  0.21274335024E+04  0.23490703766E+04  0.99607144676E+03 0.  0.
        3    1    3    3  502    0  0.36182344333E+03  0.34203632074E+03  0.10910696489E+04  0.11993073158E+04  0.10100000352E+00 0. -1.
       -3    1    3    3    0  502 -0.36182344333E+03 -0.34203632074E+03  0.10363638535E+04  0.11497630607E+04  0.10100000352E+00 0.  1.
</event>
<event>
 5   0  0.4782125E-03  0.1003522E+04  0.7818609E-02  0.9304691E-01
       -3   -1    0    0    0  501  0.00000000000E+00  0.00000000000E+00  0.29432032553E+03  0.29432034286E+03  0.10100000352E+00 0.  1.
        3   -1    0    0  501    0  0.00000000000E+00  0.00000000000E+00 -0.85540811528E+03  0.85540812125E+03  0.10100000352E+00 0. -1.
    10030    2    1    2    0    0  0.00000000000E+00  0.00000000000E+00 -0.56108778975E+03  0.11497284641E+04  0.10035218151E+04 0.  0.
        4    1    3    3  502    0  0.72341676441E+02 -0.18821004357E+03 -0.80694744851E+03  0.83175846025E+03  0.12699999809E+01 0. -1.
       -4    1    3    3    0  502 -0.72341676441E+02  0.18821004357E+03  0.24585965875E+03  0.31797000386E+03  0.12699999809E+01 0.  1.
</event>
<event>
 5   0  0.1240503E-02  0.1006360E+04  0.7818609E-02  0.9301597E-01
        2   -1    0    0  501    0  0.00000000000E+00  0.00000000000E+00  0.63298263652E+03  0.63298263653E+03  0.25500000920E-02 0. -1.
       -2   -1    0    0    0  501  0.00000000000E+00  0.00000000000E+00 -0.39999536535E+03  0.39999536536E+03  0.25500000920E-02 0.  1.
    10030    2    1    2    0    0  0.00000000000E+00  0.00000000000E+00  0.23298727117E+03  0.10329780019E+04  0.10063600170E+04 0.  0.
        1    1    3    3  502    0  0.42743565465E+03  0.13318108322E+03 -0.11925861725E+03  0.46331528963E+03  0.50400001928E-02 0.  1.
       -1    1    3    3    0  502 -0.42743565465E+03 -0.13318108322E+03  0.35224588842E+03  0.56966271225E+03  0.50400001928E-02 0. -1.
</event>
<event>
 5   0  0.1191822E-02  0.9719051E+03  0.7818609E-02  0.9339907E-01
       -2   -1    0    0    0  501  0.00000000000E+00  0.00000000000E+00  0.80393954144E+03  0.80393954144E+03  0.25500000920E-02 0. -1.
        2   -1    0    0  501    0  0.00000000000E+00  0.00000000000E+00 -0.29374083768E+03  0.29374083769E+03  0.25500000920E-02 0.  1.
    10030    2    1    2    0    0  0.00000000000E+00  0.00000000000E+00  0.51019870376E+03  0.10976803791E+04  0.97190508662E+03 0.  0.
        4    1    3    3  502    0  0.34122210532E+03 -0.58242446816E+02 -0.13010029200E+03  0.36980049574E+03  0.12699999809E+01 0.  1.
       -4    1    3    3    0  502 -0.34122210532E+03  0.58242446816E+02  0.64029899576E+03  0.72787988339E+03  0.12699999809E+01 0. -1.
</event>
<event>
 5   0  0.6967681E-03  0.9990357E+03  0.7818609E-02  0.9309603E-01
        1   -1    0    0  501    0  0.00000000000E+00  0.00000000000E+00  0.13820738441E+04  0.13820738441E+04  0.50400001928E-02 0. -1.
       -1   -1    0    0    0  501  0.00000000000E+00  0.00000000000E+00 -0.18053890155E+03  0.18053890162E+03  0.50400001928E-02 0.  1.
    10030    2    1    2    0    0  0.00000000000E+00  0.00000000000E+00  0.12015349425E+04  0.15626127457E+04  0.99903572254E+03 0.  0.
        5    1    3    3  502    0  0.84327236641E+02 -0.35957068127E+03  0.11267724219E+04  0.11857657182E+04  0.46999998093E+01 0. -1.
       -5    1    3    3    0  502 -0.84327236641E+02  0.35957068127E+03  0.74762520642E+02  0.37684702753E+03  0.46999998093E+01 0.  1.
</event>
<event>
 5   0  0.7461157E-03  0.9974079E+03  0.7818609E-02  0.9311392E-01
        1   -1    0    0  501    0  0.00000000000E+00  0.00000000000E+00  0.10544236956E+04  0.10544236956E+04  0.50400001928E-02 0.  1.
       -1   -1    0    0    0  501  0.00000000000E+00  0.00000000000E+00 -0.23586878699E+03  0.23586878704E+03  0.50400001928E-02 0. -1.
    10030    2    1    2    0    0  0.00000000000E+00  0.00000000000E+00  0.81855490860E+03  0.12902924826E+04  0.99740791674E+03 0.  0.
        2    1    3    3  502    0  0.47430662734E+02 -0.26858314455E+03 -0.13083948710E+03  0.30249883420E+03  0.25500000920E-02 0. -1.
       -2    1    3    3    0  502 -0.47430662734E+02  0.26858314455E+03  0.94939439570E+03  0.98779364844E+03  0.25500000920E-02 0.  1.
</event>
<event>
 5   0  0.6967681E-03  0.9715932E+03  0.7818609E-02  0.9340262E-01
        1   -1    0    0  501    0  0.00000000000E+00  0.00000000000E+00  0.45550768594E+03  0.45550768597E+03  0.50400001928E-02 0. -1.
       -1   -1    0    0    0  501  0.00000000000E+00  0.00000000000E+00 -0.51809953545E+03  0.51809953547E+03  0.50400001928E-02 0.  1.
    10030    2    1    2    0    0  0.00000000000E+00  0.00000000000E+00 -0.62591849507E+02  0.97360722144E+03  0.97159316693E+03 0.  0.
        5    1    3    3  502    0  0.83245903607E+02 -0.12946078855E+03  0.43040449748E+03  0.45712153492E+03  0.46999998093E+01 0. -1.
       -5    1    3    3    0  502 -0.83245903607E+02  0.12946078855E+03 -0.49299634699E+03  0.51648568652E+03  0.46999998093E+01 0.  1.
</event>
<event>
 5   0  0.1245850E-02  0.9864574E+03  0.7818609E-02  0.9323524E-01
       -2   -1    0    0    0  501  0.00000000000E+00  0.00000000000E+00  0.20236598786E+03  0.20236598787E+03  0.25500000920E-02 0. -1.
        2   -1    0    0  501    0  0.00000000000E+00  0.00000000000E+00 -0.12021514210E+04  0.12021514210E+04  0.25500000920E-02 0.  1.
    10030    2    1    2    0    0  0.00000000000E+00  0.00000000000E+00 -0.99978543309E+03  0.14045174088E+04  0.98645741899E+03 0.  0.
        3    1    3    3  502    0  0.32743874073E+03 -0.49839903002E+02  0.20475074045E+02  0.33184240796E+03  0.10100000352E+00 0. -1.
       -3    1    3    3    0  502 -0.32743874073E+03  0.49839903002E+02 -0.10202605071E+04  0.10726750009E+04  0.10100000352E+00 0.  1.
</event>
<event>
 5   0  0.1216322E-02  0.1002092E+04  0.7818609E-02  0.9306254E-01
        2   -1    0    0  501    0  0.00000000000E+00  0.00000000000E+00  0.21488170360E+04  0.21488170360E+04  0.25500000920E-02 0.  1.
       -2   -1    0    0    0  501  0.00000000000E+00  0.00000000000E+00 -0.11683030619E+03  0.11683030622E+03  0.25500000920E-02 0. -1.
    10030    2    1    2    0    0  0.00000000000E+00  0.00000000000E+00  0.20319867298E+04  0.22656473422E+04  0.10020917170E+04 0.  0.
        2    1    3    3  502    0 -0.20684996169E+02  0.83478235630E+02  0.21320043335E+04  0.21337382602E+04  0.25500000920E-02 0.  1.
       -2    1    3    3    0  502  0.20684996169E+02 -0.83478235630E+02 -0.10001760365E+03  0.13190908209E+03  0.25500000920E-02 0. -1.
</event>
<event>
 5   0  0.1221315E-02  0.7562356E+03  0.7818609E-02  0.9625618E-01
        2   -1    0    0  501    0  0.00000000000E+00  0.00000000000E+00  0.22133041746E+04  0.22133041746E+04  0.25500000920E-02 0.  1.
       -2   -1    0    0    0  501  0.00000000000E+00  0.00000000000E+00 -0.64597117682E+02  0.64597117732E+02  0.25500000920E-02 0. -1.
    10030    2    1    2    0    0  0.00000000000E+00  0.00000000000E+00  0.21487070569E+04  0.22779012924E+04  0.75623559898E+03 0.  0.
        5    1    3    3  502    0 -0.36983783379E+03 -0.77518240190E+01  0.83888700514E+03  0.91683892340E+03  0.46999998093E+01 0. -1.
       -5    1    3    3    0  502  0.36983783379E+03  0.77518240190E+01  0.13098200518E+04  0.13610623690E+04  0.46999998093E+01 0.  1.
</event>
<event>
 5   0  0.7241200E-03  0.9598015E+03  0.7818609E-02  0.9353767E-01
        1   -1    0    0  501    0  0.00000000000E+00  0.00000000000E+00  0.69511177196E+03  0.69511177198E+03  0.50400001928E-02 0. -1.
       -1   -1    0    0    0  501  0.00000000000E+00  0.00000000000E+00 -0.33132043960E+03  0.33132043964E+03  0.50400001928E-02 0.  1.
    10030    2    1    2    0    0  0.00000000000E+00  0.00000000000E+00  0.36379133235E+03  0.10264322116E+04  0.95980151675E+03 0.  0.
        4    1    3    3  502    0 -0.32991268986E+03  0.21155244404E+03 -0.11429022947E+03  0.40824096923E+03  0.12699999809E+01 0.  1.
       -4    1    3    3    0  502  0.32991268986E+03 -0.21155244404E+03  0.47808156182E+03  0.61819124238E+03  0.12699999809E+01 0. -1.
</event>
<event>
 5   0  0.7073004E-03  0.9971373E+03  0.7818609E-02  0.9311690E-01
        1   -1    0    0  501    0  0.00000000000E+00  0.00000000000E+00  0.17201810085E+04  0.17201810085E+04  0.50400001928E-02 0.  1.
       -1   -1    0    0    0  501  0.00000000000E+00  0.00000000000E+00 -0.14450264588E+03  0.14450264597E+03  0.50400001928E-02 0. -1.
    10030    2    1    2    0    0  0.00000000000E+00  0.00000000000E+00  0.15756783626E+04  0.18646836545E+04  0.99713731695E+03 0.  0.
        1    1    3    3  502    0  0.30747698799E+02  0.10874900390E+03 -0.12023456294E+03  0.16500944513E+03  0.50400001928E-02 0. -1.
       -1    1    3    3    0  502 -0.30747698799E+02 -0.10874900390E+03  0.16959129255E+04  0.16996742093E+04  0.50400001928E-02 0.  1.
</event>
<event>
 5   0  0.1216322E-02  0.9848635E+03  0.7818609E-02  0.9325304E-01
        2   -1    0    0  501    0  0.00000000000E+00  0.00000000000E+00  0.70863224819E+03  0.70863224819E+03  0.25500000920E-02 0. -1.
       -2   -1    0    0    0  501  0.00000000000E+00  0.00000000000E+00 -0.34219306244E+03  0.34219306245E+03  0.25500000920E-02 0.  1.
    10030    2    1    2    0    0  0.00000000000E+00  0.00000000000E+00  0.36643918575E+03  0.10508253106E+04  0.98486352183E+03 0.  0.
        2    1    3    3  502    0 -0.19579068059E+03 -0.35472160450E+03 -0.11539564890E+03  0.42128086011E+03  0.25500000920E-02 0.  1.
       -2    1    3    3    0  502  0.19579068059E+03  0.35472160450E+03  0.48183483465E+03  0.62954445053E+03  0.25500000920E-02 0. -1.
</event>
<event>
 5   0  0.4782125E-03  0.9996111E+03  0.7818609E-02  0.9308971E-01
       -3   -1    0    0    0  501  0.00000000000E+00  0.00000000000E+00  0.64771520173E+03  0.64771520960E+03  0.10100000352E+00 0.  1.
        3   -1    0    0  501    0  0.00000000000E+00  0.00000000000E+00 -0.38567191246E+03  0.38567192568E+03  0.10100000352E+00 0. -1.
    10030    2    1    2    0    0  0.00000000000E+00  0.00000000000E+00  0.26204328927E+03  0.10333871353E+04  0.99961106733E+03 0.  0.
        2    1    3    3  502    0 -0.13557112733E+03  0.15294514068E+03  0.60254039967E+03  0.63625991534E+03  0.25500000920E-02 0.  1.
       -2    1    3    3    0  502  0.13557112733E+03 -0.15294514068E+03 -0.34049711040E+03  0.39712721995E+03  0.25500000920E-02 0. -1.
</event>
<event>
 5   0  0.7241200E-03  0.9872616E+03  0.7818609E-02  0.9322627E-01
       -1   -1    0    0    0  501  0.00000000000E+00  0.00000000000E+00  0.57109255300E+03  0.57109255302E+03  0.50400001928E-02 0. -1.
        1   -1    0    0  501    0  0.00000000000E+00  0.00000000000E+00 -0.42667577335E+03  0.42667577338E+03  0.50400001928E-02 0.  1.
    10030    2    1    2    0    0  0.00000000000E+00  0.00000000000E+00  0.14441677965E+03  0.99776832640E+03  0.98726157979E+03 0.  0.
        4    1    3    3  502    0 -0.49214765513E+02 -0.12729621284E+03 -0.40722750367E+03  0.42949071188E+03  0.12699999809E+01 0.  1.
       -4    1    3    3    0  502  0.49214765513E+02  0.12729621284E+03  0.55164428332E+03  0.56827761452E+03  0.12699999809E+01 0. -1.
</event>
<event>
 5   0  0.1191822E-02  0.9787559E+03  0.7818609E-02  0.9332157E-01
        2   -1    0    0  501    0  0.00000000000E+00  0.00000000000E+00  0.13810384905E+04  0.13810384905E+04  0.25500000920E-02 0. -1.
       -2   -1    0    0    0  501  0.00000000000E+00  0.00000000000E+00 -0.17341355446E+03  0.17341355448E+03  0.25500000920E-02 0.  1.
    10030    2    1    2    0    0  0.00000000000E+00  0.00000000000E+00  0.12076249360E+04  0.15544520450E+04  0.97875593177E+03 0.  0.
        4    1    3    3  502    0 -0.11103553477E+03 -0.40798410597E+03  0.21249395855E+03  0.47321793713E+03  0.12699999809E+01 0.  1.
       -4    1    3    3    0  502  0.11103553477E+03  0.40798410597E+03  0.99513097747E+03  0.10812341078E+04  0.12699999809E+01 0. -1.
</event>
<event>
 5   0  0.6967681E-03  0.9764488E+03  0.7818609E-02  0.9334759E-01
        1   -1    0    0  501    0  0.00000000000E+00  0.00000000000E+00  0.35302987757E+03  0.35302987760E+03  0.50400001928E-02 0. -1.
       -1   -1    0    0    0  501  0.00000000000E+00  0.00000000000E+00 -0.67519235015E+03  0.67519235017E+03  0.50400001928E-02 0.  1.
    10030    2    1    2    0    0  0.00000000000E+00  0.00000000000E+00 -0.32216247258E+03  0.10282222278E+04  0.97644881634E+03 0.  0.
        5    1    3    3  502    0 -0.32548606391E+03 -0.32823567223E+03  0.42839761636E+01  0.46229890415E+03  0.46999998093E+01 0. -1.
       -5    1    3    3    0  502  0.32548606391E+03  0.32823567223E+03 -0.32644644875E+03  0.56592332362E+03  0.46999998093E+01 0.  1.
</event>
<event>
 5   0  0.1245850E-02  0.8776220E+03  0.7818609E-02  0.9453996E-01
        2   -1    0    0  501    0  0.00000000000E+00  0.00000000000E+00  0.38540756550E+03  0.38540756551E+03  0.25500000920E-02 0.  1.
       -2   -1    0    0    0  501  0.00000000000E+00  0.00000000000E+00 -0.49961420520E+03  0.49961420521E+03  0.25500000920E-02 0. -1.
    10030    2    1    2    0    0  0.00000000000E+00  0.00000000000E+00 -0.11420663970E+03  0.88502177072E+03  0.87762200183E+03 0.  0.
        3    1    3    3  502    0  0.14376191958E+03 -0.43822209475E+02 -0.47285022298E+03  0.49616047720E+03  0.10100000352E+00 0. -1.
       -3    1    3    3    0  502 -0.14376191958E+03  0.43822209475E+02  0.35864358328E+03  0.38886129352E+03  0.10100000352E+00 0.  1.
</event>
<event>
 5   0  0.1240503E-02  0.1007199E+04  0.7818609E-02  0.9300684E-01
       -2   -1    0    0    0  501  0.00000000000E+00  0.00000000000E+00  0.49923923761E+03  0.49923923762E+03  0.25500000920E-02 0. -1.
        2   -1    0    0  501    0  0.00000000000E+00  0.00000000000E+00 -0.50799826988E+03  0.50799826988E+03  0.25500000920E-02 0.  1.
    10030    2    1    2    0    0  0.00000000000E+00  0.00000000000E+00 -0.87590322656E+01  0.10072375075E+04  0.10071994221E+04 0.  0.
        1    1    3    3  502    0  0.35004504498E+03  0.32504206826E+03  0.15509058265E+03  0.50223198675E+03  0.50400001928E-02 0. -1.
       -1    1    3    3    0  502 -0.35004504498E+03 -0.32504206826E+03 -0.16384961491E+03  0.50500552075E+03  0.50400001928E-02 0.  1.
</event>
<event>
 5   0  0.7073004E-03  0.9750985E+03  0.7818609E-02  0.9336286E-01
       -1   -1    0    0    0  501  0.00000000000E+00  0.00000000000E+00  0.12632774294E+03  0.12632774304E+03  0.50400001928E-02 0.  1.
        1   -1    0    0  501    0  0.00000000000E+00  0.00000000000E+00 -0.18816473424E+04  0.18816473424E+04  0.50400001928E-02 0. -1.
    10030    2    1    2    0    0  0.00000000000E+00  0.00000000000E+00 -0.17553195995E+04  0.20079750855E+04  0.97509848094E+03 0.  0.
        1    1    3    3  502    0 -0.16487585002E+03 -0.42267210732E+03 -0.12452726546E+04  0.13253451401E+04  0.50400001928E-02 0.  1.
       -1    1    3    3    0  502  0.16487585002E+03  0.42267210732E+03 -0.51004694491E+03  0.68262994533E+03  0.50400001928E-02 0. -1.
</event>
<event>
 5   0  0.4782125E-03  0.1007546E+04  0.7818609E-02  0.9300307E-01
       -3   -1    0    0    0  501  0.00000000000E+00  0.00000000000E+00  0.64970126628E+03  0.64970127414E+03  0.10100000352E+00 0.  1.
        3   -1    0    0  501    0  0.00000000000E+00  0.00000000000E+00 -0.39062107849E+03  0.39062109154E+03  0.10100000352E+00 0. -1.
    10030    2    1    2    0    0  0.00000000000E+00  0.00000000000E+00  0.25908018780E+03  0.10403223657E+04  0.10075455726E+04 0.  0.
        3    1    3    3  502    0 -0.83618270861E+02  0.37357440803E+03 -0.20858381513E+03  0.43595535516E+03  0.10100000352E+00 0. -1.
       -3    1    3    3    0  502  0.83618270861E+02 -0.37357440803E+03  0.46766400293E+03  0.60436701052E+03  0.10100000352E+00 0.  1.
</event>
<event>
 5   0  0.7461157E-03  0.1087734E+04  0.7818609E-02  0.9217230E-01
       -1   -1    0    0    0  501  0.00000000000E+00  0.00000000000E+00  0.94305914098E+03  0.94305914099E+03  0.50400001928E-02 0.  1.
        1   -1    0    0  501    0  0.00000000000E+00  0.00000000000E+00 -0.31365109183E+03  0.31365109187E+03  0.50400001928E-02 0. -1.
    10030    2    1    2    0    0  0.00000000000E+00  0.00000000000E+00  0.62940804915E+03  0.12567102329E+04  0.10877343964E+04 0.  0.
        2    1    3    3  502    0  0.19179675264E+03 -0.30074868244E+03  0.78903784875E+03  0.86591944838E+03  0.25500000920E-02 0.  1.
       -2    1    3    3    0  502 -0.19179675264E+03  0.30074868244E+03 -0.15962979961E+03  0.39079078449E+03  0.25500000920E-02 0. -1.
</event>
<event>
 5   0  0.7241200E-03  0.9963785E+03  0.7818609E-02  0.9312526E-01
        1   -1    0    0  501    0  0.00000000000E+00  0.00000000000E+00  0.15353250302E+04  0.15353250303E+04  0.50400001928E-02 0. -1.
       -1   -1    0    0    0  501  0.00000000000E+00  0.00000000000E+00 -0.16165469838E+03  0.16165469846E+03  0.50400001928E-02 0.  1.
    10030    2    1    2    0    0  0.00000000000E+00  0.00000000000E+00  0.13736703319E+04  0.16969797287E+04  0.99637845171E+03 0.  0.
        4    1    3    3  502    0  0.24532396865E+03 -0.14047797945E+03  0.13854849356E+04  0.14140325427E+04  0.12699999809E+01 0. -1.
       -4    1    3    3    0  502 -0.24532396865E+03  0.14047797945E+03 -0.11814603698E+02  0.28294718600E+03  0.12699999809E+01 0.  1.
</event>
<event>
 5   0  0.7241200E-03  0.1001704E+04  0.7818609E-02  0.9306678E-01
        1   -1    0    0  501    0  0.00000000000E+00  0.00000000000E+00  0.12395061649E+04  0.12395061649E+04  0.50400001928E-02 0.  1.
       -1   -1    0    0    0  501  0.00000000000E+00  0.00000000000E+00 -0.20238120951E+03  0.20238120957E+03  0.50400001928E-02 0. -1.
    10030    2    1    2    0    0  0.00000000000E+00  0.00000000000E+00  0.10371249554E+04  0.14418873745E+04  0.10017040619E+04 0.  0.
        4    1    3    3  502    0  0.50346045222E+02  0.72205325411E+02  0.12282822333E+04  0.12314329826E+04  0.12699999809E+01 0.  1.
       -4    1    3    3    0  502 -0.50346045222E+02 -0.72205325411E+02 -0.19115727784E+03  0.21045439187E+03  0.12699999809E+01 0. -1.
</event>
<event>
 5   0  0.7073004E-03  0.1018365E+04  0.7818609E-02  0.9288628E-01
        1   -1    0    0  501    0  0.00000000000E+00  0.00000000000E+00  0.67968982338E+03  0.67968982340E+03  0.50400001928E-02 0. -1.
       -1   -1    0    0    0  501  0.00000000000E+00  0.00000000000E+00 -0.38144903795E+03  0.38144903799E+03  0.50400001928E-02 0.  1.
    10030    2    1    2    0    0  0.00000000000E+00  0.00000000000E+00  0.29824078542E+03  0.10611388614E+04  0.10183654143E+04 0.  0.
        1    1    3    3  502    0  0.39864072909E+03  0.24120925966E+03 -0.64859979714E+02  0.47042869260E+03  0.50400001928E-02 0.  1.
       -1    1    3    3    0  502 -0.39864072909E+03 -0.24120925966E+03  0.36310076514E+03  0.59071016878E+03  0.50400001928E-02 0. -1.
</event>
<event>
 5   0  0.1221315E-02  0.9816124E+03  0.7818609E-02  0.9328945E-01
       -2   -1    0    0    0  501  0.00000000000E+00  0.00000000000E+00  0.17901949478E+03  0.17901949480E+03  0.25500000920E-02 0. -1.
        2   -1    0    0  501    0  0.00000000000E+00  0.00000000000E+00 -0.13456116254E+04  0.13456116254E+04  0.25500000920E-02 0.  1.
    10030    2    1    2    0    0  0.00000000000E+00  0.00000000000E+00 -0.11665921306E+04  0.15246311202E+04  0.98161237434E+03 0.  0.
        5    1    3    3  502    0  0.12078305144E+03 -0.46585969447E+03 -0.43387603764E+03  0.64798480421E+03  0.46999998093E+01 0. -1.
       -5    1    3    3    0  502 -0.12078305144E+03  0.46585969447E+03 -0.73271609299E+03  0.87664631601E+03  0.46999998093E+01 0.  1.
</event>
<event>
 5   0  0.1216322E-02  0.9872647E+03  0.7818609E-02  0.9322624E-01
        2   -1    0    0  501    0  0.00000000000E+00  0.00000000000E+00  0.13120503679E+04  0.13120503679E+04  0.25500000920E-02 0. -1.
       -2   -1    0    0    0  501  0.00000000000E+00  0.00000000000E+00 -0.18571916521E+03  0.18571916523E+03  0.25500000920E-02 0.  1.
    10030    2    1    2    0    0  0.00000000000E+00  0.00000000000E+00  0.11263312027E+04  0.14977695331E+04  0.98726470423E+03 0.  0.
        2    1    3    3  502    0 -0.34733112586E+02  0.49571443779E+02 -0.18006795534E+03  0.18996890718E+03  0.25500000920E-02 0.  1.
       -2    1    3    3    0  502  0.34733112586E+02 -0.49571443779E+02  0.13063991580E+04  0.13078006259E+04  0.25500000920E-02 0. -1.
</event>
<event>
 5   0  0.7461157E-03  0.1007089E+04  0.7818609E-02  0.9300804E-01
       -1   -1    0    0    0  501  0.00000000000E+00  0.00000000000E+00  0.46156431251E+03  0.46156431254E+03  0.50400001928E-02 0. -1.
        1   -1    0    0  501    0  0.00000000000E+00  0.00000000000E+00 -0.54934257240E+03  0.54934257242E+03  0.50400001928E-02 0.  1.
    10030    2    1    2    0    0  0.00000000000E+00  0.00000000000E+00 -0.87778259889E+02  0.10109068850E+04  0.10070887285E+04 0.  0.
        2    1    3    3  502    0  0.33847911231E+03  0.25481873847E+02 -0.41723943150E+03  0.53787189791E+03  0.25500000920E-02 0.  1.
       -2    1    3    3    0  502 -0.33847911231E+03 -0.25481873847E+02  0.32946117161E+03  0.47303498704E+03  0.25500000920E-02 0. -1.
</event>
<event>
 5   0  0.7073004E-03  0.9943192E+03  0.7818609E-02  0.9314797E-01
       -1   -1    0    0    0  501  0.00000000000E+00  0.00000000000E+00  0.53102358118E+03  0.53102358120E+03  0.50400001928E-02 0.  1.
        1   -1    0    0  501    0  0.00000000000E+00  0.00000000000E+00 -0.46545517599E+03  0.46545517602E+03  0.50400001928E-02 0. -1.
    10030    2    1    2    0    0  0.00000000000E+00  0.00000000000E+00  0.65568405187E+02  0.99647875723E+03  0.99431921325E+03 0.  0.
        1    1    3    3  502    0 -0.29046144233E+03  0.38723998576E+03 -0.80797814908E+02  0.49076567012E+03  0.50400001928E-02 0. -1.
       -1    1    3    3    0  502  0.29046144233E+03 -0.38723998576E+03  0.14636622010E+03  0.50571308710E+03  0.50400001928E-02 0.  1.
</event>
<event>
 5   0  0.7224879E-03  0.1047931E+04  0.7818609E-02  0.9257483E-01
        1   -1    0    0  501    0  0.00000000000E+00  0.00000000000E+00  0.68600669436E+03  0.68600669438E+03  0.50400001928E-02 0.  1.
       -1   -1    0    0    0  501  0.00000000000E+00  0.00000000000E+00 -0.40019988363E+03  0.40019988366E+03  0.50400001928E-02 0. -1.
    10030    2    1    2    0    0  0.00000000000E+00  0.00000000000E+00  0.28580681073E+03  0.10862065780E+04  0.10479309124E+04 0.  0.
        3    1    3    3  502    0  0.23828180747E+03 -0.20945905088E+03 -0.28932686319E+03  0.42937321496E+03  0.10100000352E+00 0. -1.
       -3    1    3    3    0  502 -0.23828180747E+03  0.20945905088E+03  0.57513367392E+03  0.65683336307E+03  0.10100000352E+00 0.  1.
</event>
<event>
 5   0  0.7073004E-03  0.9940164E+03  0.7818609E-02  0.9315132E-01
        1   -1    0    0  501    0  0.00000000000E+00  0.00000000000E+00  0.54646016895E+03  0.54646016898E+03  0.50400001928E-02 0.  1.
       -1   -1    0    0    0  501  0.00000000000E+00  0.00000000000E+00 -0.45203136479E+03  0.45203136482E+03  0.50400001928E-02 0. -1.
    10030    2    1    2    0    0  0.00000000000E+00  0.00000000000E+00  0.94428804165E+02  0.99849153379E+03  0.99401637009E+03 0.  0.
        1    1    3    3  502    0 -0.15565871585E+03  0.26729818677E+02  0.52058223913E+03  0.54401285532E+03  0.50400001928E-02 0.  1.
       -1    1    3    3    0  502  0.15565871585E+03 -0.26729818677E+02 -0.42615343497E+03  0.45447867847E+03  0.50400001928E-02 0. -1.
</event>
<event>
 5   0  0.7241200E-03  0.1003263E+04  0.7818609E-02  0.9304973E-01
       -1   -1    0    0    0  501  0.00000000000E+00  0.00000000000E+00  0.14825428846E+03  0.14825428855E+03  0.50400001928E-02 0.  1.
        1   -1    0    0  501    0  0.00000000000E+00  0.00000000000E+00 -0.16973152639E+04  0.16973152639E+04  0.50400001928E-02 0. -1.
    10030    2    1    2    0    0  0.00000000000E+00  0.00000000000E+00 -0.15490609754E+04  0.18455695524E+04  0.10032632094E+04 0.  0.
        4    1    3    3  502    0 -0.36038928426E+03  0.34663667592E+02 -0.14132354709E+04  0.14588756339E+04  0.12699999809E+01 0. -1.
       -4    1    3    3    0  502  0.36038928426E+03 -0.34663667592E+02 -0.13582550452E+03  0.38669391854E+03  0.12699999809E+01 0.  1.
</event>
<event>
 5   0  0.7241200E-03  0.1005869E+04  0.7818609E-02  0.9302131E-01
       -1   -1    0    0    0  501  0.00000000000E+00  0.00000000000E+00  0.40452125550E+03  0.40452125553E+03  0.50400001928E-02 0. -1.
        1   -1    0    0  501    0  0.00000000000E+00  0.00000000000E+00 -0.62528989575E+03  0.62528989577E+03  0.50400001928E-02 0.  1.
    10030    2    1    2    0    0  0.00000000000E+00  0.00000000000E+00 -0.22076864026E+03  0.10298111513E+04  0.10058688855E+04 0.  0.
        4    1    3    3  502    0 -0.31947573732E+02 -0.28773038897E+03 -0.53142991646E+03  0.60516840070E+03  0.12699999809E+01 0.  1.
       -4    1    3    3    0  502  0.31947573732E+02  0.28773038897E+03  0.31066127620E+03  0.42464275060E+03  0.12699999809E+01 0. -1.
</event>
<event>
 5   0  0.7224879E-03  0.1008462E+04  0.7818609E-02  0.9299312E-01
        1   -1    0    0  501    0  0.00000000000E+00  0.00000000000E+00  0.85605055898E+03  0.85605055899E+03  0.50400001928E-02 0.  1.
       -1   -1    0    0    0  501  0.00000000000E+00  0.00000000000E+00 -0.29700243607E+03  0.29700243611E+03  0.50400001928E-02 0. -1.
    10030    2    1    2    0    0  0.00000000000E+00  0.00000000000E+00  0.55904812291E+03  0.11530529951E+04  0.10084623968E+04 0.  0.
        3    1    3    3  502    0 -0.55590363281E+02 -0.48551472752E+03  0.13747696713E+03  0.50765614919E+03  0.10100000352E+00 0.  1.
       -3    1    3    3    0  502  0.55590363281E+02  0.48551472752E+03  0.42157115578E+03  0.64539684591E+03  0.10100000352E+00 0. -1.
</event>
<event>
 5   0  0.1216322E-02  0.1003943E+04  0.7818609E-02  0.9304230E-01
       -2   -1    0    0    0  501  0.00000000000E+00  0.00000000000E+00  0.34067368330E+03  0.34067368331E+03  0.25500000920E-02 0. -1.
        2   -1    0    0  501    0  0.00000000000E+00  0.00000000000E+00 -0.73963903555E+03  0.73963903555E+03  0.25500000920E-02 0.  1.
    10030    2    1    2    0    0  0.00000000000E+00  0.00000000000E+00 -0.39896535225E+03  0.10803127189E+04  0.10039433342E+04 0.  0.
        2    1    3    3  502    0  0.26178308467E+03  0.27607922618E+03 -0.55184477726E+03  0.67028559641E+03  0.25500000920E-02 0.  1.
       -2    1    3    3    0  502 -0.26178308467E+03 -0.27607922618E+03  0.15287942501E+03  0.41002712245E+03  0.25500000920E-02 0. -1.
</event>
<event>
 5   0  0.6967681E-03  0.1006280E+04  0.7818609E-02  0.9301683E-01
        1   -1    0    0  501    0  0.00000000000E+00  0.00000000000E+00  0.93146663407E+03  0.93146663408E+03  0.50400001928E-02 0.  1.
       -1   -1    0    0    0  501  0.00000000000E+00  0.00000000000E+00 -0.27177570243E+03  0.27177570247E+03  0.50400001928E-02 0. -1.
    10030    2    1    2    0    0  0.00000000000E+00  0.00000000000E+00  0.65969093164E+03  0.12032423366E+04  0.10062802767E+04 0.  0.
        5    1    3    3  502    0  0.40826478891E+03 -0.16402554703E+03  0.38068552645E+02  0.44165124548E+03  0.46999998093E+01 0. -1.
       -5    1    3    3    0  502 -0.40826478891E+03  0.16402554703E+03  0.62162237900E+03  0.76159109107E+03  0.46999998093E+01 0.  1.
</event>
<event>
 5   0  0.1240503E-02  0.9909187E+03  0.7818609E-02  0.9318561E-01
        2   -1    0    0  501    0  0.00000000000E+00  0.00000000000E+00  0.70902858865E+03  0.70902858865E+03  0.25500000920E-02 0. -1.
       -2   -1    0    0    0  501  0.00000000000E+00  0.00000000000E+00 -0.34622013413E+03  0.34622013414E+03  0.25500000920E-02 0.  1.
    10030    2    1    2    0    0  0.00000000000E+00  0.00000000000E+00  0.36280845452E+03  0.10552487228E+04  0.99091871124E+03 0.  0.
        1    1    3    3  502    0 -0.15431324064E+03  0.26789283387E+03  0.59370943427E+03  0.66938033960E+03  0.50400001928E-02 0. -1.
       -1    1    3    3    0  502  0.15431324064E+03 -0.26789283387E+03 -0.23090097975E+03  0.38586838320E+03  0.50400001928E-02 0.  1.
</event>
<event>
 5   0  0.7224879E-03  0.9997236E+03  0.7818609E-02  0.9308848E-01
        1   -1    0    0  501    0  0.00000000000E+00  0.00000000000E+00  0.34519830657E+03  0.34519830660E+03  0.50400001928E-02 0.  1.
       -1   -1    0    0    0  501  0.00000000000E+00  0.00000000000E+00 -0.72382103466E+03  0.72382103468E+03  0.50400001928E-02 0. -1.
    10030    2    1    2    0    0  0.00000000000E+00  0.00000000000E+00 -0.37862272810E+03  0.10690193413E+04  0.99972355269E+03 0.  0.
        3    1    3    3  502    0 -0.10088011033E+03  0.39587916125E+03 -0.49731245558E+03  0.64359676479E+03  0.10100000352E+00 0. -1.
       -3    1    3    3    0  502  0.10088011033E+03 -0.39587916125E+03  0.11868972749E+03  0.42542257649E+03  0.10100000352E+00 0.  1.
</event>
<event>
 5   0  0.1240503E-02  0.9740058E+03  0.7818609E-02  0.9337523E-01
        2   -1    0    0  501    0  0.00000000000E+00  0.00000000000E+00  0.61907735567E+03  0.61907735568E+03  0.25500000920E-02 0. -1.
       -2   -1    0    0    0  501  0.00000000000E+00  0.00000000000E+00 -0.38310534165E+03  0.38310534166E+03  0.25500000920E-02 0.  1.
    10030    2    1    2    0    0  0.00000000000E+00  0.00000000000E+00  0.23597201402E+03  0.10021826973E+04  0.97400583542E+03 0.  0.
        1    1    3    3  502    0 -0.48773652567E+02 -0.12889268822E+03  0.59859562703E+03  0.61425476717E+03  0.50400001928E-02 0. -1.
       -1    1    3    3    0  502  0.48773652567E+02  0.12889268822E+03 -0.36262361301E+03  0.38792793016E+03  0.50400001928E-02 0.  1.
</event>
<event>
 5   0  0.7073004E-03  0.9312793E+03  0.7818609E-02  0.9387304E-01
        1   -1    0    0  501    0  0.00000000000E+00  0.00000000000E+00  0.28824389320E+03  0.28824389325E+03  0.50400001928E-02 0.  1.
       -1   -1    0    0    0  501  0.00000000000E+00  0.00000000000E+00 -0.75221119440E+03  0.75221119442E+03  0.50400001928E-02 0. -1.
    10030    2    1    2    0    0  0.00000000000E+00  0.00000000000E+00 -0.46396730120E+03  0.10404550877E+04  0.93127929907E+03 0.  0.
        1    1    3    3  502    0  0.35466922224E+03  0.19689944887E+03 -0.48738943082E+03  0.63411994723E+03  0.50400001928E-02 0. -1.
       -1    1    3    3    0  502 -0.35466922224E+03 -0.19689944887E+03  0.23422129621E+02  0.40633514044E+03  0.50400001928E-02 0.  1.
</event>
<event>
 5   0  0.1221315E-02  0.9794836E+03  0.7818609E-02  0.9331337E-01
       -2   -1    0    0    0  501  0.00000000000E+00  0.00000000000E+00  0.17930730430E+03  0.17930730431E+03  0.25500000920E-02 0. -1.
        2   -1    0    0  501    0  0.00000000000E+00  0.00000000000E+00 -0.13376311158E+04  0.13376311158E+04  0.25500000920E-02 0.  1.
    10030    2    1    2    0    0  0.00000000000E+00  0.00000000000E+00 -0.11583238115E+04  0.15169384201E+04  0.97948359767E+03 0.  0.
        5    1    3    3  502    0 -0.94850670990E+02  0.26549715576E+03  0.40980048498E+02  0.28493305157E+03  0.46999998093E+01 0. -1.
       -5    1    3    3    0  502  0.94850670990E+02 -0.26549715576E+03 -0.11993038600E+04  0.12320053685E+04  0.46999998093E+01 0.  1.
</event>
<event>
 5   0  0.7461157E-03  0.9969440E+03  0.7818609E-02  0.9311903E-01
        1   -1    0    0  501    0  0.00000000000E+00  0.00000000000E+00  0.63942038161E+03  0.63942038163E+03  0.50400001928E-02 0. -1.
       -1   -1    0    0    0  501  0.00000000000E+00  0.00000000000E+00 -0.38859309614E+03  0.38859309617E+03  0.50400001928E-02 0.  1.
    10030    2    1    2    0    0  0.00000000000E+00  0.00000000000E+00  0.25082728547E+03  0.10280134778E+04  0.99694402220E+03 0.  0.
        2    1    3    3  502    0 -0.24555747066E+03 -0.36768130281E+02 -0.32028811178E+03  0.40525898060E+03  0.25500000920E-02 0.  1.
       -2    1    3    3    0  502  0.24555747066E+03  0.36768130281E+02  0.57111539725E+03  0.62275449720E+03  0.25500000920E-02 0. -1.
</event>
<event>
 5   0  0.1245850E-02  0.9934259E+03  0.7818609E-02  0.9315785E-01
       -2   -1    0    0    0  501  0.00000000000E+00  0.00000000000E+00  0.14517080051E+03  0.14517080053E+03  0.25500000920E-02 0. -1.
        2   -1    0    0  501    0  0.00000000000E+00  0.00000000000E+00 -0.16995411850E+04  0.16995411850E+04  0.25500000920E-02 0.  1.
    10030    2    1    2    0    0  0.00000000000E+00  0.00000000000E+00 -0.15543703845E+04  0.18447119855E+04  0.99342589928E+03 0.  0.
        3    1    3    3  502    0  0.16796334937E+03  0.30132315925E+03 -0.11356980965E+03  0.36318789200E+03  0.10100000352E+00 0. -1.
       -3    1    3    3    0  502 -0.16796334937E+03 -0.30132315925E+03 -0.14408005748E+04  0.14815240935E+04  0.10100000352E+00 0.  1.
</event>
<event>
 5   0  0.1216322E-02  0.6993655E+03  0.7818609E-02  0.9718318E-01
       -2   -1    0    0    0  501  0.00000000000E+00  0.00000000000E+00  0.45826309988E+03  0.45826309989E+03  0.25500000920E-02 0. -1.
        2   -1    0    0  501    0  0.00000000000E+00  0.00000000000E+00 -0.26682926976E+03  0.26682926977E+03  0.25500000920E-02 0.  1.
    10030    2    1    2    0    0  0.00000000000E+00  0.00000000000E+00  0.19143383012E+03  0.72509236966E+03  0.69936545041E+03 0.  0.
        2    1    3    3  502    0 -0.17375209466E+03 -0.16535994405E+03 -0.16809229523E+03  0.29289711713E+03  0.25500000920E-02 0.  1.
       -2    1    3    3    0  502  0.17375209466E+03  0.16535994405E+03  0.35952612536E+03  0.43219525254E+03  0.25500000920E-02 0. -1.
</event>
<event>
 5   0  0.4782125E-03  0.9953364E+03  0.7818609E-02  0.9313675E-01
       -4   -1    0    0    0  501  0.00000000000E+00  0.00000000000E+00  0.85405276574E+03  0.85405371000E+03  0.12699999809E+01 0. -1.
        4   -1    0    0  501    0  0.00000000000E+00  0.00000000000E+00 -0.28999554885E+03  0.28999832974E+03  0.12699999809E+01 0.  1.
    10030    2    1    2    0    0  0.00000000000E+00  0.00000000000E+00  0.56405721689E+03  0.11440520397E+04  0.99533638822E+03 0.  0.
        3    1    3    3  502    0 -0.14296370264E+03  0.21356677620E+03 -0.20782103341E+03  0.33051320745E+03  0.10100000352E+00 0.  1.
       -3    1    3    3    0  502  0.14296370264E+03 -0.21356677620E+03  0.77187825030E+03  0.81353883230E+03  0.10100000352E+00 0. -1.
</event>
<event>
 5   0  0.1221315E-02  0.1001027E+04  0.7818609E-02  0.9307419E-01
        2   -1    0    0  501    0  0.00000000000E+00  0.00000000000E+00  0.25957532237E+03  0.25957532238E+03  0.25500000920E-02 0. -1.
       -2   -1    0    0    0  501  0.00000000000E+00  0.00000000000E+00 -0.96509087870E+03  0.96509087870E+03  0.25500000920E-02 0.  1.
    10030    2    1    2    0    0  0.00000000000E+00  0.00000000000E+00 -0.70551555633E+03  0.12246662011E+04  0.10010270245E+04 0.  0.
        5    1    3    3  502    0  0.12441918309E+03 -0.48449599910E+03 -0.37305236073E+03  0.62402456691E+03  0.46999998093E+01 0. -1.
       -5    1    3    3    0  502 -0.12441918309E+03  0.48449599910E+03 -0.33246319560E+03  0.60064163417E+03  0.46999998093E+01 0.  1.
</event>
<event>
 5   0  0.1221315E-02  0.9968855E+03  0.7818609E-02  0.9311967E-01
       -2   -1    0    0    0  501  0.00000000000E+00  0.00000000000E+00  0.28682070322E+03  0.28682070323E+03  0.25500000920E-02 0.  1.
        2   -1    0    0  501    0  0.00000000000E+00  0.00000000000E+00 -0.86620376245E+03  0.86620376246E+03  0.25500000920E-02 0. -1.
    10030    2    1    2    0    0  0.00000000000E+00  0.00000000000E+00 -0.57938305923E+03  0.11530244657E+04  0.99688549450E+03 0.  0.
        5    1    3    3  502    0 -0.28493513179E+03 -0.40232754495E+02  0.18100921752E+03  0.33998989791E+03  0.46999998093E+01 0.  1.
       -5    1    3    3    0  502  0.28493513179E+03  0.40232754495E+02 -0.76039227675E+03  0.81303456777E+03  0.46999998093E+01 0. -1.
</event>
<event>
 5   0  0.1245850E-02  0.1000012E+04  0.7818609E-02  0.9308531E-01
        2   -1    0    0  501    0  0.00000000000E+00  0.00000000000E+00  0.60410390334E+03  0.60410390334E+03  0.25500000920E-02 0. -1.
       -2   -1    0    0    0  501  0.00000000000E+00  0.00000000000E+00 -0.41384626219E+03  0.41384626219E+03  0.25500000920E-02 0.  1.
    10030    2    1    2    0    0  0.00000000000E+00  0.00000000000E+00  0.19025764115E+03  0.10179501655E+04  0.10000122847E+04 0.  0.
        3    1    3    3  502    0  0.33861014522E+03  0.16651603834E+03 -0.23881324394E+03  0.44656040705E+03  0.10100000352E+00 0.  1.
       -3    1    3    3    0  502 -0.33861014522E+03 -0.16651603834E+03  0.42907088509E+03  0.57138975848E+03  0.10100000352E+00 0. -1.
</event>
<event>
 5   0  0.1240503E-02  0.9999755E+03  0.7818609E-02  0.9308572E-01
        2   -1    0    0  501    0  0.00000000000E+00  0.00000000000E+00  0.18578830373E+04  0.18578830373E+04  0.25500000920E-02 0. -1.
       -2   -1    0    0    0  501  0.00000000000E+00  0.00000000000E+00 -0.13455516739E+03  0.13455516742E+03  0.25500000920E-02 0.  1.
    10030    2    1    2    0    0  0.00000000000E+00  0.00000000000E+00  0.17233278699E+04  0.19924382047E+04  0.99997552593E+03 0.  0.
        1    1    3    3  502    0 -0.25969545449E+03  0.67420244764E+02  0.17022963941E+04  0.17233108344E+04  0.50400001928E-02 0. -1.
       -1    1    3    3    0  502  0.25969545449E+03 -0.67420244764E+02  0.21031475839E+02  0.26912737038E+03  0.50400001928E-02 0.  1.
</event>
<event>
 5   0  0.6967681E-03  0.9819092E+03  0.7818609E-02  0.9328612E-01
       -1   -1    0    0    0  501  0.00000000000E+00  0.00000000000E+00  0.18631511799E+03  0.18631511806E+03  0.50400001928E-02 0. -1.
        1   -1    0    0  501    0  0.00000000000E+00  0.00000000000E+00 -0.12937028707E+04  0.12937028707E+04  0.50400001928E-02 0.  1.
    10030    2    1    2    0    0  0.00000000000E+00  0.00000000000E+00 -0.11073877527E+04  0.14800179888E+04  0.98190916701E+03 0.  0.
        5    1    3    3  502    0 -0.39833308198E+03 -0.28027835546E+03 -0.46091172909E+03  0.67058699119E+03  0.46999998093E+01 0. -1.
       -5    1    3    3    0  502  0.39833308198E+03  0.28027835546E+03 -0.64647602364E+03  0.80943099760E+03  0.46999998093E+01 0.  1.
</event>
<event>
 5   0  0.7073004E-03  0.9991811E+03  0.7818609E-02  0.9309443E-01
       -1   -1    0    0    0  501  0.00000000000E+00  0.00000000000E+00  0.60775728832E+03  0.60775728834E+03  0.50400001928E-02 0. -1.
        1   -1    0    0  501    0  0.00000000000E+00  0.00000000000E+00 -0.41067501227E+03  0.41067501230E+03  0.50400001928E-02 0.  1.
    10030    2    1    2    0    0  0.00000000000E+00  0.00000000000E+00  0.19708227606E+03  0.10184323006E+04  0.99918112845E+03 0.  0.
        1    1    3    3  502    0 -0.44853210885E+02  0.41566688013E+03  0.37730639283E+03  0.56316150424E+03  0.50400001928E-02 0. -1.
       -1    1    3    3    0  502  0.44853210885E+02 -0.41566688013E+03 -0.18022411677E+03  0.45527079640E+03  0.50400001928E-02 0.  1.
</event>
<event>
 5   0  0.4782125E-03  0.1003432E+04  0.7818609E-02  0.9304789E-01
        3   -1    0    0  501    0  0.00000000000E+00  0.00000000000E+00  0.25479301923E+03  0.25479303925E+03  0.10100000352E+00 0.  1.
       -3   -1    0    0    0  501  0.00000000000E+00  0.00000000000E+00 -0.98793509131E+03  0.98793509647E+03  0.10100000352E+00 0. -1.
    10030    2    1    2    0    0  0.00000000000E+00  0.00000000000E+00 -0.73314207208E+03  0.12427281357E+04  0.10034320712E+04 0.  0.
        1    1    3    3  502    0  0.28646457001E+03 -0.81173499541E+02 -0.86668891868E+03  0.91640644296E+03  0.50400001928E-02 0. -1.
       -1    1    3    3    0  502 -0.28646457001E+03  0.81173499541E+02  0.13354684661E+03  0.32632169276E+03  0.50400001928E-02 0.  1.
</event>
<event>
 5   0  0.1216322E-02  0.1036780E+04  0.7818609E-02  0.9269100E-01
       -2   -1    0    0    0  501  0.00000000000E+00  0.00000000000E+00  0.37439756266E+03  0.37439756267E+03  0.25500000920E-02 0.  1.
        2   -1    0    0  501    0  0.00000000000E+00  0.00000000000E+00 -0.71776150789E+03  0.71776150789E+03  0.25500000920E-02 0. -1.
    10030    2    1    2    0    0  0.00000000000E+00  0.00000000000E+00 -0.34336394523E+03  0.10921590706E+04  0.10367799364E+04 0.  0.
        2    1    3    3  502    0 -0.32246578850E+03  0.40409056855E+03 -0.13150298545E+03  0.53344766148E+03  0.25500000920E-02 0.  1.
       -2    1    3    3    0  502  0.32246578850E+03 -0.40409056855E+03 -0.21186095978E+03  0.55871140908E+03  0.25500000920E-02 0. -1.
</event>
<event>
 5   0  0.7461157E-03  0.1016071E+04  0.7818609E-02  0.9291092E-01
       -1   -1    0    0    0  501  0.00000000000E+00  0.00000000000E+00  0.75169784628E+03  0.75169784630E+03  0.50400001928E-02 0. -1.
        1   -1    0    0  501    0  0.00000000000E+00  0.00000000000E+00 -0.34335603228E+03  0.34335603232E+03  0.50400001928E-02 0.  1.
    10030    2    1    2    0    0  0.00000000000E+00  0.00000000000E+00  0.40834181400E+03  0.10950538786E+04  0.10160708440E+04 0.  0.
        2    1    3    3  502    0 -0.14557791133E+03  0.42181334346E+03  0.46590841461E+03  0.64512795304E+03  0.25500000920E-02 0. -1.
       -2    1    3    3    0  502  0.14557791133E+03 -0.42181334346E+03 -0.57566600608E+02  0.44992592557E+03  0.25500000920E-02 0.  1.
</event>
<event>
 5   0  0.1240503E-02  0.7506875E+03  0.7818609E-02  0.9634272E-01
        2   -1    0    0  501    0  0.00000000000E+00  0.00000000000E+00  0.32728697126E+03  0.32728697127E+03  0.25500000920E-02 0. -1.
       -2   -1    0    0    0  501  0.00000000000E+00  0.00000000000E+00 -0.43045690592E+03  0.43045690593E+03  0.25500000920E-02 0.  1.
    10030    2    1    2    0    0  0.00000000000E+00  0.00000000000E+00 -0.10316993466E+03  0.75774387719E+03  0.75068751688E+03 0.  0.
        1    1    3    3  502    0  0.27976568818E+03 -0.24647095350E+03 -0.95190174269E+02  0.38480896625E+03  0.50400001928E-02 0.  1.
       -1    1    3    3    0  502 -0.27976568818E+03  0.24647095350E+03 -0.79797603919E+01  0.37293491095E+03  0.50400001928E-02 0. -1.
</event>
<event>
 5   0  0.1221315E-02  0.1007035E+04  0.7818609E-02  0.9300863E-01
        2   -1    0    0  501    0  0.00000000000E+00  0.00000000000E+00  0.39178803131E+03  0.39178803132E+03  0.25500000920E-02 0.  1.
       -2   -1    0    0    0  501  0.00000000000E+00  0.00000000000E+00 -0.64710933088E+03  0.64710933089E+03  0.25500000920E-02 0. -1.
    10030    2    1    2    0    0  0.00000000000E+00  0.00000000000E+00 -0.25532129958E+03  0.10388973622E+04  0.10070346385E+04 0.  0.
        5    1    3    3  502    0 -0.32686603470E+03 -0.38264437690E+03 -0.14395524122E+03  0.52345326944E+03  0.46999998093E+01 0.  1.
       -5    1    3    3    0  502  0.32686603470E+03  0.38264437690E+03 -0.11136605835E+03  0.51544409276E+03  0.46999998093E+01 0. -1.
</event>
<event>
 5   0  0.4782125E-03  0.9076569E+03  0.7818609E-02  0.9416060E-01
       -3   -1    0    0    0  501  0.00000000000E+00  0.00000000000E+00  0.20894836108E+03  0.20894838549E+03  0.10100000352E+00 0. -1.
        3   -1    0    0  501    0  0.00000000000E+00  0.00000000000E+00 -0.98569920571E+03  0.98569921088E+03  0.10100000352E+00 0.  1.
    10030    2    1    2    0    0  0.00000000000E+00  0.00000000000E+00 -0.77675084463E+03  0.11946475964E+04  0.90765687618E+03 0.  0.
        1    1    3    3  502    0 -0.80298847360E+02 -0.41488278530E+03 -0.60618224367E+03  0.73894014845E+03  0.50400001928E-02 0. -1.
       -1    1    3    3    0  502  0.80298847360E+02  0.41488278530E+03 -0.17056860096E+03  0.45570744792E+03  0.50400001928E-02 0.  1.
</event>
<event>
 5   0  0.7224879E-03  0.9949332E+03  0.7818609E-02  0.9314120E-01
        1   -1    0    0  501    0  0.00000000000E+00  0.00000000000E+00  0.13235512647E+04  0.13235512647E+04  0.50400001928E-02 0. -1.
       -1   -1    0    0    0  501  0.00000000000E+00  0.00000000000E+00 -0.18697651301E+03  0.18697651308E+03  0.50400001928E-02 0.  1.
    10030    2    1    2    0    0  0.00000000000E+00  0.00000000000E+00  0.11365747516E+04  0.15105277777E+04  0.99493316422E+03 0.  0.
        3    1    3    3  502    0  0.15388168518E+03  0.40145823299E+03  0.94822093192E+03  0.10411393911E+04  0.10100000352E+00 0. -1.
       -3    1    3    3    0  502 -0.15388168518E+03 -0.40145823299E+03  0.18835381973E+03  0.46938838660E+03  0.10100000352E+00 0.  1.
</event>
<event>
 5   0  0.6967681E-03  0.9960567E+03  0.7818609E-02  0.9312880E-01
       -1   -1    0    0    0  501  0.00000000000E+00  0.00000000000E+00  0.60294871034E+03  0.60294871036E+03  0.50400001928E-02 0. -1.
        1   -1    0    0  501    0  0.00000000000E+00  0.00000000000E+00 -0.41136543981E+03  0.41136543985E+03  0.50400001928E-02 0.  1.
    10030    2    1    2    0    0  0.00000000000E+00  0.00000000000E+00  0.19158327052E+03  0.10143141502E+04  0.99605674826E+03 0.  0.
        5    1    3    3  502    0  0.86392168345E+02 -0.41003318121E+03 -0.17824948122E+03  0.45539629335E+03  0.46999998093E+01 0.  1.
       -5    1    3    3    0  502 -0.86392168345E+02  0.41003318121E+03  0.36983275175E+03  0.55891785685E+03  0.46999998093E+01 0. -1.
</event>
<event>
 5   0  0.1240503E-02  0.1003989E+04  0.7818609E-02  0.9304180E-01
        2   -1    0    0  501    0  0.00000000000E+00  0.00000000000E+00  0.78701508943E+03  0.78701508944E+03  0.25500000920E-02 0. -1.
       -2   -1    0    0    0  501  0.00000000000E+00  0.00000000000E+00 -0.32019550046E+03  0.32019550047E+03  0.25500000920E-02 0.  1.
    10030    2    1    2    0    0  0.00000000000E+00  0.00000000000E+00  0.46681958897E+03  0.11072105899E+04  0.10039894231E+04 0.  0.
        1    1    3    3  502    0 -0.55304917131E+02 -0.21529598648E+03  0.72978219381E+03  0.76288468728E+03  0.50400001928E-02 0. -1.
       -1    1    3    3    0  502  0.55304917131E+02  0.21529598648E+03 -0.26296260484E+03  0.34432590263E+03  0.50400001928E-02 0.  1.
</event>
<event>
 5   0  0.1191822E-02  0.9637267E+03  0.7818609E-02  0.9349249E-01
       -2   -1    0    0    0  501  0.00000000000E+00  0.00000000000E+00  0.15239291171E+03  0.15239291173E+03  0.25500000920E-02 0. -1.
        2   -1    0    0  501    0  0.00000000000E+00  0.00000000000E+00 -0.15236422145E+04  0.15236422145E+04  0.25500000920E-02 0.  1.
    10030    2    1    2    0    0  0.00000000000E+00  0.00000000000E+00 -0.13712493028E+04  0.16760351263E+04  0.96372666975E+03 0.  0.
        4    1    3    3  502    0 -0.14788739047E+03 -0.27074167564E+03 -0.41871278863E+02  0.31133029419E+03  0.12699999809E+01 0. -1.
       -4    1    3    3    0  502  0.14788739047E+03  0.27074167564E+03 -0.13293780240E+04  0.13647048321E+04  0.12699999809E+01 0.  1.
</event>
<event>
 5   0  0.4782125E-03  0.9289189E+03  0.7818609E-02  0.9390136E-01
       -4   -1    0    0    0  501  0.00000000000E+00  0.00000000000E+00  0.12369714529E+04  0.12369721049E+04  0.12699999809E+01 0.  1.
        4   -1    0    0  501    0  0.00000000000E+00  0.00000000000E+00 -0.17439275645E+03  0.17439738072E+03  0.12699999809E+01 0. -1.
    10030    2    1    2    0    0  0.00000000000E+00  0.00000000000E+00  0.10625786965E+04  0.14113694856E+04  0.92891890856E+03 0.  0.
        1    1    3    3  502    0  0.16242429920E+03 -0.11697192878E+03 -0.10550251391E+03  0.22626282408E+03  0.50400001928E-02 0. -1.
       -1    1    3    3    0  502 -0.16242429920E+03  0.11697192878E+03  0.11680812104E+04  0.11851066615E+04  0.50400001928E-02 0.  1.
</event>
<event>
 5   0  0.7241200E-03  0.9453771E+03  0.7818609E-02  0.9370570E-01
       -1   -1    0    0    0  501  0.00000000000E+00  0.00000000000E+00  0.11913174270E+03  0.11913174281E+03  0.50400001928E-02 0. -1.
        1   -1    0    0  501    0  0.00000000000E+00  0.00000000000E+00 -0.18755243235E+04  0.18755243235E+04  0.50400001928E-02 0.  1.
    10030    2    1    2    0    0  0.00000000000E+00  0.00000000000E+00 -0.17563925808E+04  0.19946560663E+04  0.94537713375E+03 0.  0.
        4    1    3    3  502    0 -0.12362544395E+03  0.64000297978E+01  0.84319808990E+02  0.14978535930E+03  0.12699999809E+01 0. -1.
       -4    1    3    3    0  502  0.12362544395E+03 -0.64000297978E+01 -0.18407123898E+04  0.18448707070E+04  0.12699999809E+01 0.  1.
</event>
<event>
 5   0  0.1245850E-02  0.1014502E+04  0.7818609E-02  0.9292780E-01
        2   -1    0    0  501    0  0.00000000000E+00  0.00000000000E+00  0.26275531229E+03  0.26275531230E+03  0.25500000920E-02 0. -1.
       -2   -1    0    0    0  501  0.00000000000E+00  0.00000000000E+00 -0.97925246152E+03  0.97925246152E+03  0.25500000920E-02 0.  1.
    10030    2    1    2    0    0  0.00000000000E+00  0.00000000000E+00 -0.71649714923E+03  0.12420077738E+04  0.10145024127E+04 0.  0.
        3    1    3    3  502    0  0.35007088178E+03 -0.31908896519E+03 -0.13606640522E+03  0.49283005874E+03  0.10100000352E+00 0. -1.
       -3    1    3    3    0  502 -0.35007088178E+03  0.31908896519E+03 -0.58043074401E+03  0.74917771508E+03  0.10100000352E+00 0.  1.
</event>
<event>
 5   0  0.7073004E-03  0.9981090E+03  0.7818609E-02  0.9310621E-01
       -1   -1    0    0    0  501  0.00000000000E+00  0.00000000000E+00  0.49687646345E+03  0.49687646347E+03  0.50400001928E-02 0.  1.
        1   -1    0    0  501    0  0.00000000000E+00  0.00000000000E+00 -0.50124209138E+03  0.50124209140E+03  0.50400001928E-02 0. -1.
    10030    2    1    2    0    0  0.00000000000E+00  0.00000000000E+00 -0.43656279318E+01  0.99811855487E+03  0.99810900751E+03 0.  0.
        1    1    3    3  502    0 -0.43771881946E+03 -0.19989877330E+03  0.13009888535E+03  0.49848069619E+03  0.50400001928E-02 0.  1.
       -1    1    3    3    0  502  0.43771881946E+03  0.19989877330E+03 -0.13446451328E+03  0.49963785869E+03  0.50400001928E-02 0. -1.
</event>
<event>
 5   0  0.1221315E-02  0.1001817E+04  0.7818609E-02  0.9306554E-01
        2   -1    0    0  501    0  0.00000000000E+00  0.00000000000E+00  0.85749327284E+03  0.85749327285E+03  0.25500000920E-02 0.  1.
       -2   -1    0    0    0  501  0.00000000000E+00  0.00000000000E+00 -0.29260786187E+03  0.29260786188E+03  0.25500000920E-02 0. -1.
    10030    2    1    2    0    0  0.00000000000E+00  0.00000000000E+00  0.56488541098E+03  0.11501011347E+04  0.10018168957E+04 0.  0.
        5    1    3    3  502    0  0.88078397206E+02 -0.11515650496E+03 -0.26796851327E+03  0.30470976156E+03  0.46999998093E+01 0. -1.
       -5    1    3    3    0  502 -0.88078397206E+02  0.11515650496E+03  0.83285392424E+03  0.84539137316E+03  0.46999998093E+01 0.  1.
</event>
<event>
 5   0  0.7461157E-03  0.9755281E+03  0.7818609E-02  0.9335800E-01
        1   -1    0    0  501    0  0.00000000000E+00  0.00000000000E+00  0.19137541276E+04  0.19137541276E+04  0.50400001928E-02 0. -1.
       -1   -1    0    0    0  501  0.00000000000E+00  0.00000000000E+00 -0.12431782963E+03  0.12431782973E+03  0.50400001928E-02 0.  1.
    10030    2    1    2    0    0  0.00000000000E+00  0.00000000000E+00  0.17894362980E+04  0.20380719574E+04  0.97552808201E+03 0.  0.
        2    1    3    3  502    0 -0.16171386812E+03  0.41995233989E+03  0.50162435003E+03  0.67389786427E+03  0.25500000920E-02 0.  1.
       -2    1    3    3    0  502  0.16171386812E+03 -0.41995233989E+03  0.12878119480E+04  0.13641740931E+04  0.25500000920E-02 0. -1.
</event>
<event>
 5   0  0.1240503E-02  0.9359093E+03  0.7818609E-02  0.9381774E-01
        2   -1    0    0  501    0  0.00000000000E+00  0.00000000000E+00  0.14172494992E+04  0.14172494992E+04  0.25500000920E-02 0. -1.
       -2   -1    0    0    0  501  0.00000000000E+00  0.00000000000E+00 -0.15451166079E+03  0.15451166081E+03  0.25500000920E-02 0.  1.
    10030    2    1    2    0    0  0.00000000000E+00  0.00000000000E+00  0.12627378384E+04  0.15717611600E+04  0.93590934154E+03 0.  0.
        1    1    3    3  502    0 -0.16696731533E+02  0.23847164067E+03  0.13069659750E+04  0.13286487738E+04  0.50400001928E-02 0. -1.
       -1    1    3    3    0  502  0.16696731533E+02 -0.23847164067E+03 -0.44228136583E+02  0.24311238623E+03  0.50400001928E-02 0.  1.
</event>
<event>
 5   0  0.1216322E-02  0.9463080E+03  0.7818609E-02  0.9369476E-01
        2   -1    0    0  501    0  0.00000000000E+00  0.00000000000E+00  0.14771549883E+04  0.14771549883E+04  0.25500000920E-02 0. -1.
       -2   -1    0    0    0  501  0.00000000000E+00  0.00000000000E+00 -0.15155803523E+03  0.15155803525E+03  0.25500000920E-02 0.  1.
    10030    2    1    2    0    0  0.00000000000E+00  0.00000000000E+00  0.13255969531E+04  0.16287130236E+04  0.94630800013E+03 0.  0.
        2    1    3    3  502    0 -0.30044284394E+03 -0.31112330816E+03  0.99301698425E+03  0.10831188053E+04  0.25500000920E-02 0. -1.
       -2    1    3    3    0  502  0.30044284394E+03  0.31112330816E+03  0.33257996887E+03  0.54559421831E+03  0.25500000920E-02 0.  1.
</event>
<event>
 5   0  0.6967681E-03  0.9567326E+03  0.7818609E-02  0.9357316E-01
        1   -1    0    0  501    0  0.00000000000E+00  0.00000000000E+00  0.43617753064E+03  0.43617753067E+03  0.50400001928E-02 0. -1.
       -1   -1    0    0    0  501  0.00000000000E+00  0.00000000000E+00 -0.52463570572E+03  0.52463570574E+03  0.50400001928E-02 0.  1.
    10030    2    1    2    0    0  0.00000000000E+00  0.00000000000E+00 -0.88458175074E+02  0.96081323642E+03  0.95673257838E+03 0.  0.
        5    1    3    3  502    0 -0.28443534998E+03  0.25650393478E+03  0.24354937470E+03  0.45391202318E+03  0.46999998093E+01 0. -1.
       -5    1    3    3    0  502  0.28443534998E+03 -0.25650393478E+03 -0.33200754978E+03  0.50690121324E+03  0.46999998093E+01 0.  1.
</event>
<event>
 5   0  0.7241200E-03  0.1007165E+04  0.7818609E-02  0.9300721E-01
       -1   -1    0    0    0  501  0.00000000000E+00  0.00000000000E+00  0.30880237726E+03  0.30880237730E+03  0.50400001928E-02 0.  1.
        1   -1    0    0  501    0  0.00000000000E+00  0.00000000000E+00 -0.82122278244E+03  0.82122278246E+03  0.50400001928E-02 0. -1.
    10030    2    1    2    0    0  0.00000000000E+00  0.00000000000E+00 -0.51242040519E+03  0.11300251598E+04  0.10071654234E+04 0.  0.
        4    1    3    3  502    0 -0.36760963236E+03  0.26873943398E+03 -0.49746636560E+03  0.67441242796E+03  0.12699999809E+01 0. -1.
       -4    1    3    3    0  502  0.36760963236E+03 -0.26873943398E+03 -0.14954039586E+02  0.45561273180E+03  0.12699999809E+01 0.  1.
</event>
<event>
 5   0  0.4782125E-03  0.1030198E+04  0.7818609E-02  0.9276030E-01
        3   -1    0    0  501    0  0.00000000000E+00  0.00000000000E+00  0.44079645199E+03  0.44079646356E+03  0.10100000352E+00 0.  1.
       -3   -1    0    0    0  501  0.00000000000E+00  0.00000000000E+00 -0.60192682223E+03  0.60192683070E+03  0.10100000352E+00 0. -1.
    10030    2    1    2    0    0  0.00000000000E+00  0.00000000000E+00 -0.16113037024E+03  0.10427232943E+04  0.10301984625E+04 0.  0.
        4    1    3    3  502    0  0.47309708778E+03 -0.78576900732E+02  0.10968390427E+03  0.49196275830E+03  0.12699999809E+01 0.  1.
       -4    1    3    3    0  502 -0.47309708778E+03  0.78576900732E+02 -0.27081427451E+03  0.55076053596E+03  0.12699999809E+01 0. -1.
</event>
<event>
 5   0  0.1191822E-02  0.1006543E+04  0.7818609E-02  0.9301397E-01
        2   -1    0    0  501    0  0.00000000000E+00  0.00000000000E+00  0.14808342714E+04  0.14808342714E+04  0.25500000920E-02 0.  1.
       -2   -1    0    0    0  501  0.00000000000E+00  0.00000000000E+00 -0.17104035607E+03  0.17104035609E+03  0.25500000920E-02 0. -1.
    10030    2    1    2    0    0  0.00000000000E+00  0.00000000000E+00  0.13097939153E+04  0.16518746274E+04  0.10065434339E+04 0.  0.
        4    1    3    3  502    0 -0.54593644662E+02 -0.36761162205E+03  0.12118251877E+04  0.12675333010E+04  0.12699999809E+01 0.  1.
       -4    1    3    3    0  502  0.54593644662E+02  0.36761162205E+03  0.97968727542E+02  0.38434132640E+03  0.12699999809E+01 0. -1.
</event>
<event>
 5   0  0.1221315E-02  0.9995758E+03  0.7818609E-02  0.9309010E-01
        2   -1    0    0  501    0  0.00000000000E+00  0.00000000000E+00  0.87013371249E+03  0.87013371249E+03  0.25500000920E-02 0. -1.
       -2   -1    0    0    0  501  0.00000000000E+00  0.00000000000E+00 -0.28706843189E+03  0.28706843190E+03  0.25500000920E-02 0.  1.
    10030    2    1    2    0    0  0.00000000000E+00  0.00000000000E+00  0.58306528060E+03  0.11572021444E+04  0.99957575077E+03 0.  0.
        5    1    3    3  502    0  0.19910086390E+03  0.86051369818E+02 -0.22971204917E+03  0.31596789043E+03  0.46999998093E+01 0.  1.
       -5    1    3    3    0  502 -0.19910086390E+03 -0.86051369818E+02  0.81277732977E+03  0.84123425396E+03  0.46999998093E+01 0. -1.
</event>
<event>
 5   0  0.7073004E-03  0.9835428E+03  0.7818609E-02  0.9326781E-01
       -1   -1    0    0    0  501  0.00000000000E+00  0.00000000000E+00  0.19317084807E+03  0.19317084814E+03  0.50400001928E-02 0.  1.
        1   -1    0    0  501    0  0.00000000000E+00  0.00000000000E+00 -0.12519442169E+04  0.12519442169E+04  0.50400001928E-02 0. -1.
    10030    2    1    2    0    0  0.00000000000E+00  0.00000000000E+00 -0.10587733688E+04  0.14451150650E+04  0.98354283316E+03 0.  0.
        1    1    3    3  502    0 -0.89881063266E+02 -0.40824997652E+02  0.17846286105E+03  0.20394675474E+03  0.50400001928E-02 0.  1.
       -1    1    3    3    0  502  0.89881063266E+02  0.40824997652E+02 -0.12372362298E+04  0.12411683103E+04  0.50400001928E-02 0. -1.
</event>
<event>
 5   0  0.1191822E-02  0.8825466E+03  0.7818609E-02  0.9447666E-01
       -2   -1    0    0    0  501  0.00000000000E+00  0.00000000000E+00  0.93410472050E+03  0.93410472050E+03  0.25500000920E-02 0. -1.
        2   -1    0    0  501    0  0.00000000000E+00  0.00000000000E+00 -0.20845857419E+03  0.20845857421E+03  0.25500000920E-02 0.  1.
    10030    2    1    2    0    0  0.00000000000E+00  0.00000000000E+00  0.72564614630E+03  0.11425632947E+04  0.88254662924E+03 0.  0.
        4    1    3    3  502    0  0.11597674624E+03 -0.15210625591E+03  0.87764222585E+03  0.89824518270E+03  0.12699999809E+01 0. -1.
       -4    1    3    3    0  502 -0.11597674624E+03  0.15210625591E+03 -0.15199607955E+03  0.24431811200E+03  0.12699999809E+01 0.  1.
</event>
<event>
 5   0  0.4782125E-03  0.1168260E+04  0.7818609E-02  0.9141101E-01
       -3   -1    0    0    0  501  0.00000000000E+00  0.00000000000E+00  0.63998376772E+03  0.63998377569E+03  0.10100000352E+00 0.  1.
        3   -1    0    0  501    0  0.00000000000E+00  0.00000000000E+00 -0.53315112274E+03  0.53315113231E+03  0.10100000352E+00 0. -1.
    10030    2    1    2    0    0  0.00000000000E+00  0.00000000000E+00  0.10683264498E+03  0.11731349080E+04  0.11682603727E+04 0.  0.
        4    1    3    3  502    0  0.37564296307E+02 -0.58290424844E+03  0.49153320534E+02  0.58617923968E+03  0.12699999809E+01 0.  1.
       -4    1    3    3    0  502 -0.37564296307E+02  0.58290424844E+03  0.57679324443E+02  0.58695566832E+03  0.12699999809E+01 0. -1.
</event>
<event>
 5   0  0.7224879E-03  0.1039703E+04  0.7818609E-02  0.9266040E-01
       -1   -1    0    0    0  501  0.00000000000E+00  0.00000000000E+00  0.76475622866E+03  0.76475622867E+03  0.50400001928E-02 0. -1.
        1   -1    0    0  501    0  0.00000000000E+00  0.00000000000E+00 -0.35337459913E+03  0.35337459917E+03  0.50400001928E-02 0.  1.
    10030    2    1    2    0    0  0.00000000000E+00  0.00000000000E+00  0.41138162952E+03  0.11181308278E+04  0.10397026994E+04 0.  0.
        3    1    3    3  502    0  0.33787568369E+03  0.39086492084E+03  0.14381786355E+03  0.53630117663E+03  0.10100000352E+00 0.  1.
       -3    1    3    3    0  502 -0.33787568369E+03 -0.39086492084E+03  0.26756376597E+03  0.58182965122E+03  0.10100000352E+00 0. -1.
</event>
<event>
 5   0  0.7461157E-03  0.8652034E+03  0.7818609E-02  0.9470156E-01
       -1   -1    0    0    0  501  0.00000000000E+00  0.00000000000E+00  0.40125685649E+03  0.40125685653E+03  0.50400001928E-02 0.  1.
        1   -1    0    0  501    0  0.00000000000E+00  0.00000000000E+00 -0.46639514879E+03  0.46639514882E+03  0.50400001928E-02 0. -1.
    10030    2    1    2    0    0  0.00000000000E+00  0.00000000000E+00 -0.65138292296E+02  0.86765200534E+03  0.86520344732E+03 0.  0.
        2    1    3    3  502    0  0.18695196220E+03 -0.47603305307E+02  0.35573091829E+03  0.40467468055E+03  0.25500000920E-02 0.  1.
       -2    1    3    3    0  502 -0.18695196220E+03  0.47603305307E+02 -0.42086921058E+03  0.46297732479E+03  0.25500000920E-02 0. -1.
</event>
<event>
 5   0  0.7461157E-03  0.1047764E+04  0.7818609E-02  0.9257655E-01
        1   -1    0    0  501    0  0.00000000000E+00  0.00000000000E+00  0.97777635557E+03  0.97777635558E+03  0.50400001928E-02 0. -1.
       -1   -1    0    0    0  501  0.00000000000E+00  0.00000000000E+00 -0.28069045829E+03  0.28069045834E+03  0.50400001928E-02 0.  1.
    10030    2    1    2    0    0  0.00000000000E+00  0.00000000000E+00  0.69708589728E+03  0.12584668139E+04  0.10477642738E+04 0.  0.
        2    1    3    3  502    0  0.18350268201E+03 -0.14813411299E+03  0.91041458955E+03  0.94046354241E+03  0.25500000920E-02 0. -1.
       -2    1    3    3    0  502 -0.18350268201E+03  0.14813411299E+03 -0.21332869227E+03  0.31800327151E+03  0.25500000920E-02 0.  1.
</event>
<event>
 5   0  0.7073004E-03  0.9703769E+03  0.7818609E-02  0.9341645E-01
        1   -1    0    0  501    0  0.00000000000E+00  0.00000000000E+00  0.35330738576E+03  0.35330738580E+03  0.50400001928E-02 0. -1.
       -1   -1    0    0    0  501  0.00000000000E+00  0.00000000000E+00 -0.66629748742E+03  0.66629748744E+03  0.50400001928E-02 0.  1.
    10030    2    1    2    0    0  0.00000000000E+00  0.00000000000E+00 -0.31299010166E+03  0.10196048732E+04  0.97037688235E+03 0.  0.
        1    1    3    3  502    0 -0.42446235778E+03 -0.12530586847E+03 -0.36542401079E+03  0.57393776800E+03  0.50400001928E-02 0.  1.
       -1    1    3    3    0  502  0.42446235778E+03  0.12530586847E+03  0.52433909133E+02  0.44566710524E+03  0.50400001928E-02 0. -1.
</event>
<event>
 5   0  0.6967681E-03  0.1219934E+04  0.7818609E-02  0.9095585E-01
        1   -1    0    0  501    0  0.00000000000E+00  0.00000000000E+00  0.55662892613E+03  0.55662892615E+03  0.50400001928E-02 0. -1.
       -1   -1    0    0    0  501  0.00000000000E+00  0.00000000000E+00 -0.66841607538E+03  0.66841607540E+03  0.50400001928E-02 0.  1.
    10030    2    1    2    0    0  0.00000000000E+00  0.00000000000E+00 -0.11178714925E+03  0.12250450015E+04  0.12199339691E+04 0.  0.
        5    1    3    3  502    0 -0.39631369012E+03  0.44074422294E+03 -0.20043277997E+03  0.62571191480E+03  0.46999998093E+01 0. -1.
       -5    1    3    3    0  502  0.39631369012E+03 -0.44074422294E+03  0.88645630720E+02  0.59933308675E+03  0.46999998093E+01 0.  1.
</event>
<event>
 5   0  0.7461157E-03  0.9986591E+03  0.7818609E-02  0.9310017E-01
        1   -1    0    0  501    0  0.00000000000E+00  0.00000000000E+00  0.70576940028E+03  0.70576940030E+03  0.50400001928E-02 0. -1.
       -1   -1    0    0    0  501  0.00000000000E+00  0.00000000000E+00 -0.35327401630E+03  0.35327401633E+03  0.50400001928E-02 0.  1.
    10030    2    1    2    0    0  0.00000000000E+00  0.00000000000E+00  0.35249538398E+03  0.10590434166E+04  0.99865908226E+03 0.  0.
        2    1    3    3  502    0 -0.37046411761E+03  0.23437792807E+03 -0.77275224122E+02  0.44513833341E+03  0.25500000920E-02 0.  1.
       -2    1    3    3    0  502  0.37046411761E+03 -0.23437792807E+03  0.42977060811E+03  0.61390508322E+03  0.25500000920E-02 0. -1.
</event>
<event>
 5   0  0.1191822E-02  0.1005054E+04  0.7818609E-02  0.9303020E-01
        2   -1    0    0  501    0  0.00000000000E+00  0.00000000000E+00  0.12030577740E+04  0.12030577740E+04  0.25500000920E-02 0.  1.
       -2   -1    0    0    0  501  0.00000000000E+00  0.00000000000E+00 -0.20990939935E+03  0.20990939937E+03  0.25500000920E-02 0. -1.
    10030    2    1    2    0    0  0.00000000000E+00  0.00000000000E+00  0.99314837469E+03  0.14129671734E+04  0.10050535006E+04 0.  0.
        4    1    3    3  502    0  0.42492312624E+03 -0.26474535636E+03  0.43558899169E+03  0.66361822572E+03  0.12699999809E+01 0. -1.
       -4    1    3    3    0  502 -0.42492312624E+03  0.26474535636E+03  0.55755938301E+03  0.74934894769E+03  0.12699999809E+01 0.  1.
</event>
<event>
 5   0  0.1191822E-02  0.9907355E+03  0.7818609E-02  0.9318765E-01
        2   -1    0    0  501    0  0.00000000000E+00  0.00000000000E+00  0.86335969680E+03  0.86335969680E+03  0.25500000920E-02 0. -1.
       -2   -1    0    0    0  501  0.00000000000E+00  0.00000000000E+00 -0.28422594491E+03  0.28422594493E+03  0.25500000920E-02 0.  1.
    10030    2    1    2    0    0  0.00000000000E+00  0.00000000000E+00  0.57913375189E+03  0.11475856417E+04  0.99073553612E+03 0.  0.
        4    1    3    3  502    0  0.30072398922E+03 -0.18291066106E+03  0.69331362959E+03  0.77754525881E+03  0.12699999809E+01 0.  1.
       -4    1    3    3    0  502 -0.30072398922E+03  0.18291066106E+03 -0.11417987770E+03  0.37004038292E+03  0.12699999809E+01 0. -1.
</event>
<event>
 5   0  0.1240503E-02  0.9899630E+03  0.7818609E-02  0.9319622E-01
       -2   -1    0    0    0  501  0.00000000000E+00  0.00000000000E+00  0.13793607785E+03  0.13793607787E+03  0.25500000920E-02 0. -1.
        2   -1    0    0  501    0  0.00000000000E+00  0.00000000000E+00 -0.17762335071E+04  0.17762335071E+04  0.25500000920E-02 0.  1.
    10030    2    1    2    0    0  0.00000000000E+00  0.00000000000E+00 -0.16382974292E+04  0.19141695850E+04  0.98996299594E+03 0.  0.
        1    1    3    3  502    0 -0.41654812773E+03 -0.34074796275E+02 -0.30635606730E+03  0.51819636669E+03  0.50400001928E-02 0. -1.
       -1    1    3    3    0  502  0.41654812773E+03  0.34074796275E+02 -0.13319413619E+04  0.13959732183E+04  0.50400001928E-02 0.  1.
</event>
<event>
 5   0  0.7241200E-03  0.9991466E+03  0.7818609E-02  0.9309481E-01
        1   -1    0    0  501    0  0.00000000000E+00  0.00000000000E+00  0.89308088200E+03  0.89308088202E+03  0.50400001928E-02 0.  1.
       -1   -1    0    0    0  501  0.00000000000E+00  0.00000000000E+00 -0.27945229804E+03  0.27945229809E+03  0.50400001928E-02 0. -1.
    10030    2    1    2    0    0  0.00000000000E+00  0.00000000000E+00  0.61362858396E+03  0.11725331801E+04  0.99914664559E+03 0.  0.
        4    1    3    3  502    0  0.17949172672E+03  0.13259243698E+03  0.83133813494E+03  0.86076869240E+03  0.12699999809E+01 0.  1.
       -4    1    3    3    0  502 -0.17949172672E+03 -0.13259243698E+03 -0.21770955098E+03  0.31176448770E+03  0.12699999809E+01 0. -1.
</event>
<event>
 5   0  0.7241200E-03  0.9924825E+03  0.7818609E-02  0.9316828E-01
        1   -1    0    0  501    0  0.00000000000E+00  0.00000000000E+00  0.39878966025E+03  0.39878966028E+03  0.50400001928E-02 0. -1.
       -1   -1    0    0    0  501  0.00000000000E+00  0.00000000000E+00 -0.61750695364E+03  0.61750695366E+03  0.50400001928E-02 0.  1.
    10030    2    1    2    0    0  0.00000000000E+00  0.00000000000E+00 -0.21871729339E+03  0.10162966139E+04  0.99248252028E+03 0.  0.
        4    1    3    3  502    0 -0.30223069693E+03  0.31305738492E+01  0.29365906695E+03  0.42141482551E+03  0.12699999809E+01 0. -1.
       -4    1    3    3    0  502  0.30223069693E+03 -0.31305738492E+01 -0.51237636034E+03  0.59488178842E+03  0.12699999809E+01 0.  1.
</event>
<event>
 5   0  0.1221315E-02  0.1020381E+04  0.7818609E-02  0.9286469E-01
       -2   -1    0    0    0  501  0.00000000000E+00  0.00000000000E+00  0.16670024223E+03  0.16670024225E+03  0.25500000920E-02 0.  1.
        2   -1    0    0  501    0  0.00000000000E+00  0.00000000000E+00 -0.15614519920E+04  0.15614519920E+04  0.25500000920E-02 0. -1.
    10030    2    1    2    0    0  0.00000000000E+00  0.00000000000E+00 -0.13947517498E+04  0.17281522342E+04  0.10203811549E+04 0.  0.
        5    1    3    3  502    0  0.46827399984E+02 -0.41041815339E+02  0.16020369832E+03  0.17194345277E+03  0.46999998093E+01 0.  1.
       -5    1    3    3    0  502 -0.46827399984E+02  0.41041815339E+02 -0.15549554481E+04  0.15562087815E+04  0.46999998093E+01 0. -1.
</event>
<event>
 5   0  0.6967681E-03  0.1019182E+04  0.7818609E-02  0.9287753E-01
        1   -1    0    0  501    0  0.00000000000E+00  0.00000000000E+00  0.42430070699E+03  0.42430070702E+03  0.50400001928E-02 0. -1.
       -1   -1    0    0    0  501  0.00000000000E+00  0.00000000000E+00 -0.61202544877E+03  0.61202544879E+03  0.50400001928E-02 0.  1.
    10030    2    1    2    0    0  0.00000000000E+00  0.00000000000E+00 -0.18772474179E+03  0.10363261558E+04  0.10191816926E+04 0.  0.
        5    1    3    3  502    0 -0.15329754451E+03  0.21900240286E+03 -0.53497854620E+03  0.59806882924E+03  0.46999998093E+01 0.  1.
       -5    1    3    3    0  502  0.15329754451E+03 -0.21900240286E+03  0.34725380442E+03  0.43825732657E+03  0.46999998093E+01 0. -1.
</event>
<event>
 5   0  0.6967681E-03  0.1019458E+04  0.7818609E-02  0.9287457E-01
        1   -1    0    0  501    0  0.00000000000E+00  0.00000000000E+00  0.53263435459E+03  0.53263435461E+03  0.50400001928E-02 0.  1.
       -1   -1    0    0    0  501  0.00000000000E+00  0.00000000000E+00 -0.48780864886E+03  0.48780864889E+03  0.50400001928E-02 0. -1.
    10030    2    1    2    0    0  0.00000000000E+00  0.00000000000E+00  0.44825705729E+02  0.10204430035E+04  0.10194579832E+04 0.  0.
        5    1    3    3  502    0  0.19922944307E+03  0.22172963425E+02 -0.44667364894E+03  0.48961561448E+03  0.46999998093E+01 0. -1.
       -5    1    3    3    0  502 -0.19922944307E+03 -0.22172963425E+02  0.49149935467E+03  0.53082738901E+03  0.46999998093E+01 0.  1.
</event>
<event>
 5   0  0.1216322E-02  0.1091128E+04  0.7818609E-02  0.9213882E-01
        2   -1    0    0  501    0  0.00000000000E+00  0.00000000000E+00  0.81293099458E+03  0.81293099459E+03  0.25500000920E-02 0.  1.
       -2   -1    0    0    0  501  0.00000000000E+00  0.00000000000E+00 -0.36613228250E+03  0.36613228250E+03  0.25500000920E-02 0. -1.
    10030    2    1    2    0    0  0.00000000000E+00  0.00000000000E+00  0.44679871209E+03  0.11790632771E+04  0.10911283711E+04 0.  0.
        2    1    3    3  502    0  0.20585829302E+03 -0.24835043084E+03 -0.25204181600E+03  0.40936615679E+03  0.25500000920E-02 0. -1.
       -2    1    3    3    0  502 -0.20585829302E+03  0.24835043084E+03  0.69884052809E+03  0.76969712031E+03  0.25500000920E-02 0.  1.
</event>
<event>
 5   0  0.7224879E-03  0.9767333E+03  0.7818609E-02  0.9334438E-01
       -1   -1    0    0    0  501  0.00000000000E+00  0.00000000000E+00  0.21070083581E+03  0.21070083587E+03  0.50400001928E-02 0.  1.
        1   -1    0    0  501    0  0.00000000000E+00  0.00000000000E+00 -0.11319461414E+04  0.11319461415E+04  0.50400001928E-02 0. -1.
    10030    2    1    2    0    0  0.00000000000E+00  0.00000000000E+00 -0.92124530564E+03  0.13426469773E+04  0.97673332726E+03 0.  0.
        3    1    3    3  502    0 -0.47163851544E+03  0.94517930004E+02 -0.57665852558E+03  0.75094047278E+03  0.10100000352E+00 0. -1.
       -3    1    3    3    0  502  0.47163851544E+03 -0.94517930004E+02 -0.34458678006E+03  0.59170650455E+03  0.10100000352E+00 0.  1.
</event>
<event>
 5   0  0.1245850E-02  0.1002583E+04  0.7818609E-02  0.9305716E-01
        2   -1    0    0  501    0  0.00000000000E+00  0.00000000000E+00  0.73575991605E+03  0.73575991605E+03  0.25500000920E-02 0. -1.
       -2   -1    0    0    0  501  0.00000000000E+00  0.00000000000E+00 -0.34154257601E+03  0.34154257602E+03  0.25500000920E-02 0.  1.
    10030    2    1    2    0    0  0.00000000000E+00  0.00000000000E+00  0.39421734004E+03  0.10773024921E+04  0.10025833373E+04 0.  0.
        3    1    3    3  502    0  0.53649878264E+01  0.48869853983E+03  0.77269894544E+02  0.49479863857E+03  0.10100000352E+00 0.  1.
       -3    1    3    3    0  502 -0.53649878264E+01 -0.48869853983E+03  0.31694744550E+03  0.58250385350E+03  0.10100000352E+00 0. -1.
</event>
<event>
 5   0  0.4782125E-03  0.9807705E+03  0.7818609E-02  0.9329891E-01
        3   -1    0    0  501    0  0.00000000000E+00  0.00000000000E+00  0.52127690898E+03  0.52127691877E+03  0.10100000352E+00 0. -1.
       -3   -1    0    0    0  501  0.00000000000E+00  0.00000000000E+00 -0.46132422581E+03  0.46132423687E+03  0.10100000352E+00 0.  1.
    10030    2    1    2    0    0  0.00000000000E+00  0.00000000000E+00  0.59952683168E+02  0.98260115564E+03  0.98077046593E+03 0.  0.
        4    1    3    3  502    0 -0.42698953688E+03  0.22279730794E+03  0.12243814547E+03  0.49694206644E+03  0.12699999809E+01 0.  1.
       -4    1    3    3    0  502  0.42698953688E+03 -0.22279730794E+03 -0.62485462298E+02  0.48565908920E+03  0.12699999809E+01 0. -1.
</event>
<event>
 5   0  0.1191822E-02  0.1134053E+04  0.7818609E-02  0.9172622E-01
        2   -1    0    0  501    0  0.00000000000E+00  0.00000000000E+00  0.10753087946E+04  0.10753087947E+04  0.25500000920E-02 0.  1.
       -2   -1    0    0    0  501  0.00000000000E+00  0.00000000000E+00 -0.29900178098E+03  0.29900178100E+03  0.25500000920E-02 0. -1.
    10030    2    1    2    0    0  0.00000000000E+00  0.00000000000E+00  0.77630701366E+03  0.13743105756E+04  0.11340533404E+04 0.  0.
        4    1    3    3  502    0  0.16772937585E+03  0.53370948227E+03  0.50013511357E+03  0.75041035422E+03  0.12699999809E+01 0. -1.
       -4    1    3    3    0  502 -0.16772937585E+03 -0.53370948227E+03  0.27617190009E+03  0.62390022142E+03  0.12699999809E+01 0.  1.
</event>
<event>
 5   0  0.1191822E-02  0.1052721E+04  0.7818609E-02  0.9252540E-01
        2   -1    0    0  501    0  0.00000000000E+00  0.00000000000E+00  0.51191879548E+03  0.51191879548E+03  0.25500000920E-02 0.  1.
       -2   -1    0    0    0  501  0.00000000000E+00  0.00000000000E+00 -0.54120921146E+03  0.54120921146E+03  0.25500000920E-02 0. -1.
    10030    2    1    2    0    0  0.00000000000E+00  0.00000000000E+00 -0.29290415979E+02  0.10531280069E+04  0.10527206042E+04 0.  0.
        4    1    3    3  502    0 -0.24809745910E+03  0.46999151255E+02  0.44736929981E+03  0.51371409631E+03  0.12699999809E+01 0.  1.
       -4    1    3    3    0  502  0.24809745910E+03 -0.46999151255E+02 -0.47665971579E+03  0.53941391064E+03  0.12699999809E+01 0. -1.
</event>
<event>
 5   0  0.7461157E-03  0.9373100E+03  0.7818609E-02  0.9380108E-01
        1   -1    0    0  501    0  0.00000000000E+00  0.00000000000E+00  0.43692689072E+03  0.43692689075E+03  0.50400001928E-02 0. -1.
       -1   -1    0    0    0  501  0.00000000000E+00  0.00000000000E+00 -0.50268704215E+03  0.50268704217E+03  0.50400001928E-02 0.  1.
    10030    2    1    2    0    0  0.00000000000E+00  0.00000000000E+00 -0.65760151426E+02  0.93961393292E+03  0.93730995163E+03 0.  0.
        2    1    3    3  502    0 -0.11938580595E+03 -0.31517037722E+03 -0.35933705416E+03  0.49265449946E+03  0.25500000920E-02 0.  1.
       -2    1    3    3    0  502  0.11938580595E+03  0.31517037722E+03  0.29357690273E+03  0.44695943346E+03  0.25500000920E-02 0. -1.
</event>
<event>
 5   0  0.1240503E-02  0.1002374E+04  0.7818609E-02  0.9305944E-01
        2   -1    0    0  501    0  0.00000000000E+00  0.00000000000E+00  0.96577834686E+03  0.96577834687E+03  0.25500000920E-02 0. -1.
       -2   -1    0    0    0  501  0.00000000000E+00  0.00000000000E+00 -0.26008933085E+03  0.26008933086E+03  0.25500000920E-02 0.  1.
    10030    2    1    2    0    0  0.00000000000E+00  0.00000000000E+00  0.70568901601E+03  0.12258676777E+04  0.10023744689E+04 0.  0.
        1    1    3    3  502    0 -0.64111370119E+02 -0.26645015125E+03  0.86602712104E+03  0.90835506565E+03  0.50400001928E-02 0. -1.
       -1    1    3    3    0  502  0.64111370119E+02  0.26645015125E+03 -0.16033810503E+03  0.31751261208E+03  0.50400001928E-02 0.  1.
</event>
<event>
 5   0  0.7073004E-03  0.1005136E+04  0.7818609E-02  0.9302930E-01
        1   -1    0    0  501    0  0.00000000000E+00  0.00000000000E+00  0.14439155024E+04  0.14439155024E+04  0.50400001928E-02 0. -1.
       -1   -1    0    0    0  501  0.00000000000E+00  0.00000000000E+00 -0.17492329658E+03  0.17492329665E+03  0.50400001928E-02 0.  1.
    10030    2    1    2    0    0  0.00000000000E+00  0.00000000000E+00  0.12689922058E+04  0.16188387990E+04  0.10051357316E+04 0.  0.
        1    1    3    3  502    0 -0.11941301673E+03  0.45669940205E+03  0.91224612426E+03  0.10271449769E+04  0.50400001928E-02 0. -1.
       -1    1    3    3    0  502  0.11941301673E+03 -0.45669940205E+03  0.35674608153E+03  0.59169382210E+03  0.50400001928E-02 0.  1.
</event>
<event>
 5   0  0.6967681E-03  0.9900668E+03  0.7818609E-02  0.9319507E-01
       -1   -1    0    0    0  501  0.00000000000E+00  0.00000000000E+00  0.36791335630E+03  0.36791335633E+03  0.50400001928E-02 0.  1.
        1   -1    0    0  501    0  0.00000000000E+00  0.00000000000E+00 -0.66607551426E+03  0.66607551428E+03  0.50400001928E-02 0. -1.
    10030    2    1    2    0    0  0.00000000000E+00  0.00000000000E+00 -0.29816215796E+03  0.10339888706E+04  0.99006682205E+03 0.  0.
        5    1    3    3  502    0  0.41508328841E+03  0.22412232299E+03 -0.30577389977E+03  0.56217854794E+03  0.46999998093E+01 0. -1.
       -5    1    3    3    0  502 -0.41508328841E+03 -0.22412232299E+03  0.76117418064E+01  0.47181032268E+03  0.46999998093E+01 0.  1.
</event>
<event>
 5   0  0.1240503E-02  0.1010443E+04  0.7818609E-02  0.9297165E-01
       -2   -1    0    0    0  501  0.00000000000E+00  0.00000000000E+00  0.75642829656E+03  0.75642829656E+03  0.25500000920E-02 0.  1.
        2   -1    0    0  501    0  0.00000000000E+00  0.00000000000E+00 -0.33743918677E+03  0.33743918678E+03  0.25500000920E-02 0. -1.
    10030    2    1    2    0    0  0.00000000000E+00  0.00000000000E+00  0.41898910979E+03  0.10938674833E+04  0.10104425748E+04 0.  0.
        1    1    3    3  502    0  0.42294887983E+03 -0.16507787322E+03 -0.30414855841E+02  0.45504013302E+03  0.50400001928E-02 0. -1.
       -1    1    3    3    0  502 -0.42294887983E+03  0.16507787322E+03  0.44940396563E+03  0.63882735032E+03  0.50400001928E-02 0.  1.
</event>
<event>
 5   0  0.6967681E-03  0.9999858E+03  0.7818609E-02  0.9308560E-01
        1   -1    0    0  501    0  0.00000000000E+00  0.00000000000E+00  0.58799055867E+03  0.58799055869E+03  0.50400001928E-02 0.  1.
       -1   -1    0    0    0  501  0.00000000000E+00  0.00000000000E+00 -0.42516484732E+03  0.42516484735E+03  0.50400001928E-02 0. -1.
    10030    2    1    2    0    0  0.00000000000E+00  0.00000000000E+00  0.16282571135E+03  0.10131554060E+04  0.99998583216E+03 0.  0.
        5    1    3    3  502    0 -0.35030069256E+03 -0.15754160487E+03  0.40569191041E+03  0.55869307195E+03  0.46999998093E+01 0.  1.
       -5    1    3    3    0  502  0.35030069256E+03  0.15754160487E+03 -0.24286619906E+03  0.45446233410E+03  0.46999998093E+01 0. -1.
</event>
<event>
 5   0  0.7224879E-03  0.9893759E+03  0.7818609E-02  0.9320274E-01
       -1   -1    0    0    0  501  0.00000000000E+00  0.00000000000E+00  0.91043850818E+03  0.91043850819E+03  0.50400001928E-02 0. -1.
        1   -1    0    0  501    0  0.00000000000E+00  0.00000000000E+00 -0.26878935709E+03  0.26878935713E+03  0.50400001928E-02 0.  1.
    10030    2    1    2    0    0  0.00000000000E+00  0.00000000000E+00  0.64164915109E+03  0.11792278653E+04  0.98937592717E+03 0.  0.
        3    1    3    3  502    0  0.31270780618E+03  0.36055859053E+03  0.47589637590E+03  0.67399261127E+03  0.10100000352E+00 0. -1.
       -3    1    3    3    0  502 -0.31270780618E+03 -0.36055859053E+03  0.16575277519E+03  0.50523525405E+03  0.10100000352E+00 0.  1.
</event>
<event>
 5   0  0.7241200E-03  0.1019177E+04  0.7818609E-02  0.9287759E-01
       -1   -1    0    0    0  501  0.00000000000E+00  0.00000000000E+00  0.33329529183E+03  0.33329529187E+03  0.50400001928E-02 0.  1.
        1   -1    0    0  501    0  0.00000000000E+00  0.00000000000E+00 -0.77912982885E+03  0.77912982887E+03  0.50400001928E-02 0. -1.
    10030    2    1    2    0    0  0.00000000000E+00  0.00000000000E+00 -0.44583453702E+03  0.11124251207E+04  0.10191767339E+04 0.  0.
        4    1    3    3  502    0  0.22578010379E+03  0.38917707548E+03  0.38228737550E+02  0.45155121595E+03  0.12699999809E+01 0. -1.
       -4    1    3    3    0  502 -0.22578010379E+03 -0.38917707548E+03 -0.48406327457E+03  0.66087390479E+03  0.12699999809E+01 0.  1.
</event>
<event>
 5   0  0.1221315E-02  0.1010344E+04  0.7818609E-02  0.9297272E-01
       -2   -1    0    0    0  501  0.00000000000E+00  0.00000000000E+00  0.52802864335E+03  0.52802864335E+03  0.25500000920E-02 0.  1.
        2   -1    0    0  501    0  0.00000000000E+00  0.00000000000E+00 -0.48330460794E+03  0.48330460795E+03  0.25500000920E-02 0. -1.
    10030    2    1    2    0    0  0.00000000000E+00  0.00000000000E+00  0.44724035405E+02  0.10113332513E+04  0.10103438553E+04 0.  0.
        5    1    3    3  502    0 -0.44285047191E+03 -0.12744381219E+03 -0.18476601638E+03  0.49650683434E+03  0.46999998093E+01 0.  1.
       -5    1    3    3    0  502  0.44285047191E+03  0.12744381219E+03  0.22949005179E+03  0.51482641696E+03  0.46999998093E+01 0. -1.
</event>
<event>
 5   0  0.1240503E-02  0.1032572E+04  0.7818609E-02  0.9273525E-01
        2   -1    0    0  501    0  0.00000000000E+00  0.00000000000E+00  0.67315800103E+03  0.67315800104E+03  0.25500000920E-02 0. -1.
       -2   -1    0    0    0  501  0.00000000000E+00  0.00000000000E+00 -0.39597099357E+03  0.39597099358E+03  0.25500000920E-02 0.  1.
    10030    2    1    2    0    0  0.00000000000E+00  0.00000000000E+00  0.27718700746E+03  0.10691289946E+04  0.10325716295E+04 0.  0.
        1    1    3    3  502    0  0.57627150257E+02  0.43602341504E+03 -0.14137514823E+03  0.46197861365E+03  0.50400001928E-02 0.  1.
       -1    1    3    3    0  502 -0.57627150257E+02 -0.43602341504E+03  0.41856215569E+03  0.60715038097E+03  0.50400001928E-02 0. -1.
</event>
<event>
 5   0  0.7461157E-03  0.9803228E+03  0.7818609E-02  0.9330394E-01
        1   -1    0    0  501    0  0.00000000000E+00  0.00000000000E+00  0.38790044264E+03  0.38790044268E+03  0.50400001928E-02 0. -1.
       -1   -1    0    0    0  501  0.00000000000E+00  0.00000000000E+00 -0.61938107042E+03  0.61938107044E+03  0.50400001928E-02 0.  1.
    10030    2    1    2    0    0  0.00000000000E+00  0.00000000000E+00 -0.23148062778E+03  0.10072815131E+04  0.98032278645E+03 0.  0.
        2    1    3    3  502    0 -0.37216630383E+03  0.80724844944E+02  0.20134609413E+03  0.43077199065E+03  0.25500000920E-02 0. -1.
       -2    1    3    3    0  502  0.37216630383E+03 -0.80724844944E+02 -0.43282672191E+03  0.57650952247E+03  0.25500000920E-02 0.  1.
</event>
<event>
 5   0  0.6967681E-03  0.9843692E+03  0.7818609E-02  0.9325857E-01
       -1   -1    0    0    0  501  0.00000000000E+00  0.00000000000E+00  0.62765844961E+03  0.62765844963E+03  0.50400001928E-02 0. -1.
        1   -1    0    0  501    0  0.00000000000E+00  0.00000000000E+00 -0.38595141046E+03  0.38595141050E+03  0.50400001928E-02 0.  1.
    10030    2    1    2    0    0  0.00000000000E+00  0.00000000000E+00  0.24170703915E+03  0.10136098601E+04  0.98436916641E+03 0.  0.
        5    1    3    3  502    0 -0.22502938019E+03  0.40903695700E+03  0.28128314531E+03  0.54506123691E+03  0.46999998093E+01 0. -1.
       -5    1    3    3    0  502  0.22502938019E+03 -0.40903695700E+03 -0.39576106164E+02  0.46854862322E+03  0.46999998093E+01 0.  1.
</event>
<event>
 5   0  0.1245850E-02  0.9183039E+03  0.7818609E-02  0.9402985E-01
        2   -1    0    0  501    0  0.00000000000E+00  0.00000000000E+00  0.80123378748E+03  0.80123378748E+03  0.25500000920E-02 0. -1.
       -2   -1    0    0    0  501  0.00000000000E+00  0.00000000000E+00 -0.26311987068E+03  0.26311987069E+03  0.25500000920E-02 0.  1.
    10030    2    1    2    0    0  0.00000000000E+00  0.00000000000E+00  0.53811391680E+03  0.10643536582E+04  0.91830393782E+03 0.  0.
        3    1    3    3  502    0  0.12794781591E+03 -0.38568714585E+03  0.51681929483E+03  0.65744004425E+03  0.10100000352E+00 0. -1.
       -3    1    3    3    0  502 -0.12794781591E+03  0.38568714585E+03  0.21294621964E+02  0.40691361392E+03  0.10100000352E+00 0.  1.
</event>
<event>
 5   0  0.1240503E-02  0.9804212E+03  0.7818609E-02  0.9330283E-01
       -2   -1    0    0    0  501  0.00000000000E+00  0.00000000000E+00  0.31464414745E+03  0.31464414746E+03  0.25500000920E-02 0. -1.
        2   -1    0    0  501    0  0.00000000000E+00  0.00000000000E+00 -0.76374028193E+03  0.76374028193E+03  0.25500000920E-02 0.  1.
    10030    2    1    2    0    0  0.00000000000E+00  0.00000000000E+00 -0.44909613448E+03  0.10783844294E+04  0.98042115418E+03 0.  0.
        1    1    3    3  502    0  0.80501216245E+02 -0.38041672009E+03  0.10379051818E+03  0.40245471600E+03  0.50400001928E-02 0. -1.
       -1    1    3    3    0  502 -0.80501216245E+02  0.38041672009E+03 -0.55288665266E+03  0.67592971339E+03  0.50400001928E-02 0.  1.
</event>
<event>
 5   0  0.4782125E-03  0.1001133E+04  0.7818609E-02  0.9307303E-01
       -3   -1    0    0    0  501  0.00000000000E+00  0.00000000000E+00  0.63641088889E+03  0.63641089691E+03  0.10100000352E+00 0.  1.
        3   -1    0    0  501    0  0.00000000000E+00  0.00000000000E+00 -0.39371874232E+03  0.39371875527E+03  0.10100000352E+00 0. -1.
    10030    2    1    2    0    0  0.00000000000E+00  0.00000000000E+00  0.24269214657E+03  0.10301296522E+04  0.10011331691E+04 0.  0.
        3    1    3    3  502    0 -0.19572672711E+03  0.12760593629E+03  0.57685826728E+03  0.62238066921E+03  0.10100000352E+00 0.  1.
       -3    1    3    3    0  502  0.19572672711E+03 -0.12760593629E+03 -0.33416612071E+03  0.40774898297E+03  0.10100000352E+00 0. -1.
</event>
<event>
 5   0  0.6967681E-03  0.1000000E+04  0.7818609E-02  0.9308544E-01
       -1   -1    0    0    0  501  0.00000000000E+00  0.00000000000E+00  0.42771034521E+03  0.42771034524E+03  0.50400001928E-02 0.  1.
        1   -1    0    0  501    0  0.00000000000E+00  0.00000000000E+00 -0.58450810342E+03  0.58450810344E+03  0.50400001928E-02 0. -1.
    10030    2    1    2    0    0  0.00000000000E+00  0.00000000000E+00 -0.15679775821E+03  0.10122184487E+04  0.10000003254E+04 0.  0.
        5    1    3    3  502    0  0.11715416018E+03  0.20627952294E+03  0.36709409719E+03  0.43710010869E+03  0.46999998093E+01 0.  1.
       -5    1    3    3    0  502 -0.11715416018E+03 -0.20627952294E+03 -0.52389185540E+03  0.57511833998E+03  0.46999998093E+01 0. -1.
</event>
<event>
 5   0  0.7461157E-03  0.1022851E+04  0.7818609E-02  0.9283831E-01
        1   -1    0    0  501    0  0.00000000000E+00  0.00000000000E+00  0.24010829944E+03  0.24010829949E+03  0.50400001928E-02 0. -1.
       -1   -1    0    0    0  501  0.00000000000E+00  0.00000000000E+00 -0.10893258353E+04  0.10893258353E+04  0.50400001928E-02 0.  1.
    10030    2    1    2    0    0  0.00000000000E+00  0.00000000000E+00 -0.84921753586E+03  0.13294341348E+04  0.10228512578E+04 0.  0.
        2    1    3    3  502    0  0.46338853755E+03  0.11642527783E+03 -0.18752798490E+03  0.51327431962E+03  0.25500000920E-02 0. -1.
       -2    1    3    3    0  502 -0.46338853755E+03 -0.11642527783E+03 -0.66168955096E+03  0.81615981518E+03  0.25500000920E-02 0.  1.
</event>
<event>
 5   0  0.6967681E-03  0.1006384E+04  0.7818609E-02  0.9301571E-01
        1   -1    0    0  501    0  0.00000000000E+00  0.00000000000E+00  0.27920306858E+03  0.27920306862E+03  0.50400001928E-02 0.  1.
       -1   -1    0    0    0  501  0.00000000000E+00  0.00000000000E+00 -0.90687421059E+03  0.90687421061E+03  0.50400001928E-02 0. -1.
    10030    2    1    2    0    0  0.00000000000E+00  0.00000000000E+00 -0.62767114201E+03  0.11860772792E+04  0.10063837488E+04 0.  0.
        5    1    3    3  502    0 -0.54587686900E+02 -0.43000752940E+03 -0.12684127091E+02  0.43366953776E+03  0.46999998093E+01 0.  1.
       -5    1    3    3    0  502  0.54587686900E+02  0.43000752940E+03 -0.61498701492E+03  0.75240774147E+03  0.46999998093E+01 0. -1.
</event>
<event>
 5   0  0.7461157E-03  0.9971948E+03  0.7818609E-02  0.9311627E-01
       -1   -1    0    0    0  501  0.00000000000E+00  0.00000000000E+00  0.12067185493E+03  0.12067185503E+03  0.50400001928E-02 0. -1.
        1   -1    0    0  501    0  0.00000000000E+00  0.00000000000E+00 -0.20601273250E+04  0.20601273250E+04  0.50400001928E-02 0.  1.
    10030    2    1    2    0    0  0.00000000000E+00  0.00000000000E+00 -0.19394554701E+04  0.21807991801E+04  0.99719483717E+03 0.  0.
        2    1    3    3  502    0 -0.47761889593E+03  0.33402476769E+02 -0.66540702008E+03  0.81975730407E+03  0.25500000920E-02 0. -1.
       -2    1    3    3    0  502  0.47761889593E+03 -0.33402476769E+02 -0.12740484500E+04  0.13610418760E+04  0.25500000920E-02 0.  1.
</event>
<event>
 5   0  0.6967681E-03  0.9699419E+03  0.7818609E-02  0.9342141E-01
        1   -1    0    0  501    0  0.00000000000E+00  0.00000000000E+00  0.13481315195E+04  0.13481315195E+04  0.50400001928E-02 0.  1.
       -1   -1    0    0    0  501  0.00000000000E+00  0.00000000000E+00 -0.17446134558E+03  0.17446134566E+03  0.50400001928E-02 0. -1.
    10030    2    1    2    0    0  0.00000000000E+00  0.00000000000E+00  0.11736701739E+04  0.15225928652E+04  0.96994193430E+03 0.  0.
        5    1    3    3  502    0 -0.13809606055E+03  0.12352803165E+02  0.13163199808E+04  0.13236100240E+04  0.46999998093E+01 0.  1.
       -5    1    3    3    0  502  0.13809606055E+03 -0.12352803165E+02 -0.14264980689E+03  0.19898284119E+03  0.46999998093E+01 0. -1.
</event>
<event>
 5   0  0.4782125E-03  0.9817741E+03  0.7818609E-02  0.9328764E-01
        4   -1    0    0  501    0  0.00000000000E+00  0.00000000000E+00  0.41760403428E+03  0.41760596541E+03  0.12699999809E+01 0. -1.
       -4   -1    0    0    0  501  0.00000000000E+00  0.00000000000E+00 -0.57702614441E+03  0.57702754201E+03  0.12699999809E+01 0.  1.
    10030    2    1    2    0    0  0.00000000000E+00  0.00000000000E+00 -0.15942211013E+03  0.99463350741E+03  0.98177411092E+03 0.  0.
        3    1    3    3  502    0  0.36132018227E+02 -0.20023614648E+03 -0.53229505600E+03  0.56985794190E+03  0.10100000352E+00 0.  1.
       -3    1    3    3    0  502 -0.36132018227E+02  0.20023614648E+03  0.37287294587E+03  0.42477556552E+03  0.10100000352E+00 0. -1.
</event>
<event>
 5   0  0.1245850E-02  0.9967722E+03  0.7818609E-02  0.9312092E-01
        2   -1    0    0  501    0  0.00000000000E+00  0.00000000000E+00  0.34175756705E+03  0.34175756705E+03  0.25500000920E-02 0.  1.
       -2   -1    0    0    0  501  0.00000000000E+00  0.00000000000E+00 -0.72679795950E+03  0.72679795951E+03  0.25500000920E-02 0. -1.
    10030    2    1    2    0    0  0.00000000000E+00  0.00000000000E+00 -0.38504039246E+03  0.10685555266E+04  0.99677219540E+03 0.  0.
        3    1    3    3  502    0  0.43352660611E+03  0.12451291214E+03  0.34736805528E+02  0.45238859330E+03  0.10100000352E+00 0. -1.
       -3    1    3    3    0  502 -0.43352660611E+03 -0.12451291214E+03 -0.41977719798E+03  0.61616693326E+03  0.10100000352E+00 0.  1.
</event>
<event>
 5   0  0.1216322E-02  0.1000905E+04  0.7818609E-02  0.9307552E-01
       -2   -1    0    0    0  501  0.00000000000E+00  0.00000000000E+00  0.21303831929E+03  0.21303831931E+03  0.25500000920E-02 0. -1.
        2   -1    0    0  501    0  0.00000000000E+00  0.00000000000E+00 -0.11756234177E+04  0.11756234177E+04  0.25500000920E-02 0.  1.
    10030    2    1    2    0    0  0.00000000000E+00  0.00000000000E+00 -0.96258509845E+03  0.13886617371E+04  0.10009052644E+04 0.  0.
        2    1    3    3  502    0  0.34527925646E+03 -0.16057690335E+03 -0.93182601485E+03  0.10066292410E+04  0.25500000920E-02 0.  1.
       -2    1    3    3    0  502 -0.34527925646E+03  0.16057690335E+03 -0.30759083599E+02  0.38203249608E+03  0.25500000920E-02 0. -1.
</event>
<event>
 5   0  0.1240503E-02  0.1025038E+04  0.7818609E-02  0.9281502E-01
        2   -1    0    0  501    0  0.00000000000E+00  0.00000000000E+00  0.15264847892E+04  0.15264847892E+04  0.25500000920E-02 0. -1.
       -2   -1    0    0    0  501  0.00000000000E+00  0.00000000000E+00 -0.17207874098E+03  0.17207874100E+03  0.25500000920E-02 0.  1.
    10030    2    1    2    0    0  0.00000000000E+00  0.00000000000E+00  0.13544060482E+04  0.16985635302E+04  0.10250377177E+04 0.  0.
        1    1    3    3  502    0  0.17730211827E+02  0.13796273739E+03 -0.14020246349E+03  0.19749634962E+03  0.50400001928E-02 0.  1.
       -1    1    3    3    0  502 -0.17730211827E+02 -0.13796273739E+03  0.14946085117E+04  0.15010671806E+04  0.50400001928E-02 0. -1.
</event>
<event>
 5   0  0.7461157E-03  0.1021039E+04  0.7818609E-02  0.9285766E-01
       -1   -1    0    0    0  501  0.00000000000E+00  0.00000000000E+00  0.21445111468E+03  0.21445111474E+03  0.50400001928E-02 0.  1.
        1   -1    0    0  501    0  0.00000000000E+00  0.00000000000E+00 -0.12153349398E+04  0.12153349398E+04  0.50400001928E-02 0. -1.
    10030    2    1    2    0    0  0.00000000000E+00  0.00000000000E+00 -0.10008838251E+04  0.14297860545E+04  0.10210385548E+04 0.  0.
        2    1    3    3  502    0 -0.41705736839E+03  0.37453924860E+02 -0.91483915896E+02  0.42861282282E+03  0.25500000920E-02 0.  1.
       -2    1    3    3    0  502  0.41705736839E+03 -0.37453924860E+02 -0.90939990920E+03  0.10011732317E+04  0.25500000920E-02 0. -1.
</event>
<event>
 5   0  0.1191822E-02  0.1020090E+04  0.7818609E-02  0.9286781E-01
       -2   -1    0    0    0  501  0.00000000000E+00  0.00000000000E+00  0.17668325226E+03  0.17668325228E+03  0.25500000920E-02 0.  1.
        2   -1    0    0  501    0  0.00000000000E+00  0.00000000000E+00 -0.14723862714E+04  0.14723862714E+04  0.25500000920E-02 0. -1.
    10030    2    1    2    0    0  0.00000000000E+00  0.00000000000E+00 -0.12957030191E+04  0.16490695236E+04  0.10200901823E+04 0.  0.
        4    1    3    3  502    0  0.35643886345E+02 -0.51135001114E+02  0.17050030951E+03  0.18154129948E+03  0.12699999809E+01 0.  1.
       -4    1    3    3    0  502 -0.35643886345E+02  0.51135001114E+02 -0.14662033286E+04  0.14675282242E+04  0.12699999809E+01 0. -1.
</event>
<event>
 5   0  0.7073004E-03  0.9930905E+03  0.7818609E-02  0.9316156E-01
       -1   -1    0    0    0  501  0.00000000000E+00  0.00000000000E+00  0.59532560192E+03  0.59532560195E+03  0.50400001928E-02 0. -1.
        1   -1    0    0  501    0  0.00000000000E+00  0.00000000000E+00 -0.41415520093E+03  0.41415520096E+03  0.50400001928E-02 0.  1.
    10030    2    1    2    0    0  0.00000000000E+00  0.00000000000E+00  0.18117040099E+03  0.10094808029E+04  0.99309051815E+03 0.  0.
        1    1    3    3  502    0  0.38615555790E+03 -0.29948133676E+03  0.18008382158E+03  0.52080261980E+03  0.50400001928E-02 0.  1.
       -1    1    3    3    0  502 -0.38615555790E+03  0.29948133676E+03  0.10865794073E+01  0.48867818311E+03  0.50400001928E-02 0. -1.
</event>
<event>
 5   0  0.7241200E-03  0.1003750E+04  0.7818609E-02  0.9304441E-01
       -1   -1    0    0    0  501  0.00000000000E+00  0.00000000000E+00  0.25040634053E+03  0.25040634058E+03  0.50400001928E-02 0. -1.
        1   -1    0    0  501    0  0.00000000000E+00  0.00000000000E+00 -0.10058797432E+04  0.10058797432E+04  0.50400001928E-02 0.  1.
    10030    2    1    2    0    0  0.00000000000E+00  0.00000000000E+00 -0.75547340271E+03  0.12562860838E+04  0.10037502987E+04 0.  0.
        4    1    3    3  502    0 -0.25081617625E+03 -0.10791423432E+03 -0.90477863609E+03  0.94508212843E+03  0.12699999809E+01 0.  1.
       -4    1    3    3    0  502  0.25081617625E+03  0.10791423432E+03  0.14930523339E+03  0.31120395540E+03  0.12699999809E+01 0. -1.
</event>
<event>
 5   0  0.1245850E-02  0.9335583E+03  0.7818609E-02  0.9384578E-01
        2   -1    0    0  501    0  0.00000000000E+00  0.00000000000E+00  0.25235682542E+04  0.25235682542E+04  0.25500000920E-02 0. -1.
       -2   -1    0    0    0  501  0.00000000000E+00  0.00000000000E+00 -0.86339157450E+02  0.86339157488E+02  0.25500000920E-02 0.  1.
    10030    2    1    2    0    0  0.00000000000E+00  0.00000000000E+00  0.24372290967E+04  0.26099074117E+04  0.93355826146E+03 0.  0.
        3    1    3    3  502    0  0.27510864343E+03  0.36455476482E+03  0.14881859880E+04  0.15566895924E+04  0.10100000352E+00 0. -1.
       -3    1    3    3    0  502 -0.27510864343E+03 -0.36455476482E+03  0.94904310878E+03  0.10532178192E+04  0.10100000352E+00 0.  1.
</event>
<event>
 5   0  0.6967681E-03  0.1003710E+04  0.7818609E-02  0.9304485E-01
        1   -1    0    0  501    0  0.00000000000E+00  0.00000000000E+00  0.34994808314E+03  0.34994808318E+03  0.50400001928E-02 0. -1.
       -1   -1    0    0    0  501  0.00000000000E+00  0.00000000000E+00 -0.71970240366E+03  0.71970240368E+03  0.50400001928E-02 0.  1.
    10030    2    1    2    0    0  0.00000000000E+00  0.00000000000E+00 -0.36975432052E+03  0.10696504869E+04  0.10037100709E+04 0.  0.
        5    1    3    3  502    0  0.32631522352E+03 -0.37035384796E+03 -0.88416664001E+02  0.50148100090E+03  0.46999998093E+01 0. -1.
       -5    1    3    3    0  502 -0.32631522352E+03  0.37035384796E+03 -0.28133765652E+03  0.56816948595E+03  0.46999998093E+01 0.  1.
</event>
<event>
 5   0  0.1245850E-02  0.9991073E+03  0.7818609E-02  0.9309524E-01
       -2   -1    0    0    0  501  0.00000000000E+00  0.00000000000E+00  0.13602788884E+03  0.13602788886E+03  0.25500000920E-02 0.  1.
        2   -1    0    0  501    0  0.00000000000E+00  0.00000000000E+00 -0.18345785225E+04  0.18345785225E+04  0.25500000920E-02 0. -1.
    10030    2    1    2    0    0  0.00000000000E+00  0.00000000000E+00 -0.16985506337E+04  0.19706064114E+04  0.99910728824E+03 0.  0.
        3    1    3    3  502    0 -0.29145059808E+03 -0.31143832447E+03 -0.13621535586E+04  0.14273750763E+04  0.10100000352E+00 0. -1.
       -3    1    3    3    0  502  0.29145059808E+03  0.31143832447E+03 -0.33639707504E+03  0.54323133503E+03  0.10100000352E+00 0.  1.
</event>
<event>
 5   0  0.4782125E-03  0.9965915E+03  0.7818609E-02  0.9312291E-01
       -3   -1    0    0    0  501  0.00000000000E+00  0.00000000000E+00  0.23925199181E+03  0.23925201313E+03  0.10100000352E+00 0.  1.
        3   -1    0    0  501    0  0.00000000000E+00  0.00000000000E+00 -0.10378121709E+04  0.10378121758E+04  0.10100000352E+00 0. -1.
    10030    2    1    2    0    0  0.00000000000E+00  0.00000000000E+00 -0.79856017905E+03  0.12770641889E+04  0.99659148252E+03 0.  0.
        3    1    3    3  502    0  0.25328476725E+03  0.23257391270E+03 -0.86140439487E+03  0.92750274387E+03  0.10100000352E+00 0. -1.
       -3    1    3    3    0  502 -0.25328476725E+03 -0.23257391270E+03  0.62844215819E+02  0.34956144503E+03  0.10100000352E+00 0.  1.
</event>
<event>
 5   0  0.7241200E-03  0.1073669E+04  0.7818609E-02  0.9231242E-01
       -1   -1    0    0    0  501  0.00000000000E+00  0.00000000000E+00  0.90855059073E+03  0.90855059074E+03  0.50400001928E-02 0. -1.
        1   -1    0    0  501    0  0.00000000000E+00  0.00000000000E+00 -0.31719909965E+03  0.31719909969E+03  0.50400001928E-02 0.  1.
    10030    2    1    2    0    0  0.00000000000E+00  0.00000000000E+00  0.59135149108E+03  0.12257496904E+04  0.10736692776E+04 0.  0.
        4    1    3    3  502    0  0.24960153205E+03  0.44227533165E+03  0.49433985002E+03  0.70871848713E+03  0.12699999809E+01 0. -1.
       -4    1    3    3    0  502 -0.24960153205E+03 -0.44227533165E+03  0.97011641058E+02  0.51703120330E+03  0.12699999809E+01 0.  1.
</event>
<event>
 5   0  0.6967681E-03  0.9976421E+03  0.7818609E-02  0.9311135E-01
       -1   -1    0    0    0  501  0.00000000000E+00  0.00000000000E+00  0.24824922972E+03  0.24824922977E+03  0.50400001928E-02 0.  1.
        1   -1    0    0  501    0  0.00000000000E+00  0.00000000000E+00 -0.10023091065E+04  0.10023091065E+04  0.50400001928E-02 0. -1.
    10030    2    1    2    0    0  0.00000000000E+00  0.00000000000E+00 -0.75405987682E+03  0.12505583363E+04  0.99764214763E+03 0.  0.
        5    1    3    3  502    0  0.33426669545E+03 -0.32854917291E+03 -0.16311716628E+03  0.49629435081E+03  0.46999998093E+01 0.  1.
       -5    1    3    3    0  502 -0.33426669545E+03  0.32854917291E+03 -0.59094271054E+03  0.75426398552E+03  0.46999998093E+01 0. -1.
</event>
<event>
 5   0  0.1221315E-02  0.1049484E+04  0.7818609E-02  0.9255877E-01
       -2   -1    0    0    0  501  0.00000000000E+00  0.00000000000E+00  0.12784893449E+04  0.12784893449E+04  0.25500000920E-02 0. -1.
        2   -1    0    0  501    0  0.00000000000E+00  0.00000000000E+00 -0.21537458284E+03  0.21537458286E+03  0.25500000920E-02 0.  1.
    10030    2    1    2    0    0  0.00000000000E+00  0.00000000000E+00  0.10631147620E+04  0.14938639277E+04  0.10494838909E+04 0.  0.
        5    1    3    3  502    0 -0.37543844702E+03  0.76224118195E+02  0.21168155466E+02  0.38371125146E+03  0.46999998093E+01 0.  1.
       -5    1    3    3    0  502  0.37543844702E+03 -0.76224118195E+02  0.10419466066E+04  0.11101526763E+04  0.46999998093E+01 0. -1.
</event>
<event>
 5   0  0.7073004E-03  0.1008451E+04  0.7818609E-02  0.9299324E-01
       -1   -1    0    0    0  501  0.00000000000E+00  0.00000000000E+00  0.27243306414E+03  0.27243306419E+03  0.50400001928E-02 0.  1.
        1   -1    0    0  501    0  0.00000000000E+00  0.00000000000E+00 -0.93323279671E+03  0.93323279673E+03  0.50400001928E-02 0. -1.
    10030    2    1    2    0    0  0.00000000000E+00  0.00000000000E+00 -0.66079973257E+03  0.12056658609E+04  0.10084512292E+04 0.  0.
        1    1    3    3  502    0  0.13650205405E+01 -0.49813992968E+03 -0.42376259167E+03  0.65400304812E+03  0.50400001928E-02 0.  1.
       -1    1    3    3    0  502 -0.13650205405E+01  0.49813992968E+03 -0.23703714090E+03  0.55166281279E+03  0.50400001928E-02 0. -1.
</event>
<event>
 5   0  0.1221315E-02  0.9971742E+03  0.7818609E-02  0.9311649E-01
        2   -1    0    0  501    0  0.00000000000E+00  0.00000000000E+00  0.99674834358E+03  0.99674834358E+03  0.25500000920E-02 0.  1.
       -2   -1    0    0    0  501  0.00000000000E+00  0.00000000000E+00 -0.24940007381E+03  0.24940007383E+03  0.25500000920E-02 0. -1.
    10030    2    1    2    0    0  0.00000000000E+00  0.00000000000E+00  0.74734826977E+03  0.12461484174E+04  0.99717422845E+03 0.  0.
        5    1    3    3  502    0  0.44285946735E+03 -0.31223950770E+01  0.87519952649E+02  0.45145995314E+03  0.46999998093E+01 0.  1.
       -5    1    3    3    0  502 -0.44285946735E+03  0.31223950770E+01  0.65982831712E+03  0.79468846427E+03  0.46999998093E+01 0. -1.
</event>
<event>
 5   0  0.7461157E-03  0.9967488E+03  0.7818609E-02  0.9312118E-01
        1   -1    0    0  501    0  0.00000000000E+00  0.00000000000E+00  0.56611838247E+03  0.56611838249E+03  0.50400001928E-02 0.  1.
       -1   -1    0    0    0  501  0.00000000000E+00  0.00000000000E+00 -0.43873692474E+03  0.43873692477E+03  0.50400001928E-02 0. -1.
    10030    2    1    2    0    0  0.00000000000E+00  0.00000000000E+00  0.12738145773E+03  0.10048553073E+04  0.99674879120E+03 0.  0.
        2    1    3    3  502    0 -0.24963312551E+03 -0.13201423929E+03  0.47767949570E+03  0.55490734123E+03  0.25500000920E-02 0.  1.
       -2    1    3    3    0  502  0.24963312551E+03  0.13201423929E+03 -0.35029803797E+03  0.44994796603E+03  0.25500000920E-02 0. -1.
</event>
<event>
 5   0  0.7224879E-03  0.9983701E+03  0.7818609E-02  0.9310334E-01
        1   -1    0    0  501    0  0.00000000000E+00  0.00000000000E+00  0.72296483828E+03  0.72296483830E+03  0.50400001928E-02 0. -1.
       -1   -1    0    0    0  501  0.00000000000E+00  0.00000000000E+00 -0.34467193643E+03  0.34467193647E+03  0.50400001928E-02 0.  1.
    10030    2    1    2    0    0  0.00000000000E+00  0.00000000000E+00  0.37829290185E+03  0.10676367748E+04  0.99837005326E+03 0.  0.
        3    1    3    3  502    0 -0.10446427249E+03 -0.75964545091E+02 -0.32649235152E+03  0.35111346049E+03  0.10100000352E+00 0.  1.
       -3    1    3    3    0  502  0.10446427249E+03  0.75964545091E+02  0.70478525337E+03  0.71652331428E+03  0.10100000352E+00 0. -1.
</event>
<event>
 5   0  0.4782125E-03  0.1010445E+04  0.7818609E-02  0.9297162E-01
       -3   -1    0    0    0  501  0.00000000000E+00  0.00000000000E+00  0.76072060603E+03  0.76072061273E+03  0.10100000352E+00 0. -1.
        3   -1    0    0  501    0  0.00000000000E+00  0.00000000000E+00 -0.33553691820E+03  0.33553693341E+03  0.10100000352E+00 0.  1.
    10030    2    1    2    0    0  0.00000000000E+00  0.00000000000E+00  0.42518368782E+03  0.10962575461E+04  0.10104451688E+04 0.  0.
        3    1    3    3  502    0  0.21711740890E+03 -0.37884318718E+03 -0.63132314969E+02  0.44118910811E+03  0.10100000352E+00 0.  1.
       -3    1    3    3    0  502 -0.21711740890E+03  0.37884318718E+03  0.48831600279E+03  0.65506843803E+03  0.10100000352E+00 0. -1.
</event>
<event>
 5   0  0.6967681E-03  0.1010524E+04  0.7818609E-02  0.9297077E-01
       -1   -1    0    0    0  501  0.00000000000E+00  0.00000000000E+00  0.91828788890E+03  0.91828788891E+03  0.50400001928E-02 0.  1.
        1   -1    0    0  501    0  0.00000000000E+00  0.00000000000E+00 -0.27800603310E+03  0.27800603314E+03  0.50400001928E-02 0. -1.
    10030    2    1    2    0    0  0.00000000000E+00  0.00000000000E+00  0.64028185580E+03  0.11962939221E+04  0.10105237717E+04 0.  0.
        5    1    3    3  502    0 -0.27673720142E+03  0.24939806669E+03  0.72418211174E+03  0.81439836400E+03  0.46999998093E+01 0.  1.
       -5    1    3    3    0  502  0.27673720142E+03 -0.24939806669E+03 -0.83900255937E+02  0.38189555806E+03  0.46999998093E+01 0. -1.
</event>
<event>
 5   0  0.1216322E-02  0.1013261E+04  0.7818609E-02  0.9294119E-01
        2   -1    0    0  501    0  0.00000000000E+00  0.00000000000E+00  0.17411729481E+03  0.17411729483E+03  0.25500000920E-02 0. -1.
       -2   -1    0    0    0  501  0.00000000000E+00  0.00000000000E+00 -0.14741454501E+04  0.14741454501E+04  0.25500000920E-02 0.  1.
    10030    2    1    2    0    0  0.00000000000E+00  0.00000000000E+00 -0.13000281553E+04  0.16482627450E+04  0.10132605153E+04 0.  0.
        2    1    3    3  502    0 -0.13454554289E+03  0.14239094305E+03 -0.14100405922E+04  0.14235842635E+04  0.25500000920E-02 0.  1.
       -2    1    3    3    0  502  0.13454554289E+03 -0.14239094305E+03  0.11001243682E+03  0.22467848147E+03  0.25500000920E-02 0. -1.
</event>
<event>
 5   0  0.1240503E-02  0.1005810E+04  0.7818609E-02  0.9302195E-01
       -2   -1    0    0    0  501  0.00000000000E+00  0.00000000000E+00  0.20792065459E+03  0.20792065460E+03  0.25500000920E-02 0. -1.
        2   -1    0    0  501    0  0.00000000000E+00  0.00000000000E+00 -0.12163937322E+04  0.12163937322E+04  0.25500000920E-02 0.  1.
    10030    2    1    2    0    0  0.00000000000E+00  0.00000000000E+00 -0.10084730776E+04  0.14243143868E+04  0.10058098847E+04 0.  0.
        1    1    3    3  502    0  0.50287303562E+03 -0.48571655584E+01 -0.50836486509E+03  0.71508021795E+03  0.50400001928E-02 0.  1.
       -1    1    3    3    0  502 -0.50287303562E+03  0.48571655584E+01 -0.50010821250E+03  0.70923416884E+03  0.50400001928E-02 0. -1.
</event>
<event>
 5   0  0.7073004E-03  0.1028247E+04  0.7818609E-02  0.9278095E-01
       -1   -1    0    0    0  501  0.00000000000E+00  0.00000000000E+00  0.31328903511E+03  0.31328903515E+03  0.50400001928E-02 0.  1.
        1   -1    0    0  501    0  0.00000000000E+00  0.00000000000E+00 -0.84370316805E+03  0.84370316806E+03  0.50400001928E-02 0. -1.
    10030    2    1    2    0    0  0.00000000000E+00  0.00000000000E+00 -0.53041413294E+03  0.11569922032E+04  0.10282469576E+04 0.  0.
        1    1    3    3  502    0 -0.19748003096E+03  0.42027299772E+03 -0.16907444049E+02  0.46466505886E+03  0.50400001928E-02 0.  1.
       -1    1    3    3    0  502  0.19748003096E+03 -0.42027299772E+03 -0.51350668889E+03  0.69232714435E+03  0.50400001928E-02 0. -1.
</event>
<event>
 5   0  0.7224879E-03  0.1017337E+04  0.7818609E-02  0.9289731E-01
        1   -1    0    0  501    0  0.00000000000E+00  0.00000000000E+00  0.83106534964E+03  0.83106534966E+03  0.50400001928E-02 0. -1.
       -1   -1    0    0    0  501  0.00000000000E+00  0.00000000000E+00 -0.31133996023E+03  0.31133996027E+03  0.50400001928E-02 0.  1.
    10030    2    1    2    0    0  0.00000000000E+00  0.00000000000E+00  0.51972538941E+03  0.11424053099E+04  0.10173374129E+04 0.  0.
        3    1    3    3  502    0 -0.19444294773E+03  0.76147114109E+02 -0.26098788831E+03  0.33424711062E+03  0.10100000352E+00 0.  1.
       -3    1    3    3    0  502  0.19444294773E+03 -0.76147114109E+02  0.78071327772E+03  0.80815819931E+03  0.10100000352E+00 0. -1.
</event>
<event>
 5   0  0.7224879E-03  0.1004682E+04  0.7818609E-02  0.9303425E-01
       -1   -1    0    0    0  501  0.00000000000E+00  0.00000000000E+00  0.11168596190E+03  0.11168596201E+03  0.50400001928E-02 0. -1.
        1   -1    0    0  501    0  0.00000000000E+00  0.00000000000E+00 -0.22594274071E+04  0.22594274071E+04  0.50400001928E-02 0.  1.
    10030    2    1    2    0    0  0.00000000000E+00  0.00000000000E+00 -0.21477414452E+04  0.23711133692E+04  0.10046816878E+04 0.  0.
        3    1    3    3  502    0 -0.28704195292E+03  0.27324203640E+03 -0.34533290665E+03  0.52565113888E+03  0.10100000352E+00 0. -1.
       -3    1    3    3    0  502  0.28704195292E+03 -0.27324203640E+03 -0.18024085386E+04  0.18454622303E+04  0.10100000352E+00 0.  1.
</event>
<event>
 5   0  0.7461157E-03  0.9819306E+03  0.7818609E-02  0.9328588E-01
        1   -1    0    0  501    0  0.00000000000E+00  0.00000000000E+00  0.61657505915E+03  0.61657505917E+03  0.50400001928E-02 0.  1.
       -1   -1    0    0    0  501  0.00000000000E+00  0.00000000000E+00 -0.39094497414E+03  0.39094497417E+03  0.50400001928E-02 0. -1.
    10030    2    1    2    0    0  0.00000000000E+00  0.00000000000E+00  0.22563008501E+03  0.10075200333E+04  0.98193058935E+03 0.  0.
        2    1    3    3  502    0 -0.25668114281E+02  0.19902660371E+03  0.57257306724E+03  0.60672098893E+03  0.25500000920E-02 0.  1.
       -2    1    3    3    0  502  0.25668114281E+02 -0.19902660371E+03 -0.34694298223E+03  0.40079904441E+03  0.25500000920E-02 0. -1.
</event>
<event>
 5   0  0.1240503E-02  0.9248115E+03  0.7818609E-02  0.9395086E-01
       -2   -1    0    0    0  501  0.00000000000E+00  0.00000000000E+00  0.77499412249E+03  0.77499412249E+03  0.25500000920E-02 0.  1.
        2   -1    0    0  501    0  0.00000000000E+00  0.00000000000E+00 -0.27589767476E+03  0.27589767477E+03  0.25500000920E-02 0. -1.
    10030    2    1    2    0    0  0.00000000000E+00  0.00000000000E+00  0.49909644773E+03  0.10508917973E+04  0.92481149723E+03 0.  0.
        1    1    3    3  502    0  0.76749535173E+02 -0.25401458039E+03  0.67986393082E+03  0.72981426586E+03  0.50400001928E-02 0.  1.
       -1    1    3    3    0  502 -0.76749535173E+02  0.25401458039E+03 -0.18076748309E+03  0.32107753140E+03  0.50400001928E-02 0. -1.
</event>
<event>
 5   0  0.1245850E-02  0.8414184E+03  0.7818609E-02  0.9501928E-01
       -2   -1    0    0    0  501  0.00000000000E+00  0.00000000000E+00  0.87919642955E+03  0.87919642955E+03  0.25500000920E-02 0. -1.
        2   -1    0    0  501    0  0.00000000000E+00  0.00000000000E+00 -0.20131592974E+03  0.20131592975E+03  0.25500000920E-02 0.  1.
    10030    2    1    2    0    0  0.00000000000E+00  0.00000000000E+00  0.67788049981E+03  0.10805123593E+04  0.84141843727E+03 0.  0.
        3    1    3    3  502    0  0.41939235268E+03 -0.31120746948E+02  0.35401418625E+03  0.54971310758E+03  0.10100000352E+00 0.  1.
       -3    1    3    3    0  502 -0.41939235268E+03  0.31120746948E+02  0.32386631356E+03  0.53079925173E+03  0.10100000352E+00 0. -1.
</event>
<event>
 5   0  0.7224879E-03  0.1025258E+04  0.7818609E-02  0.9281268E-01
       -1   -1    0    0    0  501  0.00000000000E+00  0.00000000000E+00  0.57961677886E+03  0.57961677888E+03  0.50400001928E-02 0.  1.
        1   -1    0    0  501    0  0.00000000000E+00  0.00000000000E+00 -0.45338328138E+03  0.45338328141E+03  0.50400001928E-02 0. -1.
    10030    2    1    2    0    0  0.00000000000E+00  0.00000000000E+00  0.12623349747E+03  0.10330000603E+04  0.10252581278E+04 0.  0.
        3    1    3    3  502    0 -0.11624972074E+03  0.19574286252E+03 -0.39965458033E+03  0.45994897498E+03  0.10100000352E+00 0. -1.
       -3    1    3    3    0  502  0.11624972074E+03 -0.19574286252E+03  0.52588807781E+03  0.57305108532E+03  0.10100000352E+00 0.  1.
</event>
<event>
 5   0  0.1191822E-02  0.9852416E+03  0.7818609E-02  0.9324881E-01
       -2   -1    0    0    0  501  0.00000000000E+00  0.00000000000E+00  0.79136821243E+03  0.79136821243E+03  0.25500000920E-02 0. -1.
        2   -1    0    0  501    0  0.00000000000E+00  0.00000000000E+00 -0.30665275902E+03  0.30665275903E+03  0.25500000920E-02 0.  1.
    10030    2    1    2    0    0  0.00000000000E+00  0.00000000000E+00  0.48471545341E+03  0.10980209715E+04  0.98524158611E+03 0.  0.
        4    1    3    3  502    0 -0.12433542369E+03 -0.46950294365E+03  0.15058258642E+03  0.50849684356E+03  0.12699999809E+01 0.  1.
       -4    1    3    3    0  502  0.12433542369E+03  0.46950294365E+03  0.33413286698E+03  0.58952412790E+03  0.12699999809E+01 0. -1.
</event>
<event>
 5   0  0.7224879E-03  0.1016310E+04  0.7818609E-02  0.9290835E-01
        1   -1    0    0  501    0  0.00000000000E+00  0.00000000000E+00  0.44772313232E+03  0.44772313235E+03  0.50400001928E-02 0. -1.
       -1   -1    0    0    0  501  0.00000000000E+00  0.00000000000E+00 -0.57674320909E+03  0.57674320911E+03  0.50400001928E-02 0.  1.
    10030    2    1    2    0    0  0.00000000000E+00  0.00000000000E+00 -0.12902007677E+03  0.10244663415E+04  0.10163095516E+04 0.  0.
        3    1    3    3  502    0  0.95740206450E+02  0.72785653000E+02 -0.56219042651E+03  0.57491044892E+03  0.10100000352E+00 0.  1.
       -3    1    3    3    0  502 -0.95740206450E+02 -0.72785653000E+02  0.43317034975E+03  0.44955589254E+03  0.10100000352E+00 0. -1.
</event>
<event>
 5   0  0.7224879E-03  0.9659038E+03  0.7818609E-02  0.9346752E-01
        1   -1    0    0  501    0  0.00000000000E+00  0.00000000000E+00  0.94060876250E+03  0.94060876251E+03  0.50400001928E-02 0. -1.
       -1   -1    0    0    0  501  0.00000000000E+00  0.00000000000E+00 -0.24796974533E+03  0.24796974539E+03  0.50400001928E-02 0.  1.
    10030    2    1    2    0    0  0.00000000000E+00  0.00000000000E+00  0.69263901716E+03  0.11885785079E+04  0.96590375366E+03 0.  0.
        3    1    3    3  502    0  0.21104342960E+03  0.37716663867E+02  0.87884505798E+03  0.90461622915E+03  0.10100000352E+00 0. -1.
       -3    1    3    3    0  502 -0.21104342960E+03 -0.37716663867E+02 -0.18620604082E+03  0.28396227874E+03  0.10100000352E+00 0.  1.
</event>
<event>
 5   0  0.1245850E-02  0.1003976E+04  0.7818609E-02  0.9304195E-01
        2   -1    0    0  501    0  0.00000000000E+00  0.00000000000E+00  0.43211802301E+03  0.43211802301E+03  0.25500000920E-02 0.  1.
       -2   -1    0    0    0  501  0.00000000000E+00  0.00000000000E+00 -0.58315538397E+03  0.58315538398E+03  0.25500000920E-02 0. -1.
    10030    2    1    2    0    0  0.00000000000E+00  0.00000000000E+00 -0.15103736097E+03  0.10152734070E+04  0.10039759990E+04 0.  0.
        3    1    3    3  502    0  0.21176752423E+03 -0.42108204682E+03  0.99157083003E+02  0.48165102697E+03  0.10100000352E+00 0.  1.
       -3    1    3    3    0  502 -0.21176752423E+03  0.42108204682E+03 -0.25019444397E+03  0.53362238003E+03  0.10100000352E+00 0. -1.
</event>
<event>
 5   0  0.7241200E-03  0.1008854E+04  0.7818609E-02  0.9298887E-01
        1   -1    0    0  501    0  0.00000000000E+00  0.00000000000E+00  0.46316465518E+03  0.46316465520E+03  0.50400001928E-02 0.  1.
       -1   -1    0    0    0  501  0.00000000000E+00  0.00000000000E+00 -0.54936505507E+03  0.54936505509E+03  0.50400001928E-02 0. -1.
    10030    2    1    2    0    0  0.00000000000E+00  0.00000000000E+00 -0.86200399892E+02  0.10125297103E+04  0.10088537581E+04 0.  0.
        4    1    3    3  502    0  0.11684476558E+03  0.36959557793E+03  0.28086266524E+03  0.47868469800E+03  0.12699999809E+01 0.  1.
       -4    1    3    3    0  502 -0.11684476558E+03 -0.36959557793E+03 -0.36706306513E+03  0.53384501230E+03  0.12699999809E+01 0. -1.
</event>
<event>
 5   0  0.7224879E-03  0.1093738E+04  0.7818609E-02  0.9211316E-01
       -1   -1    0    0    0  501  0.00000000000E+00  0.00000000000E+00  0.69199078933E+03  0.69199078935E+03  0.50400001928E-02 0. -1.
        1   -1    0    0  501    0  0.00000000000E+00  0.00000000000E+00 -0.43218190083E+03  0.43218190086E+03  0.50400001928E-02 0.  1.
    10030    2    1    2    0    0  0.00000000000E+00  0.00000000000E+00  0.25980888850E+03  0.11241726902E+04  0.10937383503E+04 0.  0.
        3    1    3    3  502    0  0.93507645359E+02  0.47238526974E+03 -0.13648766997E+03  0.50052014651E+03  0.10100000352E+00 0.  1.
       -3    1    3    3    0  502 -0.93507645359E+02 -0.47238526974E+03  0.39629655847E+03  0.62365254370E+03  0.10100000352E+00 0. -1.
</event>
<event>
 5   0  0.1216322E-02  0.9837626E+03  0.7818609E-02  0.9326535E-01
       -2   -1    0    0    0  501  0.00000000000E+00  0.00000000000E+00  0.55105153188E+03  0.55105153189E+03  0.25500000920E-02 0. -1.
        2   -1    0    0  501    0  0.00000000000E+00  0.00000000000E+00 -0.43906459922E+03  0.43906459923E+03  0.25500000920E-02 0.  1.
    10030    2    1    2    0    0  0.00000000000E+00  0.00000000000E+00  0.11198693266E+03  0.99011613111E+03  0.98376261364E+03 0.  0.
        2    1    3    3  502    0 -0.18186717283E+03  0.18280466325E+03 -0.36558407555E+03  0.44737560255E+03  0.25500000920E-02 0.  1.
       -2    1    3    3    0  502  0.18186717283E+03 -0.18280466325E+03  0.47757100821E+03  0.54274052856E+03  0.25500000920E-02 0. -1.
</event>
<event>
 5   0  0.7241200E-03  0.9373688E+03  0.7818609E-02  0.9380038E-01
       -1   -1    0    0    0  501  0.00000000000E+00  0.00000000000E+00  0.13539602019E+04  0.13539602019E+04  0.50400001928E-02 0. -1.
        1   -1    0    0  501    0  0.00000000000E+00  0.00000000000E+00 -0.16223894118E+03  0.16223894126E+03  0.50400001928E-02 0.  1.
    10030    2    1    2    0    0  0.00000000000E+00  0.00000000000E+00  0.11917212607E+04  0.15161991431E+04  0.93736880600E+03 0.  0.
        4    1    3    3  502    0 -0.19490732444E+02 -0.35995759452E+03  0.11138035754E+03  0.37730167698E+03  0.12699999809E+01 0.  1.
       -4    1    3    3    0  502  0.19490732444E+02  0.35995759452E+03  0.10803409031E+04  0.11388974661E+04  0.12699999809E+01 0. -1.
</event>
<event>
 5   0  0.1240503E-02  0.9896044E+03  0.7818609E-02  0.9320021E-01
       -2   -1    0    0    0  501  0.00000000000E+00  0.00000000000E+00  0.27076219591E+03  0.27076219592E+03  0.25500000920E-02 0. -1.
        2   -1    0    0  501    0  0.00000000000E+00  0.00000000000E+00 -0.90422231327E+03  0.90422231327E+03  0.25500000920E-02 0.  1.
    10030    2    1    2    0    0  0.00000000000E+00  0.00000000000E+00 -0.63346011736E+03  0.11749845092E+04  0.98960440407E+03 0.  0.
        1    1    3    3  502    0 -0.33964447502E+03 -0.35389043832E+03 -0.23948614813E+03  0.54584835525E+03  0.50400001928E-02 0.  1.
       -1    1    3    3    0  502  0.33964447502E+03  0.35389043832E+03 -0.39397396923E+03  0.62913615395E+03  0.50400001928E-02 0. -1.
</event>
<event>
 5   0  0.4782125E-03  0.9940216E+03  0.7818609E-02  0.9315126E-01
        4   -1    0    0  501    0  0.00000000000E+00  0.00000000000E+00  0.35329551434E+03  0.35329779698E+03  0.12699999809E+01 0. -1.
       -4   -1    0    0    0  501  0.00000000000E+00  0.00000000000E+00 -0.69918224586E+03  0.69918339928E+03  0.12699999809E+01 0.  1.
    10030    2    1    2    0    0  0.00000000000E+00  0.00000000000E+00 -0.34588673152E+03  0.10524811963E+04  0.99402164838E+03 0.  0.
        5    1    3    3  502    0  0.39263710408E+03 -0.20176594245E+03  0.68791074936E+02  0.44679714975E+03  0.46999998093E+01 0. -1.
       -5    1    3    3    0  502 -0.39263710408E+03  0.20176594245E+03 -0.41467780645E+03  0.60568404651E+03  0.46999998093E+01 0.  1.
</event>
<event>
 5   0  0.7241200E-03  0.1016908E+04  0.7818609E-02  0.9290193E-01
       -1   -1    0    0    0  501  0.00000000000E+00  0.00000000000E+00  0.30471310940E+03  0.30471310944E+03  0.50400001928E-02 0. -1.
        1   -1    0    0  501    0  0.00000000000E+00  0.00000000000E+00 -0.84842233009E+03  0.84842233010E+03  0.50400001928E-02 0.  1.
    10030    2    1    2    0    0  0.00000000000E+00  0.00000000000E+00 -0.54370922069E+03  0.11531354395E+04  0.10169078745E+04 0.  0.
        4    1    3    3  502    0  0.17126229872E+03  0.34687360070E+03 -0.64601366402E+03  0.75298561529E+03  0.12699999809E+01 0.  1.
       -4    1    3    3    0  502 -0.17126229872E+03 -0.34687360070E+03  0.10230444334E+03  0.40014982425E+03  0.12699999809E+01 0. -1.
</event>
<event>
 5   0  0.1245850E-02  0.1048640E+04  0.7818609E-02  0.9256750E-01
       -2   -1    0    0    0  501  0.00000000000E+00  0.00000000000E+00  0.14234071369E+03  0.14234071371E+03  0.25500000920E-02 0.  1.
        2   -1    0    0  501    0  0.00000000000E+00  0.00000000000E+00 -0.19313603735E+04  0.19313603735E+04  0.25500000920E-02 0. -1.
    10030    2    1    2    0    0  0.00000000000E+00  0.00000000000E+00 -0.17890196598E+04  0.20737010872E+04  0.10486395262E+04 0.  0.
        3    1    3    3  502    0  0.13872397281E+03 -0.33226094292E+03 -0.16482248952E+04  0.16870942446E+04  0.10100000352E+00 0. -1.
       -3    1    3    3    0  502 -0.13872397281E+03  0.33226094292E+03 -0.14079476466E+03  0.38660684265E+03  0.10100000352E+00 0.  1.
</event>
<event>
 5   0  0.7224879E-03  0.1014743E+04  0.7818609E-02  0.9292521E-01
        1   -1    0    0  501    0  0.00000000000E+00  0.00000000000E+00  0.47482958488E+03  0.47482958491E+03  0.50400001928E-02 0. -1.
       -1   -1    0    0    0  501  0.00000000000E+00  0.00000000000E+00 -0.54214344073E+03  0.54214344075E+03  0.50400001928E-02 0.  1.
    10030    2    1    2    0    0  0.00000000000E+00  0.00000000000E+00 -0.67313855851E+02  0.10169730257E+04  0.10147428146E+04 0.  0.
        3    1    3    3  502    0  0.46068776302E+03  0.85443376656E+02 -0.22874329522E+03  0.52139935838E+03  0.10100000352E+00 0. -1.
       -3    1    3    3    0  502 -0.46068776302E+03 -0.85443376656E+02  0.16142943937E+03  0.49557366728E+03  0.10100000352E+00 0.  1.
</event>
<event>
 5   0  0.1216322E-02  0.9840852E+03  0.7818609E-02  0.9326174E-01
        2   -1    0    0  501    0  0.00000000000E+00  0.00000000000E+00  0.34089460483E+03  0.34089460484E+03  0.25500000920E-02 0.  1.
       -2   -1    0    0    0  501  0.00000000000E+00  0.00000000000E+00 -0.71020760089E+03  0.71020760090E+03  0.25500000920E-02 0. -1.
    10030    2    1    2    0    0  0.00000000000E+00  0.00000000000E+00 -0.36931299607E+03  0.10511022057E+04  0.98408523911E+03 0.  0.
        2    1    3    3  502    0  0.36426419869E+03 -0.22093479487E+03 -0.44760318885E+03  0.61793948305E+03  0.25500000920E-02 0. -1.
       -2    1    3    3    0  502 -0.36426419869E+03  0.22093479487E+03  0.78290192779E+02  0.43316272269E+03  0.25500000920E-02 0.  1.
</event>
<event>
 5   0  0.1245850E-02  0.1006125E+04  0.7818609E-02  0.9301852E-01
       -2   -1    0    0    0  501  0.00000000000E+00  0.00000000000E+00  0.29411195575E+03  0.29411195576E+03  0.25500000920E-02 0. -1.
        2   -1    0    0  501    0  0.00000000000E+00  0.00000000000E+00 -0.86046104355E+03  0.86046104355E+03  0.25500000920E-02 0.  1.
    10030    2    1    2    0    0  0.00000000000E+00  0.00000000000E+00 -0.56634908780E+03  0.11545729993E+04  0.10061250029E+04 0.  0.
        3    1    3    3  502    0  0.34986234136E+03  0.35335660211E+03 -0.19572501298E+03  0.53439015434E+03  0.10100000352E+00 0.  1.
       -3    1    3    3    0  502 -0.34986234136E+03 -0.35335660211E+03 -0.37062407482E+03  0.62018284497E+03  0.10100000352E+00 0. -1.
</event>
<event>
 5   0  0.1216322E-02  0.9972845E+03  0.7818609E-02  0.9311528E-01
       -2   -1    0    0    0  501  0.00000000000E+00  0.00000000000E+00  0.29634236845E+03  0.29634236846E+03  0.25500000920E-02 0. -1.
        2   -1    0    0  501    0  0.00000000000E+00  0.00000000000E+00 -0.83904330495E+03  0.83904330495E+03  0.25500000920E-02 0.  1.
    10030    2    1    2    0    0  0.00000000000E+00  0.00000000000E+00 -0.54270093650E+03  0.11353856734E+04  0.99728447341E+03 0.  0.
        2    1    3    3  502    0  0.26026070465E+03  0.11968253082E+03  0.19331638792E+03  0.34558756982E+03  0.25500000920E-02 0. -1.
       -2    1    3    3    0  502 -0.26026070465E+03 -0.11968253082E+03 -0.73601732443E+03  0.78979810359E+03  0.25500000920E-02 0.  1.
</event>
<event>
 5   0  0.1216322E-02  0.1044260E+04  0.7818609E-02  0.9261290E-01
       -2   -1    0    0    0  501  0.00000000000E+00  0.00000000000E+00  0.10242175473E+04  0.10242175473E+04  0.25500000920E-02 0.  1.
        2   -1    0    0  501    0  0.00000000000E+00  0.00000000000E+00 -0.26617369410E+03  0.26617369412E+03  0.25500000920E-02 0. -1.
    10030    2    1    2    0    0  0.00000000000E+00  0.00000000000E+00  0.75804385316E+03  0.12903912414E+04  0.10442600598E+04 0.  0.
        2    1    3    3  502    0 -0.89433160118E+02 -0.44625813674E+03  0.62829836647E+02  0.45944771533E+03  0.25500000920E-02 0. -1.
       -2    1    3    3    0  502  0.89433160118E+02  0.44625813674E+03  0.69521401652E+03  0.83094352606E+03  0.25500000920E-02 0.  1.
</event>
<event>
 5   0  0.6967681E-03  0.9652325E+03  0.7818609E-02  0.9347521E-01
        1   -1    0    0  501    0  0.00000000000E+00  0.00000000000E+00  0.74022809393E+03  0.74022809395E+03  0.50400001928E-02 0.  1.
       -1   -1    0    0    0  501  0.00000000000E+00  0.00000000000E+00 -0.31465767000E+03  0.31465767004E+03  0.50400001928E-02 0. -1.
    10030    2    1    2    0    0  0.00000000000E+00  0.00000000000E+00  0.42557042393E+03  0.10548857640E+04  0.96523250533E+03 0.  0.
        5    1    3    3  502    0  0.25369154543E+03 -0.26962961854E+02  0.66048032537E+03  0.70805561344E+03  0.46999998093E+01 0.  1.
       -5    1    3    3    0  502 -0.25369154543E+03  0.26962961854E+02 -0.23490990144E+03  0.34683015054E+03  0.46999998093E+01 0. -1.
</event>
<event>
 5   0  0.7241200E-03  0.9949567E+03  0.7818609E-02  0.9314094E-01
        1   -1    0    0  501    0  0.00000000000E+00  0.00000000000E+00  0.68374323777E+03  0.68374323779E+03  0.50400001928E-02 0. -1.
       -1   -1    0    0    0  501  0.00000000000E+00  0.00000000000E+00 -0.36195562420E+03  0.36195562423E+03  0.50400001928E-02 0.  1.
    10030    2    1    2    0    0  0.00000000000E+00  0.00000000000E+00  0.32178761357E+03  0.10456988620E+04  0.99495670347E+03 0.  0.
        4    1    3    3  502    0  0.52482000052E+02 -0.31517855297E+03 -0.23985435492E+03  0.39952922929E+03  0.12699999809E+01 0.  1.
       -4    1    3    3    0  502 -0.52482000052E+02  0.31517855297E+03  0.56164196849E+03  0.64616963273E+03  0.12699999809E+01 0. -1.
</event>
<event>
 5   0  0.1216322E-02  0.9937660E+03  0.7818609E-02  0.9315409E-01
       -2   -1    0    0    0  501  0.00000000000E+00  0.00000000000E+00  0.24456033694E+03  0.24456033695E+03  0.25500000920E-02 0. -1.
        2   -1    0    0  501    0  0.00000000000E+00  0.00000000000E+00 -0.10095369643E+04  0.10095369643E+04  0.25500000920E-02 0.  1.
    10030    2    1    2    0    0  0.00000000000E+00  0.00000000000E+00 -0.76497662738E+03  0.12540973013E+04  0.99376596873E+03 0.  0.
        2    1    3    3  502    0 -0.82351766880E+02 -0.43943953307E+02 -0.99837326176E+03  0.10027273081E+04  0.25500000920E-02 0.  1.
       -2    1    3    3    0  502  0.82351766880E+02  0.43943953307E+02  0.23339663437E+03  0.25136999321E+03  0.25500000920E-02 0. -1.
</event>
<event>
 5   0  0.1216322E-02  0.1010278E+04  0.7818609E-02  0.9297343E-01
       -2   -1    0    0    0  501  0.00000000000E+00  0.00000000000E+00  0.60952851207E+03  0.60952851207E+03  0.25500000920E-02 0.  1.
        2   -1    0    0  501    0  0.00000000000E+00  0.00000000000E+00 -0.41862772540E+03  0.41862772541E+03  0.25500000920E-02 0. -1.
    10030    2    1    2    0    0  0.00000000000E+00  0.00000000000E+00  0.19090078666E+03  0.10281562375E+04  0.10102782480E+04 0.  0.
        2    1    3    3  502    0  0.42207568835E+03  0.27752031251E+03  0.95808797430E+02  0.51414466468E+03  0.25500000920E-02 0. -1.
       -2    1    3    3    0  502 -0.42207568835E+03 -0.27752031251E+03  0.95091989234E+02  0.51401157280E+03  0.25500000920E-02 0.  1.
</event>
<event>
 5   0  0.4782125E-03  0.1000455E+04  0.7818609E-02  0.9308046E-01
        3   -1    0    0  501    0  0.00000000000E+00  0.00000000000E+00  0.26006965122E+03  0.26006967083E+03  0.10100000352E+00 0.  1.
       -3   -1    0    0    0  501  0.00000000000E+00  0.00000000000E+00 -0.96215582078E+03  0.96215582609E+03  0.10100000352E+00 0. -1.
    10030    2    1    2    0    0  0.00000000000E+00  0.00000000000E+00 -0.70208616956E+03  0.12222254969E+04  0.10004549844E+04 0.  0.
        2    1    3    3  502    0  0.31422878889E+03  0.21166612832E+03 -0.75007350149E+03  0.84032882807E+03  0.25500000920E-02 0. -1.
       -2    1    3    3    0  502 -0.31422878889E+03 -0.21166612832E+03  0.47987331926E+02  0.38189666885E+03  0.25500000920E-02 0.  1.
</event>
<event>
 5   0  0.1245850E-02  0.1001480E+04  0.7818609E-02  0.9306923E-01
       -2   -1    0    0    0  501  0.00000000000E+00  0.00000000000E+00  0.37184536442E+03  0.37184536443E+03  0.25500000920E-02 0. -1.
        2   -1    0    0  501    0  0.00000000000E+00  0.00000000000E+00 -0.67431355749E+03  0.67431355749E+03  0.25500000920E-02 0.  1.
    10030    2    1    2    0    0  0.00000000000E+00  0.00000000000E+00 -0.30246819307E+03  0.10461589219E+04  0.10014796464E+04 0.  0.
        3    1    3    3  502    0 -0.17572120334E+03  0.25583128592E+03  0.25925076559E+03  0.40439900818E+03  0.10100000352E+00 0. -1.
       -3    1    3    3    0  502  0.17572120334E+03 -0.25583128592E+03 -0.56171895866E+03  0.64175991373E+03  0.10100000352E+00 0.  1.
</event>
<event>
 5   0  0.4782125E-03  0.1005033E+04  0.7818609E-02  0.9303041E-01
       -4   -1    0    0    0  501  0.00000000000E+00  0.00000000000E+00  0.59861669886E+03  0.59861804605E+03  0.12699999809E+01 0.  1.
        4   -1    0    0  501    0  0.00000000000E+00  0.00000000000E+00 -0.42184151199E+03  0.42184342372E+03  0.12699999809E+01 0. -1.
    10030    2    1    2    0    0  0.00000000000E+00  0.00000000000E+00  0.17677518687E+03  0.10204614698E+04  0.10050334047E+04 0.  0.
        1    1    3    3  502    0  0.42342746916E+03 -0.18160445890E+03  0.29209650830E+03  0.54551935926E+03  0.50400001928E-02 0.  1.
       -1    1    3    3    0  502 -0.42342746916E+03  0.18160445890E+03 -0.11532132143E+03  0.47494211051E+03  0.50400001928E-02 0. -1.
</event>
<event>
 5   0  0.7073004E-03  0.7109574E+03  0.7818609E-02  0.9698675E-01
        1   -1    0    0  501    0  0.00000000000E+00  0.00000000000E+00  0.48707896453E+03  0.48707896455E+03  0.50400001928E-02 0.  1.
       -1   -1    0    0    0  501  0.00000000000E+00  0.00000000000E+00 -0.25943454374E+03  0.25943454379E+03  0.50400001928E-02 0. -1.
    10030    2    1    2    0    0  0.00000000000E+00  0.00000000000E+00  0.22764442078E+03  0.74651350835E+03  0.71095740789E+03 0.  0.
        1    1    3    3  502    0  0.24555837082E+03 -0.21211972715E+03  0.26624185896E+03  0.41973613094E+03  0.50400001928E-02 0.  1.
       -1    1    3    3    0  502 -0.24555837082E+03  0.21211972715E+03 -0.38597438180E+02  0.32677737741E+03  0.50400001928E-02 0. -1.
</event>
<event>
 5   0  0.1216322E-02  0.1007651E+04  0.7818609E-02  0.9300193E-01
        2   -1    0    0  501    0  0.00000000000E+00  0.00000000000E+00  0.39421904598E+03  0.39421904598E+03  0.25500000920E-02 0.  1.
       -2   -1    0    0    0  501  0.00000000000E+00  0.00000000000E+00 -0.64390665737E+03  0.64390665737E+03  0.25500000920E-02 0. -1.
    10030    2    1    2    0    0  0.00000000000E+00  0.00000000000E+00 -0.24968761139E+03  0.10381257034E+04  0.10076512654E+04 0.  0.
        2    1    3    3  502    0  0.34497247302E+03  0.96146981569E+02 -0.48994836173E+03  0.60687696148E+03  0.25500000920E-02 0. -1.
       -2    1    3    3    0  502 -0.34497247302E+03 -0.96146981569E+02  0.24026075034E+03  0.43124874187E+03  0.25500000920E-02 0.  1.
</event>
<event>
 5   0  0.1221315E-02  0.9720536E+03  0.7818609E-02  0.9339738E-01
        2   -1    0    0  501    0  0.00000000000E+00  0.00000000000E+00  0.94011348667E+03  0.94011348668E+03  0.25500000920E-02 0.  1.
       -2   -1    0    0    0  501  0.00000000000E+00  0.00000000000E+00 -0.25126971471E+03  0.25126971472E+03  0.25500000920E-02 0. -1.
    10030    2    1    2    0    0  0.00000000000E+00  0.00000000000E+00  0.68884377196E+03  0.11913832014E+04  0.97205359441E+03 0.  0.
        5    1    3    3  502    0  0.64772378029E+02  0.31603061887E+03 -0.10109131115E+03  0.33810110353E+03  0.46999998093E+01 0. -1.
       -5    1    3    3    0  502 -0.64772378029E+02 -0.31603061887E+03  0.78993508311E+03  0.85328209787E+03  0.46999998093E+01 0.  1.
</event>
<event>
 5   0  0.4782125E-03  0.1000398E+04  0.7818609E-02  0.9308108E-01
       -4   -1    0    0    0  501  0.00000000000E+00  0.00000000000E+00  0.34109669100E+03  0.34109905528E+03  0.12699999809E+01 0. -1.
        4   -1    0    0  501    0  0.00000000000E+00  0.00000000000E+00 -0.73350865315E+03  0.73350975259E+03  0.12699999809E+01 0.  1.
    10030    2    1    2    0    0  0.00000000000E+00  0.00000000000E+00 -0.39241196215E+03  0.10746088079E+04  0.10003983916E+04 0.  0.
        1    1    3    3  502    0  0.39490341882E+03  0.30023867593E+03 -0.12736395341E+03  0.51216554879E+03  0.50400001928E-02 0. -1.
       -1    1    3    3    0  502 -0.39490341882E+03 -0.30023867593E+03 -0.26504800874E+03  0.56244325908E+03  0.50400001928E-02 0.  1.
</event>
<event>
 5   0  0.6967681E-03  0.9977926E+03  0.7818609E-02  0.9310969E-01
       -1   -1    0    0    0  501  0.00000000000E+00  0.00000000000E+00  0.20755627751E+03  0.20755627757E+03  0.50400001928E-02 0. -1.
        1   -1    0    0  501    0  0.00000000000E+00  0.00000000000E+00 -0.11991809057E+04  0.11991809057E+04  0.50400001928E-02 0.  1.
    10030    2    1    2    0    0  0.00000000000E+00  0.00000000000E+00 -0.99162462820E+03  0.14067371833E+04  0.99779261352E+03 0.  0.
        5    1    3    3  502    0 -0.15981301091E+03  0.26554320148E+03 -0.10469570774E+04  0.10918766424E+04  0.46999998093E+01 0.  1.
       -5    1    3    3    0  502  0.15981301091E+03 -0.26554320148E+03  0.55332449153E+02  0.31486054093E+03  0.46999998093E+01 0. -1.
</event>
<event>
 5   0  0.1191822E-02  0.1000679E+04  0.7818609E-02  0.9307800E-01
        2   -1    0    0  501    0  0.00000000000E+00  0.00000000000E+00  0.23655083473E+03  0.23655083475E+03  0.25500000920E-02 0.  1.
       -2   -1    0    0    0  501  0.00000000000E+00  0.00000000000E+00 -0.10582910810E+04  0.10582910810E+04  0.25500000920E-02 0. -1.
    10030    2    1    2    0    0  0.00000000000E+00  0.00000000000E+00 -0.82174024629E+03  0.12948419158E+04  0.10006790467E+04 0.  0.
        4    1    3    3  502    0 -0.48231786231E+03  0.56286733343E+02 -0.56689499257E+03  0.74643838470E+03  0.12699999809E+01 0. -1.
       -4    1    3    3    0  502  0.48231786231E+03 -0.56286733343E+02 -0.25484525373E+03  0.54840353108E+03  0.12699999809E+01 0.  1.
</event>
<event>
 5   0  0.7224879E-03  0.9921100E+03  0.7818609E-02  0.9317241E-01
       -1   -1    0    0    0  501  0.00000000000E+00  0.00000000000E+00  0.24638207516E+03  0.24638207521E+03  0.50400001928E-02 0.  1.
        1   -1    0    0  501    0  0.00000000000E+00  0.00000000000E+00 -0.99873573594E+03  0.99873573596E+03  0.50400001928E-02 0. -1.
    10030    2    1    2    0    0  0.00000000000E+00  0.00000000000E+00 -0.75235366079E+03  0.12451178112E+04  0.99211004066E+03 0.  0.
        3    1    3    3  502    0  0.42550734139E+02 -0.13122220664E+03 -0.97417863974E+03  0.98389728368E+03  0.10100000352E+00 0. -1.
       -3    1    3    3    0  502 -0.42550734139E+02  0.13122220664E+03  0.22182497896E+03  0.26122052749E+03  0.10100000352E+00 0.  1.
</event>
<event>
 5   0  0.7461157E-03  0.1048371E+04  0.7818609E-02  0.9257028E-01
        1   -1    0    0  501    0  0.00000000000E+00  0.00000000000E+00  0.15683530798E+04  0.15683530798E+04  0.50400001928E-02 0. -1.
       -1   -1    0    0    0  501  0.00000000000E+00  0.00000000000E+00 -0.17519677179E+03  0.17519677186E+03  0.50400001928E-02 0.  1.
    10030    2    1    2    0    0  0.00000000000E+00  0.00000000000E+00  0.13931563080E+04  0.17435498517E+04  0.10483709204E+04 0.  0.
        2    1    3    3  502    0 -0.21766056796E+03  0.23151043915E+03  0.32468981869E+01  0.31777940247E+03  0.25500000920E-02 0.  1.
       -2    1    3    3    0  502  0.21766056796E+03 -0.23151043915E+03  0.13899094098E+04  0.14257704492E+04  0.25500000920E-02 0. -1.
</event>
<event>
 5   0  0.1216322E-02  0.1002738E+04  0.7818609E-02  0.9305547E-01
        2   -1    0    0  501    0  0.00000000000E+00  0.00000000000E+00  0.41401192428E+03  0.41401192429E+03  0.25500000920E-02 0. -1.
       -2   -1    0    0    0  501  0.00000000000E+00  0.00000000000E+00 -0.60715877781E+03  0.60715877781E+03  0.25500000920E-02 0.  1.
    10030    2    1    2    0    0  0.00000000000E+00  0.00000000000E+00 -0.19314685352E+03  0.10211707021E+04  0.10027381990E+04 0.  0.
        2    1    3    3  502    0 -0.18829008494E+03  0.10153708942E+03  0.36520201274E+03  0.42324395652E+03  0.25500000920E-02 0. -1.
       -2    1    3    3    0  502  0.18829008494E+03 -0.10153708942E+03 -0.55834886627E+03  0.59792674558E+03  0.25500000920E-02 0.  1.
</event>
<event>
 5   0  0.1221315E-02  0.9429054E+03  0.7818609E-02  0.9373482E-01
       -2   -1    0    0    0  501  0.00000000000E+00  0.00000000000E+00  0.11552423174E+04  0.11552423174E+04  0.25500000920E-02 0. -1.
        2   -1    0    0  501    0  0.00000000000E+00  0.00000000000E+00 -0.19239915151E+03  0.19239915152E+03  0.25500000920E-02 0.  1.
    10030    2    1    2    0    0  0.00000000000E+00  0.00000000000E+00  0.96284316592E+03  0.13476414690E+04  0.94290538586E+03 0.  0.
        5    1    3    3  502    0  0.22577191458E+03 -0.32959454382E+03  0.83913253057E+03  0.92939282039E+03  0.46999998093E+01 0. -1.
       -5    1    3    3    0  502 -0.22577191458E+03  0.32959454382E+03  0.12371063535E+03  0.41824864856E+03  0.46999998093E+01 0.  1.
</event>
<event>
 5   0  0.7241200E-03  0.1004233E+04  0.7818609E-02  0.9303914E-01
       -1   -1    0    0    0  501  0.00000000000E+00  0.00000000000E+00  0.27067090521E+03  0.27067090526E+03  0.50400001928E-02 0.  1.
        1   -1    0    0  501    0  0.00000000000E+00  0.00000000000E+00 -0.93146662735E+03  0.93146662736E+03  0.50400001928E-02 0. -1.
    10030    2    1    2    0    0  0.00000000000E+00  0.00000000000E+00 -0.66079572214E+03  0.12021375326E+04  0.10042328719E+04 0.  0.
        4    1    3    3  502    0 -0.10717621537E+03  0.16381731163E+03  0.22310512474E+03  0.29681705193E+03  0.12699999809E+01 0.  1.
       -4    1    3    3    0  502  0.10717621537E+03 -0.16381731163E+03 -0.88390084688E+03  0.90532048068E+03  0.12699999809E+01 0. -1.
</event>
<event>
 5   0  0.1221315E-02  0.1045492E+04  0.7818609E-02  0.9260011E-01
       -2   -1    0    0    0  501  0.00000000000E+00  0.00000000000E+00  0.25634120104E+03  0.25634120106E+03  0.25500000920E-02 0. -1.
        2   -1    0    0  501    0  0.00000000000E+00  0.00000000000E+00 -0.10660141977E+04  0.10660141977E+04  0.25500000920E-02 0.  1.
    10030    2    1    2    0    0  0.00000000000E+00  0.00000000000E+00 -0.80967299665E+03  0.13223553988E+04  0.10454919603E+04 0.  0.
        5    1    3    3  502    0 -0.36329442745E+01  0.23041986801E+02 -0.10653288385E+04  0.10655945550E+04  0.46999998093E+01 0.  1.
       -5    1    3    3    0  502  0.36329442745E+01 -0.23041986801E+02  0.25565584184E+03  0.25676084379E+03  0.46999998093E+01 0. -1.
</event>
<event>
 5   0  0.4782125E-03  0.1001790E+04  0.7818609E-02  0.9306584E-01
       -3   -1    0    0    0  501  0.00000000000E+00  0.00000000000E+00  0.49757838281E+03  0.49757839306E+03  0.10100000352E+00 0. -1.
        3   -1    0    0  501    0  0.00000000000E+00  0.00000000000E+00 -0.50423332852E+03  0.50423333864E+03  0.10100000352E+00 0.  1.
    10030    2    1    2    0    0  0.00000000000E+00  0.00000000000E+00 -0.66549457129E+01  0.10018117317E+04  0.10017896274E+04 0.  0.
        5    1    3    3  502    0  0.17081356186E+02 -0.29383703823E+03 -0.40860366833E+03  0.50359807936E+03  0.46999998093E+01 0.  1.
       -5    1    3    3    0  502 -0.17081356186E+02  0.29383703823E+03  0.40194872262E+03  0.49821365234E+03  0.46999998093E+01 0. -1.
</event>
<event>
 5   0  0.7224879E-03  0.1001960E+04  0.7818609E-02  0.9306398E-01
        1   -1    0    0  501    0  0.00000000000E+00  0.00000000000E+00  0.98300196544E+03  0.98300196545E+03  0.50400001928E-02 0. -1.
       -1   -1    0    0    0  501  0.00000000000E+00  0.00000000000E+00 -0.25532097130E+03  0.25532097135E+03  0.50400001928E-02 0.  1.
    10030    2    1    2    0    0  0.00000000000E+00  0.00000000000E+00  0.72768099414E+03  0.12383229368E+04  0.10019601123E+04 0.  0.
        3    1    3    3  502    0  0.42769492354E+03 -0.29091774895E+02  0.43430532984E+02  0.43087759327E+03  0.10100000352E+00 0.  1.
       -3    1    3    3    0  502 -0.42769492354E+03  0.29091774895E+02  0.68425046115E+03  0.80744534353E+03  0.10100000352E+00 0. -1.
</event>
<event>
 5   0  0.1216322E-02  0.9936166E+03  0.7818609E-02  0.9315574E-01
       -2   -1    0    0    0  501  0.00000000000E+00  0.00000000000E+00  0.49013705158E+03  0.49013705159E+03  0.25500000920E-02 0.  1.
        2   -1    0    0  501    0  0.00000000000E+00  0.00000000000E+00 -0.50357037952E+03  0.50357037953E+03  0.25500000920E-02 0. -1.
    10030    2    1    2    0    0  0.00000000000E+00  0.00000000000E+00 -0.13433327937E+02  0.99370743111E+03  0.99361662846E+03 0.  0.
        2    1    3    3  502    0 -0.40526857773E+03 -0.87784549237E+02 -0.28036504898E+03  0.50055300207E+03  0.25500000920E-02 0. -1.
       -2    1    3    3    0  502  0.40526857773E+03  0.87784549237E+02  0.26693172104E+03  0.49315442905E+03  0.25500000920E-02 0.  1.
</event>
<event>
 5   0  0.1245850E-02  0.9988191E+03  0.7818609E-02  0.9309841E-01
        2   -1    0    0  501    0  0.00000000000E+00  0.00000000000E+00  0.74151769156E+03  0.74151769156E+03  0.25500000920E-02 0.  1.
       -2   -1    0    0    0  501  0.00000000000E+00  0.00000000000E+00 -0.33635053734E+03  0.33635053735E+03  0.25500000920E-02 0. -1.
    10030    2    1    2    0    0  0.00000000000E+00  0.00000000000E+00  0.40516715421E+03  0.10778682289E+04  0.99881905070E+03 0.  0.
        3    1    3    3  502    0 -0.65905345428E+02  0.45122942522E+03 -0.17144162049E+02  0.45633917346E+03  0.10100000352E+00 0. -1.
       -3    1    3    3    0  502  0.65905345428E+02 -0.45122942522E+03  0.42231131626E+03  0.62152905546E+03  0.10100000352E+00 0.  1.
</event>
<event>
 5   0  0.1240503E-02  0.9914968E+03  0.7818609E-02  0.9317920E-01
       -2   -1    0    0    0  501  0.00000000000E+00  0.00000000000E+00  0.22173140490E+03  0.22173140492E+03  0.25500000920E-02 0. -1.
        2   -1    0    0  501    0  0.00000000000E+00  0.00000000000E+00 -0.11083972126E+04  0.11083972126E+04  0.25500000920E-02 0.  1.
    10030    2    1    2    0    0  0.00000000000E+00  0.00000000000E+00 -0.88666580771E+03  0.13301286175E+04  0.99149679002E+03 0.  0.
        1    1    3    3  502    0  0.47267029938E+03  0.14644085721E+03 -0.48367578277E+03  0.69195693467E+03  0.50400001928E-02 0.  1.
       -1    1    3    3    0  502 -0.47267029938E+03 -0.14644085721E+03 -0.40299002495E+03  0.63817168287E+03  0.50400001928E-02 0. -1.
</event>
<event>
 5   0  0.7073004E-03  0.8526377E+03  0.7818609E-02  0.9486803E-01
        1   -1    0    0  501    0  0.00000000000E+00  0.00000000000E+00  0.40470326428E+03  0.40470326431E+03  0.50400001928E-02 0. -1.
       -1   -1    0    0    0  501  0.00000000000E+00  0.00000000000E+00 -0.44908899684E+03  0.44908899687E+03  0.50400001928E-02 0.  1.
    10030    2    1    2    0    0  0.00000000000E+00  0.00000000000E+00 -0.44385732561E+02  0.85379226118E+03  0.85263774958E+03 0.  0.
        1    1    3    3  502    0 -0.35264772801E+03  0.68134437691E+02 -0.25216677044E+03  0.43885168544E+03  0.50400001928E-02 0.  1.
       -1    1    3    3    0  502  0.35264772801E+03 -0.68134437691E+02  0.20778103788E+03  0.41494057575E+03  0.50400001928E-02 0. -1.
</event>
<event>
 5   0  0.1245850E-02  0.9877107E+03  0.7818609E-02  0.9322127E-01
        2   -1    0    0  501    0  0.00000000000E+00  0.00000000000E+00  0.55092760684E+03  0.55092760685E+03  0.25500000920E-02 0. -1.
       -2   -1    0    0    0  501  0.00000000000E+00  0.00000000000E+00 -0.44269539573E+03  0.44269539573E+03  0.25500000920E-02 0.  1.
    10030    2    1    2    0    0  0.00000000000E+00  0.00000000000E+00  0.10823221111E+03  0.99362300258E+03  0.98771071662E+03 0.  0.
        3    1    3    3  502    0  0.78652631317E+02  0.19846145777E+03  0.50211303595E+03  0.54561039003E+03  0.10100000352E+00 0. -1.
       -3    1    3    3    0  502 -0.78652631317E+02 -0.19846145777E+03 -0.39388082484E+03  0.44801261255E+03  0.10100000352E+00 0.  1.
</event>
<event>
 5   0  0.7241200E-03  0.1016350E+04  0.7818609E-02  0.9290792E-01
        1   -1    0    0  501    0  0.00000000000E+00  0.00000000000E+00  0.51600208863E+03  0.51600208866E+03  0.50400001928E-02 0.  1.
       -1   -1    0    0    0  501  0.00000000000E+00  0.00000000000E+00 -0.50046682796E+03  0.50046682798E+03  0.50400001928E-02 0. -1.
    10030    2    1    2    0    0  0.00000000000E+00  0.00000000000E+00  0.15535260673E+02  0.10164689166E+04  0.10163501927E+04 0.  0.
        4    1    3    3  502    0 -0.44041136511E+03  0.24698431635E+03 -0.49483205617E+02  0.50735946190E+03  0.12699999809E+01 0.  1.
       -4    1    3    3    0  502  0.44041136511E+03 -0.24698431635E+03  0.65018466290E+02  0.50910945474E+03  0.12699999809E+01 0. -1.
</event>
<event>
 5   0  0.1221315E-02  0.9955360E+03  0.7818609E-02  0.9313454E-01
       -2   -1    0    0    0  501  0.00000000000E+00  0.00000000000E+00  0.55955252309E+03  0.55955252310E+03  0.25500000920E-02 0.  1.
        2   -1    0    0  501    0  0.00000000000E+00  0.00000000000E+00 -0.44280560608E+03  0.44280560609E+03  0.25500000920E-02 0. -1.
    10030    2    1    2    0    0  0.00000000000E+00  0.00000000000E+00  0.11674691701E+03  0.10023581292E+04  0.99553602472E+03 0.  0.
        5    1    3    3  502    0 -0.34356445273E+02  0.39925897144E+03 -0.23888317461E+03  0.46655691262E+03  0.46999998093E+01 0. -1.
       -5    1    3    3    0  502  0.34356445273E+02 -0.39925897144E+03  0.35563009162E+03  0.53580121656E+03  0.46999998093E+01 0.  1.
</event>
<event>
 5   0  0.7241200E-03  0.9737680E+03  0.7818609E-02  0.9337793E-01
       -1   -1    0    0    0  501  0.00000000000E+00  0.00000000000E+00  0.59739892024E+03  0.59739892026E+03  0.50400001928E-02 0. -1.
        1   -1    0    0  501    0  0.00000000000E+00  0.00000000000E+00 -0.39681359814E+03  0.39681359817E+03  0.50400001928E-02 0.  1.
    10030    2    1    2    0    0  0.00000000000E+00  0.00000000000E+00  0.20058532210E+03  0.99421251843E+03  0.97376797050E+03 0.  0.
        4    1    3    3  502    0  0.80077788531E+02  0.43895778154E+03  0.29921130684E+03  0.53723868553E+03  0.12699999809E+01 0. -1.
       -4    1    3    3    0  502 -0.80077788531E+02 -0.43895778154E+03 -0.98625984739E+02  0.45697383290E+03  0.12699999809E+01 0.  1.
</event>
<event>
 5   0  0.7224879E-03  0.9957728E+03  0.7818609E-02  0.9313193E-01
        1   -1    0    0  501    0  0.00000000000E+00  0.00000000000E+00  0.94071045306E+03  0.94071045307E+03  0.50400001928E-02 0. -1.
       -1   -1    0    0    0  501  0.00000000000E+00  0.00000000000E+00 -0.26351454890E+03  0.26351454895E+03  0.50400001928E-02 0.  1.
    10030    2    1    2    0    0  0.00000000000E+00  0.00000000000E+00  0.67719590416E+03  0.12042250020E+04  0.99577284703E+03 0.  0.
        3    1    3    3  502    0 -0.78253914841E+02 -0.37538547057E+03  0.72265140258E+03  0.81808495069E+03  0.10100000352E+00 0. -1.
       -3    1    3    3    0  502  0.78253914841E+02  0.37538547057E+03 -0.45455498420E+02  0.38614005133E+03  0.10100000352E+00 0.  1.
</event>
<event>
 5   0  0.1240503E-02  0.1060039E+04  0.7818609E-02  0.9245040E-01
       -2   -1    0    0    0  501  0.00000000000E+00  0.00000000000E+00  0.91937331270E+03  0.91937331270E+03  0.25500000920E-02 0. -1.
        2   -1    0    0  501    0  0.00000000000E+00  0.00000000000E+00 -0.30555661442E+03  0.30555661443E+03  0.25500000920E-02 0.  1.
    10030    2    1    2    0    0  0.00000000000E+00  0.00000000000E+00  0.61381669828E+03  0.12249299271E+04  0.10600388612E+04 0.  0.
        1    1    3    3  502    0 -0.21930628861E+03 -0.48228097838E+03  0.28936805831E+03  0.60367546209E+03  0.50400001928E-02 0. -1.
       -1    1    3    3    0  502  0.21930628861E+03  0.48228097838E+03  0.32444863997E+03  0.62125446504E+03  0.50400001928E-02 0.  1.
</event>
<event>
 5   0  0.1191822E-02  0.9901063E+03  0.7818609E-02  0.9319463E-01
       -2   -1    0    0    0  501  0.00000000000E+00  0.00000000000E+00  0.27749201651E+03  0.27749201652E+03  0.25500000920E-02 0.  1.
        2   -1    0    0  501    0  0.00000000000E+00  0.00000000000E+00 -0.88318799443E+03  0.88318799444E+03  0.25500000920E-02 0. -1.
    10030    2    1    2    0    0  0.00000000000E+00  0.00000000000E+00 -0.60569597793E+03  0.11606800110E+04  0.99010629236E+03 0.  0.
        4    1    3    3  502    0 -0.16354381637E+03 -0.40486913341E+03 -0.57629405653E+03  0.72303668479E+03  0.12699999809E+01 0.  1.
       -4    1    3    3    0  502  0.16354381637E+03  0.40486913341E+03 -0.29401921395E+02  0.43764332617E+03  0.12699999809E+01 0. -1.
</event>
<event>
 5   0  0.1245850E-02  0.9951572E+03  0.7818609E-02  0.9313872E-01
       -2   -1    0    0    0  501  0.00000000000E+00  0.00000000000E+00  0.13171642070E+03  0.13171642073E+03  0.25500000920E-02 0.  1.
        2   -1    0    0  501    0  0.00000000000E+00  0.00000000000E+00 -0.18796781224E+04  0.18796781224E+04  0.25500000920E-02 0. -1.
    10030    2    1    2    0    0  0.00000000000E+00  0.00000000000E+00 -0.17479617017E+04  0.20113945431E+04  0.99515722252E+03 0.  0.
        3    1    3    3  502    0  0.26041549401E+03  0.42235700636E+03 -0.79882128084E+03  0.94038136905E+03  0.10100000352E+00 0.  1.
       -3    1    3    3    0  502 -0.26041549401E+03 -0.42235700636E+03 -0.94914042084E+03  0.10710131741E+04  0.10100000352E+00 0. -1.
</event>
<event>
 5   0  0.7461157E-03  0.1004349E+04  0.7818609E-02  0.9303787E-01
       -1   -1    0    0    0  501  0.00000000000E+00  0.00000000000E+00  0.49055861606E+03  0.49055861608E+03  0.50400001928E-02 0.  1.
        1   -1    0    0  501    0  0.00000000000E+00  0.00000000000E+00 -0.51406579725E+03  0.51406579727E+03  0.50400001928E-02 0. -1.
    10030    2    1    2    0    0  0.00000000000E+00  0.00000000000E+00 -0.23507181190E+02  0.10046244134E+04  0.10043493537E+04 0.  0.
        2    1    3    3  502    0 -0.28402317101E+03 -0.33367367522E+03 -0.25712083755E+03  0.50805354867E+03  0.25500000920E-02 0. -1.
       -2    1    3    3    0  502  0.28402317101E+03  0.33367367522E+03  0.23361365636E+03  0.49657086469E+03  0.25500000920E-02 0.  1.
</event>
<event>
 5   0  0.7461157E-03  0.9502774E+03  0.7818609E-02  0.9364826E-01
       -1   -1    0    0    0  501  0.00000000000E+00  0.00000000000E+00  0.20576451974E+03  0.20576451980E+03  0.50400001928E-02 0. -1.
        1   -1    0    0  501    0  0.00000000000E+00  0.00000000000E+00 -0.10971609692E+04  0.10971609692E+04  0.50400001928E-02 0.  1.
    10030    2    1    2    0    0  0.00000000000E+00  0.00000000000E+00 -0.89139644942E+03  0.13029254890E+04  0.95027743306E+03 0.  0.
        2    1    3    3  502    0 -0.17835347474E+03 -0.19719781534E+03  0.94208650151E+02  0.28208546594E+03  0.25500000920E-02 0. -1.
       -2    1    3    3    0  502  0.17835347474E+03  0.19719781534E+03 -0.98560509957E+03  0.10208400230E+04  0.25500000920E-02 0.  1.
</event>
<event>
 5   0  0.1221315E-02  0.8372448E+03  0.7818609E-02  0.9507618E-01
        2   -1    0    0  501    0  0.00000000000E+00  0.00000000000E+00  0.34614076594E+03  0.34614076595E+03  0.25500000920E-02 0. -1.
       -2   -1    0    0    0  501  0.00000000000E+00  0.00000000000E+00 -0.50628169250E+03  0.50628169250E+03  0.25500000920E-02 0.  1.
    10030    2    1    2    0    0  0.00000000000E+00  0.00000000000E+00 -0.16014092656E+03  0.85242245845E+03  0.83724484549E+03 0.  0.
        5    1    3    3  502    0 -0.19495611636E+03  0.96313456904E+02  0.28409854485E+03  0.35779637013E+03  0.46999998093E+01 0. -1.
       -5    1    3    3    0  502  0.19495611636E+03 -0.96313456904E+02 -0.44423947142E+03  0.49462608832E+03  0.46999998093E+01 0.  1.
</event>
<event>
 5   0  0.7073004E-03  0.1050893E+04  0.7818609E-02  0.9254423E-01
        1   -1    0    0  501    0  0.00000000000E+00  0.00000000000E+00  0.71284618073E+03  0.71284618075E+03  0.50400001928E-02 0. -1.
       -1   -1    0    0    0  501  0.00000000000E+00  0.00000000000E+00 -0.38731183995E+03  0.38731183999E+03  0.50400001928E-02 0.  1.
    10030    2    1    2    0    0  0.00000000000E+00  0.00000000000E+00  0.32553434078E+03  0.11001580207E+04  0.10508925081E+04 0.  0.
        1    1    3    3  502    0  0.13957404998E+03  0.18620346257E+03  0.65595875892E+03  0.69601331764E+03  0.50400001928E-02 0. -1.
       -1    1    3    3    0  502 -0.13957404998E+03 -0.18620346257E+03 -0.33042441815E+03  0.40414470309E+03  0.50400001928E-02 0.  1.
</event>
<event>
 5   0  0.1245850E-02  0.1155665E+04  0.7818609E-02  0.9152573E-01
        2   -1    0    0  501    0  0.00000000000E+00  0.00000000000E+00  0.10356751493E+04  0.10356751493E+04  0.25500000920E-02 0. -1.
       -2   -1    0    0    0  501  0.00000000000E+00  0.00000000000E+00 -0.32238926311E+03  0.32238926312E+03  0.25500000920E-02 0.  1.
    10030    2    1    2    0    0  0.00000000000E+00  0.00000000000E+00  0.71328588623E+03  0.13580644125E+04  0.11556652599E+04 0.  0.
        3    1    3    3  502    0  0.17669548265E+03 -0.34257911719E+03  0.86250991373E+03  0.94472488409E+03  0.10100000352E+00 0. -1.
       -3    1    3    3    0  502 -0.17669548265E+03  0.34257911719E+03 -0.14922402751E+03  0.41333952837E+03  0.10100000352E+00 0.  1.
</event>
<event>
 5   0  0.4782125E-03  0.8566757E+03  0.7818609E-02  0.9481421E-01
        4   -1    0    0  501    0  0.00000000000E+00  0.00000000000E+00  0.24035121023E+03  0.24035456551E+03  0.12699999809E+01 0. -1.
       -4   -1    0    0    0  501  0.00000000000E+00  0.00000000000E+00 -0.76334578165E+03  0.76334683811E+03  0.12699999809E+01 0.  1.
    10030    2    1    2    0    0  0.00000000000E+00  0.00000000000E+00 -0.52299457141E+03  0.10037014036E+04  0.85667565969E+03 0.  0.
        5    1    3    3  502    0  0.23389532991E+03 -0.29171808421E+03 -0.16729611343E+02  0.37431061420E+03  0.46999998093E+01 0. -1.
       -5    1    3    3    0  502 -0.23389532991E+03  0.29171808421E+03 -0.50626496007E+03  0.62939078942E+03  0.46999998093E+01 0.  1.
</event>
<event>
 5   0  0.7241200E-03  0.9915767E+03  0.7818609E-02  0.9317832E-01
        1   -1    0    0  501    0  0.00000000000E+00  0.00000000000E+00  0.32536473130E+03  0.32536473134E+03  0.50400001928E-02 0. -1.
       -1   -1    0    0    0  501  0.00000000000E+00  0.00000000000E+00 -0.75547863398E+03  0.75547863400E+03  0.50400001928E-02 0.  1.
    10030    2    1    2    0    0  0.00000000000E+00  0.00000000000E+00 -0.43011390268E+03  0.10808433653E+04  0.99157672981E+03 0.  0.
        4    1    3    3  502    0  0.38189448326E+03  0.33578331736E+01  0.12955270259E+03  0.40328673055E+03  0.12699999809E+01 0. -1.
       -4    1    3    3    0  502 -0.38189448326E+03 -0.33578331736E+01 -0.55966660527E+03  0.67755663479E+03  0.12699999809E+01 0.  1.
</event>
<event>
 5   0  0.6967681E-03  0.9448691E+03  0.7818609E-02  0.9371168E-01
        1   -1    0    0  501    0  0.00000000000E+00  0.00000000000E+00  0.95416628141E+03  0.95416628143E+03  0.50400001928E-02 0.  1.
       -1   -1    0    0    0  501  0.00000000000E+00  0.00000000000E+00 -0.23391560846E+03  0.23391560851E+03  0.50400001928E-02 0. -1.
    10030    2    1    2    0    0  0.00000000000E+00  0.00000000000E+00  0.72025067295E+03  0.11880818899E+04  0.94486906252E+03 0.  0.
        5    1    3    3  502    0  0.15243011283E+03  0.12755939047E+03  0.89900163449E+03  0.92072382733E+03  0.46999998093E+01 0.  1.
       -5    1    3    3    0  502 -0.15243011283E+03 -0.12755939047E+03 -0.17875096154E+03  0.26735806261E+03  0.46999998093E+01 0. -1.
</event>
<event>
 5   0  0.1191822E-02  0.9975678E+03  0.7818609E-02  0.9311216E-01
       -2   -1    0    0    0  501  0.00000000000E+00  0.00000000000E+00  0.37525161727E+03  0.37525161728E+03  0.25500000920E-02 0. -1.
        2   -1    0    0  501    0  0.00000000000E+00  0.00000000000E+00 -0.66298277512E+03  0.66298277513E+03  0.25500000920E-02 0.  1.
    10030    2    1    2    0    0  0.00000000000E+00  0.00000000000E+00 -0.28773115785E+03  0.10382343924E+04  0.99756775930E+03 0.  0.
        4    1    3    3  502    0 -0.43532924595E+03  0.49562507293E+02 -0.39194308261E+03  0.58786817180E+03  0.12699999809E+01 0.  1.
       -4    1    3    3    0  502  0.43532924595E+03 -0.49562507293E+02  0.10421192475E+03  0.45036622061E+03  0.12699999809E+01 0. -1.
</event>
<event>
 5   0  0.6967681E-03  0.9231732E+03  0.7818609E-02  0.9397069E-01
       -1   -1    0    0    0  501  0.00000000000E+00  0.00000000000E+00  0.20124988812E+03  0.20124988818E+03  0.50400001928E-02 0.  1.
        1   -1    0    0  501    0  0.00000000000E+00  0.00000000000E+00 -0.10586945832E+04  0.10586945832E+04  0.50400001928E-02 0. -1.
    10030    2    1    2    0    0  0.00000000000E+00  0.00000000000E+00 -0.85744469504E+03  0.12599444714E+04  0.92317315052E+03 0.  0.
        5    1    3    3  502    0 -0.44341651970E+03 -0.88384209070E+02 -0.55536275236E+03  0.71615630631E+03  0.46999998093E+01 0. -1.
       -5    1    3    3    0  502  0.44341651970E+03  0.88384209070E+02 -0.30208194267E+03  0.54378816504E+03  0.46999998093E+01 0.  1.
</event>
<event>
 5   0  0.1216322E-02  0.1008706E+04  0.7818609E-02  0.9299048E-01
        2   -1    0    0  501    0  0.00000000000E+00  0.00000000000E+00  0.16238803575E+04  0.16238803575E+04  0.25500000920E-02 0. -1.
       -2   -1    0    0    0  501  0.00000000000E+00  0.00000000000E+00 -0.15664437065E+03  0.15664437067E+03  0.25500000920E-02 0.  1.
    10030    2    1    2    0    0  0.00000000000E+00  0.00000000000E+00  0.14672359869E+04  0.17805247282E+04  0.10087055400E+04 0.  0.
        2    1    3    3  502    0  0.30972341717E+03 -0.58263677360E+02  0.14286700610E+04  0.14630179064E+04  0.25500000920E-02 0. -1.
       -2    1    3    3    0  502 -0.30972341717E+03  0.58263677360E+02  0.38565925883E+02  0.31750682180E+03  0.25500000920E-02 0.  1.
</event>
<event>
 5   0  0.7461157E-03  0.9993807E+03  0.7818609E-02  0.9309224E-01
       -1   -1    0    0    0  501  0.00000000000E+00  0.00000000000E+00  0.18028636056E+03  0.18028636063E+03  0.50400001928E-02 0. -1.
        1   -1    0    0  501    0  0.00000000000E+00  0.00000000000E+00 -0.13849657038E+04  0.13849657038E+04  0.50400001928E-02 0.  1.
    10030    2    1    2    0    0  0.00000000000E+00  0.00000000000E+00 -0.12046793433E+04  0.15652520644E+04  0.99938066080E+03 0.  0.
        2    1    3    3  502    0 -0.38515417762E+03  0.23745541726E+03 -0.27023554350E+03  0.52702567746E+03  0.25500000920E-02 0. -1.
       -2    1    3    3    0  502  0.38515417762E+03 -0.23745541726E+03 -0.93444379976E+03  0.10382263870E+04  0.25500000920E-02 0.  1.
</event>
<event>
 5   0  0.7073004E-03  0.9920195E+03  0.7818609E-02  0.9317341E-01
       -1   -1    0    0    0  501  0.00000000000E+00  0.00000000000E+00  0.44558797533E+03  0.44558797536E+03  0.50400001928E-02 0. -1.
        1   -1    0    0  501    0  0.00000000000E+00  0.00000000000E+00 -0.55213718232E+03  0.55213718234E+03  0.50400001928E-02 0.  1.
    10030    2    1    2    0    0  0.00000000000E+00  0.00000000000E+00 -0.10654920699E+03  0.99772515770E+03  0.99201953448E+03 0.  0.
        1    1    3    3  502    0  0.13643052947E+03 -0.47684861460E+03 -0.47971845317E+02  0.49829628594E+03  0.50400001928E-02 0.  1.
       -1    1    3    3    0  502 -0.13643052947E+03  0.47684861460E+03 -0.58577361670E+02  0.49942887175E+03  0.50400001928E-02 0. -1.
</event>
<event>
 5   0  0.1216322E-02  0.9995993E+03  0.7818609E-02  0.9308984E-01
        2   -1    0    0  501    0  0.00000000000E+00  0.00000000000E+00  0.55547717815E+03  0.55547717816E+03  0.25500000920E-02 0. -1.
       -2   -1    0    0    0  501  0.00000000000E+00  0.00000000000E+00 -0.44970284309E+03  0.44970284310E+03  0.25500000920E-02 0.  1.
    10030    2    1    2    0    0  0.00000000000E+00  0.00000000000E+00  0.10577433506E+03  0.10051800213E+04  0.99959925229E+03 0.  0.
        2    1    3    3  502    0  0.45845454076E+03 -0.17045943095E+03 -0.50461538476E+02  0.49171470429E+03  0.25500000920E-02 0.  1.
       -2    1    3    3    0  502 -0.45845454076E+03  0.17045943095E+03  0.15623587354E+03  0.51346531697E+03  0.25500000920E-02 0. -1.
</event>
<event>
 5   0  0.1191822E-02  0.9844797E+03  0.7818609E-02  0.9325733E-01
       -2   -1    0    0    0  501  0.00000000000E+00  0.00000000000E+00  0.95576637887E+02  0.95576637921E+02  0.25500000920E-02 0. -1.
        2   -1    0    0  501    0  0.00000000000E+00  0.00000000000E+00 -0.25351392685E+04  0.25351392685E+04  0.25500000920E-02 0.  1.
    10030    2    1    2    0    0  0.00000000000E+00  0.00000000000E+00 -0.24395626306E+04  0.26307159064E+04  0.98447973652E+03 0.  0.
        4    1    3    3  502    0 -0.42645868004E+03 -0.14434974104E+03 -0.17515040957E+04  0.18084446532E+04  0.12699999809E+01 0.  1.
       -4    1    3    3    0  502  0.42645868004E+03  0.14434974104E+03 -0.68805853493E+03  0.82227125324E+03  0.12699999809E+01 0. -1.
</event>
<event>
 5   0  0.7461157E-03  0.9800312E+03  0.7818609E-02  0.9330721E-01
        1   -1    0    0  501    0  0.00000000000E+00  0.00000000000E+00  0.46051991500E+03  0.46051991503E+03  0.50400001928E-02 0. -1.
       -1   -1    0    0    0  501  0.00000000000E+00  0.00000000000E+00 -0.52140044955E+03  0.52140044958E+03  0.50400001928E-02 0.  1.
    10030    2    1    2    0    0  0.00000000000E+00  0.00000000000E+00 -0.60880534554E+02  0.98192036460E+03  0.98003120508E+03 0.  0.
        2    1    3    3  502    0 -0.16975091480E+03  0.29362463316E+03  0.32391435185E+03  0.46898966472E+03  0.25500000920E-02 0. -1.
       -2    1    3    3    0  502  0.16975091480E+03 -0.29362463316E+03 -0.38479488641E+03  0.51293069988E+03  0.25500000920E-02 0.  1.
</event>
<event>
 5   0  0.7073004E-03  0.9810036E+03  0.7818609E-02  0.9329629E-01
        1   -1    0    0  501    0  0.00000000000E+00  0.00000000000E+00  0.34141659848E+03  0.34141659852E+03  0.50400001928E-02 0. -1.
       -1   -1    0    0    0  501  0.00000000000E+00  0.00000000000E+00 -0.70468757026E+03  0.70468757028E+03  0.50400001928E-02 0.  1.
    10030    2    1    2    0    0  0.00000000000E+00  0.00000000000E+00 -0.36327097178E+03  0.10461041688E+04  0.98100363559E+03 0.  0.
        1    1    3    3  502    0 -0.12857469610E+03 -0.26174510494E+03  0.23893562387E+03  0.37700422387E+03  0.50400001928E-02 0. -1.
       -1    1    3    3    0  502  0.12857469610E+03  0.26174510494E+03 -0.60220659565E+03  0.66909994493E+03  0.50400001928E-02 0.  1.
</event>
<event>
 5   0  0.7241200E-03  0.9707502E+03  0.7818609E-02  0.9341220E-01
       -1   -1    0    0    0  501  0.00000000000E+00  0.00000000000E+00  0.23360922136E+03  0.23360922142E+03  0.50400001928E-02 0. -1.
        1   -1    0    0  501    0  0.00000000000E+00  0.00000000000E+00 -0.10084747286E+04  0.10084747286E+04  0.50400001928E-02 0.  1.
    10030    2    1    2    0    0  0.00000000000E+00  0.00000000000E+00 -0.77486550727E+03  0.12420839501E+04  0.97075021743E+03 0.  0.
        4    1    3    3  502    0  0.28274407531E+03 -0.39449051859E+03 -0.38165340892E+03  0.61743657068E+03  0.12699999809E+01 0.  1.
       -4    1    3    3    0  502 -0.28274407531E+03  0.39449051859E+03 -0.39321209834E+03  0.62464737937E+03  0.12699999809E+01 0. -1.
</event>
<event>
 5   0  0.1191822E-02  0.9925446E+03  0.7818609E-02  0.9316760E-01
        2   -1    0    0  501    0  0.00000000000E+00  0.00000000000E+00  0.10822607617E+04  0.10822607617E+04  0.25500000920E-02 0.  1.
       -2   -1    0    0    0  501  0.00000000000E+00  0.00000000000E+00 -0.22756640203E+03  0.22756640205E+03  0.25500000920E-02 0. -1.
    10030    2    1    2    0    0  0.00000000000E+00  0.00000000000E+00  0.85469435968E+03  0.13098271638E+04  0.99254458362E+03 0.  0.
        4    1    3    3  502    0  0.14031594201E+03 -0.44695043993E+03  0.21118239195E+03  0.51386075440E+03  0.12699999809E+01 0. -1.
       -4    1    3    3    0  502 -0.14031594201E+03  0.44695043993E+03  0.64351196773E+03  0.79596640937E+03  0.12699999809E+01 0.  1.
</event>
<event>
 5   0  0.7224879E-03  0.1000699E+04  0.7818609E-02  0.9307778E-01
        1   -1    0    0  501    0  0.00000000000E+00  0.00000000000E+00  0.52198672872E+03  0.52198672874E+03  0.50400001928E-02 0.  1.
       -1   -1    0    0    0  501  0.00000000000E+00  0.00000000000E+00 -0.47960962133E+03  0.47960962135E+03  0.50400001928E-02 0. -1.
    10030    2    1    2    0    0  0.00000000000E+00  0.00000000000E+00  0.42377107391E+02  0.10015963501E+04  0.10006994700E+04 0.  0.
        3    1    3    3  502    0  0.25281991081E+02 -0.41731341374E+03 -0.25393993550E+03  0.48915760794E+03  0.10100000352E+00 0. -1.
       -3    1    3    3    0  502 -0.25281991081E+02  0.41731341374E+03  0.29631704289E+03  0.51243874216E+03  0.10100000352E+00 0.  1.
</event>
<event>
 5   0  0.7073004E-03  0.1010281E+04  0.7818609E-02  0.9297340E-01
       -1   -1    0    0    0  501  0.00000000000E+00  0.00000000000E+00  0.35041807387E+03  0.35041807391E+03  0.50400001928E-02 0.  1.
        1   -1    0    0  501    0  0.00000000000E+00  0.00000000000E+00 -0.72817913107E+03  0.72817913109E+03  0.50400001928E-02 0. -1.
    10030    2    1    2    0    0  0.00000000000E+00  0.00000000000E+00 -0.37776105720E+03  0.10785972050E+04  0.10102814035E+04 0.  0.
        1    1    3    3  502    0 -0.12183196399E+03  0.22688835686E+02  0.33393678170E+03  0.35619037734E+03  0.50400001928E-02 0.  1.
       -1    1    3    3    0  502  0.12183196399E+03 -0.22688835686E+02 -0.71169783890E+03  0.72240682765E+03  0.50400001928E-02 0. -1.
</event>
<event>
 5   0  0.7073004E-03  0.1008288E+04  0.7818609E-02  0.9299501E-01
        1   -1    0    0  501    0  0.00000000000E+00  0.00000000000E+00  0.88354218749E+03  0.88354218750E+03  0.50400001928E-02 0.  1.
       -1   -1    0    0    0  501  0.00000000000E+00  0.00000000000E+00 -0.28766181605E+03  0.28766181609E+03  0.50400001928E-02 0. -1.
    10030    2    1    2    0    0  0.00000000000E+00  0.00000000000E+00  0.59588037144E+03  0.11712040036E+04  0.10082883521E+04 0.  0.
        1    1    3    3  502    0  0.39860729857E+03 -0.16067226572E+03  0.60407231960E+03  0.74135465384E+03  0.50400001928E-02 0.  1.
       -1    1    3    3    0  502 -0.39860729857E+03  0.16067226572E+03 -0.81919481541E+01  0.42984934975E+03  0.50400001928E-02 0. -1.
</event>
<event>
 5   0  0.1191822E-02  0.1024063E+04  0.7818609E-02  0.9282540E-01
        2   -1    0    0  501    0  0.00000000000E+00  0.00000000000E+00  0.50112203206E+03  0.50112203207E+03  0.25500000920E-02 0.  1.
       -2   -1    0    0    0  501  0.00000000000E+00  0.00000000000E+00 -0.52317852497E+03  0.52317852498E+03  0.25500000920E-02 0. -1.
    10030    2    1    2    0    0  0.00000000000E+00  0.00000000000E+00 -0.22056492911E+02  0.10243005571E+04  0.10240630558E+04 0.  0.
        4    1    3    3  502    0 -0.41859027628E+03 -0.65251181659E+02 -0.29866951656E+03  0.51834412231E+03  0.12699999809E+01 0. -1.
       -4    1    3    3    0  502  0.41859027628E+03  0.65251181659E+02  0.27661302365E+03  0.50595643474E+03  0.12699999809E+01 0.  1.
</event>
<event>
 5   0  0.1245850E-02  0.9924764E+03  0.7818609E-02  0.9316835E-01
        2   -1    0    0  501    0  0.00000000000E+00  0.00000000000E+00  0.12459198677E+04  0.12459198677E+04  0.25500000920E-02 0.  1.
       -2   -1    0    0    0  501  0.00000000000E+00  0.00000000000E+00 -0.19764702545E+03  0.19764702546E+03  0.25500000920E-02 0. -1.
    10030    2    1    2    0    0  0.00000000000E+00  0.00000000000E+00  0.10482728423E+04  0.14435668932E+04  0.99247640942E+03 0.  0.
        3    1    3    3  502    0 -0.17618101723E+03  0.10909485867E+03  0.11799751500E+04  0.11980328893E+04  0.10100000352E+00 0.  1.
       -3    1    3    3    0  502  0.17618101723E+03 -0.10909485867E+03 -0.13170230770E+03  0.24553400391E+03  0.10100000352E+00 0. -1.
</event>
<event>
 5   0  0.4782125E-03  0.1004753E+04  0.7818609E-02  0.9303347E-01
        3   -1    0    0  501    0  0.00000000000E+00  0.00000000000E+00  0.97325807090E+03  0.97325807614E+03  0.10100000352E+00 0. -1.
       -3   -1    0    0    0  501  0.00000000000E+00  0.00000000000E+00 -0.25931680019E+03  0.25931681985E+03  0.10100000352E+00 0.  1.
    10030    2    1    2    0    0  0.00000000000E+00  0.00000000000E+00  0.71394127071E+03  0.12325748960E+04  0.10047530723E+04 0.  0.
        5    1    3    3  502    0  0.28878215800E+02 -0.32730335366E+03  0.82313122342E+03  0.88630047818E+03  0.46999998093E+01 0. -1.
       -5    1    3    3    0  502 -0.28878215800E+02  0.32730335366E+03 -0.10918995270E+03  0.34627441781E+03  0.46999998093E+01 0.  1.
</event>
<event>
 5   0  0.1221315E-02  0.1008576E+04  0.7818609E-02  0.9299188E-01
       -2   -1    0    0    0  501  0.00000000000E+00  0.00000000000E+00  0.29553175209E+03  0.29553175210E+03  0.25500000920E-02 0.  1.
        2   -1    0    0  501    0  0.00000000000E+00  0.00000000000E+00 -0.86050450956E+03  0.86050450957E+03  0.25500000920E-02 0. -1.
    10030    2    1    2    0    0  0.00000000000E+00  0.00000000000E+00 -0.56497275748E+03  0.11560362617E+04  0.10085760366E+04 0.  0.
        5    1    3    3  502    0  0.22947226665E+03 -0.82672215539E+02  0.22339475172E+03  0.33078621718E+03  0.46999998093E+01 0.  1.
       -5    1    3    3    0  502 -0.22947226665E+03  0.82672215539E+02 -0.78836750919E+03  0.82525004449E+03  0.46999998093E+01 0. -1.
</event>
<event>
 5   0  0.1245850E-02  0.9866678E+03  0.7818609E-02  0.9323289E-01
       -2   -1    0    0    0  501  0.00000000000E+00  0.00000000000E+00  0.45436836270E+03  0.45436836271E+03  0.25500000920E-02 0. -1.
        2   -1    0    0  501    0  0.00000000000E+00  0.00000000000E+00 -0.53564105297E+03  0.53564105298E+03  0.25500000920E-02 0.  1.
    10030    2    1    2    0    0  0.00000000000E+00  0.00000000000E+00 -0.81272690271E+02  0.99000941568E+03  0.98666782301E+03 0.  0.
        3    1    3    3  502    0  0.64067008623E+02 -0.97032205703E+02 -0.52169568499E+03  0.53449623803E+03  0.10100000352E+00 0.  1.
       -3    1    3    3    0  502 -0.64067008623E+02  0.97032205703E+02  0.44042299471E+03  0.45551317765E+03  0.10100000352E+00 0. -1.
</event>
<event>
 5   0  0.6967681E-03  0.1029330E+04  0.7818609E-02  0.9276949E-01
        1   -1    0    0  501    0  0.00000000000E+00  0.00000000000E+00  0.90853585500E+03  0.90853585501E+03  0.50400001928E-02 0.  1.
       -1   -1    0    0    0  501  0.00000000000E+00  0.00000000000E+00 -0.29154591081E+03  0.29154591086E+03  0.50400001928E-02 0. -1.
    10030    2    1    2    0    0  0.00000000000E+00  0.00000000000E+00  0.61698994419E+03  0.12000817659E+04  0.10293297108E+04 0.  0.
        5    1    3    3  502    0  0.17605255132E+03  0.48357934235E+03  0.31291031542E+03  0.60231091362E+03  0.46999998093E+01 0.  1.
       -5    1    3    3    0  502 -0.17605255132E+03 -0.48357934235E+03  0.30407962876E+03  0.59777085225E+03  0.46999998093E+01 0. -1.
</event>
<event>
 5   0  0.1221315E-02  0.9818682E+03  0.7818609E-02  0.9328658E-01
        2   -1    0    0  501    0  0.00000000000E+00  0.00000000000E+00  0.63783402340E+03  0.63783402340E+03  0.25500000920E-02 0. -1.
       -2   -1    0    0    0  501  0.00000000000E+00  0.00000000000E+00 -0.37786678674E+03  0.37786678675E+03  0.25500000920E-02 0.  1.
    10030    2    1    2    0    0  0.00000000000E+00  0.00000000000E+00  0.25996723666E+03  0.10157008102E+04  0.98186820481E+03 0.  0.
        5    1    3    3  502    0 -0.81595573706E+01 -0.24117321311E+03  0.57222244277E+03  0.62104082885E+03  0.46999998093E+01 0. -1.
       -5    1    3    3    0  502  0.81595573706E+01  0.24117321311E+03 -0.31225520611E+03  0.39465998130E+03  0.46999998093E+01 0.  1.
</event>
<event>
 5   0  0.1216322E-02  0.1011171E+04  0.7818609E-02  0.9296377E-01
       -2   -1    0    0    0  501  0.00000000000E+00  0.00000000000E+00  0.14687406599E+04  0.14687406599E+04  0.25500000920E-02 0. -1.
        2   -1    0    0  501    0  0.00000000000E+00  0.00000000000E+00 -0.17403801190E+03  0.17403801192E+03  0.25500000920E-02 0.  1.
    10030    2    1    2    0    0  0.00000000000E+00  0.00000000000E+00  0.12947026480E+04  0.16427786718E+04  0.10111710132E+04 0.  0.
        2    1    3    3  502    0 -0.35768034800E+03  0.31453692937E+03  0.37189153471E+03  0.60429465072E+03  0.25500000920E-02 0.  1.
       -2    1    3    3    0  502  0.35768034800E+03 -0.31453692937E+03  0.92281111331E+03  0.10384840211E+04  0.25500000920E-02 0. -1.
</event>
<event>
 5   0  0.1221315E-02  0.1000522E+04  0.7818609E-02  0.9307972E-01
        2   -1    0    0  501    0  0.00000000000E+00  0.00000000000E+00  0.60585870279E+03  0.60585870279E+03  0.25500000920E-02 0. -1.
       -2   -1    0    0    0  501  0.00000000000E+00  0.00000000000E+00 -0.41306850911E+03  0.41306850912E+03  0.25500000920E-02 0.  1.
    10030    2    1    2    0    0  0.00000000000E+00  0.00000000000E+00  0.19279019367E+03  0.10189272119E+04  0.10005221659E+04 0.  0.
        5    1    3    3  502    0 -0.24112821092E+03 -0.40339227045E+02  0.54085090915E+03  0.59355864349E+03  0.46999998093E+01 0. -1.
       -5    1    3    3    0  502  0.24112821092E+03  0.40339227045E+02 -0.34806071548E+03  0.42536856842E+03  0.46999998093E+01 0.  1.
</event>
<event>
 5   0  0.7073004E-03  0.8294106E+03  0.7818609E-02  0.9518396E-01
        1   -1    0    0  501    0  0.00000000000E+00  0.00000000000E+00  0.66902304651E+03  0.66902304653E+03  0.50400001928E-02 0.  1.
       -1   -1    0    0    0  501  0.00000000000E+00  0.00000000000E+00 -0.25706212127E+03  0.25706212132E+03  0.50400001928E-02 0. -1.
    10030    2    1    2    0    0  0.00000000000E+00  0.00000000000E+00  0.41196092524E+03  0.92608516784E+03  0.82941059444E+03 0.  0.
        1    1    3    3  502    0 -0.31247685172E+03 -0.24270248870E+03  0.67265455349E+02  0.40133642047E+03  0.50400001928E-02 0.  1.
       -1    1    3    3    0  502  0.31247685172E+03  0.24270248870E+03  0.34469546989E+03  0.52474874738E+03  0.50400001928E-02 0. -1.
</event>
<event>
 5   0  0.1216322E-02  0.9820261E+03  0.7818609E-02  0.9328481E-01
        2   -1    0    0  501    0  0.00000000000E+00  0.00000000000E+00  0.86013017694E+03  0.86013017694E+03  0.25500000920E-02 0.  1.
       -2   -1    0    0    0  501  0.00000000000E+00  0.00000000000E+00 -0.28029919605E+03  0.28029919606E+03  0.25500000920E-02 0. -1.
    10030    2    1    2    0    0  0.00000000000E+00  0.00000000000E+00  0.57983098089E+03  0.11404293730E+04  0.98202606300E+03 0.  0.
        2    1    3    3  502    0  0.55432186190E+02 -0.31388203136E+02  0.85531105651E+03  0.85767998108E+03  0.25500000920E-02 0.  1.
       -2    1    3    3    0  502 -0.55432186190E+02  0.31388203136E+02 -0.27548007562E+03  0.28274939192E+03  0.25500000920E-02 0. -1.
</event>
<event>
 5   0  0.6967681E-03  0.9718050E+03  0.7818609E-02  0.9340021E-01
        1   -1    0    0  501    0  0.00000000000E+00  0.00000000000E+00  0.20904738213E+04  0.20904738213E+04  0.50400001928E-02 0. -1.
       -1   -1    0    0    0  501  0.00000000000E+00  0.00000000000E+00 -0.11294149243E+03  0.11294149254E+03  0.50400001928E-02 0.  1.
    10030    2    1    2    0    0  0.00000000000E+00  0.00000000000E+00  0.19775323289E+04  0.22034153139E+04  0.97180498741E+03 0.  0.
        5    1    3    3  502    0  0.39322436543E+03  0.27999923303E+03  0.11140698767E+04  0.12141658668E+04  0.46999998093E+01 0. -1.
       -5    1    3    3    0  502 -0.39322436543E+03 -0.27999923303E+03  0.86346245222E+03  0.98924944704E+03  0.46999998093E+01 0.  1.
</event>
<event>
 5   0  0.7224879E-03  0.9979406E+03  0.7818609E-02  0.9310806E-01
       -1   -1    0    0    0  501  0.00000000000E+00  0.00000000000E+00  0.66122376442E+03  0.66122376444E+03  0.50400001928E-02 0. -1.
        1   -1    0    0  501    0  0.00000000000E+00  0.00000000000E+00 -0.37653118820E+03  0.37653118824E+03  0.50400001928E-02 0.  1.
    10030    2    1    2    0    0  0.00000000000E+00  0.00000000000E+00  0.28469257622E+03  0.10377549527E+04  0.99794061890E+03 0.  0.
        3    1    3    3  502    0 -0.43451604385E+03 -0.15167848412E+03 -0.58115993536E+02  0.46388364253E+03  0.10100000352E+00 0.  1.
       -3    1    3    3    0  502  0.43451604385E+03  0.15167848412E+03  0.34280856975E+03  0.57387131014E+03  0.10100000352E+00 0. -1.
</event>
<event>
 5   0  0.1191822E-02  0.1004149E+04  0.7818609E-02  0.9304006E-01
       -2   -1    0    0    0  501  0.00000000000E+00  0.00000000000E+00  0.22854221045E+03  0.22854221046E+03  0.25500000920E-02 0. -1.
        2   -1    0    0  501    0  0.00000000000E+00  0.00000000000E+00 -0.11029863733E+04  0.11029863733E+04  0.25500000920E-02 0.  1.
    10030    2    1    2    0    0  0.00000000000E+00  0.00000000000E+00 -0.87444416287E+03  0.13315285838E+04  0.10041492795E+04 0.  0.
        4    1    3    3  502    0  0.81567887679E+02  0.43878186692E+03 -0.74219228171E+03  0.86604494281E+03  0.12699999809E+01 0.  1.
       -4    1    3    3    0  502 -0.81567887679E+02 -0.43878186692E+03 -0.13225188116E+03  0.46548364097E+03  0.12699999809E+01 0. -1.
</event>
<event>
 5   0  0.7224879E-03  0.9937851E+03  0.7818609E-02  0.9315388E-01
        1   -1    0    0  501    0  0.00000000000E+00  0.00000000000E+00  0.14103410572E+04  0.14103410572E+04  0.50400001928E-02 0.  1.
       -1   -1    0    0    0  501  0.00000000000E+00  0.00000000000E+00 -0.17506561848E+03  0.17506561856E+03  0.50400001928E-02 0. -1.
    10030    2    1    2    0    0  0.00000000000E+00  0.00000000000E+00  0.12352754387E+04  0.15854066757E+04  0.99378514682E+03 0.  0.
        3    1    3    3  502    0  0.21845171831E+03  0.82876028326E+01  0.13295021851E+04  0.13473551529E+04  0.10100000352E+00 0.  1.
       -3    1    3    3    0  502 -0.21845171831E+03 -0.82876028326E+01 -0.94226746414E+02  0.23805152286E+03  0.10100000352E+00 0. -1.
</event>
<event>
 5   0  0.7241200E-03  0.1004175E+04  0.7818609E-02  0.9303977E-01
        1   -1    0    0  501    0  0.00000000000E+00  0.00000000000E+00  0.17958936890E+04  0.17958936890E+04  0.50400001928E-02 0.  1.
       -1   -1    0    0    0  501  0.00000000000E+00  0.00000000000E+00 -0.14037133879E+03  0.14037133888E+03  0.50400001928E-02 0. -1.
    10030    2    1    2    0    0  0.00000000000E+00  0.00000000000E+00  0.16555223502E+04  0.19362650279E+04  0.10041752866E+04 0.  0.
        4    1    3    3  502    0 -0.21524190033E+02  0.41175269644E+03  0.13802098990E+04  0.14404806670E+04  0.12699999809E+01 0.  1.
       -4    1    3    3    0  502  0.21524190033E+02 -0.41175269644E+03  0.27531245115E+03  0.49578436083E+03  0.12699999809E+01 0. -1.
</event>
<event>
 5   0  0.7224879E-03  0.1008929E+04  0.7818609E-02  0.9298806E-01
       -1   -1    0    0    0  501  0.00000000000E+00  0.00000000000E+00  0.10686284279E+04  0.10686284280E+04  0.50400001928E-02 0.  1.
        1   -1    0    0  501    0  0.00000000000E+00  0.00000000000E+00 -0.23814115159E+03  0.23814115165E+03  0.50400001928E-02 0. -1.
    10030    2    1    2    0    0  0.00000000000E+00  0.00000000000E+00  0.83048727635E+03  0.13067695796E+04  0.10089289460E+04 0.  0.
        3    1    3    3  502    0 -0.34564864479E+03 -0.21308270548E+03  0.27531129359E+02  0.40698304424E+03  0.10100000352E+00 0. -1.
       -3    1    3    3    0  502  0.34564864479E+03  0.21308270548E+03  0.80295614699E+03  0.89978653535E+03  0.10100000352E+00 0.  1.
</event>
<event>
 5   0  0.1221315E-02  0.1002113E+04  0.7818609E-02  0.9306230E-01
       -2   -1    0    0    0  501  0.00000000000E+00  0.00000000000E+00  0.17685160436E+04  0.17685160436E+04  0.25500000920E-02 0. -1.
        2   -1    0    0  501    0  0.00000000000E+00  0.00000000000E+00 -0.14195957386E+03  0.14195957389E+03  0.25500000920E-02 0.  1.
    10030    2    1    2    0    0  0.00000000000E+00  0.00000000000E+00  0.16265564698E+04  0.19104756175E+04  0.10021133348E+04 0.  0.
        5    1    3    3  502    0  0.36050082569E+01 -0.29225079478E+03  0.15891157630E+04  0.16157767548E+04  0.46999998093E+01 0. -1.
       -5    1    3    3    0  502 -0.36050082569E+01  0.29225079478E+03  0.37440706706E+02  0.29469886266E+03  0.46999998093E+01 0.  1.
</event>
<event>
 5   0  0.7241200E-03  0.9510745E+03  0.7818609E-02  0.9363896E-01
        1   -1    0    0  501    0  0.00000000000E+00  0.00000000000E+00  0.39592890718E+03  0.39592890721E+03  0.50400001928E-02 0. -1.
       -1   -1    0    0    0  501  0.00000000000E+00  0.00000000000E+00 -0.57115218943E+03  0.57115218945E+03  0.50400001928E-02 0.  1.
    10030    2    1    2    0    0  0.00000000000E+00  0.00000000000E+00 -0.17522328225E+03  0.96708109666E+03  0.95107447073E+03 0.  0.
        4    1    3    3  502    0  0.39787866377E+03  0.10897255028E+03 -0.32813354397E+03  0.52712017926E+03  0.12699999809E+01 0.  1.
       -4    1    3    3    0  502 -0.39787866377E+03 -0.10897255028E+03  0.15291026173E+03  0.43996091740E+03  0.12699999809E+01 0. -1.
</event>
<event>
 5   0  0.6967681E-03  0.9702533E+03  0.7818609E-02  0.9341786E-01
       -1   -1    0    0    0  501  0.00000000000E+00  0.00000000000E+00  0.27022703162E+03  0.27022703167E+03  0.50400001928E-02 0.  1.
        1   -1    0    0  501    0  0.00000000000E+00  0.00000000000E+00 -0.87092645269E+03  0.87092645270E+03  0.50400001928E-02 0. -1.
    10030    2    1    2    0    0  0.00000000000E+00  0.00000000000E+00 -0.60069942107E+03  0.11411534844E+04  0.97025330735E+03 0.  0.
        5    1    3    3  502    0  0.35304384063E+03 -0.32217048817E+03 -0.39799058622E+03  0.62197457631E+03  0.46999998093E+01 0. -1.
       -5    1    3    3    0  502 -0.35304384063E+03  0.32217048817E+03 -0.20270883485E+03  0.51917890807E+03  0.46999998093E+01 0.  1.
</event>
<event>
 5   0  0.1221315E-02  0.1012131E+04  0.7818609E-02  0.9295338E-01
        2   -1    0    0  501    0  0.00000000000E+00  0.00000000000E+00  0.19046923282E+04  0.19046923282E+04  0.25500000920E-02 0.  1.
       -2   -1    0    0    0  501  0.00000000000E+00  0.00000000000E+00 -0.13445872723E+03  0.13445872725E+03  0.25500000920E-02 0. -1.
    10030    2    1    2    0    0  0.00000000000E+00  0.00000000000E+00  0.17702336010E+04  0.20391510555E+04  0.10121314267E+04 0.  0.
        5    1    3    3  502    0  0.33875024781E+03  0.19823035271E+03  0.15286688767E+04  0.15782577824E+04  0.46999998093E+01 0.  1.
       -5    1    3    3    0  502 -0.33875024781E+03 -0.19823035271E+03  0.24156472426E+03  0.46089327304E+03  0.46999998093E+01 0. -1.
</event>
<event>
 5   0  0.6967681E-03  0.9704572E+03  0.7818609E-02  0.9341554E-01
        1   -1    0    0  501    0  0.00000000000E+00  0.00000000000E+00  0.44532659157E+03  0.44532659160E+03  0.50400001928E-02 0. -1.
       -1   -1    0    0    0  501  0.00000000000E+00  0.00000000000E+00 -0.52870589697E+03  0.52870589700E+03  0.50400001928E-02 0.  1.
    10030    2    1    2    0    0  0.00000000000E+00  0.00000000000E+00 -0.83379305402E+02  0.97403248860E+03  0.97045720167E+03 0.  0.
        5    1    3    3  502    0  0.12202641728E+03  0.43399474227E+03 -0.22174628327E+03  0.50242948458E+03  0.46999998093E+01 0.  1.
       -5    1    3    3    0  502 -0.12202641728E+03 -0.43399474227E+03  0.13836697787E+03  0.47160300402E+03  0.46999998093E+01 0. -1.
</event>
<event>
 5   0  0.1191822E-02  0.9993791E+03  0.7818609E-02  0.9309226E-01
        2   -1    0    0  501    0  0.00000000000E+00  0.00000000000E+00  0.20785307573E+04  0.20785307573E+04  0.25500000920E-02 0. -1.
       -2   -1    0    0    0  501  0.00000000000E+00  0.00000000000E+00 -0.12012794278E+03  0.12012794281E+03  0.25500000920E-02 0.  1.
    10030    2    1    2    0    0  0.00000000000E+00  0.00000000000E+00  0.19584028145E+04  0.21986587001E+04  0.99937905505E+03 0.  0.
        4    1    3    3  502    0 -0.98109369673E+02 -0.18581834945E+03 -0.18198955886E+02  0.21091875760E+03  0.12699999809E+01 0.  1.
       -4    1    3    3    0  502  0.98109369673E+02  0.18581834945E+03  0.19766017704E+04  0.19877399425E+04  0.12699999809E+01 0. -1.
</event>
<event>
 5   0  0.7461157E-03  0.9984053E+03  0.7818609E-02  0.9310296E-01
        1   -1    0    0  501    0  0.00000000000E+00  0.00000000000E+00  0.30793880876E+03  0.30793880880E+03  0.50400001928E-02 0. -1.
       -1   -1    0    0    0  501  0.00000000000E+00  0.00000000000E+00 -0.80926237745E+03  0.80926237746E+03  0.50400001928E-02 0.  1.
    10030    2    1    2    0    0  0.00000000000E+00  0.00000000000E+00 -0.50132356869E+03  0.11172011863E+04  0.99840531352E+03 0.  0.
        2    1    3    3  502    0 -0.48110587975E+03 -0.59709235886E+02 -0.11743559858E+03  0.49881778256E+03  0.25500000920E-02 0. -1.
       -2    1    3    3    0  502  0.48110587975E+03  0.59709235886E+02 -0.38388797011E+03  0.61838340370E+03  0.25500000920E-02 0.  1.
</event>
<event>
 5   0  0.7461157E-03  0.1005497E+04  0.7818609E-02  0.9302536E-01
       -1   -1    0    0    0  501  0.00000000000E+00  0.00000000000E+00  0.18851173646E+03  0.18851173653E+03  0.50400001928E-02 0.  1.
        1   -1    0    0  501    0  0.00000000000E+00  0.00000000000E+00 -0.13407973143E+04  0.13407973143E+04  0.50400001928E-02 0. -1.
    10030    2    1    2    0    0  0.00000000000E+00  0.00000000000E+00 -0.11522855779E+04  0.15293090509E+04  0.10054969518E+04 0.  0.
        2    1    3    3  502    0  0.40812761357E+03  0.25659574585E+03 -0.35919291487E+03  0.60118971702E+03  0.25500000920E-02 0.  1.
       -2    1    3    3    0  502 -0.40812761357E+03 -0.25659574585E+03 -0.79309266298E+03  0.92811933383E+03  0.25500000920E-02 0. -1.
</event>
<event>
 5   0  0.7073004E-03  0.1021028E+04  0.7818609E-02  0.9285777E-01
        1   -1    0    0  501    0  0.00000000000E+00  0.00000000000E+00  0.81564711885E+03  0.81564711886E+03  0.50400001928E-02 0. -1.
       -1   -1    0    0    0  501  0.00000000000E+00  0.00000000000E+00 -0.31953125744E+03  0.31953125748E+03  0.50400001928E-02 0.  1.
    10030    2    1    2    0    0  0.00000000000E+00  0.00000000000E+00  0.49611586141E+03  0.11351783763E+04  0.10210284022E+04 0.  0.
        1    1    3    3  502    0 -0.14557455236E+03  0.87308008753E+02  0.78335205205E+03  0.80153295389E+03  0.50400001928E-02 0. -1.
       -1    1    3    3    0  502  0.14557455236E+03 -0.87308008753E+02 -0.28723619064E+03  0.33364542246E+03  0.50400001928E-02 0.  1.
</event>
<event>
 5   0  0.1245850E-02  0.9593812E+03  0.7818609E-02  0.9354252E-01
        2   -1    0    0  501    0  0.00000000000E+00  0.00000000000E+00  0.44037008730E+03  0.44037008731E+03  0.25500000920E-02 0.  1.
       -2   -1    0    0    0  501  0.00000000000E+00  0.00000000000E+00 -0.52252206672E+03  0.52252206673E+03  0.25500000920E-02 0. -1.
    10030    2    1    2    0    0  0.00000000000E+00  0.00000000000E+00 -0.82151979419E+02  0.96289215404E+03  0.95938123422E+03 0.  0.
        3    1    3    3  502    0  0.45684073577E+03  0.54520582862E+00 -0.18789640360E+03  0.49397249295E+03  0.10100000352E+00 0. -1.
       -3    1    3    3    0  502 -0.45684073577E+03 -0.54520582862E+00  0.10574442419E+03  0.46891966108E+03  0.10100000352E+00 0.  1.
</event>
<event>
 5   0  0.7461157E-03  0.1062989E+04  0.7818609E-02  0.9242036E-01
       -1   -1    0    0    0  501  0.00000000000E+00  0.00000000000E+00  0.24569481123E+03  0.24569481128E+03  0.50400001928E-02 0. -1.
        1   -1    0    0  501    0  0.00000000000E+00  0.00000000000E+00 -0.11497440321E+04  0.11497440321E+04  0.50400001928E-02 0.  1.
    10030    2    1    2    0    0  0.00000000000E+00  0.00000000000E+00 -0.90404922085E+03  0.13954388434E+04  0.10629885098E+04 0.  0.
        2    1    3    3  502    0 -0.37598390387E+02  0.52814946925E+03 -0.39142951217E+03  0.65846227214E+03  0.25500000920E-02 0.  1.
       -2    1    3    3    0  502  0.37598390387E+02 -0.52814946925E+03 -0.51261970868E+03  0.73697657124E+03  0.25500000920E-02 0. -1.
</event>
<event>
 5   0  0.4782125E-03  0.9993783E+03  0.7818609E-02  0.9309227E-01
        3   -1    0    0  501    0  0.00000000000E+00  0.00000000000E+00  0.52674210981E+03  0.52674211950E+03  0.10100000352E+00 0.  1.
       -3   -1    0    0    0  501  0.00000000000E+00  0.00000000000E+00 -0.47402556645E+03  0.47402557721E+03  0.10100000352E+00 0. -1.
    10030    2    1    2    0    0  0.00000000000E+00  0.00000000000E+00  0.52716543361E+02  0.10007676967E+04  0.99937828115E+03 0.  0.
        1    1    3    3  502    0 -0.39016287225E+03 -0.28624377922E+03  0.15113756485E+03  0.50695673539E+03  0.50400001928E-02 0.  1.
       -1    1    3    3    0  502  0.39016287225E+03  0.28624377922E+03 -0.98421021485E+02  0.49381096132E+03  0.50400001928E-02 0. -1.
</event>
<event>
 5   0  0.7461157E-03  0.1006332E+04  0.7818609E-02  0.9301627E-01
       -1   -1    0    0    0  501  0.00000000000E+00  0.00000000000E+00  0.71704179407E+03  0.71704179408E+03  0.50400001928E-02 0.  1.
        1   -1    0    0  501    0  0.00000000000E+00  0.00000000000E+00 -0.35308396572E+03  0.35308396576E+03  0.50400001928E-02 0. -1.
    10030    2    1    2    0    0  0.00000000000E+00  0.00000000000E+00  0.36395782834E+03  0.10701257598E+04  0.10063318742E+04 0.  0.
        2    1    3    3  502    0  0.17060520193E+03 -0.31908496587E+03  0.55379331961E+03  0.66151975876E+03  0.25500000920E-02 0.  1.
       -2    1    3    3    0  502 -0.17060520193E+03  0.31908496587E+03 -0.18983549127E+03  0.40860600108E+03  0.25500000920E-02 0. -1.
</event>
<event>
 5   0  0.1221315E-02  0.1014930E+04  0.7818609E-02  0.9292320E-01
       -2   -1    0    0    0  501  0.00000000000E+00  0.00000000000E+00  0.23761964406E+03  0.23761964407E+03  0.25500000920E-02 0. -1.
        2   -1    0    0  501    0  0.00000000000E+00  0.00000000000E+00 -0.10837511709E+04  0.10837511709E+04  0.25500000920E-02 0.  1.
    10030    2    1    2    0    0  0.00000000000E+00  0.00000000000E+00 -0.84613152684E+03  0.13213708150E+04  0.10149296872E+04 0.  0.
        5    1    3    3  502    0 -0.40160546102E+03 -0.90608964771E+02 -0.36846521641E+02  0.41337233455E+03  0.46999998093E+01 0. -1.
       -5    1    3    3    0  502  0.40160546102E+03  0.90608964771E+02 -0.80928500520E+03  0.90799848042E+03  0.46999998093E+01 0.  1.
</event>
<event>
 5   0  0.1191822E-02  0.1001688E+04  0.7818609E-02  0.9306695E-01
       -2   -1    0    0    0  501  0.00000000000E+00  0.00000000000E+00  0.14938724747E+03  0.14938724749E+03  0.25500000920E-02 0.  1.
        2   -1    0    0  501    0  0.00000000000E+00  0.00000000000E+00 -0.16791578987E+04  0.16791578987E+04  0.25500000920E-02 0. -1.
    10030    2    1    2    0    0  0.00000000000E+00  0.00000000000E+00 -0.15297706513E+04  0.18285451462E+04  0.10016881283E+04 0.  0.
        4    1    3    3  502    0  0.28337772150E+03  0.19099185515E+03 -0.96500530683E+02  0.35509827808E+03  0.12699999809E+01 0.  1.
       -4    1    3    3    0  502 -0.28337772150E+03 -0.19099185515E+03 -0.14332701206E+04  0.14734468681E+04  0.12699999809E+01 0. -1.
</event>
<event>
 5   0  0.7461157E-03  0.9985708E+03  0.7818609E-02  0.9310114E-01
        1   -1    0    0  501    0  0.00000000000E+00  0.00000000000E+00  0.12342003246E+04  0.12342003246E+04  0.50400001928E-02 0.  1.
       -1   -1    0    0    0  501  0.00000000000E+00  0.00000000000E+00 -0.20198173452E+03  0.20198173458E+03  0.50400001928E-02 0. -1.
    10030    2    1    2    0    0  0.00000000000E+00  0.00000000000E+00  0.10322185900E+04  0.14361820592E+04  0.99857082343E+03 0.  0.
        2    1    3    3  502    0  0.14569400419E+03 -0.33588558295E+03  0.10043481657E+04  0.10690000494E+04  0.25500000920E-02 0.  1.
       -2    1    3    3    0  502 -0.14569400419E+03  0.33588558295E+03  0.27870424302E+02  0.36718200970E+03  0.25500000920E-02 0. -1.
</event>
<event>
 5   0  0.7073004E-03  0.9952475E+03  0.7818609E-02  0.9313773E-01
        1   -1    0    0  501    0  0.00000000000E+00  0.00000000000E+00  0.13664056039E+04  0.13664056039E+04  0.50400001928E-02 0.  1.
       -1   -1    0    0    0  501  0.00000000000E+00  0.00000000000E+00 -0.18122687099E+03  0.18122687106E+03  0.50400001928E-02 0. -1.
    10030    2    1    2    0    0  0.00000000000E+00  0.00000000000E+00  0.11851787329E+04  0.15476324749E+04  0.99524753132E+03 0.  0.
        1    1    3    3  502    0 -0.44837634837E+03  0.16581909500E+03  0.80745327053E+03  0.93835926284E+03  0.50400001928E-02 0.  1.
       -1    1    3    3    0  502  0.44837634837E+03 -0.16581909500E+03  0.37772546236E+03  0.60927321210E+03  0.50400001928E-02 0. -1.
</event>
<event>
 5   0  0.7224879E-03  0.1042594E+04  0.7818609E-02  0.9263024E-01
       -1   -1    0    0    0  501  0.00000000000E+00  0.00000000000E+00  0.26799693155E+03  0.26799693160E+03  0.50400001928E-02 0.  1.
        1   -1    0    0  501    0  0.00000000000E+00  0.00000000000E+00 -0.10140058300E+04  0.10140058300E+04  0.50400001928E-02 0. -1.
    10030    2    1    2    0    0  0.00000000000E+00  0.00000000000E+00 -0.74600889845E+03  0.12820027616E+04  0.10425937868E+04 0.  0.
        3    1    3    3  502    0  0.18088659429E+03  0.89294137149E+02  0.21805808159E+03  0.29705679603E+03  0.10100000352E+00 0.  1.
       -3    1    3    3    0  502 -0.18088659429E+03 -0.89294137149E+02 -0.96406698004E+03  0.98494596559E+03  0.10100000352E+00 0. -1.
</event>
<event>
 5   0  0.1216322E-02  0.1004933E+04  0.7818609E-02  0.9303151E-01
        2   -1    0    0  501    0  0.00000000000E+00  0.00000000000E+00  0.51023861986E+03  0.51023861987E+03  0.25500000920E-02 0. -1.
       -2   -1    0    0    0  501  0.00000000000E+00  0.00000000000E+00 -0.49481256269E+03  0.49481256270E+03  0.25500000920E-02 0.  1.
    10030    2    1    2    0    0  0.00000000000E+00  0.00000000000E+00  0.15426057171E+02  0.10050511826E+04  0.10049327919E+04 0.  0.
        2    1    3    3  502    0 -0.50107784776E+03  0.34532488846E+02 -0.64652692787E+01  0.50230797527E+03  0.25500000920E-02 0.  1.
       -2    1    3    3    0  502  0.50107784776E+03 -0.34532488846E+02  0.21891326450E+02  0.50274320730E+03  0.25500000920E-02 0. -1.
</event>
<event>
 5   0  0.7073004E-03  0.9130966E+03  0.7818609E-02  0.9409356E-01
       -1   -1    0    0    0  501  0.00000000000E+00  0.00000000000E+00  0.16074548965E+04  0.16074548965E+04  0.50400001928E-02 0.  1.
        1   -1    0    0  501    0  0.00000000000E+00  0.00000000000E+00 -0.12966856231E+03  0.12966856241E+03  0.50400001928E-02 0. -1.
    10030    2    1    2    0    0  0.00000000000E+00  0.00000000000E+00  0.14777863342E+04  0.17371234589E+04  0.91309663345E+03 0.  0.
        1    1    3    3  502    0 -0.41755339456E+03 -0.78562608515E+02  0.42104430496E+03  0.59816488323E+03  0.50400001928E-02 0. -1.
       -1    1    3    3    0  502  0.41755339456E+03  0.78562608515E+02  0.10567420292E+04  0.11389585757E+04  0.50400001928E-02 0.  1.
</event>
<event>
 5   0  0.1221315E-02  0.1003327E+04  0.7818609E-02  0.9304903E-01
       -2   -1    0    0    0  501  0.00000000000E+00  0.00000000000E+00  0.36837816188E+03  0.36837816189E+03  0.25500000920E-02 0.  1.
        2   -1    0    0  501    0  0.00000000000E+00  0.00000000000E+00 -0.68317434364E+03  0.68317434364E+03  0.25500000920E-02 0. -1.
    10030    2    1    2    0    0  0.00000000000E+00  0.00000000000E+00 -0.31479618176E+03  0.10515525055E+04  0.10033274819E+04 0.  0.
        5    1    3    3  502    0 -0.24719637422E+03 -0.38757378490E+03 -0.36786076324E+03  0.58878104360E+03  0.46999998093E+01 0. -1.
       -5    1    3    3    0  502  0.24719637422E+03  0.38757378490E+03  0.53064581487E+02  0.46277146193E+03  0.46999998093E+01 0.  1.
</event>
<event>
 5   0  0.7224879E-03  0.9944071E+03  0.7818609E-02  0.9314700E-01
       -1   -1    0    0    0  501  0.00000000000E+00  0.00000000000E+00  0.67767721285E+03  0.67767721287E+03  0.50400001928E-02 0.  1.
        1   -1    0    0  501    0  0.00000000000E+00  0.00000000000E+00 -0.36479223613E+03  0.36479223617E+03  0.50400001928E-02 0. -1.
    10030    2    1    2    0    0  0.00000000000E+00  0.00000000000E+00  0.31288497672E+03  0.10424694490E+04  0.99440713168E+03 0.  0.
        3    1    3    3  502    0 -0.36838436536E+03  0.32267827055E+03  0.24652024511E+03  0.54827050658E+03  0.10100000352E+00 0.  1.
       -3    1    3    3    0  502  0.36838436536E+03 -0.32267827055E+03  0.66364731607E+02  0.49419894246E+03  0.10100000352E+00 0. -1.
</event>
<event>
 5   0  0.1216322E-02  0.1000608E+04  0.7818609E-02  0.9307878E-01
        2   -1    0    0  501    0  0.00000000000E+00  0.00000000000E+00  0.85960531872E+03  0.85960531872E+03  0.25500000920E-02 0.  1.
       -2   -1    0    0    0  501  0.00000000000E+00  0.00000000000E+00 -0.29118511668E+03  0.29118511669E+03  0.25500000920E-02 0. -1.
    10030    2    1    2    0    0  0.00000000000E+00  0.00000000000E+00  0.56842020203E+03  0.11507904354E+04  0.10006083650E+04 0.  0.
        2    1    3    3  502    0 -0.23763931299E+03  0.40750392114E+03  0.47587329114E+03  0.67006512971E+03  0.25500000920E-02 0.  1.
       -2    1    3    3    0  502  0.23763931299E+03 -0.40750392114E+03  0.92546910893E+02  0.48072530571E+03  0.25500000920E-02 0. -1.
</event>
<event>
 5   0  0.4782125E-03  0.1006074E+04  0.7818609E-02  0.9301908E-01
       -3   -1    0    0    0  501  0.00000000000E+00  0.00000000000E+00  0.91927479771E+03  0.91927480326E+03  0.10100000352E+00 0. -1.
        3   -1    0    0  501    0  0.00000000000E+00  0.00000000000E+00 -0.27526728485E+03  0.27526730337E+03  0.10100000352E+00 0.  1.
    10030    2    1    2    0    0  0.00000000000E+00  0.00000000000E+00  0.64400751286E+03  0.11945421066E+04  0.10060741364E+04 0.  0.
        2    1    3    3  502    0 -0.19116324127E+03 -0.36955868150E+03 -0.13675458442E+02  0.41629799670E+03  0.25500000920E-02 0.  1.
       -2    1    3    3    0  502  0.19116324127E+03  0.36955868150E+03  0.65768297130E+03  0.77824410993E+03  0.25500000920E-02 0. -1.
</event>
<event>
 5   0  0.1221315E-02  0.1024180E+04  0.7818609E-02  0.9282415E-01
       -2   -1    0    0    0  501  0.00000000000E+00  0.00000000000E+00  0.28854182700E+03  0.28854182701E+03  0.25500000920E-02 0.  1.
        2   -1    0    0  501    0  0.00000000000E+00  0.00000000000E+00 -0.90883277855E+03  0.90883277855E+03  0.25500000920E-02 0. -1.
    10030    2    1    2    0    0  0.00000000000E+00  0.00000000000E+00 -0.62029095155E+03  0.11973746056E+04  0.10241801997E+04 0.  0.
        5    1    3    3  502    0 -0.24213434255E+03  0.44851551931E+03 -0.25264534127E+03  0.56889978851E+03  0.46999998093E+01 0. -1.
       -5    1    3    3    0  502  0.24213434255E+03 -0.44851551931E+03 -0.36764561028E+03  0.62847481705E+03  0.46999998093E+01 0.  1.
</event>
<event>
 5   0  0.7073004E-03  0.9911507E+03  0.7818609E-02  0.9318304E-01
        1   -1    0    0  501    0  0.00000000000E+00  0.00000000000E+00  0.12808260055E+04  0.12808260055E+04  0.50400001928E-02 0. -1.
       -1   -1    0    0    0  501  0.00000000000E+00  0.00000000000E+00 -0.19174728796E+03  0.19174728803E+03  0.50400001928E-02 0.  1.
    10030    2    1    2    0    0  0.00000000000E+00  0.00000000000E+00  0.10890787176E+04  0.14725732936E+04  0.99115067062E+03 0.  0.
        1    1    3    3  502    0  0.15275033892E+03 -0.18417554418E+03 -0.10023890243E+03  0.25942462239E+03  0.50400001928E-02 0.  1.
       -1    1    3    3    0  502 -0.15275033892E+03  0.18417554418E+03  0.11893176200E+04  0.12131486712E+04  0.50400001928E-02 0. -1.
</event>
<event>
 5   0  0.7461157E-03  0.1030379E+04  0.7818609E-02  0.9275839E-01
        1   -1    0    0  501    0  0.00000000000E+00  0.00000000000E+00  0.11170371776E+04  0.11170371777E+04  0.50400001928E-02 0. -1.
       -1   -1    0    0    0  501  0.00000000000E+00  0.00000000000E+00 -0.23761105979E+03  0.23761105984E+03  0.50400001928E-02 0.  1.
    10030    2    1    2    0    0  0.00000000000E+00  0.00000000000E+00  0.87942611786E+03  0.13546482375E+04  0.10303793236E+04 0.  0.
        2    1    3    3  502    0 -0.27133892886E+03  0.30198401229E+03  0.85670824909E+03  0.94803385069E+03  0.25500000920E-02 0. -1.
       -2    1    3    3    0  502  0.27133892886E+03 -0.30198401229E+03  0.22717868773E+02  0.40661438681E+03  0.25500000920E-02 0.  1.
</event>
<event>
 5   0  0.1245850E-02  0.1008020E+04  0.7818609E-02  0.9299792E-01
       -2   -1    0    0    0  501  0.00000000000E+00  0.00000000000E+00  0.43636339341E+03  0.43636339342E+03  0.25500000920E-02 0. -1.
        2   -1    0    0  501    0  0.00000000000E+00  0.00000000000E+00 -0.58214373306E+03  0.58214373307E+03  0.25500000920E-02 0.  1.
    10030    2    1    2    0    0  0.00000000000E+00  0.00000000000E+00 -0.14578033965E+03  0.10185071265E+04  0.10080202673E+04 0.  0.
        3    1    3    3  502    0  0.27182049385E+03 -0.26438689052E+03 -0.40836753253E+03  0.55727090412E+03  0.10100000352E+00 0.  1.
       -3    1    3    3    0  502 -0.27182049385E+03  0.26438689052E+03  0.26258719287E+03  0.46123622236E+03  0.10100000352E+00 0. -1.
</event>
<event>
 5   0  0.7224879E-03  0.9935946E+03  0.7818609E-02  0.9315598E-01
       -1   -1    0    0    0  501  0.00000000000E+00  0.00000000000E+00  0.24197007269E+03  0.24197007274E+03  0.50400001928E-02 0.  1.
        1   -1    0    0  501    0  0.00000000000E+00  0.00000000000E+00 -0.10199921561E+04  0.10199921561E+04  0.50400001928E-02 0. -1.
    10030    2    1    2    0    0  0.00000000000E+00  0.00000000000E+00 -0.77802208338E+03  0.12619622288E+04  0.99359463804E+03 0.  0.
        3    1    3    3  502    0 -0.55392357294E+02 -0.13773205043E+03  0.21314001725E+03  0.25974431296E+03  0.10100000352E+00 0.  1.
       -3    1    3    3    0  502  0.55392357294E+02  0.13773205043E+03 -0.99116210062E+03  0.10022179159E+04  0.10100000352E+00 0. -1.
</event>
<event>
 5   0  0.1240503E-02  0.1000085E+04  0.7818609E-02  0.9308452E-01
        2   -1    0    0  501    0  0.00000000000E+00  0.00000000000E+00  0.70067451619E+03  0.70067451619E+03  0.25500000920E-02 0. -1.
       -2   -1    0    0    0  501  0.00000000000E+00  0.00000000000E+00 -0.35685946590E+03  0.35685946591E+03  0.25500000920E-02 0.  1.
    10030    2    1    2    0    0  0.00000000000E+00  0.00000000000E+00  0.34381505028E+03  0.10575339821E+04  0.10000846637E+04 0.  0.
        1    1    3    3  502    0 -0.24698668502E+03  0.35223288302E+03 -0.97630704576E+02  0.44113737198E+03  0.50400001928E-02 0.  1.
       -1    1    3    3    0  502  0.24698668502E+03 -0.35223288302E+03  0.44144575486E+03  0.61639661012E+03  0.50400001928E-02 0. -1.
</event>
<event>
 5   0  0.7073004E-03  0.9445870E+03  0.7818609E-02  0.9371500E-01
        1   -1    0    0  501    0  0.00000000000E+00  0.00000000000E+00  0.25871372744E+03  0.25871372749E+03  0.50400001928E-02 0.  1.
       -1   -1    0    0    0  501  0.00000000000E+00  0.00000000000E+00 -0.86219290006E+03  0.86219290007E+03  0.50400001928E-02 0. -1.
    10030    2    1    2    0    0  0.00000000000E+00  0.00000000000E+00 -0.60347917261E+03  0.11209066276E+04  0.94458697638E+03 0.  0.
        1    1    3    3  502    0  0.12901898984E+03 -0.43826732913E+03 -0.15965190214E+03  0.48395545395E+03  0.50400001928E-02 0.  1.
       -1    1    3    3    0  502 -0.12901898984E+03  0.43826732913E+03 -0.44382727048E+03  0.63695117362E+03  0.50400001928E-02 0. -1.
</event>
<event>
 5   0  0.1216322E-02  0.9155170E+03  0.7818609E-02  0.9406390E-01
        2   -1    0    0  501    0  0.00000000000E+00  0.00000000000E+00  0.13879255162E+04  0.13879255162E+04  0.25500000920E-02 0.  1.
       -2   -1    0    0    0  501  0.00000000000E+00  0.00000000000E+00 -0.15097555288E+03  0.15097555290E+03  0.25500000920E-02 0. -1.
    10030    2    1    2    0    0  0.00000000000E+00  0.00000000000E+00  0.12369499633E+04  0.15389010691E+04  0.91551695162E+03 0.  0.
        2    1    3    3  502    0  0.17973378427E+03  0.23925343368E+03  0.12007503111E+04  0.12374763628E+04  0.25500000920E-02 0.  1.
       -2    1    3    3    0  502 -0.17973378427E+03 -0.23925343368E+03  0.36199652150E+02  0.30142470629E+03  0.25500000920E-02 0. -1.
</event>
<event>
 5   0  0.7224879E-03  0.9935296E+03  0.7818609E-02  0.9315670E-01
       -1   -1    0    0    0  501  0.00000000000E+00  0.00000000000E+00  0.88213452863E+03  0.88213452864E+03  0.50400001928E-02 0.  1.
        1   -1    0    0  501    0  0.00000000000E+00  0.00000000000E+00 -0.27974790889E+03  0.27974790893E+03  0.50400001928E-02 0. -1.
    10030    2    1    2    0    0  0.00000000000E+00  0.00000000000E+00  0.60238661974E+03  0.11618824376E+04  0.99352964682E+03 0.  0.
        3    1    3    3  502    0 -0.13374444949E+03  0.22759322713E+03 -0.19093367496E+03  0.32579431125E+03  0.10100000352E+00 0. -1.
       -3    1    3    3    0  502  0.13374444949E+03 -0.22759322713E+03  0.79332029470E+03  0.83608812633E+03  0.10100000352E+00 0.  1.
</event>
<event>
 5   0  0.1191822E-02  0.1032134E+04  0.7818609E-02  0.9273987E-01
       -2   -1    0    0    0  501  0.00000000000E+00  0.00000000000E+00  0.24906841513E+03  0.24906841515E+03  0.25500000920E-02 0.  1.
        2   -1    0    0  501    0  0.00000000000E+00  0.00000000000E+00 -0.10692841090E+04  0.10692841090E+04  0.25500000920E-02 0. -1.
    10030    2    1    2    0    0  0.00000000000E+00  0.00000000000E+00 -0.82021569390E+03  0.13183525242E+04  0.10321335153E+04 0.  0.
        4    1    3    3  502    0  0.19142703994E+03 -0.11105394404E+03  0.18537807098E+03  0.28869349180E+03  0.12699999809E+01 0.  1.
       -4    1    3    3    0  502 -0.19142703994E+03  0.11105394404E+03 -0.10055937649E+04  0.10296590324E+04  0.12699999809E+01 0. -1.
</event>
<event>
 5   0  0.1240503E-02  0.9973990E+03  0.7818609E-02  0.9311402E-01
       -2   -1    0    0    0  501  0.00000000000E+00  0.00000000000E+00  0.15634106586E+03  0.15634106588E+03  0.25500000920E-02 0. -1.
        2   -1    0    0  501    0  0.00000000000E+00  0.00000000000E+00 -0.15907604743E+04  0.15907604743E+04  0.25500000920E-02 0.  1.
    10030    2    1    2    0    0  0.00000000000E+00  0.00000000000E+00 -0.14344194084E+04  0.17471015402E+04  0.99739899358E+03 0.  0.
        1    1    3    3  502    0 -0.41518274829E+03 -0.14780953640E+03 -0.30836810972E+03  0.53788034417E+03  0.50400001928E-02 0. -1.
       -1    1    3    3    0  502  0.41518274829E+03  0.14780953640E+03 -0.11260512987E+04  0.12092211960E+04  0.50400001928E-02 0.  1.
</event>
<event>
 5   0  0.7224879E-03  0.1001380E+04  0.7818609E-02  0.9307032E-01
       -1   -1    0    0    0  501  0.00000000000E+00  0.00000000000E+00  0.46593504262E+03  0.46593504265E+03  0.50400001928E-02 0. -1.
        1   -1    0    0  501    0  0.00000000000E+00  0.00000000000E+00 -0.53803774968E+03  0.53803774970E+03  0.50400001928E-02 0.  1.
    10030    2    1    2    0    0  0.00000000000E+00  0.00000000000E+00 -0.72102707057E+02  0.10039727923E+04  0.10013803310E+04 0.  0.
        3    1    3    3  502    0 -0.35511239973E+03  0.35189861733E+03 -0.63566497963E+02  0.50396246207E+03  0.10100000352E+00 0.  1.
       -3    1    3    3    0  502  0.35511239973E+03 -0.35189861733E+03 -0.85362090938E+01  0.50001033027E+03  0.10100000352E+00 0. -1.
</event>
<event>
 5   0  0.6967681E-03  0.9830996E+03  0.7818609E-02  0.9327278E-01
        1   -1    0    0  501    0  0.00000000000E+00  0.00000000000E+00  0.28693982172E+03  0.28693982177E+03  0.50400001928E-02 0. -1.
       -1   -1    0    0    0  501  0.00000000000E+00  0.00000000000E+00 -0.84206223460E+03  0.84206223462E+03  0.50400001928E-02 0.  1.
    10030    2    1    2    0    0  0.00000000000E+00  0.00000000000E+00 -0.55512241288E+03  0.11290020564E+04  0.98309956263E+03 0.  0.
        5    1    3    3  502    0  0.11268635503E+03 -0.47393740881E+03 -0.35272918668E+03  0.60146059822E+03  0.46999998093E+01 0.  1.
       -5    1    3    3    0  502 -0.11268635503E+03  0.47393740881E+03 -0.20239322620E+03  0.52754145817E+03  0.46999998093E+01 0. -1.
</event>
<event>
 5   0  0.7224879E-03  0.9712840E+03  0.7818609E-02  0.9340613E-01
        1   -1    0    0  501    0  0.00000000000E+00  0.00000000000E+00  0.23043371886E+03  0.23043371891E+03  0.50400001928E-02 0.  1.
       -1   -1    0    0    0  501  0.00000000000E+00  0.00000000000E+00 -0.10234967234E+04  0.10234967234E+04  0.50400001928E-02 0. -1.
    10030    2    1    2    0    0  0.00000000000E+00  0.00000000000E+00 -0.79306300458E+03  0.12539304424E+04  0.97128400843E+03 0.  0.
        3    1    3    3  502    0 -0.11956712059E+03  0.29955298360E+03  0.72192971641E+02  0.33051493410E+03  0.10100000352E+00 0.  1.
       -3    1    3    3    0  502  0.11956712059E+03 -0.29955298360E+03 -0.86525597622E+03  0.92341550826E+03  0.10100000352E+00 0. -1.
</event>
<event>
 5   0  0.6967681E-03  0.9983739E+03  0.7818609E-02  0.9310330E-01
       -1   -1    0    0    0  501  0.00000000000E+00  0.00000000000E+00  0.45698539162E+03  0.45698539165E+03  0.50400001928E-02 0. -1.
        1   -1    0    0  501    0  0.00000000000E+00  0.00000000000E+00 -0.54528567442E+03  0.54528567445E+03  0.50400001928E-02 0.  1.
    10030    2    1    2    0    0  0.00000000000E+00  0.00000000000E+00 -0.88300282802E+02  0.10022710661E+04  0.99837385282E+03 0.  0.
        5    1    3    3  502    0  0.38077183562E+03 -0.10502815146E+03  0.26224180780E+03  0.47414234061E+03  0.46999998093E+01 0. -1.
       -5    1    3    3    0  502 -0.38077183562E+03  0.10502815146E+03 -0.35054209060E+03  0.52812872549E+03  0.46999998093E+01 0.  1.
</event>
<event>
 5   0  0.1216322E-02  0.9802023E+03  0.7818609E-02  0.9330529E-01
        2   -1    0    0  501    0  0.00000000000E+00  0.00000000000E+00  0.50901063488E+03  0.50901063489E+03  0.25500000920E-02 0.  1.
       -2   -1    0    0    0  501  0.00000000000E+00  0.00000000000E+00 -0.47189417508E+03  0.47189417508E+03  0.25500000920E-02 0. -1.
    10030    2    1    2    0    0  0.00000000000E+00  0.00000000000E+00  0.37116459803E+02  0.98090480997E+03  0.98020233352E+03 0.  0.
        2    1    3    3  502    0 -0.42988655594E+03 -0.37065759604E+02  0.25115292546E+03  0.49925355631E+03  0.25500000920E-02 0.  1.
       -2    1    3    3    0  502  0.42988655594E+03  0.37065759604E+02 -0.21403646566E+03  0.48165125366E+03  0.25500000920E-02 0. -1.
</event>
<event>
 5   0  0.7224879E-03  0.9980086E+03  0.7818609E-02  0.9310732E-01
       -1   -1    0    0    0  501  0.00000000000E+00  0.00000000000E+00  0.66627141368E+03  0.66627141370E+03  0.50400001928E-02 0.  1.
        1   -1    0    0  501    0  0.00000000000E+00  0.00000000000E+00 -0.37372952364E+03  0.37372952368E+03  0.50400001928E-02 0. -1.
    10030    2    1    2    0    0  0.00000000000E+00  0.00000000000E+00  0.29254189004E+03  0.10400009374E+04  0.99800861335E+03 0.  0.
        3    1    3    3  502    0 -0.27980180456E+03 -0.35083504389E+03 -0.81157266796E+02  0.45602718122E+03  0.10100000352E+00 0.  1.
       -3    1    3    3    0  502  0.27980180456E+03  0.35083504389E+03  0.37369915684E+03  0.58397375616E+03  0.10100000352E+00 0. -1.
</event>
<event>
 5   0  0.1240503E-02  0.1002875E+04  0.7818609E-02  0.9305398E-01
        2   -1    0    0  501    0  0.00000000000E+00  0.00000000000E+00  0.50957686238E+03  0.50957686239E+03  0.25500000920E-02 0.  1.
       -2   -1    0    0    0  501  0.00000000000E+00  0.00000000000E+00 -0.49342777280E+03  0.49342777281E+03  0.25500000920E-02 0. -1.
    10030    2    1    2    0    0  0.00000000000E+00  0.00000000000E+00  0.16149089579E+02  0.10030046352E+04  0.10028746208E+04 0.  0.
        1    1    3    3  502    0  0.73727716585E+02  0.15271930490E+03  0.48002597772E+03  0.50910107208E+03  0.50400001928E-02 0.  1.
       -1    1    3    3    0  502 -0.73727716585E+02 -0.15271930490E+03 -0.46387688814E+03  0.49390356312E+03  0.50400001928E-02 0. -1.
</event>
<event>
 5   0  0.1191822E-02  0.1002571E+04  0.7818609E-02  0.9305730E-01
       -2   -1    0    0    0  501  0.00000000000E+00  0.00000000000E+00  0.36524578805E+03  0.36524578806E+03  0.25500000920E-02 0. -1.
        2   -1    0    0  501    0  0.00000000000E+00  0.00000000000E+00 -0.68799398650E+03  0.68799398651E+03  0.25500000920E-02 0.  1.
    10030    2    1    2    0    0  0.00000000000E+00  0.00000000000E+00 -0.32274819845E+03  0.10532397746E+04  0.10025705078E+04 0.  0.
        4    1    3    3  502    0  0.22722542695E+03 -0.14515657308E+02  0.30778693681E+03  0.38285311848E+03  0.12699999809E+01 0. -1.
       -4    1    3    3    0  502 -0.22722542695E+03  0.14515657308E+02 -0.63053513526E+03  0.67038665609E+03  0.12699999809E+01 0.  1.
</event>
<event>
 5   0  0.7224879E-03  0.1017246E+04  0.7818609E-02  0.9289830E-01
        1   -1    0    0  501    0  0.00000000000E+00  0.00000000000E+00  0.12741848003E+04  0.12741848003E+04  0.50400001928E-02 0.  1.
       -1   -1    0    0    0  501  0.00000000000E+00  0.00000000000E+00 -0.20302959651E+03  0.20302959657E+03  0.50400001928E-02 0. -1.
    10030    2    1    2    0    0  0.00000000000E+00  0.00000000000E+00  0.10711552038E+04  0.14772143969E+04  0.10172457440E+04 0.  0.
        3    1    3    3  502    0  0.41397630274E+03  0.26804427121E+03  0.71621446753E+03  0.86959029678E+03  0.10100000352E+00 0.  1.
       -3    1    3    3    0  502 -0.41397630274E+03 -0.26804427121E+03  0.35494073626E+03  0.60762410010E+03  0.10100000352E+00 0. -1.
</event>
<event>
 5   0  0.1245850E-02  0.1009110E+04  0.7818609E-02  0.9298609E-01
        2   -1    0    0  501    0  0.00000000000E+00  0.00000000000E+00  0.10650229264E+04  0.10650229264E+04  0.25500000920E-02 0. -1.
       -2   -1    0    0    0  501  0.00000000000E+00  0.00000000000E+00 -0.23903310381E+03  0.23903310382E+03  0.25500000920E-02 0.  1.
    10030    2    1    2    0    0  0.00000000000E+00  0.00000000000E+00  0.82598982262E+03  0.13040560303E+04  0.10091099757E+04 0.  0.
        3    1    3    3  502    0  0.25749225672E+03 -0.24971487459E+02  0.97279363913E+03  0.10066048440E+04  0.10100000352E+00 0. -1.
       -3    1    3    3    0  502 -0.25749225672E+03  0.24971487459E+02 -0.14680381651E+03  0.29745118625E+03  0.10100000352E+00 0.  1.
</event>
<event>
 5   0  0.1245850E-02  0.9972340E+03  0.7818609E-02  0.9311584E-01
       -2   -1    0    0    0  501  0.00000000000E+00  0.00000000000E+00  0.31318607910E+03  0.31318607911E+03  0.25500000920E-02 0. -1.
        2   -1    0    0  501    0  0.00000000000E+00  0.00000000000E+00 -0.79383767874E+03  0.79383767874E+03  0.25500000920E-02 0.  1.
    10030    2    1    2    0    0  0.00000000000E+00  0.00000000000E+00 -0.48065159964E+03  0.11070237578E+04  0.99723399471E+03 0.  0.
        3    1    3    3  502    0  0.13290404072E+03 -0.39449747242E+02 -0.77201244628E+03  0.78436151997E+03  0.10100000352E+00 0.  1.
       -3    1    3    3    0  502 -0.13290404072E+03  0.39449747242E+02  0.29136084664E+03  0.32266223788E+03  0.10100000352E+00 0. -1.
</event>
<event>
 5   0  0.7461157E-03  0.1000697E+04  0.7818609E-02  0.9307781E-01
        1   -1    0    0  501    0  0.00000000000E+00  0.00000000000E+00  0.10443093170E+04  0.10443093170E+04  0.50400001928E-02 0. -1.
       -1   -1    0    0    0  501  0.00000000000E+00  0.00000000000E+00 -0.23972645479E+03  0.23972645484E+03  0.50400001928E-02 0.  1.
    10030    2    1    2    0    0  0.00000000000E+00  0.00000000000E+00  0.80458286224E+03  0.12840357719E+04  0.10006968978E+04 0.  0.
        2    1    3    3  502    0 -0.36296463577E+03 -0.26155464937E+03  0.11481500210E+03  0.46188380156E+03  0.25500000920E-02 0.  1.
       -2    1    3    3    0  502  0.36296463577E+03  0.26155464937E+03  0.68976786014E+03  0.82215197033E+03  0.25500000920E-02 0. -1.
</event>
<event>
 5   0  0.6967681E-03  0.7858529E+03  0.7818609E-02  0.9580723E-01
        1   -1    0    0  501    0  0.00000000000E+00  0.00000000000E+00  0.67228231603E+03  0.67228231605E+03  0.50400001928E-02 0.  1.
       -1   -1    0    0    0  501  0.00000000000E+00  0.00000000000E+00 -0.22965230305E+03  0.22965230310E+03  0.50400001928E-02 0. -1.
    10030    2    1    2    0    0  0.00000000000E+00  0.00000000000E+00  0.44263001298E+03  0.90193461915E+03  0.78585286717E+03 0.  0.
        5    1    3    3  502    0  0.27688137235E+03  0.27873846938E+03  0.21756713547E+03  0.44912801861E+03  0.46999998093E+01 0. -1.
       -5    1    3    3    0  502 -0.27688137235E+03 -0.27873846938E+03  0.22506287751E+03  0.45280660054E+03  0.46999998093E+01 0.  1.
</event>
<event>
 5   0  0.7073004E-03  0.1009942E+04  0.7818609E-02  0.9297707E-01
        1   -1    0    0  501    0  0.00000000000E+00  0.00000000000E+00  0.98125086067E+03  0.98125086068E+03  0.50400001928E-02 0. -1.
       -1   -1    0    0    0  501  0.00000000000E+00  0.00000000000E+00 -0.25986812238E+03  0.25986812243E+03  0.50400001928E-02 0.  1.
    10030    2    1    2    0    0  0.00000000000E+00  0.00000000000E+00  0.72138273829E+03  0.12411189831E+04  0.10099422138E+04 0.  0.
        1    1    3    3  502    0  0.29449508260E+02  0.21912256366E+03  0.91860950367E+03  0.94484146379E+03  0.50400001928E-02 0. -1.
       -1    1    3    3    0  502 -0.29449508260E+02 -0.21912256366E+03 -0.19722676538E+03  0.29627751931E+03  0.50400001928E-02 0.  1.
</event>
<event>
 5   0  0.1221315E-02  0.9933322E+03  0.7818609E-02  0.9315888E-01
       -2   -1    0    0    0  501  0.00000000000E+00  0.00000000000E+00  0.27445032579E+03  0.27445032580E+03  0.25500000920E-02 0.  1.
        2   -1    0    0  501    0  0.00000000000E+00  0.00000000000E+00 -0.89880453405E+03  0.89880453405E+03  0.25500000920E-02 0. -1.
    10030    2    1    2    0    0  0.00000000000E+00  0.00000000000E+00 -0.62435420826E+03  0.11732548599E+04  0.99333216438E+03 0.  0.
        5    1    3    3  502    0  0.57461685367E+02  0.39367126448E+03  0.38950941440E+02  0.39977265490E+03  0.46999998093E+01 0. -1.
       -5    1    3    3    0  502 -0.57461685367E+02 -0.39367126448E+03 -0.66330514970E+03  0.77348220496E+03  0.46999998093E+01 0.  1.
</event>
<event>
 5   0  0.1245850E-02  0.9973604E+03  0.7818609E-02  0.9311445E-01
       -2   -1    0    0    0  501  0.00000000000E+00  0.00000000000E+00  0.29290744057E+03  0.29290744058E+03  0.25500000920E-02 0. -1.
        2   -1    0    0  501    0  0.00000000000E+00  0.00000000000E+00 -0.84901208239E+03  0.84901208240E+03  0.25500000920E-02 0.  1.
    10030    2    1    2    0    0  0.00000000000E+00  0.00000000000E+00 -0.55610464183E+03  0.11419195230E+04  0.99736042847E+03 0.  0.
        3    1    3    3  502    0 -0.10039294637E+03  0.47313397774E+03 -0.13901169855E+03  0.50324821620E+03  0.10100000352E+00 0. -1.
       -3    1    3    3    0  502  0.10039294637E+03 -0.47313397774E+03 -0.41709294327E+03  0.63867130678E+03  0.10100000352E+00 0.  1.
</event>
<event>
 5   0  0.1191822E-02  0.9839981E+03  0.7818609E-02  0.9326272E-01
       -2   -1    0    0    0  501  0.00000000000E+00  0.00000000000E+00  0.15680518239E+03  0.15680518241E+03  0.25500000920E-02 0.  1.
        2   -1    0    0  501    0  0.00000000000E+00  0.00000000000E+00 -0.15437185243E+04  0.15437185243E+04  0.25500000920E-02 0. -1.
    10030    2    1    2    0    0  0.00000000000E+00  0.00000000000E+00 -0.13869133419E+04  0.17005237067E+04  0.98399809914E+03 0.  0.
        4    1    3    3  502    0  0.14065456349E+03  0.43552539961E+03 -0.38144818805E+03  0.59579393502E+03  0.12699999809E+01 0.  1.
       -4    1    3    3    0  502 -0.14065456349E+03 -0.43552539961E+03 -0.10054651538E+04  0.11047297717E+04  0.12699999809E+01 0. -1.
</event>
<event>
 5   0  0.1245850E-02  0.9911825E+03  0.7818609E-02  0.9318269E-01
        2   -1    0    0  501    0  0.00000000000E+00  0.00000000000E+00  0.12945657868E+04  0.12945657868E+04  0.25500000920E-02 0.  1.
       -2   -1    0    0    0  501  0.00000000000E+00  0.00000000000E+00 -0.18972436518E+03  0.18972436519E+03  0.25500000920E-02 0. -1.
    10030    2    1    2    0    0  0.00000000000E+00  0.00000000000E+00  0.11048414216E+04  0.14842901520E+04  0.99118246978E+03 0.  0.
        3    1    3    3  502    0 -0.17242378797E+03  0.28793408128E+03  0.63490428027E+01  0.33567293362E+03  0.10100000352E+00 0. -1.
       -3    1    3    3    0  502  0.17242378797E+03 -0.28793408128E+03  0.10984923788E+04  0.11486172184E+04  0.10100000352E+00 0.  1.
</event>
<event>
 5   0  0.6967681E-03  0.9015473E+03  0.7818609E-02  0.9423649E-01
        1   -1    0    0  501    0  0.00000000000E+00  0.00000000000E+00  0.54218078939E+03  0.54218078942E+03  0.50400001928E-02 0.  1.
       -1   -1    0    0    0  501  0.00000000000E+00  0.00000000000E+00 -0.37477701959E+03  0.37477701962E+03  0.50400001928E-02 0. -1.
    10030    2    1    2    0    0  0.00000000000E+00  0.00000000000E+00  0.16740376980E+03  0.91695780904E+03  0.90154733731E+03 0.  0.
        5    1    3    3  502    0 -0.36655646132E+03 -0.16435673309E+03  0.29164222629E+03  0.49644138949E+03  0.46999998093E+01 0.  1.
       -5    1    3    3    0  502  0.36655646132E+03  0.16435673309E+03 -0.12423845648E+03  0.42051641955E+03  0.46999998093E+01 0. -1.
</event>
<event>
 5   0  0.7241200E-03  0.9979891E+03  0.7818609E-02  0.9310753E-01
       -1   -1    0    0    0  501  0.00000000000E+00  0.00000000000E+00  0.55596405049E+03  0.55596405051E+03  0.50400001928E-02 0. -1.
        1   -1    0    0  501    0  0.00000000000E+00  0.00000000000E+00 -0.44786272710E+03  0.44786272713E+03  0.50400001928E-02 0.  1.
    10030    2    1    2    0    0  0.00000000000E+00  0.00000000000E+00  0.10810132339E+03  0.10038267776E+04  0.99798912990E+03 0.  0.
        4    1    3    3  502    0  0.16460041660E+02  0.47032243117E+03 -0.11281075385E+03  0.48394421302E+03  0.12699999809E+01 0.  1.
       -4    1    3    3    0  502 -0.16460041660E+02 -0.47032243117E+03  0.22091207724E+03  0.51988256463E+03  0.12699999809E+01 0. -1.
</event>
<event>
 5   0  0.6967681E-03  0.9715838E+03  0.7818609E-02  0.9340272E-01
       -1   -1    0    0    0  501  0.00000000000E+00  0.00000000000E+00  0.14120201641E+03  0.14120201650E+03  0.50400001928E-02 0. -1.
        1   -1    0    0  501    0  0.00000000000E+00  0.00000000000E+00 -0.16713200112E+04  0.16713200112E+04  0.50400001928E-02 0.  1.
    10030    2    1    2    0    0  0.00000000000E+00  0.00000000000E+00 -0.15301179948E+04  0.18125220277E+04  0.97158377044E+03 0.  0.
        5    1    3    3  502    0 -0.23245344305E+03 -0.38865535307E+03 -0.43721263479E+03  0.62949548424E+03  0.46999998093E+01 0.  1.
       -5    1    3    3    0  502  0.23245344305E+03  0.38865535307E+03 -0.10929053600E+04  0.11830265435E+04  0.46999998093E+01 0. -1.
</event>
<event>
 5   0  0.7241200E-03  0.1031683E+04  0.7818609E-02  0.9274462E-01
       -1   -1    0    0    0  501  0.00000000000E+00  0.00000000000E+00  0.88072925393E+03  0.88072925395E+03  0.50400001928E-02 0. -1.
        1   -1    0    0  501    0  0.00000000000E+00  0.00000000000E+00 -0.30212748354E+03  0.30212748358E+03  0.50400001928E-02 0.  1.
    10030    2    1    2    0    0  0.00000000000E+00  0.00000000000E+00  0.57860177040E+03  0.11828567375E+04  0.10316831165E+04 0.  0.
        4    1    3    3  502    0  0.42319128856E+03 -0.21815694443E+03  0.61699073818E+02  0.48009551937E+03  0.12699999809E+01 0.  1.
       -4    1    3    3    0  502 -0.42319128856E+03  0.21815694443E+03  0.51690269658E+03  0.70276121816E+03  0.12699999809E+01 0. -1.
</event>
<event>
 5   0  0.1245850E-02  0.9892556E+03  0.7818609E-02  0.9320408E-01
       -2   -1    0    0    0  501  0.00000000000E+00  0.00000000000E+00  0.28488274325E+03  0.28488274326E+03  0.25500000920E-02 0.  1.
        2   -1    0    0  501    0  0.00000000000E+00  0.00000000000E+00 -0.85879768710E+03  0.85879768711E+03  0.25500000920E-02 0. -1.
    10030    2    1    2    0    0  0.00000000000E+00  0.00000000000E+00 -0.57391494385E+03  0.11436804304E+04  0.98925556053E+03 0.  0.
        3    1    3    3  502    0  0.28617642606E+03  0.33267347400E+03 -0.55081240186E+03  0.70424633430E+03  0.10100000352E+00 0. -1.
       -3    1    3    3    0  502 -0.28617642606E+03 -0.33267347400E+03 -0.23102541996E+02  0.43943409607E+03  0.10100000352E+00 0.  1.
</event>
<event>
 5   0  0.7224879E-03  0.8816465E+03  0.7818609E-02  0.9448820E-01
        1   -1    0    0  501    0  0.00000000000E+00  0.00000000000E+00  0.59111363351E+03  0.59111363353E+03  0.50400001928E-02 0.  1.
       -1   -1    0    0    0  501  0.00000000000E+00  0.00000000000E+00 -0.32874409536E+03  0.32874409540E+03  0.50400001928E-02 0. -1.
    10030    2    1    2    0    0  0.00000000000E+00  0.00000000000E+00  0.26236953815E+03  0.91985772893E+03  0.88164645234E+03 0.  0.
        3    1    3    3  502    0  0.26701199657E+03  0.19223514691E+03  0.43728636394E+03  0.54723772924E+03  0.10100000352E+00 0.  1.
       -3    1    3    3    0  502 -0.26701199657E+03 -0.19223514691E+03 -0.17491682579E+03  0.37261999969E+03  0.10100000352E+00 0. -1.
</event>
<event>
 5   0  0.1221315E-02  0.9960901E+03  0.7818609E-02  0.9312843E-01
        2   -1    0    0  501    0  0.00000000000E+00  0.00000000000E+00  0.10354254951E+04  0.10354254951E+04  0.25500000920E-02 0.  1.
       -2   -1    0    0    0  501  0.00000000000E+00  0.00000000000E+00 -0.23956227324E+03  0.23956227326E+03  0.25500000920E-02 0. -1.
    10030    2    1    2    0    0  0.00000000000E+00  0.00000000000E+00  0.79586322186E+03  0.12749877684E+04  0.99609012723E+03 0.  0.
        5    1    3    3  502    0 -0.29233388319E+03 -0.11027495218E+03  0.89434283950E+03  0.94735994685E+03  0.46999998093E+01 0.  1.
       -5    1    3    3    0  502  0.29233388319E+03  0.11027495218E+03 -0.98479617641E+02  0.32762782151E+03  0.46999998093E+01 0. -1.
</event>
<event>
 5   0  0.1245850E-02  0.1000277E+04  0.7818609E-02  0.9308241E-01
       -2   -1    0    0    0  501  0.00000000000E+00  0.00000000000E+00  0.38512557620E+03  0.38512557620E+03  0.25500000920E-02 0.  1.
        2   -1    0    0  501    0  0.00000000000E+00  0.00000000000E+00 -0.64949858994E+03  0.64949858994E+03  0.25500000920E-02 0. -1.
    10030    2    1    2    0    0  0.00000000000E+00  0.00000000000E+00 -0.26437301374E+03  0.10346241661E+04  0.10002769990E+04 0.  0.
        3    1    3    3  502    0 -0.16438380295E+03  0.13810453370E+01  0.35638293298E+03  0.39247005883E+03  0.10100000352E+00 0.  1.
       -3    1    3    3    0  502  0.16438380295E+03 -0.13810453370E+01 -0.62075594672E+03  0.64215410732E+03  0.10100000352E+00 0. -1.
</event>
<event>
 5   0  0.7224879E-03  0.9917439E+03  0.7818609E-02  0.9317647E-01
        1   -1    0    0  501    0  0.00000000000E+00  0.00000000000E+00  0.81302652106E+03  0.81302652107E+03  0.50400001928E-02 0.  1.
       -1   -1    0    0    0  501  0.00000000000E+00  0.00000000000E+00 -0.30243658946E+03  0.30243658950E+03  0.50400001928E-02 0. -1.
    10030    2    1    2    0    0  0.00000000000E+00  0.00000000000E+00  0.51058993160E+03  0.11154631106E+04  0.99174385443E+03 0.  0.
        3    1    3    3  502    0 -0.46830745159E+03  0.72010754002E+02  0.90790867968E+02  0.48243176701E+03  0.10100000352E+00 0. -1.
       -3    1    3    3    0  502  0.46830745159E+03 -0.72010754002E+02  0.41979906363E+03  0.63303134357E+03  0.10100000352E+00 0.  1.
</event>
<event>
 5   0  0.1191822E-02  0.8624892E+03  0.7818609E-02  0.9473726E-01
        2   -1    0    0  501    0  0.00000000000E+00  0.00000000000E+00  0.84965883844E+03  0.84965883844E+03  0.25500000920E-02 0.  1.
       -2   -1    0    0    0  501  0.00000000000E+00  0.00000000000E+00 -0.21887834403E+03  0.21887834404E+03  0.25500000920E-02 0. -1.
    10030    2    1    2    0    0  0.00000000000E+00  0.00000000000E+00  0.63078049441E+03  0.10685371825E+04  0.86248923368E+03 0.  0.
        4    1    3    3  502    0 -0.92737139840E+02 -0.91777249317E+02 -0.19383658998E+03  0.23366103037E+03  0.12699999809E+01 0. -1.
       -4    1    3    3    0  502  0.92737139840E+02  0.91777249317E+02  0.82461708439E+03  0.83487615212E+03  0.12699999809E+01 0.  1.
</event>
<event>
 5   0  0.4782125E-03  0.1005031E+04  0.7818609E-02  0.9303044E-01
        4   -1    0    0  501    0  0.00000000000E+00  0.00000000000E+00  0.59859126999E+03  0.59859261723E+03  0.12699999809E+01 0. -1.
       -4   -1    0    0    0  501  0.00000000000E+00  0.00000000000E+00 -0.42185719522E+03  0.42185910688E+03  0.12699999809E+01 0.  1.
    10030    2    1    2    0    0  0.00000000000E+00  0.00000000000E+00  0.17673407477E+03  0.10204517241E+04  0.10050307399E+04 0.  0.
        2    1    3    3  502    0  0.16046789293E+02  0.40496516389E+03  0.39002397586E+03  0.56247043048E+03  0.25500000920E-02 0. -1.
       -2    1    3    3    0  502 -0.16046789293E+02 -0.40496516389E+03 -0.21328990109E+03  0.45798129364E+03  0.25500000920E-02 0.  1.
</event>
<event>
 5   0  0.7461157E-03  0.1006598E+04  0.7818609E-02  0.9301338E-01
        1   -1    0    0  501    0  0.00000000000E+00  0.00000000000E+00  0.98830012644E+03  0.98830012645E+03  0.50400001928E-02 0.  1.
       -1   -1    0    0    0  501  0.00000000000E+00  0.00000000000E+00 -0.25630864641E+03  0.25630864646E+03  0.50400001928E-02 0. -1.
    10030    2    1    2    0    0  0.00000000000E+00  0.00000000000E+00  0.73199148003E+03  0.12446087729E+04  0.10065979688E+04 0.  0.
        2    1    3    3  502    0 -0.19571405973E+03 -0.38561691424E+03  0.47611555047E+02  0.43505316676E+03  0.25500000920E-02 0. -1.
       -2    1    3    3    0  502  0.19571405973E+03  0.38561691424E+03  0.68437992498E+03  0.80955560615E+03  0.25500000920E-02 0.  1.
</event>
<event>
 5   0  0.7241200E-03  0.1006005E+04  0.7818609E-02  0.9301984E-01
        1   -1    0    0  501    0  0.00000000000E+00  0.00000000000E+00  0.71746084754E+03  0.71746084756E+03  0.50400001928E-02 0. -1.
       -1   -1    0    0    0  501  0.00000000000E+00  0.00000000000E+00 -0.35264820824E+03  0.35264820828E+03  0.50400001928E-02 0.  1.
    10030    2    1    2    0    0  0.00000000000E+00  0.00000000000E+00  0.36481263930E+03  0.10701090558E+04  0.10060045376E+04 0.  0.
        4    1    3    3  502    0 -0.10515185752E+03 -0.21801977445E+03  0.65143426472E+03  0.69495161655E+03  0.12699999809E+01 0. -1.
       -4    1    3    3    0  502  0.10515185752E+03  0.21801977445E+03 -0.28662162542E+03  0.37515743929E+03  0.12699999809E+01 0.  1.
</event>
<event>
 5   0  0.7224879E-03  0.9691454E+03  0.7818609E-02  0.9343048E-01
        1   -1    0    0  501    0  0.00000000000E+00  0.00000000000E+00  0.10893456867E+04  0.10893456867E+04  0.50400001928E-02 0.  1.
       -1   -1    0    0    0  501  0.00000000000E+00  0.00000000000E+00 -0.21555203685E+03  0.21555203691E+03  0.50400001928E-02 0. -1.
    10030    2    1    2    0    0  0.00000000000E+00  0.00000000000E+00  0.87379364984E+03  0.13048977236E+04  0.96914535885E+03 0.  0.
        3    1    3    3  502    0 -0.12199707070E+03 -0.18683053614E+03  0.10160573192E+04  0.10402698787E+04  0.10100000352E+00 0.  1.
       -3    1    3    3    0  502  0.12199707070E+03  0.18683053614E+03 -0.14226366932E+03  0.26462784491E+03  0.10100000352E+00 0. -1.
</event>
<event>
 5   0  0.6967681E-03  0.1001893E+04  0.7818609E-02  0.9306471E-01
        1   -1    0    0  501    0  0.00000000000E+00  0.00000000000E+00  0.47631140259E+03  0.47631140262E+03  0.50400001928E-02 0.  1.
       -1   -1    0    0    0  501  0.00000000000E+00  0.00000000000E+00 -0.52685612649E+03  0.52685612652E+03  0.50400001928E-02 0. -1.
    10030    2    1    2    0    0  0.00000000000E+00  0.00000000000E+00 -0.50544723905E+02  0.10031675291E+04  0.10018933688E+04 0.  0.
        5    1    3    3  502    0  0.17472464104E+03  0.12780327893E+03 -0.47758030781E+03  0.52437335811E+03  0.46999998093E+01 0. -1.
       -5    1    3    3    0  502 -0.17472464104E+03 -0.12780327893E+03  0.42703558390E+03  0.47879417102E+03  0.46999998093E+01 0.  1.
</event>
<event>
 5   0  0.1240503E-02  0.9906751E+03  0.7818609E-02  0.9318832E-01
        2   -1    0    0  501    0  0.00000000000E+00  0.00000000000E+00  0.14887444268E+04  0.14887444268E+04  0.25500000920E-02 0. -1.
       -2   -1    0    0    0  501  0.00000000000E+00  0.00000000000E+00 -0.16480954970E+03  0.16480954972E+03  0.25500000920E-02 0.  1.
    10030    2    1    2    0    0  0.00000000000E+00  0.00000000000E+00  0.13239348771E+04  0.16535539765E+04  0.99067512053E+03 0.  0.
        1    1    3    3  502    0  0.31106962989E+03  0.37130284661E+03  0.83485764232E+03  0.96520329543E+03  0.50400001928E-02 0. -1.
       -1    1    3    3    0  502 -0.31106962989E+03 -0.37130284661E+03  0.48907723475E+03  0.68835068106E+03  0.50400001928E-02 0.  1.
</event>
<event>
 5   0  0.7073004E-03  0.9911716E+03  0.7818609E-02  0.9318281E-01
        1   -1    0    0  501    0  0.00000000000E+00  0.00000000000E+00  0.65428340732E+03  0.65428340734E+03  0.50400001928E-02 0.  1.
       -1   -1    0    0    0  501  0.00000000000E+00  0.00000000000E+00 -0.37538061247E+03  0.37538061250E+03  0.50400001928E-02 0. -1.
    10030    2    1    2    0    0  0.00000000000E+00  0.00000000000E+00  0.27890279486E+03  0.10296640198E+04  0.99117164244E+03 0.  0.
        1    1    3    3  502    0  0.24357568663E+03  0.12356770717E+03 -0.29013832548E+03  0.39847000052E+03  0.50400001928E-02 0. -1.
       -1    1    3    3    0  502 -0.24357568663E+03 -0.12356770717E+03  0.56904112034E+03  0.63119401933E+03  0.50400001928E-02 0.  1.
</event>
<event>
 5   0  0.1240503E-02  0.9778476E+03  0.7818609E-02  0.9333180E-01
        2   -1    0    0  501    0  0.00000000000E+00  0.00000000000E+00  0.13866317544E+04  0.13866317544E+04  0.25500000920E-02 0. -1.
       -2   -1    0    0    0  501  0.00000000000E+00  0.00000000000E+00 -0.17239362055E+03  0.17239362057E+03  0.25500000920E-02 0.  1.
    10030    2    1    2    0    0  0.00000000000E+00  0.00000000000E+00  0.12142381339E+04  0.15590253750E+04  0.97784757202E+03 0.  0.
        1    1    3    3  502    0  0.22259620619E+03 -0.43338515919E+03  0.54187354656E+03  0.72869658137E+03  0.50400001928E-02 0.  1.
       -1    1    3    3    0  502 -0.22259620619E+03  0.43338515919E+03  0.67236458730E+03  0.83032879361E+03  0.50400001928E-02 0. -1.
</event>
<event>
 5   0  0.7224879E-03  0.9868958E+03  0.7818609E-02  0.9323035E-01
        1   -1    0    0  501    0  0.00000000000E+00  0.00000000000E+00  0.13471517553E+04  0.13471517553E+04  0.50400001928E-02 0. -1.
       -1   -1    0    0    0  501  0.00000000000E+00  0.00000000000E+00 -0.18074492078E+03  0.18074492085E+03  0.50400001928E-02 0.  1.
    10030    2    1    2    0    0  0.00000000000E+00  0.00000000000E+00  0.11664068345E+04  0.15278966761E+04  0.98689581485E+03 0.  0.
        3    1    3    3  502    0 -0.92417803982E+02  0.28227306960E+03  0.11932581771E+04  0.12296683389E+04  0.10100000352E+00 0. -1.
       -3    1    3    3    0  502  0.92417803982E+02 -0.28227306960E+03 -0.26851342607E+02  0.29822833721E+03  0.10100000352E+00 0.  1.
</event>
<event>
 5   0  0.7461157E-03  0.9831985E+03  0.7818609E-02  0.9327167E-01
       -1   -1    0    0    0  501  0.00000000000E+00  0.00000000000E+00  0.31453418634E+03  0.31453418639E+03  0.50400001928E-02 0.  1.
        1   -1    0    0  501    0  0.00000000000E+00  0.00000000000E+00 -0.76834194345E+03  0.76834194347E+03  0.50400001928E-02 0. -1.
    10030    2    1    2    0    0  0.00000000000E+00  0.00000000000E+00 -0.45380775711E+03  0.10828761299E+04  0.98319847040E+03 0.  0.
        2    1    3    3  502    0  0.54061791869E+02 -0.31929645610E+02  0.31009999111E+03  0.31639245266E+03  0.25500000920E-02 0.  1.
       -2    1    3    3    0  502 -0.54061791869E+02  0.31929645610E+02 -0.76390774822E+03  0.76648367719E+03  0.25500000920E-02 0. -1.
</event>
<event>
 5   0  0.6967681E-03  0.1000175E+04  0.7818609E-02  0.9308352E-01
       -1   -1    0    0    0  501  0.00000000000E+00  0.00000000000E+00  0.97331829507E+03  0.97331829508E+03  0.50400001928E-02 0.  1.
        1   -1    0    0  501    0  0.00000000000E+00  0.00000000000E+00 -0.25694342246E+03  0.25694342251E+03  0.50400001928E-02 0. -1.
    10030    2    1    2    0    0  0.00000000000E+00  0.00000000000E+00  0.71637487261E+03  0.12302617176E+04  0.10001754524E+04 0.  0.
        5    1    3    3  502    0 -0.14526879975E+03 -0.47542899606E+03  0.42476791842E+03  0.65390032038E+03  0.46999998093E+01 0.  1.
       -5    1    3    3    0  502  0.14526879975E+03  0.47542899606E+03  0.29160695418E+03  0.57636139721E+03  0.46999998093E+01 0. -1.
</event>
<event>
 5   0  0.1221315E-02  0.9348751E+03  0.7818609E-02  0.9383006E-01
       -2   -1    0    0    0  501  0.00000000000E+00  0.00000000000E+00  0.30095790326E+03  0.30095790327E+03  0.25500000920E-02 0.  1.
        2   -1    0    0  501    0  0.00000000000E+00  0.00000000000E+00 -0.72600800627E+03  0.72600800628E+03  0.25500000920E-02 0. -1.
    10030    2    1    2    0    0  0.00000000000E+00  0.00000000000E+00 -0.42505010301E+03  0.10269659096E+04  0.93487506615E+03 0.  0.
        5    1    3    3  502    0  0.14371810619E+02 -0.55221345672E+01  0.30065332405E+03  0.30108396532E+03  0.46999998093E+01 0.  1.
       -5    1    3    3    0  502 -0.14371810619E+02  0.55221345672E+01 -0.72570342706E+03  0.72588194423E+03  0.46999998093E+01 0. -1.
</event>
<event>
 5   0  0.1221315E-02  0.1033754E+04  0.7818609E-02  0.9272279E-01
        2   -1    0    0  501    0  0.00000000000E+00  0.00000000000E+00  0.45148300212E+03  0.45148300213E+03  0.25500000920E-02 0. -1.
       -2   -1    0    0    0  501  0.00000000000E+00  0.00000000000E+00 -0.59174290643E+03  0.59174290643E+03  0.25500000920E-02 0.  1.
    10030    2    1    2    0    0  0.00000000000E+00  0.00000000000E+00 -0.14025990431E+03  0.10432259086E+04  0.10337540595E+04 0.  0.
        5    1    3    3  502    0 -0.15244362241E+03  0.49167241946E+03 -0.23239738785E+02  0.51530864686E+03  0.46999998093E+01 0.  1.
       -5    1    3    3    0  502  0.15244362241E+03 -0.49167241946E+03 -0.11702016552E+03  0.52791726170E+03  0.46999998093E+01 0. -1.
</event>
<event>
 5   0  0.1221315E-02  0.1010912E+04  0.7818609E-02  0.9296657E-01
       -2   -1    0    0    0  501  0.00000000000E+00  0.00000000000E+00  0.20984469717E+03  0.20984469719E+03  0.25500000920E-02 0.  1.
        2   -1    0    0  501    0  0.00000000000E+00  0.00000000000E+00 -0.12174996879E+04  0.12174996879E+04  0.25500000920E-02 0. -1.
    10030    2    1    2    0    0  0.00000000000E+00  0.00000000000E+00 -0.10076549907E+04  0.14273443851E+04  0.10109121689E+04 0.  0.
        5    1    3    3  502    0  0.25230924468E+03 -0.43498662530E+02  0.11147854473E+03  0.27928774503E+03  0.46999998093E+01 0.  1.
       -5    1    3    3    0  502 -0.25230924468E+03  0.43498662530E+02 -0.11191335354E+04  0.11480566400E+04  0.46999998093E+01 0. -1.
</event>
<event>
 5   0  0.7241200E-03  0.1001640E+04  0.7818609E-02  0.9306748E-01
       -1   -1    0    0    0  501  0.00000000000E+00  0.00000000000E+00  0.45592132358E+03  0.45592132360E+03  0.50400001928E-02 0. -1.
        1   -1    0    0  501    0  0.00000000000E+00  0.00000000000E+00 -0.55013970601E+03  0.55013970603E+03  0.50400001928E-02 0.  1.
    10030    2    1    2    0    0  0.00000000000E+00  0.00000000000E+00 -0.94218382433E+02  0.10060610296E+04  0.10016395019E+04 0.  0.
        4    1    3    3  502    0  0.56772349385E+02  0.89422796342E+02 -0.53875872523E+03  0.54907386851E+03  0.12699999809E+01 0.  1.
       -4    1    3    3    0  502 -0.56772349385E+02 -0.89422796342E+02  0.44454034280E+03  0.45698716113E+03  0.12699999809E+01 0. -1.
</event>
<event>
 5   0  0.1216322E-02  0.1016860E+04  0.7818609E-02  0.9290244E-01
        2   -1    0    0  501    0  0.00000000000E+00  0.00000000000E+00  0.56325681481E+03  0.56325681481E+03  0.25500000920E-02 0. -1.
       -2   -1    0    0    0  501  0.00000000000E+00  0.00000000000E+00 -0.45894015955E+03  0.45894015955E+03  0.25500000920E-02 0.  1.
    10030    2    1    2    0    0  0.00000000000E+00  0.00000000000E+00  0.10431665526E+03  0.10221969744E+04  0.10168602116E+04 0.  0.
        2    1    3    3  502    0 -0.16713640317E+02  0.52348073894E+02  0.56026286188E+03  0.56295127766E+03  0.25500000920E-02 0. -1.
       -2    1    3    3    0  502  0.16713640317E+02 -0.52348073894E+02 -0.45594620661E+03  0.45924569671E+03  0.25500000920E-02 0.  1.
</event>
<event>
 5   0  0.1245850E-02  0.9840853E+03  0.7818609E-02  0.9326174E-01
       -2   -1    0    0    0  501  0.00000000000E+00  0.00000000000E+00  0.27330624038E+03  0.27330624039E+03  0.25500000920E-02 0.  1.
        2   -1    0    0  501    0  0.00000000000E+00  0.00000000000E+00 -0.88584142363E+03  0.88584142363E+03  0.25500000920E-02 0. -1.
    10030    2    1    2    0    0  0.00000000000E+00  0.00000000000E+00 -0.61253518325E+03  0.11591476640E+04  0.98408533994E+03 0.  0.
        3    1    3    3  502    0 -0.14669967651E+03 -0.43305596229E+02  0.24459100708E+03  0.28848039916E+03  0.10100000352E+00 0.  1.
       -3    1    3    3    0  502  0.14669967651E+03  0.43305596229E+02 -0.85712619033E+03  0.87066726486E+03  0.10100000352E+00 0. -1.
</event>
<event>
 5   0  0.7073004E-03  0.9944508E+03  0.7818609E-02  0.9314652E-01
       -1   -1    0    0    0  501  0.00000000000E+00  0.00000000000E+00  0.30112965942E+03  0.30112965947E+03  0.50400001928E-02 0. -1.
        1   -1    0    0  501    0  0.00000000000E+00  0.00000000000E+00 -0.82101879666E+03  0.82101879668E+03  0.50400001928E-02 0.  1.
    10030    2    1    2    0    0  0.00000000000E+00  0.00000000000E+00 -0.51988913724E+03  0.11221484561E+04  0.99445082463E+03 0.  0.
        1    1    3    3  502    0 -0.25451865319E+03  0.22542319441E+03 -0.66935342023E+03  0.75075253086E+03  0.50400001928E-02 0.  1.
       -1    1    3    3    0  502  0.25451865319E+03 -0.22542319441E+03  0.14946428299E+03  0.37139592528E+03  0.50400001928E-02 0. -1.
</event>
<event>
 5   0  0.1245850E-02  0.1077645E+04  0.7818609E-02  0.9227259E-01
       -2   -1    0    0    0  501  0.00000000000E+00  0.00000000000E+00  0.15953798103E+03  0.15953798105E+03  0.25500000920E-02 0.  1.
        2   -1    0    0  501    0  0.00000000000E+00  0.00000000000E+00 -0.18198157046E+04  0.18198157046E+04  0.25500000920E-02 0. -1.
    10030    2    1    2    0    0  0.00000000000E+00  0.00000000000E+00 -0.16602777236E+04  0.19793536857E+04  0.10776450685E+04 0.  0.
        3    1    3    3  502    0 -0.96685868554E+02  0.44313380872E+03 -0.13644186304E+04  0.14378295931E+04  0.10100000352E+00 0. -1.
       -3    1    3    3    0  502  0.96685868554E+02 -0.44313380872E+03 -0.29585909316E+03  0.54152409255E+03  0.10100000352E+00 0.  1.
</event>
<event>
 5   0  0.7241200E-03  0.9985360E+03  0.7818609E-02  0.9310152E-01
        1   -1    0    0  501    0  0.00000000000E+00  0.00000000000E+00  0.30604462854E+03  0.30604462859E+03  0.50400001928E-02 0. -1.
       -1   -1    0    0    0  501  0.00000000000E+00  0.00000000000E+00 -0.81448420774E+03  0.81448420775E+03  0.50400001928E-02 0.  1.
    10030    2    1    2    0    0  0.00000000000E+00  0.00000000000E+00 -0.50843957919E+03  0.11205288363E+04  0.99853596198E+03 0.  0.
        4    1    3    3  502    0 -0.49433391375E+03  0.46200303545E+02 -0.19519720849E+03  0.53348294203E+03  0.12699999809E+01 0.  1.
       -4    1    3    3    0  502  0.49433391375E+03 -0.46200303545E+02 -0.31324237070E+03  0.58704589431E+03  0.12699999809E+01 0. -1.
</event>
<event>
 5   0  0.1221315E-02  0.1032698E+04  0.7818609E-02  0.9273392E-01
        2   -1    0    0  501    0  0.00000000000E+00  0.00000000000E+00  0.11790051655E+04  0.11790051655E+04  0.25500000920E-02 0. -1.
       -2   -1    0    0    0  501  0.00000000000E+00  0.00000000000E+00 -0.22613666698E+03  0.22613666700E+03  0.25500000920E-02 0.  1.
    10030    2    1    2    0    0  0.00000000000E+00  0.00000000000E+00  0.95286849851E+03  0.14051418325E+04  0.10326980168E+04 0.  0.
        5    1    3    3  502    0 -0.28963750101E+03 -0.41217142674E+03  0.63048882304E+03  0.80703990793E+03  0.46999998093E+01 0.  1.
       -5    1    3    3    0  502  0.28963750101E+03  0.41217142674E+03  0.32237967547E+03  0.59810192457E+03  0.46999998093E+01 0. -1.
</event>
<event>
 5   0  0.7224879E-03  0.1067831E+04  0.7818609E-02  0.9237126E-01
        1   -1    0    0  501    0  0.00000000000E+00  0.00000000000E+00  0.12121150034E+04  0.12121150034E+04  0.50400001928E-02 0. -1.
       -1   -1    0    0    0  501  0.00000000000E+00  0.00000000000E+00 -0.23518058072E+03  0.23518058077E+03  0.50400001928E-02 0.  1.
    10030    2    1    2    0    0  0.00000000000E+00  0.00000000000E+00  0.97693442267E+03  0.14472955842E+04  0.10678312796E+04 0.  0.
        3    1    3    3  502    0  0.25486489385E+03  0.44487904846E+03  0.69037678612E+03  0.85993813667E+03  0.10100000352E+00 0. -1.
       -3    1    3    3    0  502 -0.25486489385E+03 -0.44487904846E+03  0.28655763655E+03  0.58735744751E+03  0.10100000352E+00 0.  1.
</event>
<event>
 5   0  0.1216322E-02  0.1002926E+04  0.7818609E-02  0.9305342E-01
       -2   -1    0    0    0  501  0.00000000000E+00  0.00000000000E+00  0.26554909765E+03  0.26554909767E+03  0.25500000920E-02 0.  1.
        2   -1    0    0  501    0  0.00000000000E+00  0.00000000000E+00 -0.94696272650E+03  0.94696272650E+03  0.25500000920E-02 0. -1.
    10030    2    1    2    0    0  0.00000000000E+00  0.00000000000E+00 -0.68141362884E+03  0.12125118242E+04  0.10029259146E+04 0.  0.
        2    1    3    3  502    0  0.24561124437E+03  0.40710986895E+03 -0.14802128149E+03  0.49796950563E+03  0.25500000920E-02 0.  1.
       -2    1    3    3    0  502 -0.24561124437E+03 -0.40710986895E+03 -0.53339234735E+03  0.71454231853E+03  0.25500000920E-02 0. -1.
</event>
<event>
 5   0  0.6967681E-03  0.9956573E+03  0.7818609E-02  0.9313321E-01
        1   -1    0    0  501    0  0.00000000000E+00  0.00000000000E+00  0.30779550475E+03  0.30779550479E+03  0.50400001928E-02 0. -1.
       -1   -1    0    0    0  501  0.00000000000E+00  0.00000000000E+00 -0.80518833973E+03  0.80518833975E+03  0.50400001928E-02 0.  1.
    10030    2    1    2    0    0  0.00000000000E+00  0.00000000000E+00 -0.49739283499E+03  0.11129838445E+04  0.99565727332E+03 0.  0.
        5    1    3    3  502    0  0.47643043168E+03  0.59476850653E+02 -0.39567328048E+03  0.62217592920E+03  0.46999998093E+01 0. -1.
       -5    1    3    3    0  502 -0.47643043168E+03 -0.59476850653E+02 -0.10171955450E+03  0.49080791534E+03  0.46999998093E+01 0.  1.
</event>
<event>
 5   0  0.7461157E-03  0.9486276E+03  0.7818609E-02  0.9366756E-01
       -1   -1    0    0    0  501  0.00000000000E+00  0.00000000000E+00  0.16528415510E+03  0.16528415518E+03  0.50400001928E-02 0.  1.
        1   -1    0    0  501    0  0.00000000000E+00  0.00000000000E+00 -0.13611321362E+04  0.13611321362E+04  0.50400001928E-02 0. -1.
    10030    2    1    2    0    0  0.00000000000E+00  0.00000000000E+00 -0.11958479811E+04  0.15264162913E+04  0.94862758798E+03 0.  0.
        2    1    3    3  502    0  0.15802028616E+03 -0.66236327198E+01  0.12160456947E+03  0.19950427231E+03  0.25500000920E-02 0.  1.
       -2    1    3    3    0  502 -0.15802028616E+03  0.66236327198E+01 -0.13174525505E+04  0.13269120190E+04  0.25500000920E-02 0. -1.
</event>
<event>
 5   0  0.6967681E-03  0.9893154E+03  0.7818609E-02  0.9320342E-01
        1   -1    0    0  501    0  0.00000000000E+00  0.00000000000E+00  0.16397248976E+04  0.16397248976E+04  0.50400001928E-02 0. -1.
       -1   -1    0    0    0  501  0.00000000000E+00  0.00000000000E+00 -0.14922394514E+03  0.14922394523E+03  0.50400001928E-02 0.  1.
    10030    2    1    2    0    0  0.00000000000E+00  0.00000000000E+00  0.14905009525E+04  0.17889488429E+04  0.98931535571E+03 0.  0.
        5    1    3    3  502    0  0.22265742849E+03  0.40190942067E+03  0.10764976996E+04  0.11704601233E+04  0.46999998093E+01 0. -1.
       -5    1    3    3    0  502 -0.22265742849E+03 -0.40190942067E+03  0.41400325286E+03  0.61848871959E+03  0.46999998093E+01 0.  1.
</event>
<event>
 5   0  0.1221315E-02  0.1078599E+04  0.7818609E-02  0.9226306E-01
       -2   -1    0    0    0  501  0.00000000000E+00  0.00000000000E+00  0.64621760598E+03  0.64621760598E+03  0.25500000920E-02 0.  1.
        2   -1    0    0  501    0  0.00000000000E+00  0.00000000000E+00 -0.45007105187E+03  0.45007105188E+03  0.25500000920E-02 0. -1.
    10030    2    1    2    0    0  0.00000000000E+00  0.00000000000E+00  0.19614655411E+03  0.10962886579E+04  0.10785987904E+04 0.  0.
        5    1    3    3  502    0 -0.42138451736E+02  0.12045804906E+03 -0.43448189750E+03  0.45286024329E+03  0.46999998093E+01 0. -1.
       -5    1    3    3    0  502  0.42138451736E+02 -0.12045804906E+03  0.63062845161E+03  0.64342841457E+03  0.46999998093E+01 0.  1.
</event>
<event>
 5   0  0.6967681E-03  0.1009121E+04  0.7818609E-02  0.9298598E-01
        1   -1    0    0  501    0  0.00000000000E+00  0.00000000000E+00  0.26953476343E+03  0.26953476348E+03  0.50400001928E-02 0. -1.
       -1   -1    0    0    0  501  0.00000000000E+00  0.00000000000E+00 -0.94452037437E+03  0.94452037438E+03  0.50400001928E-02 0.  1.
    10030    2    1    2    0    0  0.00000000000E+00  0.00000000000E+00 -0.67498561094E+03  0.12140551379E+04  0.10091205591E+04 0.  0.
        5    1    3    3  502    0 -0.40643069642E+03 -0.24027269075E+03 -0.12348576228E+03  0.48804477294E+03  0.46999998093E+01 0.  1.
       -5    1    3    3    0  502  0.40643069642E+03  0.24027269075E+03 -0.55149984866E+03  0.72601036492E+03  0.46999998093E+01 0. -1.
</event>
<event>
 5   0  0.1240503E-02  0.1003311E+04  0.7818609E-02  0.9304921E-01
       -2   -1    0    0    0  501  0.00000000000E+00  0.00000000000E+00  0.19313176147E+03  0.19313176149E+03  0.25500000920E-02 0. -1.
        2   -1    0    0  501    0  0.00000000000E+00  0.00000000000E+00 -0.13030395292E+04  0.13030395292E+04  0.25500000920E-02 0.  1.
    10030    2    1    2    0    0  0.00000000000E+00  0.00000000000E+00 -0.11099077677E+04  0.14961712907E+04  0.10033111572E+04 0.  0.
        1    1    3    3  502    0 -0.29285734562E+03  0.36763607869E+03 -0.29351291369E+03  0.55414036288E+03  0.50400001928E-02 0. -1.
       -1    1    3    3    0  502  0.29285734562E+03 -0.36763607869E+03 -0.81639485404E+03  0.94203092782E+03  0.50400001928E-02 0.  1.
</event>
<event>
 5   0  0.1221315E-02  0.1206513E+04  0.7818609E-02  0.9107174E-01
       -2   -1    0    0    0  501  0.00000000000E+00  0.00000000000E+00  0.91586085034E+03  0.91586085034E+03  0.25500000920E-02 0.  1.
        2   -1    0    0  501    0  0.00000000000E+00  0.00000000000E+00 -0.39735147220E+03  0.39735147221E+03  0.25500000920E-02 0. -1.
    10030    2    1    2    0    0  0.00000000000E+00  0.00000000000E+00  0.51850937814E+03  0.13132123226E+04  0.12065134184E+04 0.  0.
        5    1    3    3  502    0 -0.22138435219E+03 -0.20643729865E+03  0.82719413402E+03  0.88085164189E+03  0.46999998093E+01 0.  1.
       -5    1    3    3    0  502  0.22138435219E+03  0.20643729865E+03 -0.30868475588E+03  0.43236068066E+03  0.46999998093E+01 0. -1.
</event>
<event>
 5   0  0.1221315E-02  0.8821166E+03  0.7818609E-02  0.9448217E-01
       -2   -1    0    0    0  501  0.00000000000E+00  0.00000000000E+00  0.18332233926E+03  0.18332233928E+03  0.25500000920E-02 0.  1.
        2   -1    0    0  501    0  0.00000000000E+00  0.00000000000E+00 -0.10611496441E+04  0.10611496441E+04  0.25500000920E-02 0. -1.
    10030    2    1    2    0    0  0.00000000000E+00  0.00000000000E+00 -0.87782730486E+03  0.12444719834E+04  0.88211662512E+03 0.  0.
        5    1    3    3  502    0  0.26171731216E+03 -0.29325519592E+03 -0.72112519969E+03  0.82130274872E+03  0.46999998093E+01 0. -1.
       -5    1    3    3    0  502 -0.26171731216E+03  0.29325519592E+03 -0.15670210516E+03  0.42316923468E+03  0.46999998093E+01 0.  1.
</event>
<event>
 5   0  0.7224879E-03  0.1088751E+04  0.7818609E-02  0.9216226E-01
        1   -1    0    0  501    0  0.00000000000E+00  0.00000000000E+00  0.63485508880E+03  0.63485508882E+03  0.50400001928E-02 0. -1.
       -1   -1    0    0    0  501  0.00000000000E+00  0.00000000000E+00 -0.46679076965E+03  0.46679076968E+03  0.50400001928E-02 0.  1.
    10030    2    1    2    0    0  0.00000000000E+00  0.00000000000E+00  0.16806431915E+03  0.11016458585E+04  0.10887506520E+04 0.  0.
        3    1    3    3  502    0  0.37054209528E+03  0.32859673639E+03  0.31268926996E+03  0.58570628244E+03  0.10100000352E+00 0. -1.
       -3    1    3    3    0  502 -0.37054209528E+03 -0.32859673639E+03 -0.14462495081E+03  0.51593957605E+03  0.10100000352E+00 0.  1.
</event>
<event>
 5   0  0.6967681E-03  0.9970756E+03  0.7818609E-02  0.9311758E-01
        1   -1    0    0  501    0  0.00000000000E+00  0.00000000000E+00  0.55681775257E+03  0.55681775260E+03  0.50400001928E-02 0. -1.
       -1   -1    0    0    0  501  0.00000000000E+00  0.00000000000E+00 -0.44635781675E+03  0.44635781678E+03  0.50400001928E-02 0.  1.
    10030    2    1    2    0    0  0.00000000000E+00  0.00000000000E+00  0.11045993582E+03  0.10031755694E+04  0.99707563684E+03 0.  0.
        5    1    3    3  502    0  0.19384994719E+03 -0.38655009796E+03  0.30477778788E+03  0.52906556328E+03  0.46999998093E+01 0. -1.
       -5    1    3    3    0  502 -0.19384994719E+03  0.38655009796E+03 -0.19431785206E+03  0.47411000610E+03  0.46999998093E+01 0.  1.
</event>
<event>
 5   0  0.1221315E-02  0.9864730E+03  0.7818609E-02  0.9323507E-01
       -2   -1    0    0    0  501  0.00000000000E+00  0.00000000000E+00  0.31392790815E+03  0.31392790816E+03  0.25500000920E-02 0.  1.
        2   -1    0    0  501    0  0.00000000000E+00  0.00000000000E+00 -0.77496213088E+03  0.77496213088E+03  0.25500000920E-02 0. -1.
    10030    2    1    2    0    0  0.00000000000E+00  0.00000000000E+00 -0.46103422273E+03  0.10888900390E+04  0.98647299132E+03 0.  0.
        5    1    3    3  502    0  0.15005787479E+03  0.31802031679E+03 -0.61226360810E+03  0.70607584825E+03  0.46999998093E+01 0. -1.
       -5    1    3    3    0  502 -0.15005787479E+03 -0.31802031679E+03  0.15122938537E+03  0.38281419080E+03  0.46999998093E+01 0.  1.
</event>
<event>
 5   0  0.7241200E-03  0.1058780E+04  0.7818609E-02  0.9246326E-01
       -1   -1    0    0    0  501  0.00000000000E+00  0.00000000000E+00  0.18237483940E+03  0.18237483947E+03  0.50400001928E-02 0. -1.
        1   -1    0    0  501    0  0.00000000000E+00  0.00000000000E+00 -0.15366909808E+04  0.15366909808E+04  0.50400001928E-02 0.  1.
    10030    2    1    2    0    0  0.00000000000E+00  0.00000000000E+00 -0.13543161414E+04  0.17190658202E+04  0.10587799977E+04 0.  0.
        4    1    3    3  502    0  0.65893134506E+02 -0.17379242384E+03 -0.14819712000E+04  0.14935815887E+04  0.12699999809E+01 0.  1.
       -4    1    3    3    0  502 -0.65893134506E+02  0.17379242384E+03  0.12765505862E+03  0.22548423149E+03  0.12699999809E+01 0. -1.
</event>
<event>
 5   0  0.1240503E-02  0.9148944E+03  0.7818609E-02  0.9407152E-01
        2   -1    0    0  501    0  0.00000000000E+00  0.00000000000E+00  0.64410291697E+03  0.64410291698E+03  0.25500000920E-02 0. -1.
       -2   -1    0    0    0  501  0.00000000000E+00  0.00000000000E+00 -0.32488274582E+03  0.32488274583E+03  0.25500000920E-02 0.  1.
    10030    2    1    2    0    0  0.00000000000E+00  0.00000000000E+00  0.31922017116E+03  0.96898566280E+03  0.91489436387E+03 0.  0.
        1    1    3    3  502    0 -0.17601794982E+03  0.10020604677E+03  0.59402401381E+03  0.62760505054E+03  0.50400001928E-02 0. -1.
       -1    1    3    3    0  502  0.17601794982E+03 -0.10020604677E+03 -0.27480384265E+03  0.34138061226E+03  0.50400001928E-02 0.  1.
</event>
<event>
 5   0  0.6967681E-03  0.8441432E+03  0.7818609E-02  0.9498232E-01
        1   -1    0    0  501    0  0.00000000000E+00  0.00000000000E+00  0.26226177625E+03  0.26226177630E+03  0.50400001928E-02 0.  1.
       -1   -1    0    0    0  501  0.00000000000E+00  0.00000000000E+00 -0.67926184695E+03  0.67926184697E+03  0.50400001928E-02 0. -1.
    10030    2    1    2    0    0  0.00000000000E+00  0.00000000000E+00 -0.41700007070E+03  0.94152362327E+03  0.84414315979E+03 0.  0.
        5    1    3    3  502    0  0.18767770919E+03 -0.45622984651E+02 -0.62704692916E+03  0.65613590103E+03  0.46999998093E+01 0. -1.
       -5    1    3    3    0  502 -0.18767770919E+03  0.45622984651E+02  0.21004685846E+03  0.28538772224E+03  0.46999998093E+01 0.  1.
</event>
<event>
 5   0  0.7073004E-03  0.8896114E+03  0.7818609E-02  0.9438662E-01
        1   -1    0    0  501    0  0.00000000000E+00  0.00000000000E+00  0.43458142872E+03  0.43458142875E+03  0.50400001928E-02 0.  1.
       -1   -1    0    0    0  501  0.00000000000E+00  0.00000000000E+00 -0.45527050851E+03  0.45527050854E+03  0.50400001928E-02 0. -1.
    10030    2    1    2    0    0  0.00000000000E+00  0.00000000000E+00 -0.20689079791E+02  0.88985193728E+03  0.88961139396E+03 0.  0.
        1    1    3    3  502    0  0.19536665124E+02  0.90634442300E+02  0.42480851913E+03  0.43480864914E+03  0.50400001928E-02 0.  1.
       -1    1    3    3    0  502 -0.19536665124E+02 -0.90634442300E+02 -0.44549759892E+03  0.45504328815E+03  0.50400001928E-02 0. -1.
</event>
<event>
 5   0  0.7073004E-03  0.9842352E+03  0.7818609E-02  0.9326006E-01
        1   -1    0    0  501    0  0.00000000000E+00  0.00000000000E+00  0.20756108699E+04  0.20756108699E+04  0.50400001928E-02 0. -1.
       -1   -1    0    0    0  501  0.00000000000E+00  0.00000000000E+00 -0.11667876275E+03  0.11667876285E+03  0.50400001928E-02 0.  1.
    10030    2    1    2    0    0  0.00000000000E+00  0.00000000000E+00  0.19589321071E+04  0.21922896327E+04  0.98423515150E+03 0.  0.
        1    1    3    3  502    0 -0.20351587461E+03 -0.20235562564E+03  0.18699075266E+04  0.18918035492E+04  0.50400001928E-02 0. -1.
       -1    1    3    3    0  502  0.20351587461E+03  0.20235562564E+03  0.89024580470E+02  0.30048608354E+03  0.50400001928E-02 0.  1.
</event>
<event>
 5   0  0.7241200E-03  0.9861025E+03  0.7818609E-02  0.9323920E-01
        1   -1    0    0  501    0  0.00000000000E+00  0.00000000000E+00  0.18375651539E+04  0.18375651539E+04  0.50400001928E-02 0. -1.
       -1   -1    0    0    0  501  0.00000000000E+00  0.00000000000E+00 -0.13229437395E+03  0.13229437404E+03  0.50400001928E-02 0.  1.
    10030    2    1    2    0    0  0.00000000000E+00  0.00000000000E+00  0.17052707799E+04  0.19698595279E+04  0.98610249309E+03 0.  0.
        4    1    3    3  502    0  0.33879683892E+03 -0.34252334972E+03  0.10620750776E+04  0.11662378087E+04  0.12699999809E+01 0. -1.
       -4    1    3    3    0  502 -0.33879683892E+03  0.34252334972E+03  0.64319570236E+03  0.80362171922E+03  0.12699999809E+01 0.  1.
</event>
<event>
 5   0  0.1191822E-02  0.1001015E+04  0.7818609E-02  0.9307433E-01
        2   -1    0    0  501    0  0.00000000000E+00  0.00000000000E+00  0.87419507747E+03  0.87419507747E+03  0.25500000920E-02 0. -1.
       -2   -1    0    0    0  501  0.00000000000E+00  0.00000000000E+00 -0.28655800827E+03  0.28655800828E+03  0.25500000920E-02 0.  1.
    10030    2    1    2    0    0  0.00000000000E+00  0.00000000000E+00  0.58763706919E+03  0.11607530858E+04  0.10010146857E+04 0.  0.
        4    1    3    3  502    0  0.27656388249E+03 -0.11083517285E+03  0.76015569338E+03  0.81646206753E+03  0.12699999809E+01 0. -1.
       -4    1    3    3    0  502 -0.27656388249E+03  0.11083517285E+03 -0.17251862418E+03  0.34429101822E+03  0.12699999809E+01 0.  1.
</event>
<event>
 5   0  0.1240503E-02  0.9939482E+03  0.7818609E-02  0.9315207E-01
       -2   -1    0    0    0  501  0.00000000000E+00  0.00000000000E+00  0.36491022698E+03  0.36491022699E+03  0.25500000920E-02 0. -1.
        2   -1    0    0  501    0  0.00000000000E+00  0.00000000000E+00 -0.67683298192E+03  0.67683298192E+03  0.25500000920E-02 0.  1.
    10030    2    1    2    0    0  0.00000000000E+00  0.00000000000E+00 -0.31192275494E+03  0.10417432089E+04  0.99394824225E+03 0.  0.
        1    1    3    3  502    0  0.18368080926E+03  0.44994626127E+03 -0.47076395694E+02  0.48826884478E+03  0.50400001928E-02 0.  1.
       -1    1    3    3    0  502 -0.18368080926E+03 -0.44994626127E+03 -0.26484635924E+03  0.55347436414E+03  0.50400001928E-02 0. -1.
</event>
<event>
 5   0  0.7241200E-03  0.1092813E+04  0.7818609E-02  0.9212225E-01
        1   -1    0    0  501    0  0.00000000000E+00  0.00000000000E+00  0.22179514007E+03  0.22179514012E+03  0.50400001928E-02 0.  1.
       -1   -1    0    0    0  501  0.00000000000E+00  0.00000000000E+00 -0.13461067746E+04  0.13461067746E+04  0.50400001928E-02 0. -1.
    10030    2    1    2    0    0  0.00000000000E+00  0.00000000000E+00 -0.11243116346E+04  0.15679019148E+04  0.10928127757E+04 0.  0.
        4    1    3    3  502    0 -0.39982874544E+03  0.76457735628E+02 -0.39214307454E+02  0.40895988290E+03  0.12699999809E+01 0.  1.
       -4    1    3    3    0  502  0.39982874544E+03 -0.76457735628E+02 -0.10850973271E+04  0.11589420319E+04  0.12699999809E+01 0. -1.
</event>
<event>
 5   0  0.1221315E-02  0.1044602E+04  0.7818609E-02  0.9260934E-01
        2   -1    0    0  501    0  0.00000000000E+00  0.00000000000E+00  0.75173083559E+03  0.75173083559E+03  0.25500000920E-02 0. -1.
       -2   -1    0    0    0  501  0.00000000000E+00  0.00000000000E+00 -0.36289392793E+03  0.36289392794E+03  0.25500000920E-02 0.  1.
    10030    2    1    2    0    0  0.00000000000E+00  0.00000000000E+00  0.38883690765E+03  0.11146247635E+04  0.10446024233E+04 0.  0.
        5    1    3    3  502    0 -0.39158148841E+03  0.14639697318E+02 -0.17401859619E+03  0.42878309740E+03  0.46999998093E+01 0.  1.
       -5    1    3    3    0  502  0.39158148841E+03 -0.14639697318E+02  0.56285550384E+03  0.68584166613E+03  0.46999998093E+01 0. -1.
</event>
<event>
 5   0  0.1245850E-02  0.1019182E+04  0.7818609E-02  0.9287753E-01
        2   -1    0    0  501    0  0.00000000000E+00  0.00000000000E+00  0.77806330896E+03  0.77806330897E+03  0.25500000920E-02 0.  1.
       -2   -1    0    0    0  501  0.00000000000E+00  0.00000000000E+00 -0.33375577527E+03  0.33375577528E+03  0.25500000920E-02 0. -1.
    10030    2    1    2    0    0  0.00000000000E+00  0.00000000000E+00  0.44430753369E+03  0.11118190843E+04  0.10191822661E+04 0.  0.
        3    1    3    3  502    0 -0.12907175506E+03 -0.69015477724E+02 -0.31033230533E+03  0.34311631272E+03  0.10100000352E+00 0. -1.
       -3    1    3    3    0  502  0.12907175506E+03  0.69015477724E+02  0.75463983902E+03  0.76870277153E+03  0.10100000352E+00 0.  1.
</event>
<event>
 5   0  0.1191822E-02  0.9997688E+03  0.7818609E-02  0.9308798E-01
       -2   -1    0    0    0  501  0.00000000000E+00  0.00000000000E+00  0.24031323042E+03  0.24031323043E+03  0.25500000920E-02 0.  1.
        2   -1    0    0  501    0  0.00000000000E+00  0.00000000000E+00 -0.10398279978E+04  0.10398279978E+04  0.25500000920E-02 0. -1.
    10030    2    1    2    0    0  0.00000000000E+00  0.00000000000E+00 -0.79951476736E+03  0.12801412282E+04  0.99976882374E+03 0.  0.
        4    1    3    3  502    0 -0.16047992315E+03 -0.27716269690E+03  0.91686780976E+02  0.33313817703E+03  0.12699999809E+01 0.  1.
       -4    1    3    3    0  502  0.16047992315E+03  0.27716269690E+03 -0.89120154833E+03  0.94700305118E+03  0.12699999809E+01 0. -1.
</event>
<event>
 5   0  0.1216322E-02  0.8912739E+03  0.7818609E-02  0.9436556E-01
       -2   -1    0    0    0  501  0.00000000000E+00  0.00000000000E+00  0.24170842716E+03  0.24170842718E+03  0.25500000920E-02 0.  1.
        2   -1    0    0  501    0  0.00000000000E+00  0.00000000000E+00 -0.82161928781E+03  0.82161928781E+03  0.25500000920E-02 0. -1.
    10030    2    1    2    0    0  0.00000000000E+00  0.00000000000E+00 -0.57991086064E+03  0.10633277150E+04  0.89127393273E+03 0.  0.
        2    1    3    3  502    0  0.24016586575E+03  0.36711966320E+03 -0.19650268184E+03  0.48069719591E+03  0.25500000920E-02 0.  1.
       -2    1    3    3    0  502 -0.24016586575E+03 -0.36711966320E+03 -0.38340817881E+03  0.58263051908E+03  0.25500000920E-02 0. -1.
</event>
<event>
 5   0  0.1216322E-02  0.9910835E+03  0.7818609E-02  0.9318379E-01
       -2   -1    0    0    0  501  0.00000000000E+00  0.00000000000E+00  0.63083451999E+03  0.63083452000E+03  0.25500000920E-02 0.  1.
        2   -1    0    0  501    0  0.00000000000E+00  0.00000000000E+00 -0.38926469843E+03  0.38926469844E+03  0.25500000920E-02 0. -1.
    10030    2    1    2    0    0  0.00000000000E+00  0.00000000000E+00  0.24156982156E+03  0.10200992184E+04  0.99108346609E+03 0.  0.
        2    1    3    3  502    0 -0.10805235280E+03  0.47763673587E+03  0.19882993378E+03  0.52853146073E+03  0.25500000920E-02 0. -1.
       -2    1    3    3    0  502  0.10805235280E+03 -0.47763673587E+03  0.42739887781E+02  0.49156775771E+03  0.25500000920E-02 0.  1.
</event>
<event>
 5   0  0.1216322E-02  0.1002360E+04  0.7818609E-02  0.9305960E-01
        2   -1    0    0  501    0  0.00000000000E+00  0.00000000000E+00  0.15562640796E+04  0.15562640796E+04  0.25500000920E-02 0. -1.
       -2   -1    0    0    0  501  0.00000000000E+00  0.00000000000E+00 -0.16140020076E+03  0.16140020078E+03  0.25500000920E-02 0.  1.
    10030    2    1    2    0    0  0.00000000000E+00  0.00000000000E+00  0.13948638788E+04  0.17176642804E+04  0.10023598853E+04 0.  0.
        2    1    3    3  502    0 -0.12888616495E+03 -0.48410397817E+03  0.72244314876E+03  0.87914299656E+03  0.25500000920E-02 0. -1.
       -2    1    3    3    0  502  0.12888616495E+03  0.48410397817E+03  0.67242073007E+03  0.83852128382E+03  0.25500000920E-02 0.  1.
</event>
<event>
 5   0  0.1245850E-02  0.9990234E+03  0.7818609E-02  0.9309617E-01
       -2   -1    0    0    0  501  0.00000000000E+00  0.00000000000E+00  0.46008133241E+03  0.46008133242E+03  0.25500000920E-02 0. -1.
        2   -1    0    0  501    0  0.00000000000E+00  0.00000000000E+00 -0.54232136234E+03  0.54232136234E+03  0.25500000920E-02 0.  1.
    10030    2    1    2    0    0  0.00000000000E+00  0.00000000000E+00 -0.82240029927E+02  0.10024026948E+04  0.99902339309E+03 0.  0.
        3    1    3    3  502    0 -0.83857706010E+02 -0.46920451274E+03 -0.19104745416E+03  0.51350183016E+03  0.10100000352E+00 0.  1.
       -3    1    3    3    0  502  0.83857706010E+02  0.46920451274E+03  0.10880742423E+03  0.48890086460E+03  0.10100000352E+00 0. -1.
</event>
<event>
 5   0  0.1191822E-02  0.1030635E+04  0.7818609E-02  0.9275569E-01
        2   -1    0    0  501    0  0.00000000000E+00  0.00000000000E+00  0.28997908187E+03  0.28997908189E+03  0.25500000920E-02 0. -1.
       -2   -1    0    0    0  501  0.00000000000E+00  0.00000000000E+00 -0.91576286022E+03  0.91576286022E+03  0.25500000920E-02 0.  1.
    10030    2    1    2    0    0  0.00000000000E+00  0.00000000000E+00 -0.62578377834E+03  0.12057419421E+04  0.10306348984E+04 0.  0.
        4    1    3    3  502    0 -0.12342395764E+03 -0.38004999018E+03  0.67783169705E+02  0.40529944406E+03  0.12699999809E+01 0. -1.
       -4    1    3    3    0  502  0.12342395764E+03  0.38004999018E+03 -0.69356694805E+03  0.80044249805E+03  0.12699999809E+01 0.  1.
</event>
<event>
 5   0  0.1240503E-02  0.9871591E+03  0.7818609E-02  0.9322742E-01
        2   -1    0    0  501    0  0.00000000000E+00  0.00000000000E+00  0.13996804729E+04  0.13996804729E+04  0.25500000920E-02 0.  1.
       -2   -1    0    0    0  501  0.00000000000E+00  0.00000000000E+00 -0.17405456689E+03  0.17405456691E+03  0.25500000920E-02 0. -1.
    10030    2    1    2    0    0  0.00000000000E+00  0.00000000000E+00  0.12256259060E+04  0.15737350398E+04  0.98715911284E+03 0.  0.
        1    1    3    3  502    0 -0.43030182398E+03  0.96964443749E+02  0.25970795109E+03  0.51186910725E+03  0.50400001928E-02 0. -1.
       -1    1    3    3    0  502  0.43030182398E+03 -0.96964443749E+02  0.96591795492E+03  0.10618659326E+04  0.50400001928E-02 0.  1.
</event>
<event>
 5   0  0.7073004E-03  0.1010097E+04  0.7818609E-02  0.9297540E-01
       -1   -1    0    0    0  501  0.00000000000E+00  0.00000000000E+00  0.39033922743E+03  0.39033922746E+03  0.50400001928E-02 0.  1.
        1   -1    0    0  501    0  0.00000000000E+00  0.00000000000E+00 -0.65346705081E+03  0.65346705083E+03  0.50400001928E-02 0. -1.
    10030    2    1    2    0    0  0.00000000000E+00  0.00000000000E+00 -0.26312782339E+03  0.10438062783E+04  0.10100966762E+04 0.  0.
        1    1    3    3  502    0  0.19533895568E+03 -0.45627129193E+03 -0.22813325932E+03  0.54624681553E+03  0.50400001928E-02 0.  1.
       -1    1    3    3    0  502 -0.19533895568E+03  0.45627129193E+03 -0.34994564065E+02  0.49755946276E+03  0.50400001928E-02 0. -1.
</event>
<event>
 5   0  0.7224879E-03  0.9899428E+03  0.7818609E-02  0.9319645E-01
        1   -1    0    0  501    0  0.00000000000E+00  0.00000000000E+00  0.98719947252E+03  0.98719947254E+03  0.50400001928E-02 0.  1.
       -1   -1    0    0    0  501  0.00000000000E+00  0.00000000000E+00 -0.24817344082E+03  0.24817344087E+03  0.50400001928E-02 0. -1.
    10030    2    1    2    0    0  0.00000000000E+00  0.00000000000E+00  0.73902603170E+03  0.12353729134E+04  0.98994280625E+03 0.  0.
        3    1    3    3  502    0 -0.27103821335E+02  0.98887153537E+02  0.97380107986E+03  0.97918427255E+03  0.10100000352E+00 0.  1.
       -3    1    3    3    0  502  0.27103821335E+02 -0.98887153537E+02 -0.23477504816E+03  0.25618864086E+03  0.10100000352E+00 0. -1.
</event>
<event>
 5   0  0.7073004E-03  0.9897822E+03  0.7818609E-02  0.9319823E-01
        1   -1    0    0  501    0  0.00000000000E+00  0.00000000000E+00  0.10368329379E+04  0.10368329379E+04  0.50400001928E-02 0. -1.
       -1   -1    0    0    0  501  0.00000000000E+00  0.00000000000E+00 -0.23621665923E+03  0.23621665928E+03  0.50400001928E-02 0.  1.
    10030    2    1    2    0    0  0.00000000000E+00  0.00000000000E+00  0.80061627867E+03  0.12730495972E+04  0.98978222415E+03 0.  0.
        1    1    3    3  502    0  0.54199510494E+02  0.24936730180E+03  0.94568307276E+03  0.97950911802E+03  0.50400001928E-02 0. -1.
       -1    1    3    3    0  502 -0.54199510494E+02 -0.24936730180E+03 -0.14506679409E+03  0.29354047918E+03  0.50400001928E-02 0.  1.
</event>
<event>
 5   0  0.1191822E-02  0.1001834E+04  0.7818609E-02  0.9306535E-01
        2   -1    0    0  501    0  0.00000000000E+00  0.00000000000E+00  0.73784460245E+03  0.73784460246E+03  0.25500000920E-02 0.  1.
       -2   -1    0    0    0  501  0.00000000000E+00  0.00000000000E+00 -0.34006875181E+03  0.34006875182E+03  0.25500000920E-02 0. -1.
    10030    2    1    2    0    0  0.00000000000E+00  0.00000000000E+00  0.39777585064E+03  0.10779133543E+04  0.10018341040E+04 0.  0.
        4    1    3    3  502    0  0.76505826648E+02 -0.66221344645E+02 -0.32895672252E+03  0.34416935684E+03  0.12699999809E+01 0. -1.
       -4    1    3    3    0  502 -0.76505826648E+02  0.66221344645E+02  0.72673257315E+03  0.73374399744E+03  0.12699999809E+01 0.  1.
</event>
<event>
 5   0  0.1216322E-02  0.9994524E+03  0.7818609E-02  0.9309146E-01
        2   -1    0    0  501    0  0.00000000000E+00  0.00000000000E+00  0.26401948211E+03  0.26401948213E+03  0.25500000920E-02 0.  1.
       -2   -1    0    0    0  501  0.00000000000E+00  0.00000000000E+00 -0.94586300556E+03  0.94586300556E+03  0.25500000920E-02 0. -1.
    10030    2    1    2    0    0  0.00000000000E+00  0.00000000000E+00 -0.68184352344E+03  0.12098824877E+04  0.99945237183E+03 0.  0.
        2    1    3    3  502    0  0.47375150108E+03 -0.14210870742E+02 -0.53264642703E+03  0.71298993672E+03  0.25500000920E-02 0. -1.
       -2    1    3    3    0  502 -0.47375150108E+03  0.14210870742E+02 -0.14919709641E+03  0.49689255097E+03  0.25500000920E-02 0.  1.
</event>
<event>
 5   0  0.1216322E-02  0.9787181E+03  0.7818609E-02  0.9332199E-01
       -2   -1    0    0    0  501  0.00000000000E+00  0.00000000000E+00  0.17616649624E+03  0.17616649626E+03  0.25500000920E-02 0. -1.
        2   -1    0    0  501    0  0.00000000000E+00  0.00000000000E+00 -0.13593519727E+04  0.13593519727E+04  0.25500000920E-02 0.  1.
    10030    2    1    2    0    0  0.00000000000E+00  0.00000000000E+00 -0.11831854765E+04  0.15355184690E+04  0.97871808853E+03 0.  0.
        2    1    3    3  502    0  0.22258408647E+03 -0.21308312977E+03 -0.11880340053E+04  0.12273438367E+04  0.25500000920E-02 0.  1.
       -2    1    3    3    0  502 -0.22258408647E+03  0.21308312977E+03  0.48485288164E+01  0.30817463228E+03  0.25500000920E-02 0. -1.
</event>
<event>
 5   0  0.1240503E-02  0.1016016E+04  0.7818609E-02  0.9291151E-01
       -2   -1    0    0    0  501  0.00000000000E+00  0.00000000000E+00  0.29591018632E+03  0.29591018633E+03  0.25500000920E-02 0. -1.
        2   -1    0    0  501    0  0.00000000000E+00  0.00000000000E+00 -0.87212978814E+03  0.87212978814E+03  0.25500000920E-02 0.  1.
    10030    2    1    2    0    0  0.00000000000E+00  0.00000000000E+00 -0.57621960182E+03  0.11680399745E+04  0.10160159214E+04 0.  0.
        1    1    3    3  502    0 -0.22487161188E+03 -0.34270993945E+03  0.56883363159E+02  0.41382733290E+03  0.50400001928E-02 0. -1.
       -1    1    3    3    0  502  0.22487161188E+03  0.34270993945E+03 -0.63310296498E+03  0.75421264158E+03  0.50400001928E-02 0.  1.
</event>
<event>
 5   0  0.1221315E-02  0.9646107E+03  0.7818609E-02  0.9348234E-01
       -2   -1    0    0    0  501  0.00000000000E+00  0.00000000000E+00  0.14384382404E+04  0.14384382404E+04  0.25500000920E-02 0. -1.
        2   -1    0    0  501    0  0.00000000000E+00  0.00000000000E+00 -0.16171599434E+03  0.16171599436E+03  0.25500000920E-02 0.  1.
    10030    2    1    2    0    0  0.00000000000E+00  0.00000000000E+00  0.12767222460E+04  0.16001542347E+04  0.96461074087E+03 0.  0.
        5    1    3    3  502    0 -0.14051657656E+03  0.39442097948E+03  0.24132980702E+03  0.48329595808E+03  0.46999998093E+01 0.  1.
       -5    1    3    3    0  502  0.14051657656E+03 -0.39442097948E+03  0.10353924390E+04  0.11168582766E+04  0.46999998093E+01 0. -1.
</event>
<event>
 5   0  0.7461157E-03  0.9947484E+03  0.7818609E-02  0.9314323E-01
        1   -1    0    0  501    0  0.00000000000E+00  0.00000000000E+00  0.42190633647E+03  0.42190633650E+03  0.50400001928E-02 0.  1.
       -1   -1    0    0    0  501  0.00000000000E+00  0.00000000000E+00 -0.58634131796E+03  0.58634131798E+03  0.50400001928E-02 0. -1.
    10030    2    1    2    0    0  0.00000000000E+00  0.00000000000E+00 -0.16443498149E+03  0.10082476545E+04  0.99474844540E+03 0.  0.
        2    1    3    3  502    0  0.15560478436E+03 -0.17808061723E+03  0.36127671011E+03  0.43179441453E+03  0.25500000920E-02 0.  1.
       -2    1    3    3    0  502 -0.15560478436E+03  0.17808061723E+03 -0.52571169160E+03  0.57645323994E+03  0.25500000920E-02 0. -1.
</event>
<event>
 5   0  0.7224879E-03  0.9969290E+03  0.7818609E-02  0.9311919E-01
       -1   -1    0    0    0  501  0.00000000000E+00  0.00000000000E+00  0.99537735071E+03  0.99537735072E+03  0.50400001928E-02 0.  1.
        1   -1    0    0  501    0  0.00000000000E+00  0.00000000000E+00 -0.24962078231E+03  0.24962078236E+03  0.50400001928E-02 0. -1.
    10030    2    1    2    0    0  0.00000000000E+00  0.00000000000E+00  0.74575656839E+03  0.12449981331E+04  0.99692903061E+03 0.  0.
        3    1    3    3  502    0 -0.37330325243E+03 -0.24658148236E+03  0.98393036866E+02  0.45808181106E+03  0.10100000352E+00 0. -1.
       -3    1    3    3    0  502  0.37330325243E+03  0.24658148236E+03  0.64736353153E+03  0.78691632203E+03  0.10100000352E+00 0.  1.
</event>
<event>
 5   0  0.7073004E-03  0.1048495E+04  0.7818609E-02  0.9256899E-01
        1   -1    0    0  501    0  0.00000000000E+00  0.00000000000E+00  0.41049225038E+03  0.41049225041E+03  0.50400001928E-02 0. -1.
       -1   -1    0    0    0  501  0.00000000000E+00  0.00000000000E+00 -0.66952702141E+03  0.66952702143E+03  0.50400001928E-02 0.  1.
    10030    2    1    2    0    0  0.00000000000E+00  0.00000000000E+00 -0.25903477102E+03  0.10800192718E+04  0.10484954053E+04 0.  0.
        1    1    3    3  502    0  0.16906439263E+01 -0.45059496283E+03 -0.40552308257E+03  0.60620759590E+03  0.50400001928E-02 0.  1.
       -1    1    3    3    0  502 -0.16906439263E+01  0.45059496283E+03  0.14648831155E+03  0.47381167594E+03  0.50400001928E-02 0. -1.
</event>
<event>
 5   0  0.7461157E-03  0.9856741E+03  0.7818609E-02  0.9324398E-01
        1   -1    0    0  501    0  0.00000000000E+00  0.00000000000E+00  0.49394243901E+03  0.49394243904E+03  0.50400001928E-02 0.  1.
       -1   -1    0    0    0  501  0.00000000000E+00  0.00000000000E+00 -0.49173416069E+03  0.49173416072E+03  0.50400001928E-02 0. -1.
    10030    2    1    2    0    0  0.00000000000E+00  0.00000000000E+00  0.22082783254E+01  0.98567659976E+03  0.98567412607E+03 0.  0.
        2    1    3    3  502    0  0.45962974050E+02 -0.31058101257E+03  0.38099351082E+03  0.49368939187E+03  0.25500000920E-02 0.  1.
       -2    1    3    3    0  502 -0.45962974050E+02  0.31058101257E+03 -0.37878523250E+03  0.49198720788E+03  0.25500000920E-02 0. -1.
</event>
<event>
 5   0  0.1245850E-02  0.9600964E+03  0.7818609E-02  0.9353427E-01
        2   -1    0    0  501    0  0.00000000000E+00  0.00000000000E+00  0.10284276945E+04  0.10284276945E+04  0.25500000920E-02 0.  1.
       -2   -1    0    0    0  501  0.00000000000E+00  0.00000000000E+00 -0.22407629479E+03  0.22407629480E+03  0.25500000920E-02 0. -1.
    10030    2    1    2    0    0  0.00000000000E+00  0.00000000000E+00  0.80435139970E+03  0.12525039893E+04  0.96009638527E+03 0.  0.
        3    1    3    3  502    0 -0.89649028402E+01  0.26078297778E+03  0.92783130319E+03  0.96382522708E+03  0.10100000352E+00 0.  1.
       -3    1    3    3    0  502  0.89649028402E+01 -0.26078297778E+03 -0.12347990349E+03  0.28867876221E+03  0.10100000352E+00 0. -1.
</event>
<event>
 5   0  0.7461157E-03  0.1003933E+04  0.7818609E-02  0.9304242E-01
       -1   -1    0    0    0  501  0.00000000000E+00  0.00000000000E+00  0.17679349465E+03  0.17679349473E+03  0.50400001928E-02 0. -1.
        1   -1    0    0  501    0  0.00000000000E+00  0.00000000000E+00 -0.14252237517E+04  0.14252237517E+04  0.50400001928E-02 0.  1.
    10030    2    1    2    0    0  0.00000000000E+00  0.00000000000E+00 -0.12484302570E+04  0.16020172464E+04  0.10039328420E+04 0.  0.
        2    1    3    3  502    0 -0.19197488075E+02  0.35440855407E+03 -0.11906388821E+04  0.12424149525E+04  0.25500000920E-02 0. -1.
       -2    1    3    3    0  502  0.19197488075E+02 -0.35440855407E+03 -0.57791374959E+02  0.35960229389E+03  0.25500000920E-02 0.  1.
</event>
<event>
 5   0  0.1221315E-02  0.1013077E+04  0.7818609E-02  0.9294317E-01
        2   -1    0    0  501    0  0.00000000000E+00  0.00000000000E+00  0.78477250547E+03  0.78477250547E+03  0.25500000920E-02 0.  1.
       -2   -1    0    0    0  501  0.00000000000E+00  0.00000000000E+00 -0.32695011637E+03  0.32695011638E+03  0.25500000920E-02 0. -1.
    10030    2    1    2    0    0  0.00000000000E+00  0.00000000000E+00  0.45782238910E+03  0.11117226219E+04  0.10130774146E+04 0.  0.
        5    1    3    3  502    0  0.30495948507E+02 -0.19107214995E+03 -0.28477230385E+03  0.34431950918E+03  0.46999998093E+01 0. -1.
       -5    1    3    3    0  502 -0.30495948507E+02  0.19107214995E+03  0.74259469295E+03  0.76740311268E+03  0.46999998093E+01 0.  1.
</event>
<event>
 5   0  0.1191822E-02  0.9706206E+03  0.7818609E-02  0.9341368E-01
        2   -1    0    0  501    0  0.00000000000E+00  0.00000000000E+00  0.44683489415E+03  0.44683489416E+03  0.25500000920E-02 0.  1.
       -2   -1    0    0    0  501  0.00000000000E+00  0.00000000000E+00 -0.52709873125E+03  0.52709873126E+03  0.25500000920E-02 0. -1.
    10030    2    1    2    0    0  0.00000000000E+00  0.00000000000E+00 -0.80263837101E+02  0.97393362542E+03  0.97062063814E+03 0.  0.
        4    1    3    3  502    0  0.18629575935E+03 -0.23839609742E+03 -0.42088155322E+03  0.51834515909E+03  0.12699999809E+01 0. -1.
       -4    1    3    3    0  502 -0.18629575935E+03  0.23839609742E+03  0.34061771612E+03  0.45558846633E+03  0.12699999809E+01 0.  1.
</event>
<event>
 5   0  0.6967681E-03  0.1028221E+04  0.7818609E-02  0.9278123E-01
        1   -1    0    0  501    0  0.00000000000E+00  0.00000000000E+00  0.11490293767E+04  0.11490293767E+04  0.50400001928E-02 0. -1.
       -1   -1    0    0    0  501  0.00000000000E+00  0.00000000000E+00 -0.23002853723E+03  0.23002853729E+03  0.50400001928E-02 0.  1.
    10030    2    1    2    0    0  0.00000000000E+00  0.00000000000E+00  0.91900083942E+03  0.13790579140E+04  0.10282208844E+04 0.  0.
        5    1    3    3  502    0  0.42645287672E+03  0.28695301060E+03  0.44725419749E+03  0.68136810428E+03  0.46999998093E+01 0.  1.
       -5    1    3    3    0  502 -0.42645287672E+03 -0.28695301060E+03  0.47174664193E+03  0.69768980968E+03  0.46999998093E+01 0. -1.
</event>
<event>
 5   0  0.7224879E-03  0.9998400E+03  0.7818609E-02  0.9308720E-01
       -1   -1    0    0    0  501  0.00000000000E+00  0.00000000000E+00  0.17213543314E+03  0.17213543321E+03  0.50400001928E-02 0. -1.
        1   -1    0    0  501    0  0.00000000000E+00  0.00000000000E+00 -0.14518800045E+04  0.14518800045E+04  0.50400001928E-02 0.  1.
    10030    2    1    2    0    0  0.00000000000E+00  0.00000000000E+00 -0.12797445714E+04  0.16240154378E+04  0.99983997421E+03 0.  0.
        3    1    3    3  502    0 -0.30699247076E+03  0.20468268052E+03 -0.91981774084E+02  0.38026311124E+03  0.10100000352E+00 0. -1.
       -3    1    3    3    0  502  0.30699247076E+03 -0.20468268052E+03 -0.11877627973E+04  0.12437523265E+04  0.10100000352E+00 0.  1.
</event>
<event>
 5   0  0.7241200E-03  0.1001367E+04  0.7818609E-02  0.9307047E-01
        1   -1    0    0  501    0  0.00000000000E+00  0.00000000000E+00  0.14126211719E+04  0.14126211719E+04  0.50400001928E-02 0. -1.
       -1   -1    0    0    0  501  0.00000000000E+00  0.00000000000E+00 -0.17746002753E+03  0.17746002760E+03  0.50400001928E-02 0.  1.
    10030    2    1    2    0    0  0.00000000000E+00  0.00000000000E+00  0.12351611444E+04  0.15900811995E+04  0.10013666504E+04 0.  0.
        4    1    3    3  502    0  0.13246331695E+03 -0.41640952538E+03  0.22947107819E+03  0.49356054521E+03  0.12699999809E+01 0.  1.
       -4    1    3    3    0  502 -0.13246331695E+03  0.41640952538E+03  0.10056900662E+04  0.10965206543E+04  0.12699999809E+01 0. -1.
</event>
<event>
 5   0  0.6967681E-03  0.1140691E+04  0.7818609E-02  0.9166415E-01
       -1   -1    0    0    0  501  0.00000000000E+00  0.00000000000E+00  0.19772314592E+03  0.19772314598E+03  0.50400001928E-02 0. -1.
        1   -1    0    0  501    0  0.00000000000E+00  0.00000000000E+00 -0.16451996255E+04  0.16451996255E+04  0.50400001928E-02 0.  1.
    10030    2    1    2    0    0  0.00000000000E+00  0.00000000000E+00 -0.14474764796E+04  0.18429227715E+04  0.11406910987E+04 0.  0.
        5    1    3    3  502    0  0.15317013407E+03 -0.21251422300E+03  0.94742583920E+02  0.27860659029E+03  0.46999998093E+01 0. -1.
       -5    1    3    3    0  502 -0.15317013407E+03  0.21251422300E+03 -0.15422190635E+04  0.15643161812E+04  0.46999998093E+01 0.  1.
</event>
<event>
 5   0  0.1216322E-02  0.1182035E+04  0.7818609E-02  0.9128728E-01
        2   -1    0    0  501    0  0.00000000000E+00  0.00000000000E+00  0.15002048156E+04  0.15002048156E+04  0.25500000920E-02 0.  1.
       -2   -1    0    0    0  501  0.00000000000E+00  0.00000000000E+00 -0.23283592381E+03  0.23283592383E+03  0.25500000920E-02 0. -1.
    10030    2    1    2    0    0  0.00000000000E+00  0.00000000000E+00  0.12673688917E+04  0.17330407394E+04  0.11820348119E+04 0.  0.
        2    1    3    3  502    0  0.11070725877E+03  0.32893691535E+03 -0.67690343713E+02  0.35360652435E+03  0.25500000920E-02 0. -1.
       -2    1    3    3    0  502 -0.11070725877E+03 -0.32893691535E+03  0.13350592355E+04  0.13794342150E+04  0.25500000920E-02 0.  1.
</event>
<event>
 5   0  0.7461157E-03  0.9985034E+03  0.7818609E-02  0.9310188E-01
       -1   -1    0    0    0  501  0.00000000000E+00  0.00000000000E+00  0.40077748076E+03  0.40077748079E+03  0.50400001928E-02 0. -1.
        1   -1    0    0  501    0  0.00000000000E+00  0.00000000000E+00 -0.62192177696E+03  0.62192177698E+03  0.50400001928E-02 0.  1.
    10030    2    1    2    0    0  0.00000000000E+00  0.00000000000E+00 -0.22114429620E+03  0.10226992578E+04  0.99850336610E+03 0.  0.
        2    1    3    3  502    0 -0.28270752877E+03  0.40895304950E+03 -0.63791534163E+02  0.50123398065E+03  0.25500000920E-02 0. -1.
       -2    1    3    3    0  502  0.28270752877E+03 -0.40895304950E+03 -0.15735276203E+03  0.52146527713E+03  0.25500000920E-02 0.  1.
</event>
<event>
 5   0  0.1221315E-02  0.9960201E+03  0.7818609E-02  0.9312921E-01
        2   -1    0    0  501    0  0.00000000000E+00  0.00000000000E+00  0.11491491368E+04  0.11491491368E+04  0.25500000920E-02 0.  1.
       -2   -1    0    0    0  501  0.00000000000E+00  0.00000000000E+00 -0.21582402792E+03  0.21582402794E+03  0.25500000920E-02 0. -1.
    10030    2    1    2    0    0  0.00000000000E+00  0.00000000000E+00  0.93332510890E+03  0.13649731648E+04  0.99602007090E+03 0.  0.
        5    1    3    3  502    0 -0.43452693362E+03 -0.21441762726E+03  0.30919257518E+03  0.57481363368E+03  0.46999998093E+01 0. -1.
       -5    1    3    3    0  502  0.43452693362E+03  0.21441762726E+03  0.62413253372E+03  0.79015953108E+03  0.46999998093E+01 0.  1.
</event>
<event>
 5   0  0.7073004E-03  0.1049618E+04  0.7818609E-02  0.9255739E-01
       -1   -1    0    0    0  501  0.00000000000E+00  0.00000000000E+00  0.24604191296E+03  0.24604191301E+03  0.50400001928E-02 0.  1.
        1   -1    0    0  501    0  0.00000000000E+00  0.00000000000E+00 -0.11194200390E+04  0.11194200390E+04  0.50400001928E-02 0. -1.
    10030    2    1    2    0    0  0.00000000000E+00  0.00000000000E+00 -0.87337812606E+03  0.13654619520E+04  0.10496175453E+04 0.  0.
        1    1    3    3  502    0 -0.19874491116E+03 -0.16938269371E+03  0.15552572479E+03  0.30393796692E+03  0.50400001928E-02 0.  1.
       -1    1    3    3    0  502  0.19874491116E+03  0.16938269371E+03 -0.10289038509E+04  0.10615239851E+04  0.50400001928E-02 0. -1.
</event>
<event>
 5   0  0.1245850E-02  0.1001445E+04  0.7818609E-02  0.9306961E-01
        2   -1    0    0  501    0  0.00000000000E+00  0.00000000000E+00  0.19179625322E+04  0.19179625322E+04  0.25500000920E-02 0.  1.
       -2   -1    0    0    0  501  0.00000000000E+00  0.00000000000E+00 -0.13072372099E+03  0.13072372101E+03  0.25500000920E-02 0. -1.
    10030    2    1    2    0    0  0.00000000000E+00  0.00000000000E+00  0.17872388112E+04  0.20486862532E+04  0.10014453534E+04 0.  0.
        3    1    3    3  502    0  0.34730834082E+03  0.34951128060E+03  0.10759301713E+04  0.11833879172E+04  0.10100000352E+00 0.  1.
       -3    1    3    3    0  502 -0.34730834082E+03 -0.34951128060E+03  0.71130863988E+03  0.86529833598E+03  0.10100000352E+00 0. -1.
</event>
<event>
 5   0  0.1221315E-02  0.9662619E+03  0.7818609E-02  0.9346342E-01
        2   -1    0    0  501    0  0.00000000000E+00  0.00000000000E+00  0.15234878311E+04  0.15234878311E+04  0.25500000920E-02 0.  1.
       -2   -1    0    0    0  501  0.00000000000E+00  0.00000000000E+00 -0.15321127601E+03  0.15321127603E+03  0.25500000920E-02 0. -1.
    10030    2    1    2    0    0  0.00000000000E+00  0.00000000000E+00  0.13702765551E+04  0.16766991071E+04  0.96626189950E+03 0.  0.
        5    1    3    3  502    0 -0.14726064642E+03  0.21664256616E+03  0.13895138038E+04  0.14139980200E+04  0.46999998093E+01 0.  1.
       -5    1    3    3    0  502  0.14726064642E+03 -0.21664256616E+03 -0.19237248735E+02  0.26270108716E+03  0.46999998093E+01 0. -1.
</event>
<event>
 5   0  0.1221315E-02  0.1015849E+04  0.7818609E-02  0.9291331E-01
       -2   -1    0    0    0  501  0.00000000000E+00  0.00000000000E+00  0.41047807644E+03  0.41047807645E+03  0.25500000920E-02 0.  1.
        2   -1    0    0  501    0  0.00000000000E+00  0.00000000000E+00 -0.62850439760E+03  0.62850439761E+03  0.25500000920E-02 0. -1.
    10030    2    1    2    0    0  0.00000000000E+00  0.00000000000E+00 -0.21802632116E+03  0.10389824741E+04  0.10158489576E+04 0.  0.
        5    1    3    3  502    0  0.17361046107E+03  0.47590668401E+03 -0.71609567095E+02  0.51164224237E+03  0.46999998093E+01 0. -1.
       -5    1    3    3    0  502 -0.17361046107E+03 -0.47590668401E+03 -0.14641675407E+03  0.52734023168E+03  0.46999998093E+01 0.  1.
</event>
<event>
 5   0  0.1245850E-02  0.9162391E+03  0.7818609E-02  0.9405506E-01
       -2   -1    0    0    0  501  0.00000000000E+00  0.00000000000E+00  0.14924621133E+03  0.14924621135E+03  0.25500000920E-02 0.  1.
        2   -1    0    0  501    0  0.00000000000E+00  0.00000000000E+00 -0.14062234291E+04  0.14062234291E+04  0.25500000920E-02 0. -1.
    10030    2    1    2    0    0  0.00000000000E+00  0.00000000000E+00 -0.12569772178E+04  0.15554696405E+04  0.91623909348E+03 0.  0.
        3    1    3    3  502    0  0.63309116636E+02 -0.28598530950E+03 -0.30490402783E+02  0.29449162359E+03  0.10100000352E+00 0.  1.
       -3    1    3    3    0  502 -0.63309116636E+02  0.28598530950E+03 -0.12264868150E+04  0.12609780169E+04  0.10100000352E+00 0. -1.
</event>
<event>
 5   0  0.7073004E-03  0.9927070E+03  0.7818609E-02  0.9316580E-01
        1   -1    0    0  501    0  0.00000000000E+00  0.00000000000E+00  0.11939483764E+04  0.11939483764E+04  0.50400001928E-02 0. -1.
       -1   -1    0    0    0  501  0.00000000000E+00  0.00000000000E+00 -0.20634626482E+03  0.20634626488E+03  0.50400001928E-02 0.  1.
    10030    2    1    2    0    0  0.00000000000E+00  0.00000000000E+00  0.98760211154E+03  0.14002946413E+04  0.99270698175E+03 0.  0.
        1    1    3    3  502    0  0.31546063719E+03  0.11360402258E+03  0.10100538495E+04  0.10642509415E+04  0.50400001928E-02 0. -1.
       -1    1    3    3    0  502 -0.31546063719E+03 -0.11360402258E+03 -0.22451737999E+02  0.33604369972E+03  0.50400001928E-02 0.  1.
</event>
<event>
 5   0  0.7461157E-03  0.9778489E+03  0.7818609E-02  0.9333179E-01
        1   -1    0    0  501    0  0.00000000000E+00  0.00000000000E+00  0.97279477055E+03  0.97279477056E+03  0.50400001928E-02 0.  1.
       -1   -1    0    0    0  501  0.00000000000E+00  0.00000000000E+00 -0.24573233938E+03  0.24573233943E+03  0.50400001928E-02 0. -1.
    10030    2    1    2    0    0  0.00000000000E+00  0.00000000000E+00  0.72706243116E+03  0.12185271100E+04  0.97784893464E+03 0.  0.
        2    1    3    3  502    0  0.34009429005E+03 -0.28156011110E+03  0.10182336069E+03  0.45310950010E+03  0.25500000920E-02 0. -1.
       -2    1    3    3    0  502 -0.34009429005E+03  0.28156011110E+03  0.62523907047E+03  0.76541760990E+03  0.25500000920E-02 0.  1.
</event>
<event>
 5   0  0.6967681E-03  0.9931940E+03  0.7818609E-02  0.9316041E-01
       -1   -1    0    0    0  501  0.00000000000E+00  0.00000000000E+00  0.28340626085E+03  0.28340626090E+03  0.50400001928E-02 0. -1.
        1   -1    0    0  501    0  0.00000000000E+00  0.00000000000E+00 -0.87015921990E+03  0.87015921991E+03  0.50400001928E-02 0.  1.
    10030    2    1    2    0    0  0.00000000000E+00  0.00000000000E+00 -0.58675295905E+03  0.11535654808E+04  0.99319398083E+03 0.  0.
        5    1    3    3  502    0 -0.12070943262E+03  0.46969501202E+03 -0.41740015127E+03  0.63986650773E+03  0.46999998093E+01 0.  1.
       -5    1    3    3    0  502  0.12070943262E+03 -0.46969501202E+03 -0.16935280778E+03  0.51369897308E+03  0.46999998093E+01 0. -1.
</event>
<event>
 5   0  0.1216322E-02  0.9999599E+03  0.7818609E-02  0.9308589E-01
       -2   -1    0    0    0  501  0.00000000000E+00  0.00000000000E+00  0.13512928345E+03  0.13512928348E+03  0.25500000920E-02 0. -1.
        2   -1    0    0  501    0  0.00000000000E+00  0.00000000000E+00 -0.18499316108E+04  0.18499316108E+04  0.25500000920E-02 0.  1.
    10030    2    1    2    0    0  0.00000000000E+00  0.00000000000E+00 -0.17148023273E+04  0.19850608942E+04  0.99995986524E+03 0.  0.
        2    1    3    3  502    0 -0.13126004958E+03  0.47464263909E+03 -0.10289188890E+04  0.11406966799E+04  0.25500000920E-02 0.  1.
       -2    1    3    3    0  502  0.13126004958E+03 -0.47464263909E+03 -0.68588343829E+03  0.84436421429E+03  0.25500000920E-02 0. -1.
</event>
<event>
 5   0  0.7224879E-03  0.9899857E+03  0.7818609E-02  0.9319597E-01
       -1   -1    0    0    0  501  0.00000000000E+00  0.00000000000E+00  0.28123879841E+03  0.28123879845E+03  0.50400001928E-02 0. -1.
        1   -1    0    0  501    0  0.00000000000E+00  0.00000000000E+00 -0.87120955348E+03  0.87120955349E+03  0.50400001928E-02 0.  1.
    10030    2    1    2    0    0  0.00000000000E+00  0.00000000000E+00 -0.58997075507E+03  0.11524483519E+04  0.98998571306E+03 0.  0.
        3    1    3    3  502    0  0.40525832154E+02  0.45256372866E+03 -0.66388482536E+02  0.45919898996E+03  0.10100000352E+00 0. -1.
       -3    1    3    3    0  502 -0.40525832154E+02 -0.45256372866E+03 -0.52358227254E+03  0.69324936198E+03  0.10100000352E+00 0.  1.
</event>
<event>
 5   0  0.7241200E-03  0.1005762E+04  0.7818609E-02  0.9302248E-01
       -1   -1    0    0    0  501  0.00000000000E+00  0.00000000000E+00  0.11071056360E+04  0.11071056361E+04  0.50400001928E-02 0. -1.
        1   -1    0    0  501    0  0.00000000000E+00  0.00000000000E+00 -0.22842362610E+03  0.22842362615E+03  0.50400001928E-02 0.  1.
    10030    2    1    2    0    0  0.00000000000E+00  0.00000000000E+00  0.87868200995E+03  0.13355292622E+04  0.10057615700E+04 0.  0.
        4    1    3    3  502    0 -0.43207439309E+03  0.82669188867E+02  0.11580427716E+03  0.45490077980E+03  0.12699999809E+01 0. -1.
       -4    1    3    3    0  502  0.43207439309E+03 -0.82669188867E+02  0.76287773279E+03  0.88062848241E+03  0.12699999809E+01 0.  1.
</event>
<event>
 5   0  0.1191822E-02  0.9932804E+03  0.7818609E-02  0.9315946E-01
        2   -1    0    0  501    0  0.00000000000E+00  0.00000000000E+00  0.46228685311E+03  0.46228685312E+03  0.25500000920E-02 0. -1.
       -2   -1    0    0    0  501  0.00000000000E+00  0.00000000000E+00 -0.53354638742E+03  0.53354638742E+03  0.25500000920E-02 0.  1.
    10030    2    1    2    0    0  0.00000000000E+00  0.00000000000E+00 -0.71259534305E+02  0.99583324054E+03  0.99328038425E+03 0.  0.
        4    1    3    3  502    0  0.48998811506E+02 -0.45786385386E+03  0.15088512889E+03  0.48457004366E+03  0.12699999809E+01 0. -1.
       -4    1    3    3    0  502 -0.48998811506E+02  0.45786385386E+03 -0.22214466319E+03  0.51126319688E+03  0.12699999809E+01 0.  1.
</event>
<event>
 5   0  0.4782125E-03  0.9428634E+03  0.7818609E-02  0.9373531E-01
        3   -1    0    0  501    0  0.00000000000E+00  0.00000000000E+00  0.30994933411E+03  0.30994935056E+03  0.10100000352E+00 0. -1.
       -3   -1    0    0    0  501  0.00000000000E+00  0.00000000000E+00 -0.71704563509E+03  0.71704564220E+03  0.10100000352E+00 0.  1.
    10030    2    1    2    0    0  0.00000000000E+00  0.00000000000E+00 -0.40709630098E+03  0.10269949928E+04  0.94286336067E+03 0.  0.
        3    1    3    3  502    0 -0.20927205335E+03 -0.34590337487E+03  0.60584789364E+02  0.40879636002E+03  0.10100000352E+00 0. -1.
       -3    1    3    3    0  502  0.20927205335E+03  0.34590337487E+03 -0.46768109035E+03  0.61819863275E+03  0.10100000352E+00 0.  1.
</event>
<event>
 5   0  0.7241200E-03  0.9089772E+03  0.7818609E-02  0.9414429E-01
       -1   -1    0    0    0  501  0.00000000000E+00  0.00000000000E+00  0.16275116908E+03  0.16275116916E+03  0.50400001928E-02 0. -1.
        1   -1    0    0  501    0  0.00000000000E+00  0.00000000000E+00 -0.12691761430E+04  0.12691761430E+04  0.50400001928E-02 0.  1.
    10030    2    1    2    0    0  0.00000000000E+00  0.00000000000E+00 -0.11064249739E+04  0.14319273122E+04  0.90897722987E+03 0.  0.
        4    1    3    3  502    0  0.55591440915E+02 -0.11677081703E+03  0.13314946728E+03  0.18562388195E+03  0.12699999809E+01 0. -1.
       -4    1    3    3    0  502 -0.55591440915E+02  0.11677081703E+03 -0.12395744412E+04  0.12463034302E+04  0.12699999809E+01 0.  1.
</event>
<event>
 5   0  0.7241200E-03  0.8021768E+03  0.7818609E-02  0.9556872E-01
       -1   -1    0    0    0  501  0.00000000000E+00  0.00000000000E+00  0.12332027471E+04  0.12332027471E+04  0.50400001928E-02 0.  1.
        1   -1    0    0  501    0  0.00000000000E+00  0.00000000000E+00 -0.13045050572E+03  0.13045050582E+03  0.50400001928E-02 0. -1.
    10030    2    1    2    0    0  0.00000000000E+00  0.00000000000E+00  0.11027522414E+04  0.13636532529E+04  0.80217684355E+03 0.  0.
        4    1    3    3  502    0  0.33864828277E+03  0.21299490492E+03  0.60007936128E+03  0.72121171765E+03  0.12699999809E+01 0. -1.
       -4    1    3    3    0  502 -0.33864828277E+03 -0.21299490492E+03  0.50267288007E+03  0.64244153524E+03  0.12699999809E+01 0.  1.
</event>
<event>
 5   0  0.7073004E-03  0.9927969E+03  0.7818609E-02  0.9316481E-01
       -1   -1    0    0    0  501  0.00000000000E+00  0.00000000000E+00  0.18969895458E+03  0.18969895464E+03  0.50400001928E-02 0. -1.
        1   -1    0    0  501    0  0.00000000000E+00  0.00000000000E+00 -0.12989603296E+04  0.12989603296E+04  0.50400001928E-02 0.  1.
    10030    2    1    2    0    0  0.00000000000E+00  0.00000000000E+00 -0.11092613751E+04  0.14886592843E+04  0.99279689086E+03 0.  0.
        1    1    3    3  502    0 -0.86694116084E+02  0.14919213583E+03  0.14328260883E+03  0.22428568651E+03  0.50400001928E-02 0. -1.
       -1    1    3    3    0  502  0.86694116084E+02 -0.14919213583E+03 -0.12525439839E+04  0.12643735978E+04  0.50400001928E-02 0.  1.
</event>
<event>
 5   0  0.1240503E-02  0.9989856E+03  0.7818609E-02  0.9309658E-01
        2   -1    0    0  501    0  0.00000000000E+00  0.00000000000E+00  0.81369272361E+03  0.81369272362E+03  0.25500000920E-02 0.  1.
       -2   -1    0    0    0  501  0.00000000000E+00  0.00000000000E+00 -0.30661827563E+03  0.30661827564E+03  0.25500000920E-02 0. -1.
    10030    2    1    2    0    0  0.00000000000E+00  0.00000000000E+00  0.50707444798E+03  0.11203109993E+04  0.99898560513E+03 0.  0.
        1    1    3    3  502    0  0.33574025112E+03 -0.31430123167E+03  0.34966118737E+02  0.46122598576E+03  0.50400001928E-02 0. -1.
       -1    1    3    3    0  502 -0.33574025112E+03  0.31430123167E+03  0.47210832925E+03  0.65908501350E+03  0.50400001928E-02 0.  1.
</event>
<event>
 5   0  0.7224879E-03  0.9789877E+03  0.7818609E-02  0.9331896E-01
       -1   -1    0    0    0  501  0.00000000000E+00  0.00000000000E+00  0.23445684145E+03  0.23445684151E+03  0.50400001928E-02 0. -1.
        1   -1    0    0  501    0  0.00000000000E+00  0.00000000000E+00 -0.10219546075E+04  0.10219546075E+04  0.50400001928E-02 0.  1.
    10030    2    1    2    0    0  0.00000000000E+00  0.00000000000E+00 -0.78749776600E+03  0.12564114490E+04  0.97898774132E+03 0.  0.
        3    1    3    3  502    0 -0.43108035902E+03 -0.23119080670E+03 -0.37062049427E+03  0.61370923572E+03  0.10100000352E+00 0. -1.
       -3    1    3    3    0  502  0.43108035902E+03  0.23119080670E+03 -0.41687727174E+03  0.64270221326E+03  0.10100000352E+00 0.  1.
</event>
<event>
 5   0  0.1216322E-02  0.7360947E+03  0.7818609E-02  0.9657422E-01
       -2   -1    0    0    0  501  0.00000000000E+00  0.00000000000E+00  0.20978952519E+03  0.20978952520E+03  0.25500000920E-02 0.  1.
        2   -1    0    0  501    0  0.00000000000E+00  0.00000000000E+00 -0.64568925894E+03  0.64568925894E+03  0.25500000920E-02 0. -1.
    10030    2    1    2    0    0  0.00000000000E+00  0.00000000000E+00 -0.43589973375E+03  0.85547878414E+03  0.73609467614E+03 0.  0.
        2    1    3    3  502    0 -0.21124814532E+03  0.28372920655E+03 -0.33607507190E+03  0.48792878119E+03  0.25500000920E-02 0. -1.
       -2    1    3    3    0  502  0.21124814532E+03 -0.28372920655E+03 -0.99824661848E+02  0.36755000295E+03  0.25500000920E-02 0.  1.
</event>
<event>
 5   0  0.1245850E-02  0.1031187E+04  0.7818609E-02  0.9274986E-01
        2   -1    0    0  501    0  0.00000000000E+00  0.00000000000E+00  0.98802137590E+03  0.98802137591E+03  0.25500000920E-02 0. -1.
       -2   -1    0    0    0  501  0.00000000000E+00  0.00000000000E+00 -0.26905956258E+03  0.26905956259E+03  0.25500000920E-02 0.  1.
    10030    2    1    2    0    0  0.00000000000E+00  0.00000000000E+00  0.71896181332E+03  0.12570809385E+04  0.10311868875E+04 0.  0.
        3    1    3    3  502    0 -0.28872596670E+03 -0.33537696235E+03  0.36956128169E+02  0.44407899785E+03  0.10100000352E+00 0.  1.
       -3    1    3    3    0  502  0.28872596670E+03  0.33537696235E+03  0.68200568515E+03  0.81300194065E+03  0.10100000352E+00 0. -1.
</event>
<event>
 5   0  0.4782125E-03  0.1076607E+04  0.7818609E-02  0.9228297E-01
        3   -1    0    0  501    0  0.00000000000E+00  0.00000000000E+00  0.97198351182E+03  0.97198351706E+03  0.10100000352E+00 0. -1.
       -3   -1    0    0    0  501  0.00000000000E+00  0.00000000000E+00 -0.29812322797E+03  0.29812324508E+03  0.10100000352E+00 0.  1.
    10030    2    1    2    0    0  0.00000000000E+00  0.00000000000E+00  0.67386028384E+03  0.12701067621E+04  0.10766074053E+04 0.  0.
        2    1    3    3  502    0  0.42699194596E+03  0.16944125752E+03  0.58934003443E+01  0.45942049785E+03  0.25500000920E-02 0.  1.
       -2    1    3    3    0  502 -0.42699194596E+03 -0.16944125752E+03  0.66796688350E+03  0.81068626430E+03  0.25500000920E-02 0. -1.
</event>
<event>
 5   0  0.6967681E-03  0.9929040E+03  0.7818609E-02  0.9316362E-01
       -1   -1    0    0    0  501  0.00000000000E+00  0.00000000000E+00  0.92883939023E+03  0.92883939025E+03  0.50400001928E-02 0.  1.
        1   -1    0    0  501    0  0.00000000000E+00  0.00000000000E+00 -0.26534684096E+03  0.26534684100E+03  0.50400001928E-02 0. -1.
    10030    2    1    2    0    0  0.00000000000E+00  0.00000000000E+00  0.66349254928E+03  0.11941862312E+04  0.99290401951E+03 0.  0.
        5    1    3    3  502    0  0.15529376766E+03  0.17716100266E+03 -0.19380322672E+03  0.30509663358E+03  0.46999998093E+01 0. -1.
       -5    1    3    3    0  502 -0.15529376766E+03 -0.17716100266E+03  0.85729577600E+03  0.88908959767E+03  0.46999998093E+01 0.  1.
</event>
<event>
 5   0  0.1191822E-02  0.9900468E+03  0.7818609E-02  0.9319529E-01
       -2   -1    0    0    0  501  0.00000000000E+00  0.00000000000E+00  0.12350157700E+04  0.12350157700E+04  0.25500000920E-02 0. -1.
        2   -1    0    0  501    0  0.00000000000E+00  0.00000000000E+00 -0.19841703251E+03  0.19841703253E+03  0.25500000920E-02 0.  1.
    10030    2    1    2    0    0  0.00000000000E+00  0.00000000000E+00  0.10365987375E+04  0.14334328026E+04  0.99004679527E+03 0.  0.
        4    1    3    3  502    0 -0.52789898377E+02  0.20015304703E+03  0.11693437863E+04  0.11875245341E+04  0.12699999809E+01 0. -1.
       -4    1    3    3    0  502  0.52789898377E+02 -0.20015304703E+03 -0.13274504881E+03  0.24590826845E+03  0.12699999809E+01 0.  1.
</event>
<event>
 5   0  0.1191822E-02  0.9602241E+03  0.7818609E-02  0.9353279E-01
        2   -1    0    0  501    0  0.00000000000E+00  0.00000000000E+00  0.10579915876E+04  0.10579915876E+04  0.25500000920E-02 0. -1.
       -2   -1    0    0    0  501  0.00000000000E+00  0.00000000000E+00 -0.21787279561E+03  0.21787279563E+03  0.25500000920E-02 0.  1.
    10030    2    1    2    0    0  0.00000000000E+00  0.00000000000E+00  0.84011879197E+03  0.12758643832E+04  0.96022410912E+03 0.  0.
        4    1    3    3  502    0 -0.18029748986E+03 -0.99986049414E+02 -0.15606020896E+03  0.25857454756E+03  0.12699999809E+01 0.  1.
       -4    1    3    3    0  502  0.18029748986E+03  0.99986049414E+02  0.99617900093E+03  0.10172898357E+04  0.12699999809E+01 0. -1.
</event>
<event>
 5   0  0.1216322E-02  0.1049581E+04  0.7818609E-02  0.9255777E-01
       -2   -1    0    0    0  501  0.00000000000E+00  0.00000000000E+00  0.64581204384E+03  0.64581204384E+03  0.25500000920E-02 0. -1.
        2   -1    0    0  501    0  0.00000000000E+00  0.00000000000E+00 -0.42644766799E+03  0.42644766799E+03  0.25500000920E-02 0.  1.
    10030    2    1    2    0    0  0.00000000000E+00  0.00000000000E+00  0.21936437585E+03  0.10722597118E+04  0.10495809451E+04 0.  0.
        2    1    3    3  502    0  0.41030476329E+03 -0.58979855996E+02  0.43846907962E+03  0.60339353326E+03  0.25500000920E-02 0. -1.
       -2    1    3    3    0  502 -0.41030476329E+03  0.58979855996E+02 -0.21910470377E+03  0.46886617857E+03  0.25500000920E-02 0.  1.
</event>
<event>
 5   0  0.6967681E-03  0.9894195E+03  0.7818609E-02  0.9320226E-01
       -1   -1    0    0    0  501  0.00000000000E+00  0.00000000000E+00  0.11472923549E+03  0.11472923560E+03  0.50400001928E-02 0. -1.
        1   -1    0    0  501    0  0.00000000000E+00  0.00000000000E+00 -0.21331768516E+04  0.21331768516E+04  0.50400001928E-02 0.  1.
    10030    2    1    2    0    0  0.00000000000E+00  0.00000000000E+00 -0.20184476161E+04  0.22479060872E+04  0.98941952573E+03 0.  0.
        5    1    3    3  502    0 -0.19398687122E+02 -0.49394088844E+03 -0.10524355167E+04  0.11627538506E+04  0.46999998093E+01 0. -1.
       -5    1    3    3    0  502  0.19398687122E+02  0.49394088844E+03 -0.96601209942E+03  0.10851522366E+04  0.46999998093E+01 0.  1.
</event>
<event>
 5   0  0.1245850E-02  0.9737183E+03  0.7818609E-02  0.9337849E-01
       -2   -1    0    0    0  501  0.00000000000E+00  0.00000000000E+00  0.11015142631E+03  0.11015142634E+03  0.25500000920E-02 0. -1.
        2   -1    0    0  501    0  0.00000000000E+00  0.00000000000E+00 -0.21518724085E+04  0.21518724085E+04  0.25500000920E-02 0.  1.
    10030    2    1    2    0    0  0.00000000000E+00  0.00000000000E+00 -0.20417209822E+04  0.22620238349E+04  0.97371826534E+03 0.  0.
        3    1    3    3  502    0  0.14721726809E+03  0.41940362939E+02 -0.20945145472E+04  0.21001007396E+04  0.10100000352E+00 0.  1.
       -3    1    3    3    0  502 -0.14721726809E+03 -0.41940362939E+02  0.52793564957E+02  0.16192309523E+03  0.10100000352E+00 0. -1.
</event>
<event>
 5   0  0.6967681E-03  0.1018039E+04  0.7818609E-02  0.9288979E-01
       -1   -1    0    0    0  501  0.00000000000E+00  0.00000000000E+00  0.59868650313E+03  0.59868650315E+03  0.50400001928E-02 0.  1.
        1   -1    0    0  501    0  0.00000000000E+00  0.00000000000E+00 -0.43278179104E+03  0.43278179107E+03  0.50400001928E-02 0. -1.
    10030    2    1    2    0    0  0.00000000000E+00  0.00000000000E+00  0.16590471210E+03  0.10314682942E+04  0.10180385398E+04 0.  0.
        5    1    3    3  502    0  0.46237177298E+03  0.18897786247E+03  0.18211189061E+03  0.53168328886E+03  0.46999998093E+01 0.  1.
       -5    1    3    3    0  502 -0.46237177298E+03 -0.18897786247E+03 -0.16207178510E+02  0.49978500536E+03  0.46999998093E+01 0. -1.
</event>
<event>
 5   0  0.7224879E-03  0.1008639E+04  0.7818609E-02  0.9299120E-01
        1   -1    0    0  501    0  0.00000000000E+00  0.00000000000E+00  0.38512343290E+03  0.38512343294E+03  0.50400001928E-02 0.  1.
       -1   -1    0    0    0  501  0.00000000000E+00  0.00000000000E+00 -0.66040657291E+03  0.66040657293E+03  0.50400001928E-02 0. -1.
    10030    2    1    2    0    0  0.00000000000E+00  0.00000000000E+00 -0.27528314001E+03  0.10455300059E+04  0.10086387788E+04 0.  0.
        3    1    3    3  502    0 -0.11749560655E+03  0.43411636952E+01  0.37071799121E+03  0.38891631808E+03  0.10100000352E+00 0.  1.
       -3    1    3    3    0  502  0.11749560655E+03 -0.43411636952E+01 -0.64600113122E+03  0.65661368779E+03  0.10100000352E+00 0. -1.
</event>
<event>
 5   0  0.6967681E-03  0.9954179E+03  0.7818609E-02  0.9313585E-01
       -1   -1    0    0    0  501  0.00000000000E+00  0.00000000000E+00  0.30256653657E+03  0.30256653661E+03  0.50400001928E-02 0. -1.
        1   -1    0    0  501    0  0.00000000000E+00  0.00000000000E+00 -0.81870983093E+03  0.81870983094E+03  0.50400001928E-02 0.  1.
    10030    2    1    2    0    0  0.00000000000E+00  0.00000000000E+00 -0.51614329436E+03  0.11212763676E+04  0.99541789823E+03 0.  0.
        5    1    3    3  502    0 -0.29880028105E+03 -0.15296282405E+03  0.15582777057E+03  0.37011297947E+03  0.46999998093E+01 0. -1.
       -5    1    3    3    0  502  0.29880028105E+03  0.15296282405E+03 -0.67197106493E+03  0.75116338808E+03  0.46999998093E+01 0.  1.
</event>
<event>
 5   0  0.1191822E-02  0.1074251E+04  0.7818609E-02  0.9230658E-01
       -2   -1    0    0    0  501  0.00000000000E+00  0.00000000000E+00  0.30242636577E+03  0.30242636578E+03  0.25500000920E-02 0.  1.
        2   -1    0    0  501    0  0.00000000000E+00  0.00000000000E+00 -0.95396444945E+03  0.95396444946E+03  0.25500000920E-02 0. -1.
    10030    2    1    2    0    0  0.00000000000E+00  0.00000000000E+00 -0.65153808369E+03  0.12563908152E+04  0.10742513701E+04 0.  0.
        4    1    3    3  502    0 -0.40029029567E+02 -0.23430510857E+03  0.23756232640E+03  0.33606350432E+03  0.12699999809E+01 0.  1.
       -4    1    3    3    0  502  0.40029029567E+02  0.23430510857E+03 -0.88910041008E+03  0.92032731092E+03  0.12699999809E+01 0. -1.
</event>
<event>
 5   0  0.7241200E-03  0.1006102E+04  0.7818609E-02  0.9301878E-01
       -1   -1    0    0    0  501  0.00000000000E+00  0.00000000000E+00  0.58386046833E+03  0.58386046835E+03  0.50400001928E-02 0. -1.
        1   -1    0    0  501    0  0.00000000000E+00  0.00000000000E+00 -0.43342574463E+03  0.43342574466E+03  0.50400001928E-02 0.  1.
    10030    2    1    2    0    0  0.00000000000E+00  0.00000000000E+00  0.15043472370E+03  0.10172862130E+04  0.10061017012E+04 0.  0.
        4    1    3    3  502    0 -0.38545709133E+03 -0.31741454399E+03  0.13469803217E+02  0.49951197232E+03  0.12699999809E+01 0. -1.
       -4    1    3    3    0  502  0.38545709133E+03  0.31741454399E+03  0.13696492048E+03  0.51777424070E+03  0.12699999809E+01 0.  1.
</event>
<event>
 5   0  0.7224879E-03  0.9842953E+03  0.7818609E-02  0.9325939E-01
       -1   -1    0    0    0  501  0.00000000000E+00  0.00000000000E+00  0.28820423338E+03  0.28820423342E+03  0.50400001928E-02 0.  1.
        1   -1    0    0  501    0  0.00000000000E+00  0.00000000000E+00 -0.84040849105E+03  0.84040849107E+03  0.50400001928E-02 0. -1.
    10030    2    1    2    0    0  0.00000000000E+00  0.00000000000E+00 -0.55220425768E+03  0.11286127245E+04  0.98429525026E+03 0.  0.
        3    1    3    3  502    0 -0.17415157544E+03  0.27717443576E+03  0.14527855380E+03  0.35813448237E+03  0.10100000352E+00 0.  1.
       -3    1    3    3    0  502  0.17415157544E+03 -0.27717443576E+03 -0.69748281148E+03  0.77047824212E+03  0.10100000352E+00 0. -1.
</event>
<event>
 5   0  0.1216322E-02  0.1030472E+04  0.7818609E-02  0.9275741E-01
       -2   -1    0    0    0  501  0.00000000000E+00  0.00000000000E+00  0.83906926589E+03  0.83906926590E+03  0.25500000920E-02 0.  1.
        2   -1    0    0  501    0  0.00000000000E+00  0.00000000000E+00 -0.31638387171E+03  0.31638387172E+03  0.25500000920E-02 0. -1.
    10030    2    1    2    0    0  0.00000000000E+00  0.00000000000E+00  0.52268539418E+03  0.11554531376E+04  0.10304717036E+04 0.  0.
        2    1    3    3  502    0  0.38577198573E+03 -0.12791401065E+03  0.61643098017E+03  0.73835572214E+03  0.25500000920E-02 0.  1.
       -2    1    3    3    0  502 -0.38577198573E+03  0.12791401065E+03 -0.93745585990E+02  0.41709741548E+03  0.25500000920E-02 0. -1.
</event>
<event>
 5   0  0.7224879E-03  0.1040931E+04  0.7818609E-02  0.9264758E-01
       -1   -1    0    0    0  501  0.00000000000E+00  0.00000000000E+00  0.19210417295E+03  0.19210417301E+03  0.50400001928E-02 0. -1.
        1   -1    0    0  501    0  0.00000000000E+00  0.00000000000E+00 -0.14100908013E+04  0.14100908013E+04  0.50400001928E-02 0.  1.
    10030    2    1    2    0    0  0.00000000000E+00  0.00000000000E+00 -0.12179866284E+04  0.16021949743E+04  0.10409309818E+04 0.  0.
        3    1    3    3  502    0  0.15404424356E+03 -0.24637517008E+02  0.15527154471E+03  0.22010429123E+03  0.10100000352E+00 0. -1.
       -3    1    3    3    0  502 -0.15404424356E+03  0.24637517008E+02 -0.13732581731E+04  0.13820906831E+04  0.10100000352E+00 0.  1.
</event>
<event>
 5   0  0.1191822E-02  0.9761153E+03  0.7818609E-02  0.9335136E-01
       -2   -1    0    0    0  501  0.00000000000E+00  0.00000000000E+00  0.35374423965E+03  0.35374423965E+03  0.25500000920E-02 0.  1.
        2   -1    0    0  501    0  0.00000000000E+00  0.00000000000E+00 -0.67336863946E+03  0.67336863947E+03  0.25500000920E-02 0. -1.
    10030    2    1    2    0    0  0.00000000000E+00  0.00000000000E+00 -0.31962439982E+03  0.10271128791E+04  0.97611531568E+03 0.  0.
        4    1    3    3  502    0  0.29935683737E+03 -0.15834819284E+03 -0.52961322063E+03  0.62863379056E+03  0.12699999809E+01 0. -1.
       -4    1    3    3    0  502 -0.29935683737E+03  0.15834819284E+03  0.20998882082E+03  0.39847908857E+03  0.12699999809E+01 0.  1.
</event>
<event>
 5   0  0.1240503E-02  0.1004340E+04  0.7818609E-02  0.9303798E-01
        2   -1    0    0  501    0  0.00000000000E+00  0.00000000000E+00  0.90110304850E+03  0.90110304851E+03  0.25500000920E-02 0.  1.
       -2   -1    0    0    0  501  0.00000000000E+00  0.00000000000E+00 -0.27985098883E+03  0.27985098884E+03  0.25500000920E-02 0. -1.
    10030    2    1    2    0    0  0.00000000000E+00  0.00000000000E+00  0.62125205967E+03  0.11809540374E+04  0.10043397417E+04 0.  0.
        1    1    3    3  502    0 -0.38714653312E+03 -0.29435122479E+02 -0.63852036259E+02  0.39347928421E+03  0.50400001928E-02 0. -1.
       -1    1    3    3    0  502  0.38714653312E+03  0.29435122479E+02  0.68510409593E+03  0.78747475314E+03  0.50400001928E-02 0.  1.
</event>
<event>
 5   0  0.1240503E-02  0.9809783E+03  0.7818609E-02  0.9329657E-01
        2   -1    0    0  501    0  0.00000000000E+00  0.00000000000E+00  0.50808541159E+03  0.50808541160E+03  0.25500000920E-02 0. -1.
       -2   -1    0    0    0  501  0.00000000000E+00  0.00000000000E+00 -0.47350230928E+03  0.47350230928E+03  0.25500000920E-02 0.  1.
    10030    2    1    2    0    0  0.00000000000E+00  0.00000000000E+00  0.34583102314E+02  0.98158772088E+03  0.98097831924E+03 0.  0.
        1    1    3    3  502    0 -0.23679749844E+03  0.41460905089E+03 -0.95054175147E+02  0.48683571828E+03  0.50400001928E-02 0.  1.
       -1    1    3    3    0  502  0.23679749844E+03 -0.41460905089E+03  0.12963727746E+03  0.49475200261E+03  0.50400001928E-02 0. -1.
</event>
<event>
 5   0  0.1245850E-02  0.9937897E+03  0.7818609E-02  0.9315383E-01
       -2   -1    0    0    0  501  0.00000000000E+00  0.00000000000E+00  0.44557880087E+03  0.44557880088E+03  0.25500000920E-02 0.  1.
        2   -1    0    0  501    0  0.00000000000E+00  0.00000000000E+00 -0.55412077463E+03  0.55412077464E+03  0.25500000920E-02 0. -1.
    10030    2    1    2    0    0  0.00000000000E+00  0.00000000000E+00 -0.10854197376E+03  0.99969957551E+03  0.99378965642E+03 0.  0.
        3    1    3    3  502    0  0.16344254208E+03 -0.42454331895E+03  0.14680258031E+03  0.47801830719E+03  0.10100000352E+00 0.  1.
       -3    1    3    3    0  502 -0.16344254208E+03  0.42454331895E+03 -0.25534455407E+03  0.52168126832E+03  0.10100000352E+00 0. -1.
</event>
<event>
 5   0  0.1221315E-02  0.9475027E+03  0.7818609E-02  0.9368074E-01
       -2   -1    0    0    0  501  0.00000000000E+00  0.00000000000E+00  0.52616123780E+03  0.52616123781E+03  0.25500000920E-02 0. -1.
        2   -1    0    0  501    0  0.00000000000E+00  0.00000000000E+00 -0.42656187043E+03  0.42656187043E+03  0.25500000920E-02 0.  1.
    10030    2    1    2    0    0  0.00000000000E+00  0.00000000000E+00  0.99599367374E+02  0.95272310824E+03  0.94750265804E+03 0.  0.
        5    1    3    3  502    0 -0.64233193045E+01 -0.44639836459E+03  0.20911974489E+03  0.49301715654E+03  0.46999998093E+01 0. -1.
       -5    1    3    3    0  502  0.64233193045E+01  0.44639836459E+03 -0.10952037751E+03  0.45970595170E+03  0.46999998093E+01 0.  1.
</event>
<event>
 5   0  0.7224879E-03  0.1017421E+04  0.7818609E-02  0.9289642E-01
       -1   -1    0    0    0  501  0.00000000000E+00  0.00000000000E+00  0.36506290154E+03  0.36506290157E+03  0.50400001928E-02 0.  1.
        1   -1    0    0  501    0  0.00000000000E+00  0.00000000000E+00 -0.70888124603E+03  0.70888124604E+03  0.50400001928E-02 0. -1.
    10030    2    1    2    0    0  0.00000000000E+00  0.00000000000E+00 -0.34381834449E+03  0.10739441476E+04  0.10174207479E+04 0.  0.
        3    1    3    3  502    0 -0.40244949441E+03  0.18297585653E+02  0.15596929076E+03  0.43200327204E+03  0.10100000352E+00 0.  1.
       -3    1    3    3    0  502  0.40244949441E+03 -0.18297585653E+02 -0.49978763525E+03  0.64194087558E+03  0.10100000352E+00 0. -1.
</event>
<event>
 5   0  0.7241200E-03  0.1029223E+04  0.7818609E-02  0.9277062E-01
       -1   -1    0    0    0  501  0.00000000000E+00  0.00000000000E+00  0.50691951001E+03  0.50691951003E+03  0.50400001928E-02 0.  1.
        1   -1    0    0  501    0  0.00000000000E+00  0.00000000000E+00 -0.52242034959E+03  0.52242034961E+03  0.50400001928E-02 0. -1.
    10030    2    1    2    0    0  0.00000000000E+00  0.00000000000E+00 -0.15500839581E+02  0.10293398596E+04  0.10292231394E+04 0.  0.
        4    1    3    3  502    0  0.93681735456E+02 -0.50301835403E+03  0.47207815791E+02  0.51384231319E+03  0.12699999809E+01 0.  1.
       -4    1    3    3    0  502 -0.93681735456E+02  0.50301835403E+03 -0.62708655373E+02  0.51549754646E+03  0.12699999809E+01 0. -1.
</event>
<event>
 5   0  0.1191822E-02  0.9994868E+03  0.7818609E-02  0.9309108E-01
        2   -1    0    0  501    0  0.00000000000E+00  0.00000000000E+00  0.49968151339E+03  0.49968151340E+03  0.25500000920E-02 0.  1.
       -2   -1    0    0    0  501  0.00000000000E+00  0.00000000000E+00 -0.49980532768E+03  0.49980532769E+03  0.25500000920E-02 0. -1.
    10030    2    1    2    0    0  0.00000000000E+00  0.00000000000E+00 -0.12381429069E+00  0.99948684109E+03  0.99948683342E+03 0.  0.
        4    1    3    3  502    0  0.34102229272E+03  0.16704779234E+03 -0.32493219235E+03  0.49978366478E+03  0.12699999809E+01 0. -1.
       -4    1    3    3    0  502 -0.34102229272E+03 -0.16704779234E+03  0.32480837806E+03  0.49970317631E+03  0.12699999809E+01 0.  1.
</event>
<event>
 5   0  0.7224879E-03  0.1005943E+04  0.7818609E-02  0.9302051E-01
        1   -1    0    0  501    0  0.00000000000E+00  0.00000000000E+00  0.53854098140E+03  0.53854098142E+03  0.50400001928E-02 0. -1.
       -1   -1    0    0    0  501  0.00000000000E+00  0.00000000000E+00 -0.46975091589E+03  0.46975091592E+03  0.50400001928E-02 0.  1.
    10030    2    1    2    0    0  0.00000000000E+00  0.00000000000E+00  0.68790065510E+02  0.10082918973E+04  0.10059425814E+04 0.  0.
        3    1    3    3  502    0 -0.61001942570E+01  0.45173330859E+03  0.25599939459E+03  0.51926476358E+03  0.10100000352E+00 0. -1.
       -3    1    3    3    0  502  0.61001942570E+01 -0.45173330859E+03 -0.18720932908E+03  0.48902713376E+03  0.10100000352E+00 0.  1.
</event>
<event>
 5   0  0.7461157E-03  0.9908057E+03  0.7818609E-02  0.9318687E-01
        1   -1    0    0  501    0  0.00000000000E+00  0.00000000000E+00  0.15796184442E+03  0.15796184450E+03  0.50400001928E-02 0.  1.
       -1   -1    0    0    0  501  0.00000000000E+00  0.00000000000E+00 -0.15536914670E+04  0.15536914670E+04  0.50400001928E-02 0. -1.
    10030    2    1    2    0    0  0.00000000000E+00  0.00000000000E+00 -0.13957296226E+04  0.17116533115E+04  0.99080567189E+03 0.  0.
        2    1    3    3  502    0  0.16951240096E+03  0.38786165651E+03 -0.25320323110E+03  0.49323726027E+03  0.25500000920E-02 0.  1.
       -2    1    3    3    0  502 -0.16951240096E+03 -0.38786165651E+03 -0.11425263915E+04  0.12184160512E+04  0.25500000920E-02 0. -1.
</event>
<event>
 5   0  0.7224879E-03  0.1004912E+04  0.7818609E-02  0.9303173E-01
       -1   -1    0    0    0  501  0.00000000000E+00  0.00000000000E+00  0.49223076895E+03  0.49223076897E+03  0.50400001928E-02 0.  1.
        1   -1    0    0  501    0  0.00000000000E+00  0.00000000000E+00 -0.51289395472E+03  0.51289395474E+03  0.50400001928E-02 0. -1.
    10030    2    1    2    0    0  0.00000000000E+00  0.00000000000E+00 -0.20663185772E+02  0.10051247237E+04  0.10049123061E+04 0.  0.
        3    1    3    3  502    0  0.89039208986E+02 -0.52986020699E+02 -0.50209259096E+03  0.51267190212E+03  0.10100000352E+00 0. -1.
       -3    1    3    3    0  502 -0.89039208986E+02  0.52986020699E+02  0.48142940518E+03  0.49245282160E+03  0.10100000352E+00 0.  1.
</event>
<event>
 5   0  0.7224879E-03  0.9679567E+03  0.7818609E-02  0.9344405E-01
       -1   -1    0    0    0  501  0.00000000000E+00  0.00000000000E+00  0.41979348313E+03  0.41979348316E+03  0.50400001928E-02 0.  1.
        1   -1    0    0  501    0  0.00000000000E+00  0.00000000000E+00 -0.55797690166E+03  0.55797690168E+03  0.50400001928E-02 0. -1.
    10030    2    1    2    0    0  0.00000000000E+00  0.00000000000E+00 -0.13818341853E+03  0.97777038484E+03  0.96795674920E+03 0.  0.
        3    1    3    3  502    0  0.40056183543E+03  0.12830024064E+03  0.17276068258E+03  0.45470539847E+03  0.10100000352E+00 0.  1.
       -3    1    3    3    0  502 -0.40056183543E+03 -0.12830024064E+03 -0.31094410112E+03  0.52306498637E+03  0.10100000352E+00 0. -1.
</event>
<event>
 5   0  0.6967681E-03  0.9950809E+03  0.7818609E-02  0.9313956E-01
       -1   -1    0    0    0  501  0.00000000000E+00  0.00000000000E+00  0.48186336513E+03  0.48186336515E+03  0.50400001928E-02 0. -1.
        1   -1    0    0  501    0  0.00000000000E+00  0.00000000000E+00 -0.51372758360E+03  0.51372758363E+03  0.50400001928E-02 0.  1.
    10030    2    1    2    0    0  0.00000000000E+00  0.00000000000E+00 -0.31864218477E+02  0.99559094878E+03  0.99508090569E+03 0.  0.
        5    1    3    3  502    0  0.12712536787E+03  0.45032306798E+03 -0.18505332525E+03  0.50320825499E+03  0.46999998093E+01 0.  1.
       -5    1    3    3    0  502 -0.12712536787E+03 -0.45032306798E+03  0.15318910677E+03  0.49238269379E+03  0.46999998093E+01 0. -1.
</event>
<event>
 5   0  0.7461157E-03  0.9885207E+03  0.7818609E-02  0.9321225E-01
       -1   -1    0    0    0  501  0.00000000000E+00  0.00000000000E+00  0.23587314834E+03  0.23587314840E+03  0.50400001928E-02 0.  1.
        1   -1    0    0  501    0  0.00000000000E+00  0.00000000000E+00 -0.10356977548E+04  0.10356977548E+04  0.50400001928E-02 0. -1.
    10030    2    1    2    0    0  0.00000000000E+00  0.00000000000E+00 -0.79982460641E+03  0.12715709032E+04  0.98852069313E+03 0.  0.
        2    1    3    3  502    0  0.32278509081E+03  0.33400208474E+03 -0.61724498237E+03  0.77248881916E+03  0.25500000920E-02 0. -1.
       -2    1    3    3    0  502 -0.32278509081E+03 -0.33400208474E+03 -0.18257962404E+03  0.49908208401E+03  0.25500000920E-02 0.  1.
</event>
<event>
 5   0  0.4782125E-03  0.9927764E+03  0.7818609E-02  0.9316503E-01
        3   -1    0    0  501    0  0.00000000000E+00  0.00000000000E+00  0.19697618042E+03  0.19697620632E+03  0.10100000352E+00 0.  1.
       -3   -1    0    0    0  501  0.00000000000E+00  0.00000000000E+00 -0.12509189984E+04  0.12509190025E+04  0.10100000352E+00 0. -1.
    10030    2    1    2    0    0  0.00000000000E+00  0.00000000000E+00 -0.10539428180E+04  0.14478952088E+04  0.99277644619E+03 0.  0.
        4    1    3    3  502    0 -0.22996418535E+02 -0.21369894141E+03 -0.11795331203E+04  0.11989562409E+04  0.12699999809E+01 0. -1.
       -4    1    3    3    0  502  0.22996418535E+02  0.21369894141E+03  0.12559030228E+03  0.24893896793E+03  0.12699999809E+01 0.  1.
</event>
<event>
 5   0  0.4782125E-03  0.1011369E+04  0.7818609E-02  0.9296163E-01
        4   -1    0    0  501    0  0.00000000000E+00  0.00000000000E+00  0.13258580344E+03  0.13259188578E+03  0.12699999809E+01 0. -1.
       -4   -1    0    0    0  501  0.00000000000E+00  0.00000000000E+00 -0.19286375419E+04  0.19286379601E+04  0.12699999809E+01 0.  1.
    10030    2    1    2    0    0  0.00000000000E+00  0.00000000000E+00 -0.17960517385E+04  0.20612298459E+04  0.10113686915E+04 0.  0.
        3    1    3    3  502    0  0.49735556723E+01 -0.19266396826E+03  0.54802508788E+02  0.20036832607E+03  0.10100000352E+00 0. -1.
       -3    1    3    3    0  502 -0.49735556723E+01  0.19266396826E+03 -0.18508542473E+04  0.18608615198E+04  0.10100000352E+00 0.  1.
</event>
<event>
 5   0  0.1221315E-02  0.9950989E+03  0.7818609E-02  0.9313937E-01
        2   -1    0    0  501    0  0.00000000000E+00  0.00000000000E+00  0.50568724760E+03  0.50568724761E+03  0.25500000920E-02 0. -1.
       -2   -1    0    0    0  501  0.00000000000E+00  0.00000000000E+00 -0.48954264817E+03  0.48954264818E+03  0.25500000920E-02 0.  1.
    10030    2    1    2    0    0  0.00000000000E+00  0.00000000000E+00  0.16144599428E+02  0.99522989579E+03  0.99509893849E+03 0.  0.
        5    1    3    3  502    0  0.36446124735E+03 -0.32710410689E+03 -0.79713318234E+02  0.49619089136E+03  0.46999998093E+01 0.  1.
       -5    1    3    3    0  502 -0.36446124735E+03  0.32710410689E+03  0.95857917663E+02  0.49903900443E+03  0.46999998093E+01 0. -1.
</event>
<event>
 5   0  0.7073004E-03  0.9780118E+03  0.7818609E-02  0.9332995E-01
        1   -1    0    0  501    0  0.00000000000E+00  0.00000000000E+00  0.13415501412E+04  0.13415501413E+04  0.50400001928E-02 0. -1.
       -1   -1    0    0    0  501  0.00000000000E+00  0.00000000000E+00 -0.17824660467E+03  0.17824660475E+03  0.50400001928E-02 0.  1.
    10030    2    1    2    0    0  0.00000000000E+00  0.00000000000E+00  0.11633035366E+04  0.15197967460E+04  0.97801177445E+03 0.  0.
        1    1    3    3  502    0  0.88603600179E+02 -0.47787328129E+03  0.49777666924E+03  0.69569755167E+03  0.50400001928E-02 0. -1.
       -1    1    3    3    0  502 -0.88603600179E+02  0.47787328129E+03  0.66552686733E+03  0.82409919433E+03  0.50400001928E-02 0.  1.
</event>
<event>
 5   0  0.1221315E-02  0.9994542E+03  0.7818609E-02  0.9309144E-01
        2   -1    0    0  501    0  0.00000000000E+00  0.00000000000E+00  0.28653427290E+04  0.28653427290E+04  0.25500000920E-02 0. -1.
       -2   -1    0    0    0  501  0.00000000000E+00  0.00000000000E+00 -0.87154390101E+02  0.87154390138E+02  0.25500000920E-02 0.  1.
    10030    2    1    2    0    0  0.00000000000E+00  0.00000000000E+00  0.27781883389E+04  0.29524971192E+04  0.99945424715E+03 0.  0.
        5    1    3    3  502    0 -0.41690413970E+02  0.48646346902E+03  0.10747859498E+04  0.11804963893E+04  0.46999998093E+01 0.  1.
       -5    1    3    3    0  502  0.41690413970E+02 -0.48646346902E+03  0.17034023891E+04  0.17720007298E+04  0.46999998093E+01 0. -1.
</event>
<event>
 5   0  0.7224879E-03  0.1000311E+04  0.7818609E-02  0.9308204E-01
       -1   -1    0    0    0  501  0.00000000000E+00  0.00000000000E+00  0.16698627828E+03  0.16698627836E+03  0.50400001928E-02 0. -1.
        1   -1    0    0  501    0  0.00000000000E+00  0.00000000000E+00 -0.14980593593E+04  0.14980593593E+04  0.50400001928E-02 0.  1.
    10030    2    1    2    0    0  0.00000000000E+00  0.00000000000E+00 -0.13310730810E+04  0.16650456377E+04  0.10003106660E+04 0.  0.
        3    1    3    3  502    0 -0.27590346251E+03 -0.34609175555E+03 -0.10532435150E+04  0.11424640634E+04  0.10100000352E+00 0.  1.
       -3    1    3    3    0  502  0.27590346251E+03  0.34609175555E+03 -0.27782956599E+03  0.52258157432E+03  0.10100000352E+00 0. -1.
</event>
<event>
 5   0  0.1191822E-02  0.1034225E+04  0.7818609E-02  0.9271784E-01
        2   -1    0    0  501    0  0.00000000000E+00  0.00000000000E+00  0.13347471261E+04  0.13347471261E+04  0.25500000920E-02 0. -1.
       -2   -1    0    0    0  501  0.00000000000E+00  0.00000000000E+00 -0.20034171984E+03  0.20034171986E+03  0.25500000920E-02 0.  1.
    10030    2    1    2    0    0  0.00000000000E+00  0.00000000000E+00  0.11344054062E+04  0.15350888459E+04  0.10342253812E+04 0.  0.
        4    1    3    3  502    0 -0.12785797774E+03 -0.55675131300E+02  0.13063076472E+04  0.13137308190E+04  0.12699999809E+01 0. -1.
       -4    1    3    3    0  502  0.12785797774E+03  0.55675131300E+02 -0.17190224101E+03  0.22135802691E+03  0.12699999809E+01 0.  1.
</event>
<event>
 5   0  0.7241200E-03  0.1013128E+04  0.7818609E-02  0.9294262E-01
       -1   -1    0    0    0  501  0.00000000000E+00  0.00000000000E+00  0.50120121907E+03  0.50120121910E+03  0.50400001928E-02 0. -1.
        1   -1    0    0  501    0  0.00000000000E+00  0.00000000000E+00 -0.51198466439E+03  0.51198466441E+03  0.50400001928E-02 0.  1.
    10030    2    1    2    0    0  0.00000000000E+00  0.00000000000E+00 -0.10783445318E+02  0.10131858835E+04  0.10131284972E+04 0.  0.
        4    1    3    3  502    0  0.89931871362E+02  0.31306909415E+01 -0.50392590953E+03  0.51189889423E+03  0.12699999809E+01 0.  1.
       -4    1    3    3    0  502 -0.89931871362E+02 -0.31306909415E+01  0.49314246421E+03  0.50128698928E+03  0.12699999809E+01 0. -1.
</event>
<event>
 5   0  0.1191822E-02  0.9785705E+03  0.7818609E-02  0.9332366E-01
       -2   -1    0    0    0  501  0.00000000000E+00  0.00000000000E+00  0.89202541322E+03  0.89202541322E+03  0.25500000920E-02 0. -1.
        2   -1    0    0  501    0  0.00000000000E+00  0.00000000000E+00 -0.26837805295E+03  0.26837805296E+03  0.25500000920E-02 0.  1.
    10030    2    1    2    0    0  0.00000000000E+00  0.00000000000E+00  0.62364736027E+03  0.11604034662E+04  0.97857047490E+03 0.  0.
        4    1    3    3  502    0 -0.30843062429E+03  0.35678670884E+03  0.15733868607E+03  0.49717530171E+03  0.12699999809E+01 0. -1.
       -4    1    3    3    0  502  0.30843062429E+03 -0.35678670884E+03  0.46630867421E+03  0.66322816447E+03  0.12699999809E+01 0.  1.
</event>
<event>
 5   0  0.1216322E-02  0.9801632E+03  0.7818609E-02  0.9330573E-01
       -2   -1    0    0    0  501  0.00000000000E+00  0.00000000000E+00  0.17299675728E+03  0.17299675730E+03  0.25500000920E-02 0.  1.
        2   -1    0    0  501    0  0.00000000000E+00  0.00000000000E+00 -0.13883496858E+04  0.13883496858E+04  0.25500000920E-02 0. -1.
    10030    2    1    2    0    0  0.00000000000E+00  0.00000000000E+00 -0.12153529285E+04  0.15613464431E+04  0.98016323871E+03 0.  0.
        2    1    3    3  502    0 -0.45579324468E+02 -0.33425411655E+03 -0.11739605814E+04  0.12214690892E+04  0.25500000920E-02 0. -1.
       -2    1    3    3    0  502  0.45579324468E+02  0.33425411655E+03 -0.41392347081E+02  0.33987735384E+03  0.25500000920E-02 0.  1.
</event>
<event>
 5   0  0.7073004E-03  0.9975494E+03  0.7818609E-02  0.9311237E-01
        1   -1    0    0  501    0  0.00000000000E+00  0.00000000000E+00  0.10375880313E+04  0.10375880313E+04  0.50400001928E-02 0. -1.
       -1   -1    0    0    0  501  0.00000000000E+00  0.00000000000E+00 -0.23976395287E+03  0.23976395292E+03  0.50400001928E-02 0.  1.
    10030    2    1    2    0    0  0.00000000000E+00  0.00000000000E+00  0.79782407841E+03  0.12773519842E+04  0.99754941306E+03 0.  0.
        1    1    3    3  502    0  0.18842155097E+03  0.33949280388E+03  0.79980594025E+03  0.88907119335E+03  0.50400001928E-02 0. -1.
       -1    1    3    3    0  502 -0.18842155097E+03 -0.33949280388E+03 -0.19818618373E+01  0.38828079087E+03  0.50400001928E-02 0.  1.
</event>
<event>
 5   0  0.6967681E-03  0.9974879E+03  0.7818609E-02  0.9311304E-01
        1   -1    0    0  501    0  0.00000000000E+00  0.00000000000E+00  0.63879276014E+03  0.63879276016E+03  0.50400001928E-02 0. -1.
       -1   -1    0    0    0  501  0.00000000000E+00  0.00000000000E+00 -0.38939939324E+03  0.38939939327E+03  0.50400001928E-02 0.  1.
    10030    2    1    2    0    0  0.00000000000E+00  0.00000000000E+00  0.24939336691E+03  0.10281921534E+04  0.99748787106E+03 0.  0.
        5    1    3    3  502    0 -0.48044840784E+03  0.29717912553E+02  0.25913209002E+03  0.54670408541E+03  0.46999998093E+01 0. -1.
       -5    1    3    3    0  502  0.48044840784E+03 -0.29717912553E+02 -0.97387231196E+01  0.48148806802E+03  0.46999998093E+01 0.  1.
</event>
<event>
 5   0  0.7073004E-03  0.9843030E+03  0.7818609E-02  0.9325930E-01
        1   -1    0    0  501    0  0.00000000000E+00  0.00000000000E+00  0.52883290438E+03  0.52883290440E+03  0.50400001928E-02 0. -1.
       -1   -1    0    0    0  501  0.00000000000E+00  0.00000000000E+00 -0.45801445616E+03  0.45801445619E+03  0.50400001928E-02 0.  1.
    10030    2    1    2    0    0  0.00000000000E+00  0.00000000000E+00  0.70818448216E+02  0.98684736059E+03  0.98430303286E+03 0.  0.
        1    1    3    3  502    0 -0.32304098092E+03  0.36750142112E+03 -0.17645852624E+02  0.48961632532E+03  0.50400001928E-02 0.  1.
       -1    1    3    3    0  502  0.32304098092E+03 -0.36750142112E+03  0.88464300840E+02  0.49723103527E+03  0.50400001928E-02 0. -1.
</event>
<event>
 5   0  0.1221315E-02  0.1024367E+04  0.7818609E-02  0.9282216E-01
        2   -1    0    0  501    0  0.00000000000E+00  0.00000000000E+00  0.11259262029E+04  0.11259262029E+04  0.25500000920E-02 0. -1.
       -2   -1    0    0    0  501  0.00000000000E+00  0.00000000000E+00 -0.23299201564E+03  0.23299201566E+03  0.25500000920E-02 0.  1.
    10030    2    1    2    0    0  0.00000000000E+00  0.00000000000E+00  0.89293418723E+03  0.13589182185E+04  0.10243667614E+04 0.  0.
        5    1    3    3  502    0  0.33790326716E+03  0.28746148659E+03  0.78597395153E+03  0.90254632386E+03  0.46999998093E+01 0. -1.
       -5    1    3    3    0  502 -0.33790326716E+03 -0.28746148659E+03  0.10696023570E+03  0.45637189468E+03  0.46999998093E+01 0.  1.
</event>
<event>
 5   0  0.1245850E-02  0.9386067E+03  0.7818609E-02  0.9378568E-01
       -2   -1    0    0    0  501  0.00000000000E+00  0.00000000000E+00  0.47985604689E+03  0.47985604690E+03  0.25500000920E-02 0.  1.
        2   -1    0    0  501    0  0.00000000000E+00  0.00000000000E+00 -0.45898271859E+03  0.45898271859E+03  0.25500000920E-02 0. -1.
    10030    2    1    2    0    0  0.00000000000E+00  0.00000000000E+00  0.20873328309E+02  0.93883876549E+03  0.93860669706E+03 0.  0.
        3    1    3    3  502    0  0.13372788902E+03  0.35522696011E+03 -0.26563208587E+03  0.46328150917E+03  0.10100000352E+00 0. -1.
       -3    1    3    3    0  502 -0.13372788902E+03 -0.35522696011E+03  0.28650541418E+03  0.47555725633E+03  0.10100000352E+00 0.  1.
</event>
<event>
 5   0  0.1221315E-02  0.9560404E+03  0.7818609E-02  0.9358118E-01
        2   -1    0    0  501    0  0.00000000000E+00  0.00000000000E+00  0.17107718837E+04  0.17107718837E+04  0.25500000920E-02 0.  1.
       -2   -1    0    0    0  501  0.00000000000E+00  0.00000000000E+00 -0.13356737355E+03  0.13356737357E+03  0.25500000920E-02 0. -1.
    10030    2    1    2    0    0  0.00000000000E+00  0.00000000000E+00  0.15772045101E+04  0.18443392573E+04  0.95604039092E+03 0.  0.
        5    1    3    3  502    0  0.75830359149E+02 -0.35593350064E+03  0.13864572804E+04  0.14334311217E+04  0.46999998093E+01 0.  1.
       -5    1    3    3    0  502 -0.75830359149E+02  0.35593350064E+03  0.19074722978E+03  0.41090813561E+03  0.46999998093E+01 0. -1.
</event>
<event>
 5   0  0.7461157E-03  0.9930551E+03  0.7818609E-02  0.9316195E-01
       -1   -1    0    0    0  501  0.00000000000E+00  0.00000000000E+00  0.29985088756E+03  0.29985088760E+03  0.50400001928E-02 0. -1.
        1   -1    0    0  501    0  0.00000000000E+00  0.00000000000E+00 -0.82220740584E+03  0.82220740585E+03  0.50400001928E-02 0.  1.
    10030    2    1    2    0    0  0.00000000000E+00  0.00000000000E+00 -0.52235651828E+03  0.11220582935E+04  0.99305512522E+03 0.  0.
        2    1    3    3  502    0 -0.39051725768E+03  0.28127920624E+03 -0.12317291357E+03  0.49678293756E+03  0.25500000920E-02 0.  1.
       -2    1    3    3    0  502  0.39051725768E+03 -0.28127920624E+03 -0.39918360470E+03  0.62527535589E+03  0.25500000920E-02 0. -1.
</event>
<event>
 5   0  0.1191822E-02  0.1043984E+04  0.7818609E-02  0.9261577E-01
        2   -1    0    0  501    0  0.00000000000E+00  0.00000000000E+00  0.14716491929E+04  0.14716491929E+04  0.25500000920E-02 0.  1.
       -2   -1    0    0    0  501  0.00000000000E+00  0.00000000000E+00 -0.18514988680E+03  0.18514988682E+03  0.25500000920E-02 0. -1.
    10030    2    1    2    0    0  0.00000000000E+00  0.00000000000E+00  0.12864993061E+04  0.16567990797E+04  0.10439840641E+04 0.  0.
        4    1    3    3  502    0  0.29816441847E+03 -0.17074362110E+03  0.12668780328E+04  0.13126450272E+04  0.12699999809E+01 0.  1.
       -4    1    3    3    0  502 -0.29816441847E+03  0.17074362110E+03  0.19621273290E+02  0.34415405250E+03  0.12699999809E+01 0. -1.
</event>
<event>
 5   0  0.7073004E-03  0.1005074E+04  0.7818609E-02  0.9302997E-01
        1   -1    0    0  501    0  0.00000000000E+00  0.00000000000E+00  0.24997517328E+03  0.24997517333E+03  0.50400001928E-02 0. -1.
       -1   -1    0    0    0  501  0.00000000000E+00  0.00000000000E+00 -0.10102739380E+04  0.10102739380E+04  0.50400001928E-02 0.  1.
    10030    2    1    2    0    0  0.00000000000E+00  0.00000000000E+00 -0.76029876467E+03  0.12602491113E+04  0.10050739331E+04 0.  0.
        1    1    3    3  502    0  0.40631079931E+03  0.15531456072E+03 -0.64597261247E+02  0.43975434574E+03  0.50400001928E-02 0. -1.
       -1    1    3    3    0  502 -0.40631079931E+03 -0.15531456072E+03 -0.69570150343E+03  0.82049476556E+03  0.50400001928E-02 0.  1.
</event>
<event>
 5   0  0.1245850E-02  0.1010700E+04  0.7818609E-02  0.9296887E-01
        2   -1    0    0  501    0  0.00000000000E+00  0.00000000000E+00  0.11912277655E+04  0.11912277655E+04  0.25500000920E-02 0.  1.
       -2   -1    0    0    0  501  0.00000000000E+00  0.00000000000E+00 -0.21438258876E+03  0.21438258877E+03  0.25500000920E-02 0. -1.
    10030    2    1    2    0    0  0.00000000000E+00  0.00000000000E+00  0.97684517670E+03  0.14056103542E+04  0.10106997421E+04 0.  0.
        3    1    3    3  502    0  0.94577078767E+02  0.22551729812E+03 -0.12661284288E+03  0.27537918905E+03  0.10100000352E+00 0. -1.
       -3    1    3    3    0  502 -0.94577078767E+02 -0.22551729812E+03  0.11034580196E+04  0.11302311652E+04  0.10100000352E+00 0.  1.
</event>
<event>
 5   0  0.7073004E-03  0.7714124E+03  0.7818609E-02  0.9602344E-01
       -1   -1    0    0    0  501  0.00000000000E+00  0.00000000000E+00  0.56776855037E+03  0.56776855039E+03  0.50400001928E-02 0. -1.
        1   -1    0    0  501    0  0.00000000000E+00  0.00000000000E+00 -0.26202448342E+03  0.26202448347E+03  0.50400001928E-02 0.  1.
    10030    2    1    2    0    0  0.00000000000E+00  0.00000000000E+00  0.30574406695E+03  0.82979303386E+03  0.77141236998E+03 0.  0.
        1    1    3    3  502    0  0.19996174790E+03  0.63392031149E+02 -0.19529960381E+03  0.28660981405E+03  0.50400001928E-02 0.  1.
       -1    1    3    3    0  502 -0.19996174790E+03 -0.63392031149E+02  0.50104367076E+03  0.54318321980E+03  0.50400001928E-02 0. -1.
</event>
<event>
 5   0  0.1221315E-02  0.9940676E+03  0.7818609E-02  0.9315075E-01
       -2   -1    0    0    0  501  0.00000000000E+00  0.00000000000E+00  0.29687257292E+03  0.29687257294E+03  0.25500000920E-02 0. -1.
        2   -1    0    0  501    0  0.00000000000E+00  0.00000000000E+00 -0.83215023239E+03  0.83215023240E+03  0.25500000920E-02 0.  1.
    10030    2    1    2    0    0  0.00000000000E+00  0.00000000000E+00 -0.53527765947E+03  0.11290228053E+04  0.99406756422E+03 0.  0.
        5    1    3    3  502    0  0.23154498721E+03 -0.12493892210E+03 -0.74654435776E+03  0.79156388463E+03  0.46999998093E+01 0.  1.
       -5    1    3    3    0  502 -0.23154498721E+03  0.12493892210E+03  0.21126669829E+03  0.33745892070E+03  0.46999998093E+01 0. -1.
</event>
<event>
 5   0  0.4782125E-03  0.1011421E+04  0.7818609E-02  0.9296107E-01
       -3   -1    0    0    0  501  0.00000000000E+00  0.00000000000E+00  0.10185366801E+04  0.10185366851E+04  0.10100000352E+00 0. -1.
        3   -1    0    0  501    0  0.00000000000E+00  0.00000000000E+00 -0.25108851775E+03  0.25108853807E+03  0.10100000352E+00 0.  1.
    10030    2    1    2    0    0  0.00000000000E+00  0.00000000000E+00  0.76744816230E+03  0.12696252231E+04  0.10114205482E+04 0.  0.
        2    1    3    3  502    0  0.33952892533E+03  0.17625401490E+03 -0.31466499853E+02  0.38384307930E+03  0.25500000920E-02 0.  1.
       -2    1    3    3    0  502 -0.33952892533E+03 -0.17625401490E+03  0.79891466215E+03  0.88578214382E+03  0.25500000920E-02 0. -1.
</event>
<event>
 5   0  0.7241200E-03  0.1008246E+04  0.7818609E-02  0.9299547E-01
        1   -1    0    0  501    0  0.00000000000E+00  0.00000000000E+00  0.17178391788E+04  0.17178391788E+04  0.50400001928E-02 0.  1.
       -1   -1    0    0    0  501  0.00000000000E+00  0.00000000000E+00 -0.14794167189E+03  0.14794167198E+03  0.50400001928E-02 0. -1.
    10030    2    1    2    0    0  0.00000000000E+00  0.00000000000E+00  0.15698975069E+04  0.18657808508E+04  0.10082460022E+04 0.  0.
        4    1    3    3  502    0 -0.21331098800E+03 -0.40932471573E+03  0.40983528977E+03  0.61726402629E+03  0.12699999809E+01 0. -1.
       -4    1    3    3    0  502  0.21331098800E+03  0.40932471573E+03  0.11600622171E+04  0.12485168245E+04  0.12699999809E+01 0.  1.
</event>
<event>
 5   0  0.1216322E-02  0.9822246E+03  0.7818609E-02  0.9328258E-01
       -2   -1    0    0    0  501  0.00000000000E+00  0.00000000000E+00  0.19195183471E+03  0.19195183473E+03  0.25500000920E-02 0. -1.
        2   -1    0    0  501    0  0.00000000000E+00  0.00000000000E+00 -0.12565199404E+04  0.12565199404E+04  0.25500000920E-02 0.  1.
    10030    2    1    2    0    0  0.00000000000E+00  0.00000000000E+00 -0.10645681056E+04  0.14484717751E+04  0.98222463401E+03 0.  0.
        2    1    3    3  502    0 -0.10386871675E+03 -0.47075385689E+03 -0.67056989648E+03  0.82587038339E+03  0.25500000920E-02 0.  1.
       -2    1    3    3    0  502  0.10386871675E+03  0.47075385689E+03 -0.39399820917E+03  0.62260139169E+03  0.25500000920E-02 0. -1.
</event>
<event>
 5   0  0.1245850E-02  0.1056938E+04  0.7818609E-02  0.9248210E-01
       -2   -1    0    0    0  501  0.00000000000E+00  0.00000000000E+00  0.64335381321E+03  0.64335381322E+03  0.25500000920E-02 0.  1.
        2   -1    0    0  501    0  0.00000000000E+00  0.00000000000E+00 -0.43409967173E+03  0.43409967174E+03  0.25500000920E-02 0. -1.
    10030    2    1    2    0    0  0.00000000000E+00  0.00000000000E+00  0.20925414148E+03  0.10774534850E+04  0.10569383693E+04 0.  0.
        3    1    3    3  502    0  0.25863679568E+03 -0.20501390022E+03  0.52538039374E+03  0.62044198737E+03  0.10100000352E+00 0.  1.
       -3    1    3    3    0  502 -0.25863679568E+03  0.20501390022E+03 -0.31612625225E+03  0.45701149759E+03  0.10100000352E+00 0. -1.
</event>
<event>
 5   0  0.6967681E-03  0.9836375E+03  0.7818609E-02  0.9326675E-01
       -1   -1    0    0    0  501  0.00000000000E+00  0.00000000000E+00  0.77321460110E+03  0.77321460112E+03  0.50400001928E-02 0. -1.
        1   -1    0    0  501    0  0.00000000000E+00  0.00000000000E+00 -0.31283124511E+03  0.31283124515E+03  0.50400001928E-02 0.  1.
    10030    2    1    2    0    0  0.00000000000E+00  0.00000000000E+00  0.46038335600E+03  0.10860458463E+04  0.98363750727E+03 0.  0.
        5    1    3    3  502    0 -0.40358336358E+03 -0.80844527740E+02 -0.66993373434E+02  0.41704384794E+03  0.46999998093E+01 0.  1.
       -5    1    3    3    0  502  0.40358336358E+03  0.80844527740E+02  0.52737672943E+03  0.66900199833E+03  0.46999998093E+01 0. -1.
</event>
<event>
 5   0  0.4782125E-03  0.9384080E+03  0.7818609E-02  0.9378803E-01
       -4   -1    0    0    0  501  0.00000000000E+00  0.00000000000E+00  0.15113053058E+04  0.15113058395E+04  0.12699999809E+01 0. -1.
        4   -1    0    0  501    0  0.00000000000E+00  0.00000000000E+00 -0.14566702219E+03  0.14567255834E+03  0.12699999809E+01 0.  1.
    10030    2    1    2    0    0  0.00000000000E+00  0.00000000000E+00  0.13656382837E+04  0.16569783978E+04  0.93840795445E+03 0.  0.
        4    1    3    3  502    0 -0.27976583629E+03 -0.32400892030E+02  0.13454564252E+04  0.13746175272E+04  0.12699999809E+01 0. -1.
       -4    1    3    3    0  502  0.27976583629E+03  0.32400892030E+02  0.20181858463E+02  0.28236087064E+03  0.12699999809E+01 0.  1.
</event>
<event>
 5   0  0.1191822E-02  0.1007204E+04  0.7818609E-02  0.9300679E-01
       -2   -1    0    0    0  501  0.00000000000E+00  0.00000000000E+00  0.60222459998E+03  0.60222459999E+03  0.25500000920E-02 0.  1.
        2   -1    0    0  501    0  0.00000000000E+00  0.00000000000E+00 -0.42113003320E+03  0.42113003321E+03  0.25500000920E-02 0. -1.
    10030    2    1    2    0    0  0.00000000000E+00  0.00000000000E+00  0.18109456678E+03  0.10233546332E+04  0.10072037843E+04 0.  0.
        4    1    3    3  502    0  0.41305420540E+03  0.14380909476E+03  0.34418686619E+03  0.55656180618E+03  0.12699999809E+01 0.  1.
       -4    1    3    3    0  502 -0.41305420540E+03 -0.14380909476E+03 -0.16309229941E+03  0.46679282703E+03  0.12699999809E+01 0. -1.
</event>
<event>
 5   0  0.1216322E-02  0.9889847E+03  0.7818609E-02  0.9320709E-01
        2   -1    0    0  501    0  0.00000000000E+00  0.00000000000E+00  0.20046967461E+04  0.20046967461E+04  0.25500000920E-02 0. -1.
       -2   -1    0    0    0  501  0.00000000000E+00  0.00000000000E+00 -0.12197490771E+03  0.12197490774E+03  0.25500000920E-02 0.  1.
    10030    2    1    2    0    0  0.00000000000E+00  0.00000000000E+00  0.18827218384E+04  0.21266716538E+04  0.98898473319E+03 0.  0.
        2    1    3    3  502    0  0.20831511448E+03  0.24606196743E+03  0.17476192273E+04  0.17771085061E+04  0.25500000920E-02 0. -1.
       -2    1    3    3    0  502 -0.20831511448E+03 -0.24606196743E+03  0.13510261108E+03  0.34956314775E+03  0.25500000920E-02 0.  1.
</event>
<event>
 5   0  0.7461157E-03  0.8907009E+03  0.7818609E-02  0.9437281E-01
        1   -1    0    0  501    0  0.00000000000E+00  0.00000000000E+00  0.99381346209E+03  0.99381346210E+03  0.50400001928E-02 0.  1.
       -1   -1    0    0    0  501  0.00000000000E+00  0.00000000000E+00 -0.19957167867E+03  0.19957167874E+03  0.50400001928E-02 0. -1.
    10030    2    1    2    0    0  0.00000000000E+00  0.00000000000E+00  0.79424178341E+03  0.11933851408E+04  0.89070089472E+03 0.  0.
        2    1    3    3  502    0 -0.22516835200E+03 -0.24709917921E+02 -0.11662137512E+03  0.25477816219E+03  0.25500000920E-02 0. -1.
       -2    1    3    3    0  502  0.22516835200E+03  0.24709917921E+02  0.91086315854E+03  0.93860697865E+03  0.25500000920E-02 0.  1.
</event>
<event>
 5   0  0.1216322E-02  0.7165839E+03  0.7818609E-02  0.9689284E-01
       -2   -1    0    0    0  501  0.00000000000E+00  0.00000000000E+00  0.10378860298E+03  0.10378860301E+03  0.25500000920E-02 0. -1.
        2   -1    0    0  501    0  0.00000000000E+00  0.00000000000E+00 -0.12368712034E+04  0.12368712034E+04  0.25500000920E-02 0.  1.
    10030    2    1    2    0    0  0.00000000000E+00  0.00000000000E+00 -0.11330826004E+04  0.13406598064E+04  0.71658393587E+03 0.  0.
        2    1    3    3  502    0  0.35284130871E+03  0.60331880838E+02 -0.59529541601E+03  0.69463195817E+03  0.25500000920E-02 0.  1.
       -2    1    3    3    0  502 -0.35284130871E+03 -0.60331880838E+02 -0.53778718442E+03  0.64602784825E+03  0.25500000920E-02 0. -1.
</event>
<event>
 5   0  0.1221315E-02  0.1022950E+04  0.7818609E-02  0.9283726E-01
       -2   -1    0    0    0  501  0.00000000000E+00  0.00000000000E+00  0.99942233331E+02  0.99942233364E+02  0.25500000920E-02 0.  1.
        2   -1    0    0  501    0  0.00000000000E+00  0.00000000000E+00 -0.26175793572E+04  0.26175793572E+04  0.25500000920E-02 0. -1.
    10030    2    1    2    0    0  0.00000000000E+00  0.00000000000E+00 -0.25176371239E+04  0.27175215906E+04  0.10229501003E+04 0.  0.
        5    1    3    3  502    0 -0.48721760125E+03 -0.98550191659E+02 -0.15786162426E+04  0.16550360911E+04  0.46999998093E+01 0. -1.
       -5    1    3    3    0  502  0.48721760125E+03  0.98550191659E+02 -0.93902088126E+03  0.10624854995E+04  0.46999998093E+01 0.  1.
</event>
<event>
 5   0  0.1191822E-02  0.1010312E+04  0.7818609E-02  0.9297307E-01
       -2   -1    0    0    0  501  0.00000000000E+00  0.00000000000E+00  0.51622933364E+03  0.51622933365E+03  0.25500000920E-02 0. -1.
        2   -1    0    0  501    0  0.00000000000E+00  0.00000000000E+00 -0.49431980150E+03  0.49431980151E+03  0.25500000920E-02 0.  1.
    10030    2    1    2    0    0  0.00000000000E+00  0.00000000000E+00  0.21909532141E+02  0.10105491352E+04  0.10103115990E+04 0.  0.
        4    1    3    3  502    0  0.18358178605E+03 -0.47029363683E+03 -0.64387394811E+01  0.50489746215E+03  0.12699999809E+01 0. -1.
       -4    1    3    3    0  502 -0.18358178605E+03  0.47029363683E+03  0.28348271622E+02  0.50565167301E+03  0.12699999809E+01 0.  1.
</event>
<event>
 5   0  0.1216322E-02  0.1008634E+04  0.7818609E-02  0.9299126E-01
        2   -1    0    0  501    0  0.00000000000E+00  0.00000000000E+00  0.85104647051E+03  0.85104647051E+03  0.25500000920E-02 0.  1.
       -2   -1    0    0    0  501  0.00000000000E+00  0.00000000000E+00 -0.29885032510E+03  0.29885032511E+03  0.25500000920E-02 0. -1.
    10030    2    1    2    0    0  0.00000000000E+00  0.00000000000E+00  0.55219614541E+03  0.11498967956E+04  0.10086337579E+04 0.  0.
        2    1    3    3  502    0  0.14700622872E+03  0.37099810400E+03 -0.75447453217E+02  0.40613143520E+03  0.25500000920E-02 0. -1.
       -2    1    3    3    0  502 -0.14700622872E+03 -0.37099810400E+03  0.62764359863E+03  0.74376536042E+03  0.25500000920E-02 0.  1.
</event>
<event>
 5   0  0.1221315E-02  0.1016088E+04  0.7818609E-02  0.9291073E-01
        2   -1    0    0  501    0  0.00000000000E+00  0.00000000000E+00  0.16009602814E+04  0.16009602814E+04  0.25500000920E-02 0.  1.
       -2   -1    0    0    0  501  0.00000000000E+00  0.00000000000E+00 -0.16122131146E+03  0.16122131148E+03  0.25500000920E-02 0. -1.
    10030    2    1    2    0    0  0.00000000000E+00  0.00000000000E+00  0.14397389699E+04  0.17621815929E+04  0.10160884138E+04 0.  0.
        5    1    3    3  502    0 -0.26601856937E+03  0.34677042046E+02 -0.28323917603E+02  0.26980124314E+03  0.46999998093E+01 0. -1.
       -5    1    3    3    0  502  0.26601856937E+03 -0.34677042046E+02  0.14680628875E+04  0.14923803497E+04  0.46999998093E+01 0.  1.
</event>
<event>
 5   0  0.7073004E-03  0.1004077E+04  0.7818609E-02  0.9304084E-01
        1   -1    0    0  501    0  0.00000000000E+00  0.00000000000E+00  0.41905288604E+03  0.41905288607E+03  0.50400001928E-02 0.  1.
       -1   -1    0    0    0  501  0.00000000000E+00  0.00000000000E+00 -0.60145810547E+03  0.60145810549E+03  0.50400001928E-02 0. -1.
    10030    2    1    2    0    0  0.00000000000E+00  0.00000000000E+00 -0.18240521943E+03  0.10205109916E+04  0.10040771981E+04 0.  0.
        1    1    3    3  502    0  0.65427422121E+02 -0.46536768903E+03  0.88308995177E+02  0.47816975251E+03  0.50400001928E-02 0.  1.
       -1    1    3    3    0  502 -0.65427422121E+02  0.46536768903E+03 -0.27071421460E+03  0.54234123905E+03  0.50400001928E-02 0. -1.
</event>
<event>
 5   0  0.1245850E-02  0.9879277E+03  0.7818609E-02  0.9321885E-01
        2   -1    0    0  501    0  0.00000000000E+00  0.00000000000E+00  0.33738123061E+03  0.33738123062E+03  0.25500000920E-02 0.  1.
       -2   -1    0    0    0  501  0.00000000000E+00  0.00000000000E+00 -0.72321832737E+03  0.72321832737E+03  0.25500000920E-02 0. -1.
    10030    2    1    2    0    0  0.00000000000E+00  0.00000000000E+00 -0.38583709676E+03  0.10605995580E+04  0.98792770848E+03 0.  0.
        3    1    3    3  502    0  0.32838724992E+02 -0.43553113243E+03  0.54779729536E+02  0.44018925264E+03  0.10100000352E+00 0.  1.
       -3    1    3    3    0  502 -0.32838724992E+02  0.43553113243E+03 -0.44061682629E+03  0.62041030535E+03  0.10100000352E+00 0. -1.
</event>
<event>
 5   0  0.7073004E-03  0.9541479E+03  0.7818609E-02  0.9360315E-01
        1   -1    0    0  501    0  0.00000000000E+00  0.00000000000E+00  0.45671103499E+03  0.45671103502E+03  0.50400001928E-02 0.  1.
       -1   -1    0    0    0  501  0.00000000000E+00  0.00000000000E+00 -0.49834474932E+03  0.49834474934E+03  0.50400001928E-02 0. -1.
    10030    2    1    2    0    0  0.00000000000E+00  0.00000000000E+00 -0.41633714329E+02  0.95505578436E+03  0.95414788427E+03 0.  0.
        1    1    3    3  502    0  0.34644687482E+03 -0.11200941100E+02 -0.34892236845E+03  0.49183098457E+03  0.50400001928E-02 0. -1.
       -1    1    3    3    0  502 -0.34644687482E+03  0.11200941100E+02  0.30728865412E+03  0.46322479978E+03  0.50400001928E-02 0.  1.
</event>
<event>
 5   0  0.1216322E-02  0.9923584E+03  0.7818609E-02  0.9316966E-01
        2   -1    0    0  501    0  0.00000000000E+00  0.00000000000E+00  0.91132002918E+03  0.91132002918E+03  0.25500000920E-02 0.  1.
       -2   -1    0    0    0  501  0.00000000000E+00  0.00000000000E+00 -0.27015078116E+03  0.27015078117E+03  0.25500000920E-02 0. -1.
    10030    2    1    2    0    0  0.00000000000E+00  0.00000000000E+00  0.64116924802E+03  0.11814708103E+04  0.99235843882E+03 0.  0.
        2    1    3    3  502    0 -0.40514138835E+03  0.15979708311E+02 -0.19924081503E+02  0.40594564249E+03  0.25500000920E-02 0. -1.
       -2    1    3    3    0  502  0.40514138835E+03 -0.15979708311E+02  0.66109332952E+03  0.77552516785E+03  0.25500000920E-02 0.  1.
</event>
<event>
 5   0  0.1221315E-02  0.9965035E+03  0.7818609E-02  0.9312388E-01
        2   -1    0    0  501    0  0.00000000000E+00  0.00000000000E+00  0.43670629875E+03  0.43670629876E+03  0.25500000920E-02 0. -1.
       -2   -1    0    0    0  501  0.00000000000E+00  0.00000000000E+00 -0.56847081250E+03  0.56847081251E+03  0.25500000920E-02 0.  1.
    10030    2    1    2    0    0  0.00000000000E+00  0.00000000000E+00 -0.13176451375E+03  0.10051771113E+04  0.99650345606E+03 0.  0.
        5    1    3    3  502    0 -0.25389633941E+03 -0.19369719229E+03 -0.45163837181E+03  0.55315573065E+03  0.46999998093E+01 0.  1.
       -5    1    3    3    0  502  0.25389633941E+03  0.19369719229E+03  0.31987385806E+03  0.45202138061E+03  0.46999998093E+01 0. -1.
</event>
<event>
 5   0  0.7073004E-03  0.9213997E+03  0.7818609E-02  0.9399219E-01
       -1   -1    0    0    0  501  0.00000000000E+00  0.00000000000E+00  0.37032396982E+03  0.37032396986E+03  0.50400001928E-02 0. -1.
        1   -1    0    0  501    0  0.00000000000E+00  0.00000000000E+00 -0.57313150356E+03  0.57313150358E+03  0.50400001928E-02 0.  1.
    10030    2    1    2    0    0  0.00000000000E+00  0.00000000000E+00 -0.20280753373E+03  0.94345547344E+03  0.92139966063E+03 0.  0.
        1    1    3    3  502    0 -0.23324905236E+03  0.38747612499E+03 -0.11545082655E+02  0.45241149060E+03  0.50400001928E-02 0. -1.
       -1    1    3    3    0  502  0.23324905236E+03 -0.38747612499E+03 -0.19126245108E+03  0.49104398284E+03  0.50400001928E-02 0.  1.
</event>
<event>
 5   0  0.7241200E-03  0.9910152E+03  0.7818609E-02  0.9318454E-01
       -1   -1    0    0    0  501  0.00000000000E+00  0.00000000000E+00  0.34791052214E+03  0.34791052218E+03  0.50400001928E-02 0. -1.
        1   -1    0    0  501    0  0.00000000000E+00  0.00000000000E+00 -0.70572104553E+03  0.70572104555E+03  0.50400001928E-02 0.  1.
    10030    2    1    2    0    0  0.00000000000E+00  0.00000000000E+00 -0.35781052338E+03  0.10536315677E+04  0.99101519154E+03 0.  0.
        4    1    3    3  502    0  0.27625772100E+03 -0.13447696089E+03  0.23440374606E+03  0.38645712633E+03  0.12699999809E+01 0. -1.
       -4    1    3    3    0  502 -0.27625772100E+03  0.13447696089E+03 -0.59221426945E+03  0.66717444140E+03  0.12699999809E+01 0.  1.
</event>
<event>
 5   0  0.7224879E-03  0.1002167E+04  0.7818609E-02  0.9306171E-01
       -1   -1    0    0    0  501  0.00000000000E+00  0.00000000000E+00  0.35304325101E+03  0.35304325104E+03  0.50400001928E-02 0. -1.
        1   -1    0    0  501    0  0.00000000000E+00  0.00000000000E+00 -0.71120134939E+03  0.71120134941E+03  0.50400001928E-02 0.  1.
    10030    2    1    2    0    0  0.00000000000E+00  0.00000000000E+00 -0.35815809838E+03  0.10642446004E+04  0.10021673244E+04 0.  0.
        3    1    3    3  502    0  0.39569612993E+03 -0.22657338631E+03 -0.39973307529E+03  0.60638062989E+03  0.10100000352E+00 0. -1.
       -3    1    3    3    0  502 -0.39569612993E+03  0.22657338631E+03  0.41574976909E+02  0.45786397056E+03  0.10100000352E+00 0.  1.
</event>
<event>
 5   0  0.4782125E-03  0.1007483E+04  0.7818609E-02  0.9300375E-01
        3   -1    0    0  501    0  0.00000000000E+00  0.00000000000E+00  0.36736029307E+03  0.36736030695E+03  0.10100000352E+00 0. -1.
       -3   -1    0    0    0  501  0.00000000000E+00  0.00000000000E+00 -0.69075426321E+03  0.69075427060E+03  0.10100000352E+00 0.  1.
    10030    2    1    2    0    0  0.00000000000E+00  0.00000000000E+00 -0.32339397014E+03  0.10581145775E+04  0.10074833990E+04 0.  0.
        2    1    3    3  502    0 -0.90148010149E+02  0.43313962748E+03  0.91279579037E+02  0.45173948486E+03  0.25500000920E-02 0.  1.
       -2    1    3    3    0  502  0.90148010149E+02 -0.43313962748E+03 -0.41467354918E+03  0.60637509268E+03  0.25500000920E-02 0. -1.
</event>
<event>
 5   0  0.6967681E-03  0.1005636E+04  0.7818609E-02  0.9302385E-01
        1   -1    0    0  501    0  0.00000000000E+00  0.00000000000E+00  0.53516738093E+03  0.53516738096E+03  0.50400001928E-02 0. -1.
       -1   -1    0    0    0  501  0.00000000000E+00  0.00000000000E+00 -0.47242392460E+03  0.47242392463E+03  0.50400001928E-02 0.  1.
    10030    2    1    2    0    0  0.00000000000E+00  0.00000000000E+00  0.62743456329E+02  0.10075913056E+04  0.10056358674E+04 0.  0.
        5    1    3    3  502    0  0.19700754881E+03 -0.20400238548E+02  0.49441280065E+03  0.53262956308E+03  0.46999998093E+01 0. -1.
       -5    1    3    3    0  502 -0.19700754881E+03  0.20400238548E+02 -0.43166934432E+03  0.47496174251E+03  0.46999998093E+01 0.  1.
</event>
<event>
 5   0  0.7224879E-03  0.1031920E+04  0.7818609E-02  0.9274212E-01
       -1   -1    0    0    0  501  0.00000000000E+00  0.00000000000E+00  0.44901600384E+03  0.44901600386E+03  0.50400001928E-02 0.  1.
        1   -1    0    0  501    0  0.00000000000E+00  0.00000000000E+00 -0.59288521301E+03  0.59288521303E+03  0.50400001928E-02 0. -1.
    10030    2    1    2    0    0  0.00000000000E+00  0.00000000000E+00 -0.14386920917E+03  0.10419012169E+04  0.10319204409E+04 0.  0.
        3    1    3    3  502    0 -0.26310619648E+03  0.43361078528E+03  0.23700874256E+02  0.50774494126E+03  0.10100000352E+00 0. -1.
       -3    1    3    3    0  502  0.26310619648E+03 -0.43361078528E+03 -0.16757008343E+03  0.53415627563E+03  0.10100000352E+00 0.  1.
</event>
<event>
 5   0  0.1221315E-02  0.9583030E+03  0.7818609E-02  0.9355498E-01
        2   -1    0    0  501    0  0.00000000000E+00  0.00000000000E+00  0.54887812826E+03  0.54887812827E+03  0.25500000920E-02 0.  1.
       -2   -1    0    0    0  501  0.00000000000E+00  0.00000000000E+00 -0.41828253842E+03  0.41828253843E+03  0.25500000920E-02 0. -1.
    10030    2    1    2    0    0  0.00000000000E+00  0.00000000000E+00  0.13059558984E+03  0.96716066670E+03  0.95830295164E+03 0.  0.
        5    1    3    3  502    0  0.34254958261E+03 -0.13225634136E+03 -0.24533289449E+03  0.44163590829E+03  0.46999998093E+01 0. -1.
       -5    1    3    3    0  502 -0.34254958261E+03  0.13225634136E+03  0.37592848433E+03  0.52552475841E+03  0.46999998093E+01 0.  1.
</event>
<event>
 5   0  0.6967681E-03  0.9493723E+03  0.7818609E-02  0.9365885E-01
       -1   -1    0    0    0  501  0.00000000000E+00  0.00000000000E+00  0.11208075634E+04  0.11208075635E+04  0.50400001928E-02 0. -1.
        1   -1    0    0  501    0  0.00000000000E+00  0.00000000000E+00 -0.20103982620E+03  0.20103982626E+03  0.50400001928E-02 0.  1.
    10030    2    1    2    0    0  0.00000000000E+00  0.00000000000E+00  0.91976773724E+03  0.13218473897E+04  0.94937233541E+03 0.  0.
        5    1    3    3  502    0 -0.22072557707E+03  0.28398757091E+03  0.89114059475E+03  0.96100071301E+03  0.46999998093E+01 0. -1.
       -5    1    3    3    0  502  0.22072557707E+03 -0.28398757091E+03  0.28627142495E+02  0.36084667671E+03  0.46999998093E+01 0.  1.
</event>
<event>
 5   0  0.1221315E-02  0.1014075E+04  0.7818609E-02  0.9293241E-01
       -2   -1    0    0    0  501  0.00000000000E+00  0.00000000000E+00  0.18739943925E+03  0.18739943926E+03  0.25500000920E-02 0.  1.
        2   -1    0    0  501    0  0.00000000000E+00  0.00000000000E+00 -0.13718661255E+04  0.13718661255E+04  0.25500000920E-02 0. -1.
    10030    2    1    2    0    0  0.00000000000E+00  0.00000000000E+00 -0.11844666862E+04  0.15592655647E+04  0.10140748348E+04 0.  0.
        5    1    3    3  502    0 -0.30894368343E+03 -0.36531778411E+03 -0.33419840608E+03  0.58362140771E+03  0.46999998093E+01 0.  1.
       -5    1    3    3    0  502  0.30894368343E+03  0.36531778411E+03 -0.85026828014E+03  0.97564415702E+03  0.46999998093E+01 0. -1.
</event>
<event>
 5   0  0.7241200E-03  0.1010475E+04  0.7818609E-02  0.9297130E-01
        1   -1    0    0  501    0  0.00000000000E+00  0.00000000000E+00  0.22194850713E+03  0.22194850719E+03  0.50400001928E-02 0. -1.
       -1   -1    0    0    0  501  0.00000000000E+00  0.00000000000E+00 -0.11501082987E+04  0.11501082987E+04  0.50400001928E-02 0.  1.
    10030    2    1    2    0    0  0.00000000000E+00  0.00000000000E+00 -0.92815979153E+03  0.13720568059E+04  0.10104747794E+04 0.  0.
        4    1    3    3  502    0 -0.55374103988E+02 -0.46124553730E+03 -0.19438843199E+03  0.50358932918E+03  0.12699999809E+01 0. -1.
       -4    1    3    3    0  502  0.55374103988E+02  0.46124553730E+03 -0.73377135955E+03  0.86846747669E+03  0.12699999809E+01 0.  1.
</event>
<event>
 5   0  0.6967681E-03  0.9601709E+03  0.7818609E-02  0.9353341E-01
        1   -1    0    0  501    0  0.00000000000E+00  0.00000000000E+00  0.35770908540E+03  0.35770908544E+03  0.50400001928E-02 0. -1.
       -1   -1    0    0    0  501  0.00000000000E+00  0.00000000000E+00 -0.64432823393E+03  0.64432823395E+03  0.50400001928E-02 0.  1.
    10030    2    1    2    0    0  0.00000000000E+00  0.00000000000E+00 -0.28661914853E+03  0.10020373194E+04  0.96017094996E+03 0.  0.
        5    1    3    3  502    0  0.19217184266E+03 -0.34771272411E+03  0.13793286227E+03  0.42057308533E+03  0.46999998093E+01 0. -1.
       -5    1    3    3    0  502 -0.19217184266E+03  0.34771272411E+03 -0.42455201079E+03  0.58146423405E+03  0.46999998093E+01 0.  1.
</event>
<event>
 5   0  0.1245850E-02  0.9929169E+03  0.7818609E-02  0.9316348E-01
        2   -1    0    0  501    0  0.00000000000E+00  0.00000000000E+00  0.59936207488E+03  0.59936207489E+03  0.25500000920E-02 0.  1.
       -2   -1    0    0    0  501  0.00000000000E+00  0.00000000000E+00 -0.41122216909E+03  0.41122216910E+03  0.25500000920E-02 0. -1.
    10030    2    1    2    0    0  0.00000000000E+00  0.00000000000E+00  0.18813990579E+03  0.10105842440E+04  0.99291685959E+03 0.  0.
        3    1    3    3  502    0  0.74867053017E+02 -0.95898779019E+02 -0.39581476448E+03  0.41409055704E+03  0.10100000352E+00 0. -1.
       -3    1    3    3    0  502 -0.74867053017E+02  0.95898779019E+02  0.58395467027E+03  0.59649368695E+03  0.10100000352E+00 0.  1.
</event>
<event>
 5   0  0.1221315E-02  0.1011098E+04  0.7818609E-02  0.9296455E-01
       -2   -1    0    0    0  501  0.00000000000E+00  0.00000000000E+00  0.14203252969E+03  0.14203252971E+03  0.25500000920E-02 0.  1.
        2   -1    0    0  501    0  0.00000000000E+00  0.00000000000E+00 -0.17994466986E+04  0.17994466986E+04  0.25500000920E-02 0. -1.
    10030    2    1    2    0    0  0.00000000000E+00  0.00000000000E+00 -0.16574141689E+04  0.19414792284E+04  0.10110983467E+04 0.  0.
        5    1    3    3  502    0 -0.47746921410E+03 -0.14011092243E+03 -0.65750001172E+03  0.82458248611E+03  0.46999998093E+01 0.  1.
       -5    1    3    3    0  502  0.47746921410E+03  0.14011092243E+03 -0.99991415723E+03  0.11168967422E+04  0.46999998093E+01 0. -1.
</event>
<event>
 5   0  0.6967681E-03  0.1009658E+04  0.7818609E-02  0.9298015E-01
       -1   -1    0    0    0  501  0.00000000000E+00  0.00000000000E+00  0.76651286928E+03  0.76651286929E+03  0.50400001928E-02 0. -1.
        1   -1    0    0  501    0  0.00000000000E+00  0.00000000000E+00 -0.33248288537E+03  0.33248288541E+03  0.50400001928E-02 0.  1.
    10030    2    1    2    0    0  0.00000000000E+00  0.00000000000E+00  0.43402998390E+03  0.10989957547E+04  0.10096581807E+04 0.  0.
        5    1    3    3  502    0  0.41382391308E+03 -0.49163651540E+02 -0.93084288402E+02  0.42702935545E+03  0.46999998093E+01 0.  1.
       -5    1    3    3    0  502 -0.41382391308E+03  0.49163651540E+02  0.52711427231E+03  0.67196639926E+03  0.46999998093E+01 0. -1.
</event>
<event>
 5   0  0.1191822E-02  0.9908619E+03  0.7818609E-02  0.9318624E-01
        2   -1    0    0  501    0  0.00000000000E+00  0.00000000000E+00  0.13887943833E+04  0.13887943833E+04  0.25500000920E-02 0.  1.
       -2   -1    0    0    0  501  0.00000000000E+00  0.00000000000E+00 -0.17673733651E+03  0.17673733653E+03  0.25500000920E-02 0. -1.
    10030    2    1    2    0    0  0.00000000000E+00  0.00000000000E+00  0.12120570468E+04  0.15655317198E+04  0.99086188801E+03 0.  0.
        4    1    3    3  502    0 -0.70365517686E+02 -0.37767292787E+03  0.11002890480E+04  0.11654294267E+04  0.12699999809E+01 0.  1.
       -4    1    3    3    0  502  0.70365517686E+02  0.37767292787E+03  0.11176799877E+03  0.40010229313E+03  0.12699999809E+01 0. -1.
</event>
<event>
 5   0  0.7073004E-03  0.9956386E+03  0.7818609E-02  0.9313341E-01
        1   -1    0    0  501    0  0.00000000000E+00  0.00000000000E+00  0.76087958400E+03  0.76087958401E+03  0.50400001928E-02 0. -1.
       -1   -1    0    0    0  501  0.00000000000E+00  0.00000000000E+00 -0.32570734161E+03  0.32570734165E+03  0.50400001928E-02 0.  1.
    10030    2    1    2    0    0  0.00000000000E+00  0.00000000000E+00  0.43517224239E+03  0.10865869257E+04  0.99563862243E+03 0.  0.
        1    1    3    3  502    0  0.83924763476E+01 -0.32678861662E+03 -0.19216018721E+03  0.37919226151E+03  0.50400001928E-02 0.  1.
       -1    1    3    3    0  502 -0.83924763476E+01  0.32678861662E+03  0.62733242960E+03  0.70739466415E+03  0.50400001928E-02 0. -1.
</event>
<event>
 5   0  0.7461157E-03  0.9631850E+03  0.7818609E-02  0.9349871E-01
        1   -1    0    0  501    0  0.00000000000E+00  0.00000000000E+00  0.60966040714E+03  0.60966040717E+03  0.50400001928E-02 0. -1.
       -1   -1    0    0    0  501  0.00000000000E+00  0.00000000000E+00 -0.38042711462E+03  0.38042711465E+03  0.50400001928E-02 0.  1.
    10030    2    1    2    0    0  0.00000000000E+00  0.00000000000E+00  0.22923329252E+03  0.99008752182E+03  0.96318502815E+03 0.  0.
        2    1    3    3  502    0  0.34485715277E+03  0.28624443722E+02  0.45891289869E+03  0.57475809102E+03  0.25500000920E-02 0. -1.
       -2    1    3    3    0  502 -0.34485715277E+03 -0.28624443722E+02 -0.22967960617E+03  0.41532943080E+03  0.25500000920E-02 0.  1.
</event>
<event>
 5   0  0.7241200E-03  0.1045342E+04  0.7818609E-02  0.9260166E-01
       -1   -1    0    0    0  501  0.00000000000E+00  0.00000000000E+00  0.57866531682E+03  0.57866531684E+03  0.50400001928E-02 0. -1.
        1   -1    0    0  501    0  0.00000000000E+00  0.00000000000E+00 -0.47209496738E+03  0.47209496740E+03  0.50400001928E-02 0.  1.
    10030    2    1    2    0    0  0.00000000000E+00  0.00000000000E+00  0.10657034944E+03  0.10507602842E+04  0.10453420185E+04 0.  0.
        4    1    3    3  502    0 -0.24549359487E+02  0.77546508552E+02  0.57226279292E+03  0.57801595921E+03  0.12699999809E+01 0. -1.
       -4    1    3    3    0  502  0.24549359487E+02 -0.77546508552E+02 -0.46569244348E+03  0.47274432503E+03  0.12699999809E+01 0.  1.
</event>
<event>
 5   0  0.7241200E-03  0.9509058E+03  0.7818609E-02  0.9364092E-01
       -1   -1    0    0    0  501  0.00000000000E+00  0.00000000000E+00  0.69195269285E+03  0.69195269287E+03  0.50400001928E-02 0. -1.
        1   -1    0    0  501    0  0.00000000000E+00  0.00000000000E+00 -0.32669205734E+03  0.32669205738E+03  0.50400001928E-02 0.  1.
    10030    2    1    2    0    0  0.00000000000E+00  0.00000000000E+00  0.36526063551E+03  0.10186447503E+04  0.95090577628E+03 0.  0.
        4    1    3    3  502    0 -0.41366243253E+03  0.52513622701E+02 -0.62070499148E+02  0.42157875708E+03  0.12699999809E+01 0.  1.
       -4    1    3    3    0  502  0.41366243253E+03 -0.52513622701E+02  0.42733113466E+03  0.59706599317E+03  0.12699999809E+01 0. -1.
</event>
<event>
 5   0  0.7073004E-03  0.9984963E+03  0.7818609E-02  0.9310196E-01
        1   -1    0    0  501    0  0.00000000000E+00  0.00000000000E+00  0.37007976942E+03  0.37007976946E+03  0.50400001928E-02 0. -1.
       -1   -1    0    0    0  501  0.00000000000E+00  0.00000000000E+00 -0.67349999160E+03  0.67349999162E+03  0.50400001928E-02 0.  1.
    10030    2    1    2    0    0  0.00000000000E+00  0.00000000000E+00 -0.30342022217E+03  0.10435797611E+04  0.99849631271E+03 0.  0.
        1    1    3    3  502    0 -0.24457904757E+03 -0.33684601536E+03 -0.43977128955E+03  0.60554350439E+03  0.50400001928E-02 0.  1.
       -1    1    3    3    0  502  0.24457904757E+03  0.33684601536E+03  0.13635106738E+03  0.43803625669E+03  0.50400001928E-02 0. -1.
</event>
<event>
 5   0  0.6967681E-03  0.1024340E+04  0.7818609E-02  0.9282245E-01
        1   -1    0    0  501    0  0.00000000000E+00  0.00000000000E+00  0.39323460901E+03  0.39323460905E+03  0.50400001928E-02 0. -1.
       -1   -1    0    0    0  501  0.00000000000E+00  0.00000000000E+00 -0.66707787424E+03  0.66707787426E+03  0.50400001928E-02 0.  1.
    10030    2    1    2    0    0  0.00000000000E+00  0.00000000000E+00 -0.27384326522E+03  0.10603124833E+04  0.10243399965E+04 0.  0.
        5    1    3    3  502    0  0.13247525038E+03 -0.49451729607E+03 -0.12232063705E+03  0.52638529265E+03  0.46999998093E+01 0. -1.
       -5    1    3    3    0  502 -0.13247525038E+03  0.49451729607E+03 -0.15152262817E+03  0.53392719065E+03  0.46999998093E+01 0.  1.
</event>
<event>
 5   0  0.1191822E-02  0.1004349E+04  0.7818609E-02  0.9303788E-01
        2   -1    0    0  501    0  0.00000000000E+00  0.00000000000E+00  0.12510974474E+04  0.12510974474E+04  0.25500000920E-02 0.  1.
       -2   -1    0    0    0  501  0.00000000000E+00  0.00000000000E+00 -0.20156635318E+03  0.20156635320E+03  0.25500000920E-02 0. -1.
    10030    2    1    2    0    0  0.00000000000E+00  0.00000000000E+00  0.10495310943E+04  0.14526638006E+04  0.10043488437E+04 0.  0.
        4    1    3    3  502    0  0.28034969970E+02  0.24251559465E+02 -0.19958246798E+03  0.20299968499E+03  0.12699999809E+01 0. -1.
       -4    1    3    3    0  502 -0.28034969970E+02 -0.24251559465E+02  0.12491135622E+04  0.12496641157E+04  0.12699999809E+01 0.  1.
</event>
<event>
 5   0  0.6967681E-03  0.9933668E+03  0.7818609E-02  0.9315850E-01
       -1   -1    0    0    0  501  0.00000000000E+00  0.00000000000E+00  0.46755848353E+03  0.46755848356E+03  0.50400001928E-02 0. -1.
        1   -1    0    0  501    0  0.00000000000E+00  0.00000000000E+00 -0.52762254583E+03  0.52762254585E+03  0.50400001928E-02 0.  1.
    10030    2    1    2    0    0  0.00000000000E+00  0.00000000000E+00 -0.60064062294E+02  0.99518102941E+03  0.99336679515E+03 0.  0.
        5    1    3    3  502    0  0.32789562218E+03 -0.28047527723E+03  0.21636509162E+03  0.48271923833E+03  0.46999998093E+01 0. -1.
       -5    1    3    3    0  502 -0.32789562218E+03  0.28047527723E+03 -0.27642915391E+03  0.51246179108E+03  0.46999998093E+01 0.  1.
</event>
<event>
 5   0  0.1191822E-02  0.1012089E+04  0.7818609E-02  0.9295384E-01
        2   -1    0    0  501    0  0.00000000000E+00  0.00000000000E+00  0.10875365585E+04  0.10875365585E+04  0.25500000920E-02 0. -1.
       -2   -1    0    0    0  501  0.00000000000E+00  0.00000000000E+00 -0.23546901744E+03  0.23546901746E+03  0.25500000920E-02 0.  1.
    10030    2    1    2    0    0  0.00000000000E+00  0.00000000000E+00  0.85206754104E+03  0.13230055759E+04  0.10120892547E+04 0.  0.
        4    1    3    3  502    0  0.26223332317E+03 -0.37397908587E+03  0.71079059830E+03  0.84489736654E+03  0.12699999809E+01 0. -1.
       -4    1    3    3    0  502 -0.26223332317E+03  0.37397908587E+03  0.14127694273E+03  0.47810820940E+03  0.12699999809E+01 0.  1.
</event>
<event>
 5   0  0.7073004E-03  0.9973050E+03  0.7818609E-02  0.9311506E-01
        1   -1    0    0  501    0  0.00000000000E+00  0.00000000000E+00  0.98753922521E+03  0.98753922522E+03  0.50400001928E-02 0. -1.
       -1   -1    0    0    0  501  0.00000000000E+00  0.00000000000E+00 -0.25179182185E+03  0.25179182190E+03  0.50400001928E-02 0.  1.
    10030    2    1    2    0    0  0.00000000000E+00  0.00000000000E+00  0.73574740336E+03  0.12393310471E+04  0.99730496981E+03 0.  0.
        1    1    3    3  502    0 -0.99654912399E+01  0.32090637746E+02 -0.25038329429E+03  0.25262801534E+03  0.50400001928E-02 0.  1.
       -1    1    3    3    0  502  0.99654912399E+01 -0.32090637746E+02  0.98613069766E+03  0.98670303178E+03  0.50400001928E-02 0. -1.
</event>
<event>
 5   0  0.4782125E-03  0.1023416E+04  0.7818609E-02  0.9283228E-01
        3   -1    0    0  501    0  0.00000000000E+00  0.00000000000E+00  0.88789779213E+03  0.88789779787E+03  0.10100000352E+00 0. -1.
       -3   -1    0    0    0  501  0.00000000000E+00  0.00000000000E+00 -0.29490478356E+03  0.29490480085E+03  0.10100000352E+00 0.  1.
    10030    2    1    2    0    0  0.00000000000E+00  0.00000000000E+00  0.59299300857E+03  0.11828025987E+04  0.10234164740E+04 0.  0.
        3    1    3    3  502    0  0.38690396289E+02 -0.36221785053E+03 -0.11884118362E+03  0.38317353136E+03  0.10100000352E+00 0.  1.
       -3    1    3    3    0  502 -0.38690396289E+02  0.36221785053E+03  0.71183419219E+03  0.79962906737E+03  0.10100000352E+00 0. -1.
</event>
<event>
 5   0  0.1240503E-02  0.1014106E+04  0.7818609E-02  0.9293208E-01
       -2   -1    0    0    0  501  0.00000000000E+00  0.00000000000E+00  0.16736674214E+03  0.16736674216E+03  0.25500000920E-02 0. -1.
        2   -1    0    0  501    0  0.00000000000E+00  0.00000000000E+00 -0.15361634345E+04  0.15361634345E+04  0.25500000920E-02 0.  1.
    10030    2    1    2    0    0  0.00000000000E+00  0.00000000000E+00 -0.13687966924E+04  0.17035301767E+04  0.10141058514E+04 0.  0.
        1    1    3    3  502    0  0.44674314124E+02  0.32939617669E+02 -0.15310447842E+04  0.15320505684E+04  0.50400001928E-02 0.  1.
       -1    1    3    3    0  502 -0.44674314124E+02 -0.32939617669E+02  0.16224809180E+03  0.17147960833E+03  0.50400001928E-02 0. -1.
</event>
<event>
 5   0  0.7224879E-03  0.9935049E+03  0.7818609E-02  0.9315697E-01
        1   -1    0    0  501    0  0.00000000000E+00  0.00000000000E+00  0.20340381480E+03  0.20340381487E+03  0.50400001928E-02 0. -1.
       -1   -1    0    0    0  501  0.00000000000E+00  0.00000000000E+00 -0.12131679618E+04  0.12131679618E+04  0.50400001928E-02 0.  1.
    10030    2    1    2    0    0  0.00000000000E+00  0.00000000000E+00 -0.10097641470E+04  0.14165717767E+04  0.99350488973E+03 0.  0.
        3    1    3    3  502    0 -0.52563427779E+02 -0.97388559486E+02  0.18560314377E+03  0.21609253258E+03  0.10100000352E+00 0. -1.
       -3    1    3    3    0  502  0.52563427779E+02  0.97388559486E+02 -0.11953672908E+04  0.12004792441E+04  0.10100000352E+00 0.  1.
</event>
<event>
 5   0  0.1216322E-02  0.9395372E+03  0.7818609E-02  0.9377464E-01
        2   -1    0    0  501    0  0.00000000000E+00  0.00000000000E+00  0.26116596567E+04  0.26116596567E+04  0.25500000920E-02 0. -1.
       -2   -1    0    0    0  501  0.00000000000E+00  0.00000000000E+00 -0.84498958676E+02  0.84498958715E+02  0.25500000920E-02 0.  1.
    10030    2    1    2    0    0  0.00000000000E+00  0.00000000000E+00  0.25271606981E+04  0.26961586155E+04  0.93953716577E+03 0.  0.
        2    1    3    3  502    0  0.33774738700E+03  0.51104415259E+02  0.33815145594E+03  0.48065722281E+03  0.25500000920E-02 0.  1.
       -2    1    3    3    0  502 -0.33774738700E+03 -0.51104415259E+02  0.21890092421E+04  0.22155013926E+04  0.25500000920E-02 0. -1.
</event>
<event>
 5   0  0.7073004E-03  0.9998332E+03  0.7818609E-02  0.9308728E-01
        1   -1    0    0  501    0  0.00000000000E+00  0.00000000000E+00  0.18590226160E+03  0.18590226167E+03  0.50400001928E-02 0. -1.
       -1   -1    0    0    0  501  0.00000000000E+00  0.00000000000E+00 -0.13443441913E+04  0.13443441913E+04  0.50400001928E-02 0.  1.
    10030    2    1    2    0    0  0.00000000000E+00  0.00000000000E+00 -0.11584419297E+04  0.15302464530E+04  0.99983323727E+03 0.  0.
        1    1    3    3  502    0 -0.30406655896E+03 -0.56050914029E+02 -0.11804538621E+04  0.12202743535E+04  0.50400001928E-02 0.  1.
       -1    1    3    3    0  502  0.30406655896E+03  0.56050914029E+02  0.22011932422E+02  0.30997209945E+03  0.50400001928E-02 0. -1.
</event>
<event>
 5   0  0.7224879E-03  0.1008448E+04  0.7818609E-02  0.9299328E-01
        1   -1    0    0  501    0  0.00000000000E+00  0.00000000000E+00  0.28069396866E+03  0.28069396870E+03  0.50400001928E-02 0.  1.
       -1   -1    0    0    0  501  0.00000000000E+00  0.00000000000E+00 -0.90576111197E+03  0.90576111199E+03  0.50400001928E-02 0. -1.
    10030    2    1    2    0    0  0.00000000000E+00  0.00000000000E+00 -0.62506714332E+03  0.11864550807E+04  0.10084476808E+04 0.  0.
        3    1    3    3  502    0  0.25758714016E+03  0.32781101290E+03  0.21129580665E+02  0.41744180952E+03  0.10100000352E+00 0.  1.
       -3    1    3    3    0  502 -0.25758714016E+03 -0.32781101290E+03 -0.64619672398E+03  0.76901327117E+03  0.10100000352E+00 0. -1.
</event>
<event>
 5   0  0.7073004E-03  0.9932108E+03  0.7818609E-02  0.9316023E-01
       -1   -1    0    0    0  501  0.00000000000E+00  0.00000000000E+00  0.25649276771E+03  0.25649276776E+03  0.50400001928E-02 0.  1.
        1   -1    0    0  501    0  0.00000000000E+00  0.00000000000E+00 -0.96149657554E+03  0.96149657555E+03  0.50400001928E-02 0. -1.
    10030    2    1    2    0    0  0.00000000000E+00  0.00000000000E+00 -0.70500380783E+03  0.12179893433E+04  0.99321078899E+03 0.  0.
        1    1    3    3  502    0  0.38449605826E+03  0.28600510412E+03 -0.51230341074E+03  0.70149192660E+03  0.50400001928E-02 0. -1.
       -1    1    3    3    0  502 -0.38449605826E+03 -0.28600510412E+03 -0.19270039710E+03  0.51649741671E+03  0.50400001928E-02 0.  1.
</event>
<event>
 5   0  0.1221315E-02  0.9635453E+03  0.7818609E-02  0.9349457E-01
        2   -1    0    0  501    0  0.00000000000E+00  0.00000000000E+00  0.10756885321E+04  0.10756885321E+04  0.25500000920E-02 0.  1.
       -2   -1    0    0    0  501  0.00000000000E+00  0.00000000000E+00 -0.21577331465E+03  0.21577331467E+03  0.25500000920E-02 0. -1.
    10030    2    1    2    0    0  0.00000000000E+00  0.00000000000E+00  0.85991521746E+03  0.12914618468E+04  0.96354528719E+03 0.  0.
        5    1    3    3  502    0 -0.22582709068E+03  0.22681818708E+03  0.91254539071E+03  0.96706025922E+03  0.46999998093E+01 0.  1.
       -5    1    3    3    0  502  0.22582709068E+03 -0.22681818708E+03 -0.52630173252E+02  0.32440158755E+03  0.46999998093E+01 0. -1.
</event>
<event>
 5   0  0.1245850E-02  0.9959825E+03  0.7818609E-02  0.9312962E-01
        2   -1    0    0  501    0  0.00000000000E+00  0.00000000000E+00  0.13226715161E+04  0.13226715161E+04  0.25500000920E-02 0. -1.
       -2   -1    0    0    0  501  0.00000000000E+00  0.00000000000E+00 -0.18749573109E+03  0.18749573111E+03  0.25500000920E-02 0.  1.
    10030    2    1    2    0    0  0.00000000000E+00  0.00000000000E+00  0.11351757850E+04  0.15101672472E+04  0.99598245551E+03 0.  0.
        3    1    3    3  502    0 -0.23807082966E+03  0.33963991591E+03  0.98548782227E+03  0.10692143146E+04  0.10100000352E+00 0. -1.
       -3    1    3    3    0  502  0.23807082966E+03 -0.33963991591E+03  0.14968796271E+03  0.44095293263E+03  0.10100000352E+00 0.  1.
</event>
<event>
 5   0  0.1240503E-02  0.1012026E+04  0.7818609E-02  0.9295453E-01
        2   -1    0    0  501    0  0.00000000000E+00  0.00000000000E+00  0.33375466962E+03  0.33375466963E+03  0.25500000920E-02 0. -1.
       -2   -1    0    0    0  501  0.00000000000E+00  0.00000000000E+00 -0.76717718027E+03  0.76717718028E+03  0.25500000920E-02 0.  1.
    10030    2    1    2    0    0  0.00000000000E+00  0.00000000000E+00 -0.43342251065E+03  0.11009318499E+04  0.10120256249E+04 0.  0.
        1    1    3    3  502    0 -0.17163338830E+02  0.17186175166E+03  0.30069590383E+03  0.34676947456E+03  0.50400001928E-02 0. -1.
       -1    1    3    3    0  502  0.17163338830E+02 -0.17186175166E+03 -0.73411841448E+03  0.75416237534E+03  0.50400001928E-02 0.  1.
</event>
<event>
 5   0  0.7461157E-03  0.1014396E+04  0.7818609E-02  0.9292895E-01
        1   -1    0    0  501    0  0.00000000000E+00  0.00000000000E+00  0.36689210214E+03  0.36689210217E+03  0.50400001928E-02 0. -1.
       -1   -1    0    0    0  501  0.00000000000E+00  0.00000000000E+00 -0.70115970491E+03  0.70115970493E+03  0.50400001928E-02 0.  1.
    10030    2    1    2    0    0  0.00000000000E+00  0.00000000000E+00 -0.33426760278E+03  0.10680518071E+04  0.10143962896E+04 0.  0.
        2    1    3    3  502    0  0.40876924920E+03 -0.90234992881E+01  0.14886816193E+03  0.43512693812E+03  0.25500000920E-02 0. -1.
       -2    1    3    3    0  502 -0.40876924920E+03  0.90234992881E+01 -0.48313576471E+03  0.63292486898E+03  0.25500000920E-02 0.  1.
</event>
<event>
 5   0  0.7073004E-03  0.9758847E+03  0.7818609E-02  0.9335397E-01
       -1   -1    0    0    0  501  0.00000000000E+00  0.00000000000E+00  0.14421127694E+03  0.14421127703E+03  0.50400001928E-02 0.  1.
        1   -1    0    0  501    0  0.00000000000E+00  0.00000000000E+00 -0.16509649114E+04  0.16509649114E+04  0.50400001928E-02 0. -1.
    10030    2    1    2    0    0  0.00000000000E+00  0.00000000000E+00 -0.15067536344E+04  0.17951761884E+04  0.97588474348E+03 0.  0.
        1    1    3    3  502    0  0.35512129200E+03 -0.32611884726E+03 -0.89131908554E+03  0.10133678241E+04  0.50400001928E-02 0. -1.
       -1    1    3    3    0  502 -0.35512129200E+03  0.32611884726E+03 -0.61543454890E+03  0.78180836435E+03  0.50400001928E-02 0.  1.
</event>
<event>
 5   0  0.1221315E-02  0.1130296E+04  0.7818609E-02  0.9176156E-01
       -2   -1    0    0    0  501  0.00000000000E+00  0.00000000000E+00  0.32188240855E+03  0.32188240856E+03  0.25500000920E-02 0. -1.
        2   -1    0    0  501    0  0.00000000000E+00  0.00000000000E+00 -0.99226417621E+03  0.99226417621E+03  0.25500000920E-02 0.  1.
    10030    2    1    2    0    0  0.00000000000E+00  0.00000000000E+00 -0.67038176765E+03  0.13141465848E+04  0.11302962142E+04 0.  0.
        5    1    3    3  502    0  0.15641356608E+03 -0.29675903158E+03  0.19358047978E+03  0.38733269760E+03  0.46999998093E+01 0. -1.
       -5    1    3    3    0  502 -0.15641356608E+03  0.29675903158E+03 -0.86396224743E+03  0.92681388718E+03  0.46999998093E+01 0.  1.
</event>
<event>
 5   0  0.7224879E-03  0.8985233E+03  0.7818609E-02  0.9427429E-01
        1   -1    0    0  501    0  0.00000000000E+00  0.00000000000E+00  0.44860492833E+03  0.44860492835E+03  0.50400001928E-02 0.  1.
       -1   -1    0    0    0  501  0.00000000000E+00  0.00000000000E+00 -0.44991930534E+03  0.44991930537E+03  0.50400001928E-02 0. -1.
    10030    2    1    2    0    0  0.00000000000E+00  0.00000000000E+00 -0.13143770191E+01  0.89852423373E+03  0.89852327238E+03 0.  0.
        3    1    3    3  502    0 -0.29083970632E+03  0.13733413540E+03 -0.31432551424E+03  0.44972095640E+03  0.10100000352E+00 0. -1.
       -3    1    3    3    0  502  0.29083970632E+03 -0.13733413540E+03  0.31301113722E+03  0.44880327733E+03  0.10100000352E+00 0.  1.
</event>
<event>
 5   0  0.7241200E-03  0.9506687E+03  0.7818609E-02  0.9364369E-01
        1   -1    0    0  501    0  0.00000000000E+00  0.00000000000E+00  0.13959990291E+04  0.13959990291E+04  0.50400001928E-02 0.  1.
       -1   -1    0    0    0  501  0.00000000000E+00  0.00000000000E+00 -0.16185022926E+03  0.16185022934E+03  0.50400001928E-02 0. -1.
    10030    2    1    2    0    0  0.00000000000E+00  0.00000000000E+00  0.12341487998E+04  0.15578492584E+04  0.95066873931E+03 0.  0.
        4    1    3    3  502    0  0.23041198319E+03 -0.41338090526E+03  0.68976447816E+03  0.83651067122E+03  0.12699999809E+01 0.  1.
       -4    1    3    3    0  502 -0.23041198319E+03  0.41338090526E+03  0.54438432163E+03  0.72133858719E+03  0.12699999809E+01 0. -1.
</event>
<event>
 5   0  0.1221315E-02  0.1012276E+04  0.7818609E-02  0.9295183E-01
        2   -1    0    0  501    0  0.00000000000E+00  0.00000000000E+00  0.69329695643E+03  0.69329695644E+03  0.25500000920E-02 0.  1.
       -2   -1    0    0    0  501  0.00000000000E+00  0.00000000000E+00 -0.36950326827E+03  0.36950326828E+03  0.25500000920E-02 0. -1.
    10030    2    1    2    0    0  0.00000000000E+00  0.00000000000E+00  0.32379368816E+03  0.10628002247E+04  0.10122756370E+04 0.  0.
        5    1    3    3  502    0  0.18736030363E+03  0.43421162034E+03 -0.27407209184E+02  0.47372656641E+03  0.46999998093E+01 0.  1.
       -5    1    3    3    0  502 -0.18736030363E+03 -0.43421162034E+03  0.35120089734E+03  0.58907365830E+03  0.46999998093E+01 0. -1.
</event>
<event>
 5   0  0.6967681E-03  0.8229339E+03  0.7818609E-02  0.9527402E-01
        1   -1    0    0  501    0  0.00000000000E+00  0.00000000000E+00  0.24531844540E+04  0.24531844540E+04  0.50400001928E-02 0. -1.
       -1   -1    0    0    0  501  0.00000000000E+00  0.00000000000E+00 -0.69014400911E+02  0.69014401095E+02  0.50400001928E-02 0.  1.
    10030    2    1    2    0    0  0.00000000000E+00  0.00000000000E+00  0.23841700531E+04  0.25221988551E+04  0.82293391145E+03 0.  0.
        5    1    3    3  502    0  0.10132857836E+03 -0.30062321832E+03  0.19950686527E+04  0.20201393068E+04  0.46999998093E+01 0. -1.
       -5    1    3    3    0  502 -0.10132857836E+03  0.30062321832E+03  0.38910140040E+03  0.50205954824E+03  0.46999998093E+01 0.  1.
</event>
<event>
 5   0  0.1221315E-02  0.9447136E+03  0.7818609E-02  0.9371351E-01
       -2   -1    0    0    0  501  0.00000000000E+00  0.00000000000E+00  0.18232505127E+03  0.18232505129E+03  0.25500000920E-02 0.  1.
        2   -1    0    0  501    0  0.00000000000E+00  0.00000000000E+00 -0.12237537359E+04  0.12237537359E+04  0.25500000920E-02 0. -1.
    10030    2    1    2    0    0  0.00000000000E+00  0.00000000000E+00 -0.10414286846E+04  0.14060787871E+04  0.94471363417E+03 0.  0.
        5    1    3    3  502    0  0.28675468619E+03 -0.85122093007E+02 -0.10647822276E+04  0.11060096306E+04  0.46999998093E+01 0. -1.
       -5    1    3    3    0  502 -0.28675468619E+03  0.85122093007E+02  0.23353542968E+02  0.30006915659E+03  0.46999998093E+01 0.  1.
</event>
<event>
 5   0  0.1191822E-02  0.1024052E+04  0.7818609E-02  0.9282552E-01
       -2   -1    0    0    0  501  0.00000000000E+00  0.00000000000E+00  0.16126518588E+03  0.16126518590E+03  0.25500000920E-02 0.  1.
        2   -1    0    0  501    0  0.00000000000E+00  0.00000000000E+00 -0.16257098334E+04  0.16257098334E+04  0.25500000920E-02 0. -1.
    10030    2    1    2    0    0  0.00000000000E+00  0.00000000000E+00 -0.14644446475E+04  0.17869750193E+04  0.10240515582E+04 0.  0.
        4    1    3    3  502    0  0.43468357780E+03  0.22428083986E+03 -0.99638793240E+03  0.11099739784E+04  0.12699999809E+01 0.  1.
       -4    1    3    3    0  502 -0.43468357780E+03 -0.22428083986E+03 -0.46805671510E+03  0.67700104091E+03  0.12699999809E+01 0. -1.
</event>
<event>
 5   0  0.1240503E-02  0.9959868E+03  0.7818609E-02  0.9312957E-01
        2   -1    0    0  501    0  0.00000000000E+00  0.00000000000E+00  0.48711062583E+03  0.48711062584E+03  0.25500000920E-02 0.  1.
       -2   -1    0    0    0  501  0.00000000000E+00  0.00000000000E+00 -0.50911927430E+03  0.50911927431E+03  0.25500000920E-02 0. -1.
    10030    2    1    2    0    0  0.00000000000E+00  0.00000000000E+00 -0.22008648469E+02  0.99622990015E+03  0.99598676364E+03 0.  0.
        1    1    3    3  502    0 -0.13856283752E+03 -0.42896181879E+03  0.20068265398E+03  0.49343837463E+03  0.50400001928E-02 0.  1.
       -1    1    3    3    0  502  0.13856283752E+03  0.42896181879E+03 -0.22269130245E+03  0.50279152552E+03  0.50400001928E-02 0. -1.
</event>
<event>
 5   0  0.1240503E-02  0.1012093E+04  0.7818609E-02  0.9295380E-01
       -2   -1    0    0    0  501  0.00000000000E+00  0.00000000000E+00  0.33402801700E+03  0.33402801701E+03  0.25500000920E-02 0.  1.
        2   -1    0    0  501    0  0.00000000000E+00  0.00000000000E+00 -0.76665133676E+03  0.76665133676E+03  0.25500000920E-02 0. -1.
    10030    2    1    2    0    0  0.00000000000E+00  0.00000000000E+00 -0.43262331975E+03  0.11006793538E+04  0.10120929320E+04 0.  0.
        1    1    3    3  502    0 -0.22664092928E+03 -0.28747010825E+03  0.16366670310E+03  0.40098873262E+03  0.50400001928E-02 0.  1.
       -1    1    3    3    0  502  0.22664092928E+03  0.28747010825E+03 -0.59629002285E+03  0.69969062116E+03  0.50400001928E-02 0. -1.
</event>
<event>
 5   0  0.7461157E-03  0.9994089E+03  0.7818609E-02  0.9309193E-01
        1   -1    0    0  501    0  0.00000000000E+00  0.00000000000E+00  0.23147702991E+04  0.23147702991E+04  0.50400001928E-02 0. -1.
       -1   -1    0    0    0  501  0.00000000000E+00  0.00000000000E+00 -0.10787443349E+03  0.10787443361E+03  0.50400001928E-02 0.  1.
    10030    2    1    2    0    0  0.00000000000E+00  0.00000000000E+00  0.22068958656E+04  0.24226447328E+04  0.99940889498E+03 0.  0.
        2    1    3    3  502    0 -0.16525910702E+03  0.41418305484E+03  0.55683934176E+03  0.71339205764E+03  0.25500000920E-02 0.  1.
       -2    1    3    3    0  502  0.16525910702E+03 -0.41418305484E+03  0.16500565239E+04  0.17092526751E+04  0.25500000920E-02 0. -1.
</event>
<event>
 5   0  0.1240503E-02  0.1010910E+04  0.7818609E-02  0.9296659E-01
        2   -1    0    0  501    0  0.00000000000E+00  0.00000000000E+00  0.15376299673E+04  0.15376299673E+04  0.25500000920E-02 0. -1.
       -2   -1    0    0    0  501  0.00000000000E+00  0.00000000000E+00 -0.16615490106E+03  0.16615490108E+03  0.25500000920E-02 0.  1.
    10030    2    1    2    0    0  0.00000000000E+00  0.00000000000E+00  0.13714750663E+04  0.17037848684E+04  0.10109099962E+04 0.  0.
        1    1    3    3  502    0 -0.36183659498E+03 -0.26538351216E+02  0.92595640565E+02  0.37443819013E+03  0.50400001928E-02 0.  1.
       -1    1    3    3    0  502  0.36183659498E+03  0.26538351216E+02  0.12788794257E+04  0.13293466783E+04  0.50400001928E-02 0. -1.
</event>
<event>
 5   0  0.6967681E-03  0.1000879E+04  0.7818609E-02  0.9307581E-01
        1   -1    0    0  501    0  0.00000000000E+00  0.00000000000E+00  0.91041221277E+03  0.91041221279E+03  0.50400001928E-02 0. -1.
       -1   -1    0    0    0  501  0.00000000000E+00  0.00000000000E+00 -0.27508393197E+03  0.27508393201E+03  0.50400001928E-02 0.  1.
    10030    2    1    2    0    0  0.00000000000E+00  0.00000000000E+00  0.63532828081E+03  0.11854961448E+04  0.10008791560E+04 0.  0.
        5    1    3    3  502    0 -0.19490967557E+03 -0.29512114815E+03  0.73698692353E+03  0.81747054331E+03  0.46999998093E+01 0. -1.
       -5    1    3    3    0  502  0.19490967557E+03  0.29512114815E+03 -0.10165864273E+03  0.36802560149E+03  0.46999998093E+01 0.  1.
</event>
<event>
 5   0  0.7224879E-03  0.9924381E+03  0.7818609E-02  0.9316878E-01
       -1   -1    0    0    0  501  0.00000000000E+00  0.00000000000E+00  0.35460389588E+03  0.35460389591E+03  0.50400001928E-02 0. -1.
        1   -1    0    0  501    0  0.00000000000E+00  0.00000000000E+00 -0.69438982976E+03  0.69438982978E+03  0.50400001928E-02 0.  1.
    10030    2    1    2    0    0  0.00000000000E+00  0.00000000000E+00 -0.33978593388E+03  0.10489937257E+04  0.99243808657E+03 0.  0.
        3    1    3    3  502    0  0.39025193348E+03 -0.17948825936E+03  0.92701134403E+02  0.43943841133E+03  0.10100000352E+00 0. -1.
       -3    1    3    3    0  502 -0.39025193348E+03  0.17948825936E+03 -0.43248706828E+03  0.60955531436E+03  0.10100000352E+00 0.  1.
</event>
<event>
 5   0  0.1191822E-02  0.6260730E+03  0.7818609E-02  0.9852742E-01
       -2   -1    0    0    0  501  0.00000000000E+00  0.00000000000E+00  0.62918134973E+02  0.62918135024E+02  0.25500000920E-02 0. -1.
        2   -1    0    0  501    0  0.00000000000E+00  0.00000000000E+00 -0.15574500519E+04  0.15574500519E+04  0.25500000920E-02 0.  1.
    10030    2    1    2    0    0  0.00000000000E+00  0.00000000000E+00 -0.14945319169E+04  0.16203681869E+04  0.62607300732E+03 0.  0.
        4    1    3    3  502    0 -0.16068200474E+03 -0.15928088962E+03 -0.13071742560E+04  0.13266104390E+04  0.12699999809E+01 0.  1.
       -4    1    3    3    0  502  0.16068200474E+03  0.15928088962E+03 -0.18735766089E+03  0.29375774788E+03  0.12699999809E+01 0. -1.
</event>
<event>
 5   0  0.7241200E-03  0.1007815E+04  0.7818609E-02  0.9300015E-01
       -1   -1    0    0    0  501  0.00000000000E+00  0.00000000000E+00  0.90042153725E+03  0.90042153726E+03  0.50400001928E-02 0. -1.
        1   -1    0    0  501    0  0.00000000000E+00  0.00000000000E+00 -0.28200415440E+03  0.28200415444E+03  0.50400001928E-02 0.  1.
    10030    2    1    2    0    0  0.00000000000E+00  0.00000000000E+00  0.61841738285E+03  0.11824256917E+04  0.10078146938E+04 0.  0.
        4    1    3    3  502    0  0.25402630648E+03  0.16736176099E+03 -0.16211610084E+03  0.34470649323E+03  0.12699999809E+01 0.  1.
       -4    1    3    3    0  502 -0.25402630648E+03 -0.16736176099E+03  0.78053348369E+03  0.83771919847E+03  0.12699999809E+01 0. -1.
</event>
<event>
 5   0  0.1245850E-02  0.1003855E+04  0.7818609E-02  0.9304326E-01
       -2   -1    0    0    0  501  0.00000000000E+00  0.00000000000E+00  0.45445047077E+03  0.45445047078E+03  0.25500000920E-02 0. -1.
        2   -1    0    0  501    0  0.00000000000E+00  0.00000000000E+00 -0.55436493591E+03  0.55436493592E+03  0.25500000920E-02 0.  1.
    10030    2    1    2    0    0  0.00000000000E+00  0.00000000000E+00 -0.99914465145E+02  0.10088154067E+04  0.10038553802E+04 0.  0.
        3    1    3    3  502    0 -0.49480569997E+03  0.56739680748E+02  0.12634730348E+02  0.49820850927E+03  0.10100000352E+00 0. -1.
       -3    1    3    3    0  502  0.49480569997E+03 -0.56739680748E+02 -0.11254919549E+03  0.51060689743E+03  0.10100000352E+00 0.  1.
</event>
<event>
 5   0  0.1245850E-02  0.9826040E+03  0.7818609E-02  0.9327833E-01
        2   -1    0    0  501    0  0.00000000000E+00  0.00000000000E+00  0.70181414632E+03  0.70181414633E+03  0.25500000920E-02 0. -1.
       -2   -1    0    0    0  501  0.00000000000E+00  0.00000000000E+00 -0.34393384103E+03  0.34393384104E+03  0.25500000920E-02 0.  1.
    10030    2    1    2    0    0  0.00000000000E+00  0.00000000000E+00  0.35788030529E+03  0.10457479874E+04  0.98260395896E+03 0.  0.
        3    1    3    3  502    0 -0.34570733204E+02  0.47726167479E+03  0.29746942221E+03  0.56343758232E+03  0.10100000352E+00 0. -1.
       -3    1    3    3    0  502  0.34570733204E+02 -0.47726167479E+03  0.60410883081E+02  0.48231040504E+03  0.10100000352E+00 0.  1.
</event>
<event>
 5   0  0.1245850E-02  0.1014159E+04  0.7818609E-02  0.9293150E-01
        2   -1    0    0  501    0  0.00000000000E+00  0.00000000000E+00  0.78697761010E+03  0.78697761010E+03  0.25500000920E-02 0.  1.
       -2   -1    0    0    0  501  0.00000000000E+00  0.00000000000E+00 -0.32673056725E+03  0.32673056726E+03  0.25500000920E-02 0. -1.
    10030    2    1    2    0    0  0.00000000000E+00  0.00000000000E+00  0.46024704284E+03  0.11137081774E+04  0.10141590427E+04 0.  0.
        3    1    3    3  502    0  0.27302812477E+03  0.33779808900E+02  0.69789838872E+03  0.75016505090E+03  0.10100000352E+00 0.  1.
       -3    1    3    3    0  502 -0.27302812477E+03 -0.33779808900E+02 -0.23765134588E+03  0.36354312647E+03  0.10100000352E+00 0. -1.
</event>
<event>
 5   0  0.7461157E-03  0.1008809E+04  0.7818609E-02  0.9298936E-01
       -1   -1    0    0    0  501  0.00000000000E+00  0.00000000000E+00  0.38789899360E+03  0.38789899364E+03  0.50400001928E-02 0.  1.
        1   -1    0    0  501    0  0.00000000000E+00  0.00000000000E+00 -0.65590225447E+03  0.65590225449E+03  0.50400001928E-02 0. -1.
    10030    2    1    2    0    0  0.00000000000E+00  0.00000000000E+00 -0.26800326086E+03  0.10438012481E+04  0.10088088509E+04 0.  0.
        2    1    3    3  502    0 -0.24110338357E+03 -0.93923269184E+02  0.31399674791E+03  0.40687391139E+03  0.25500000920E-02 0.  1.
       -2    1    3    3    0  502  0.24110338357E+03  0.93923269184E+02 -0.58200000878E+03  0.63692733674E+03  0.25500000920E-02 0. -1.
</event>
<event>
 5   0  0.1221315E-02  0.9978870E+03  0.7818609E-02  0.9310865E-01
       -2   -1    0    0    0  501  0.00000000000E+00  0.00000000000E+00  0.17250624081E+03  0.17250624083E+03  0.25500000920E-02 0.  1.
        2   -1    0    0  501    0  0.00000000000E+00  0.00000000000E+00 -0.14431049845E+04  0.14431049845E+04  0.25500000920E-02 0. -1.
    10030    2    1    2    0    0  0.00000000000E+00  0.00000000000E+00 -0.12705987436E+04  0.16156112253E+04  0.99788699958E+03 0.  0.
        5    1    3    3  502    0 -0.19745753210E+03  0.45788998245E+03 -0.60870517306E+03  0.78689058370E+03  0.46999998093E+01 0.  1.
       -5    1    3    3    0  502  0.19745753210E+03 -0.45788998245E+03 -0.66189357058E+03  0.82872064158E+03  0.46999998093E+01 0. -1.
</event>
<event>
 5   0  0.1221315E-02  0.9979895E+03  0.7818609E-02  0.9310753E-01
       -2   -1    0    0    0  501  0.00000000000E+00  0.00000000000E+00  0.45572959618E+03  0.45572959618E+03  0.25500000920E-02 0.  1.
        2   -1    0    0  501    0  0.00000000000E+00  0.00000000000E+00 -0.54636735363E+03  0.54636735363E+03  0.25500000920E-02 0. -1.
    10030    2    1    2    0    0  0.00000000000E+00  0.00000000000E+00 -0.90637757452E+02  0.10020969498E+04  0.99798952588E+03 0.  0.
        5    1    3    3  502    0  0.30282892408E+03  0.37303928376E+03  0.89808455559E+02  0.48882646530E+03  0.46999998093E+01 0.  1.
       -5    1    3    3    0  502 -0.30282892408E+03 -0.37303928376E+03 -0.18044621301E+03  0.51327048452E+03  0.46999998093E+01 0. -1.
</event>
<event>
 5   0  0.1191822E-02  0.1005513E+04  0.7818609E-02  0.9302519E-01
       -2   -1    0    0    0  501  0.00000000000E+00  0.00000000000E+00  0.28594403051E+03  0.28594403052E+03  0.25500000920E-02 0.  1.
        2   -1    0    0  501    0  0.00000000000E+00  0.00000000000E+00 -0.88396286588E+03  0.88396286589E+03  0.25500000920E-02 0. -1.
    10030    2    1    2    0    0  0.00000000000E+00  0.00000000000E+00 -0.59801883537E+03  0.11699068964E+04  0.10055126149E+04 0.  0.
        4    1    3    3  502    0 -0.30396542691E+03  0.10109641464E+03  0.15182997439E+03  0.35449882910E+03  0.12699999809E+01 0.  1.
       -4    1    3    3    0  502  0.30396542691E+03 -0.10109641464E+03 -0.74984880977E+03  0.81540806730E+03  0.12699999809E+01 0. -1.
</event>
<event>
 5   0  0.1191822E-02  0.9618463E+03  0.7818609E-02  0.9351410E-01
        2   -1    0    0  501    0  0.00000000000E+00  0.00000000000E+00  0.99210205661E+03  0.99210205662E+03  0.25500000920E-02 0. -1.
       -2   -1    0    0    0  501  0.00000000000E+00  0.00000000000E+00 -0.23312833148E+03  0.23312833149E+03  0.25500000920E-02 0.  1.
    10030    2    1    2    0    0  0.00000000000E+00  0.00000000000E+00  0.75897372514E+03  0.12252303881E+04  0.96184634350E+03 0.  0.
        4    1    3    3  502    0 -0.34296948046E+03 -0.23353069466E+03  0.69757528685E+02  0.42075215458E+03  0.12699999809E+01 0.  1.
       -4    1    3    3    0  502  0.34296948046E+03  0.23353069466E+03  0.68921619645E+03  0.80447823353E+03  0.12699999809E+01 0. -1.
</event>
<event>
 5   0  0.7461157E-03  0.9965519E+03  0.7818609E-02  0.9312335E-01
        1   -1    0    0  501    0  0.00000000000E+00  0.00000000000E+00  0.13628406650E+04  0.13628406650E+04  0.50400001928E-02 0.  1.
       -1   -1    0    0    0  501  0.00000000000E+00  0.00000000000E+00 -0.18217749888E+03  0.18217749895E+03  0.50400001928E-02 0. -1.
    10030    2    1    2    0    0  0.00000000000E+00  0.00000000000E+00  0.11806631661E+04  0.15450181640E+04  0.99655186275E+03 0.  0.
        2    1    3    3  502    0  0.45376647110E+03 -0.20415910721E+03  0.54949037921E+03  0.74129928382E+03  0.25500000920E-02 0.  1.
       -2    1    3    3    0  502 -0.45376647110E+03  0.20415910721E+03  0.63117278692E+03  0.80371888015E+03  0.25500000920E-02 0. -1.
</event>
<event>
 5   0  0.1245850E-02  0.9996638E+03  0.7818609E-02  0.9308914E-01
       -2   -1    0    0    0  501  0.00000000000E+00  0.00000000000E+00  0.12950987760E+03  0.12950987762E+03  0.25500000920E-02 0. -1.
        2   -1    0    0  501    0  0.00000000000E+00  0.00000000000E+00 -0.19290569367E+04  0.19290569367E+04  0.25500000920E-02 0.  1.
    10030    2    1    2    0    0  0.00000000000E+00  0.00000000000E+00 -0.17995470591E+04  0.20585668143E+04  0.99966379904E+03 0.  0.
        3    1    3    3  502    0 -0.46925428576E+03 -0.12325744507E+03 -0.65232001700E+03  0.81296580325E+03  0.10100000352E+00 0. -1.
       -3    1    3    3    0  502  0.46925428576E+03  0.12325744507E+03 -0.11472270421E+04  0.12456010111E+04  0.10100000352E+00 0.  1.
</event>
<event>
 5   0  0.7241200E-03  0.9710412E+03  0.7818609E-02  0.9340889E-01
       -1   -1    0    0    0  501  0.00000000000E+00  0.00000000000E+00  0.20305468399E+03  0.20305468405E+03  0.50400001928E-02 0. -1.
        1   -1    0    0  501    0  0.00000000000E+00  0.00000000000E+00 -0.11609201139E+04  0.11609201139E+04  0.50400001928E-02 0.  1.
    10030    2    1    2    0    0  0.00000000000E+00  0.00000000000E+00 -0.95786542991E+03  0.13639747980E+04  0.97104122862E+03 0.  0.
        4    1    3    3  502    0 -0.48246096338E+03  0.21344547824E+02 -0.40863718168E+03  0.63262163262E+03  0.12699999809E+01 0. -1.
       -4    1    3    3    0  502  0.48246096338E+03 -0.21344547824E+02 -0.54922824823E+03  0.73135316535E+03  0.12699999809E+01 0.  1.
</event>
<event>
 5   0  0.1240503E-02  0.8326374E+03  0.7818609E-02  0.9513941E-01
        2   -1    0    0  501    0  0.00000000000E+00  0.00000000000E+00  0.57381044729E+03  0.57381044729E+03  0.25500000920E-02 0. -1.
       -2   -1    0    0    0  501  0.00000000000E+00  0.00000000000E+00 -0.30205315312E+03  0.30205315313E+03  0.25500000920E-02 0.  1.
    10030    2    1    2    0    0  0.00000000000E+00  0.00000000000E+00  0.27175729417E+03  0.87586360042E+03  0.83263738782E+03 0.  0.
        1    1    3    3  502    0 -0.51399607441E+02 -0.36034819856E+03  0.34842924989E+03  0.50388062679E+03  0.50400001928E-02 0.  1.
       -1    1    3    3    0  502  0.51399607441E+02  0.36034819856E+03 -0.76671955725E+02  0.37198297363E+03  0.50400001928E-02 0. -1.
</event>
<event>
 5   0  0.1216322E-02  0.9562316E+03  0.7818609E-02  0.9357896E-01
       -2   -1    0    0    0  501  0.00000000000E+00  0.00000000000E+00  0.27139694412E+03  0.27139694413E+03  0.25500000920E-02 0.  1.
        2   -1    0    0  501    0  0.00000000000E+00  0.00000000000E+00 -0.84228927639E+03  0.84228927639E+03  0.25500000920E-02 0. -1.
    10030    2    1    2    0    0  0.00000000000E+00  0.00000000000E+00 -0.57089233227E+03  0.11136862205E+04  0.95623163655E+03 0.  0.
        2    1    3    3  502    0 -0.19750679818E+03 -0.19098074995E+02  0.22117633908E+03  0.29714078275E+03  0.25500000920E-02 0.  1.
       -2    1    3    3    0  502  0.19750679818E+03  0.19098074995E+02 -0.79206867135E+03  0.81654543777E+03  0.25500000920E-02 0. -1.
</event>
<event>
 5   0  0.7241200E-03  0.6921429E+03  0.7818609E-02  0.9730764E-01
        1   -1    0    0  501    0  0.00000000000E+00  0.00000000000E+00  0.92558217961E+02  0.92558218099E+02  0.50400001928E-02 0.  1.
       -1   -1    0    0    0  501  0.00000000000E+00  0.00000000000E+00 -0.12939472911E+04  0.12939472911E+04  0.50400001928E-02 0. -1.
    10030    2    1    2    0    0  0.00000000000E+00  0.00000000000E+00 -0.12013890732E+04  0.13865055092E+04  0.69214292023E+03 0.  0.
        4    1    3    3  502    0 -0.83398280904E+02 -0.69328955632E+02 -0.12590218118E+04  0.12636848155E+04  0.12699999809E+01 0. -1.
       -4    1    3    3    0  502  0.83398280904E+02  0.69328955632E+02  0.57632738660E+02  0.12282069375E+03  0.12699999809E+01 0.  1.
</event>
<event>
 5   0  0.7461157E-03  0.9897354E+03  0.7818609E-02  0.9319875E-01
       -1   -1    0    0    0  501  0.00000000000E+00  0.00000000000E+00  0.12953920007E+03  0.12953920016E+03  0.50400001928E-02 0. -1.
        1   -1    0    0  501    0  0.00000000000E+00  0.00000000000E+00 -0.18905015067E+04  0.18905015067E+04  0.50400001928E-02 0.  1.
    10030    2    1    2    0    0  0.00000000000E+00  0.00000000000E+00 -0.17609623067E+04  0.20200407069E+04  0.98973542527E+03 0.  0.
        2    1    3    3  502    0 -0.54686445145E+02  0.57484628111E+02  0.11647321871E+03  0.14092941650E+03  0.25500000920E-02 0. -1.
       -2    1    3    3    0  502  0.54686445145E+02 -0.57484628111E+02 -0.18774355254E+04  0.18791112904E+04  0.25500000920E-02 0.  1.
</event>
<event>
 5   0  0.1191822E-02  0.8506399E+03  0.7818609E-02  0.9489478E-01
        2   -1    0    0  501    0  0.00000000000E+00  0.00000000000E+00  0.40890884048E+03  0.40890884049E+03  0.25500000920E-02 0. -1.
       -2   -1    0    0    0  501  0.00000000000E+00  0.00000000000E+00 -0.44238974903E+03  0.44238974904E+03  0.25500000920E-02 0.  1.
    10030    2    1    2    0    0  0.00000000000E+00  0.00000000000E+00 -0.33480908552E+02  0.85129858953E+03  0.85063994574E+03 0.  0.
        4    1    3    3  502    0  0.30960112550E+03  0.14811405420E+03 -0.26814172206E+03  0.43553671025E+03  0.12699999809E+01 0.  1.
       -4    1    3    3    0  502 -0.30960112550E+03 -0.14811405420E+03  0.23466081351E+03  0.41576187928E+03  0.12699999809E+01 0. -1.
</event>
<event>
 5   0  0.1191822E-02  0.1005204E+04  0.7818609E-02  0.9302855E-01
       -2   -1    0    0    0  501  0.00000000000E+00  0.00000000000E+00  0.11299641288E+03  0.11299641291E+03  0.25500000920E-02 0.  1.
        2   -1    0    0  501    0  0.00000000000E+00  0.00000000000E+00 -0.22355485459E+04  0.22355485459E+04  0.25500000920E-02 0. -1.
    10030    2    1    2    0    0  0.00000000000E+00  0.00000000000E+00 -0.21225521331E+04  0.23485449589E+04  0.10052043903E+04 0.  0.
        4    1    3    3  502    0 -0.17838726453E+03  0.10054620309E+03 -0.21336637714E+04  0.21434678112E+04  0.12699999809E+01 0. -1.
       -4    1    3    3    0  502  0.17838726453E+03 -0.10054620309E+03  0.11111638356E+02  0.20507714770E+03  0.12699999809E+01 0.  1.
</event>
<event>
 5   0  0.7241200E-03  0.9352663E+03  0.7818609E-02  0.9382540E-01
        1   -1    0    0  501    0  0.00000000000E+00  0.00000000000E+00  0.49369014520E+03  0.49369014523E+03  0.50400001928E-02 0.  1.
       -1   -1    0    0    0  501  0.00000000000E+00  0.00000000000E+00 -0.44295147346E+03  0.44295147348E+03  0.50400001928E-02 0. -1.
    10030    2    1    2    0    0  0.00000000000E+00  0.00000000000E+00  0.50738671747E+02  0.93664161871E+03  0.93526633057E+03 0.  0.
        4    1    3    3  502    0 -0.22540109546E+03 -0.38769799180E+03  0.15809261927E+03  0.47551054231E+03  0.12699999809E+01 0.  1.
       -4    1    3    3    0  502  0.22540109546E+03  0.38769799180E+03 -0.10735394752E+03  0.46113107640E+03  0.12699999809E+01 0. -1.
</event>
<event>
 5   0  0.7461157E-03  0.1007897E+04  0.7818609E-02  0.9299926E-01
       -1   -1    0    0    0  501  0.00000000000E+00  0.00000000000E+00  0.27566959341E+03  0.27566959346E+03  0.50400001928E-02 0. -1.
        1   -1    0    0  501    0  0.00000000000E+00  0.00000000000E+00 -0.92126238508E+03  0.92126238510E+03  0.50400001928E-02 0.  1.
    10030    2    1    2    0    0  0.00000000000E+00  0.00000000000E+00 -0.64559279167E+03  0.11969319786E+04  0.10078968740E+04 0.  0.
        2    1    3    3  502    0  0.85177394382E+02  0.35169098359E+03  0.93732635826E+02  0.37380147602E+03  0.25500000920E-02 0. -1.
       -2    1    3    3    0  502 -0.85177394382E+02 -0.35169098359E+03 -0.73932542750E+03  0.82313050253E+03  0.25500000920E-02 0.  1.
</event>
<event>
 5   0  0.1221315E-02  0.1088424E+04  0.7818609E-02  0.9216549E-01
        2   -1    0    0  501    0  0.00000000000E+00  0.00000000000E+00  0.13354480624E+04  0.13354480624E+04  0.25500000920E-02 0. -1.
       -2   -1    0    0    0  501  0.00000000000E+00  0.00000000000E+00 -0.22177322704E+03  0.22177322705E+03  0.25500000920E-02 0.  1.
    10030    2    1    2    0    0  0.00000000000E+00  0.00000000000E+00  0.11136748354E+04  0.15572212895E+04  0.10884238629E+04 0.  0.
        5    1    3    3  502    0 -0.32249591359E+03 -0.46091782779E+02 -0.66822596385E+02  0.33258895969E+03  0.46999998093E+01 0.  1.
       -5    1    3    3    0  502  0.32249591359E+03  0.46091782779E+02  0.11804974317E+04  0.12246323298E+04  0.46999998093E+01 0. -1.
</event>
<event>
 5   0  0.1221315E-02  0.9802694E+03  0.7818609E-02  0.9330454E-01
       -2   -1    0    0    0  501  0.00000000000E+00  0.00000000000E+00  0.14264454939E+03  0.14264454941E+03  0.25500000920E-02 0. -1.
        2   -1    0    0  501    0  0.00000000000E+00  0.00000000000E+00 -0.16841303919E+04  0.16841303919E+04  0.25500000920E-02 0.  1.
    10030    2    1    2    0    0  0.00000000000E+00  0.00000000000E+00 -0.15414858425E+04  0.18267749413E+04  0.98026939334E+03 0.  0.
        5    1    3    3  502    0  0.48843058581E+03 -0.36205609727E+02 -0.73665241654E+03  0.88462091097E+03  0.46999998093E+01 0. -1.
       -5    1    3    3    0  502 -0.48843058581E+03  0.36205609727E+02 -0.80483342596E+03  0.94215403033E+03  0.46999998093E+01 0.  1.
</event>
<event>
 5   0  0.6967681E-03  0.1000477E+04  0.7818609E-02  0.9308022E-01
        1   -1    0    0  501    0  0.00000000000E+00  0.00000000000E+00  0.78258057130E+03  0.78258057132E+03  0.50400001928E-02 0.  1.
       -1   -1    0    0    0  501  0.00000000000E+00  0.00000000000E+00 -0.31976078970E+03  0.31976078974E+03  0.50400001928E-02 0. -1.
    10030    2    1    2    0    0  0.00000000000E+00  0.00000000000E+00  0.46281978161E+03  0.11023413611E+04  0.10004770492E+04 0.  0.
        5    1    3    3  502    0 -0.43126340697E+03  0.22188342560E+03  0.96483068518E+02  0.49452143862E+03  0.46999998093E+01 0. -1.
       -5    1    3    3    0  502  0.43126340697E+03 -0.22188342560E+03  0.36633671309E+03  0.60781992243E+03  0.46999998093E+01 0.  1.
</event>
<event>
 5   0  0.1216322E-02  0.1021235E+04  0.7818609E-02  0.9285556E-01
       -2   -1    0    0    0  501  0.00000000000E+00  0.00000000000E+00  0.12116528663E+03  0.12116528666E+03  0.25500000920E-02 0. -1.
        2   -1    0    0  501    0  0.00000000000E+00  0.00000000000E+00 -0.21518575426E+04  0.21518575426E+04  0.25500000920E-02 0.  1.
    10030    2    1    2    0    0  0.00000000000E+00  0.00000000000E+00 -0.20306922560E+04  0.22730228292E+04  0.10212354008E+04 0.  0.
        2    1    3    3  502    0 -0.35115846357E+03  0.37064053143E+03 -0.10300708068E+04  0.11496662721E+04  0.25500000920E-02 0.  1.
       -2    1    3    3    0  502  0.35115846357E+03 -0.37064053143E+03 -0.10006214491E+04  0.11233565572E+04  0.25500000920E-02 0. -1.
</event>
<event>
 5   0  0.7241200E-03  0.1022735E+04  0.7818609E-02  0.9283955E-01
        1   -1    0    0  501    0  0.00000000000E+00  0.00000000000E+00  0.57261673984E+03  0.57261673986E+03  0.50400001928E-02 0.  1.
       -1   -1    0    0    0  501  0.00000000000E+00  0.00000000000E+00 -0.45667003352E+03  0.45667003354E+03  0.50400001928E-02 0. -1.
    10030    2    1    2    0    0  0.00000000000E+00  0.00000000000E+00  0.11594670632E+03  0.10292867734E+04  0.10227353632E+04 0.  0.
        4    1    3    3  502    0 -0.34415759723E+03  0.32789206657E+03 -0.13174850668E+03  0.49327167055E+03  0.12699999809E+01 0. -1.
       -4    1    3    3    0  502  0.34415759723E+03 -0.32789206657E+03  0.24769521300E+03  0.53601510286E+03  0.12699999809E+01 0.  1.
</event>
<event>
 5   0  0.1245850E-02  0.9979519E+03  0.7818609E-02  0.9310794E-01
        2   -1    0    0  501    0  0.00000000000E+00  0.00000000000E+00  0.58797354143E+03  0.58797354143E+03  0.25500000920E-02 0.  1.
       -2   -1    0    0    0  501  0.00000000000E+00  0.00000000000E+00 -0.42344928881E+03  0.42344928881E+03  0.25500000920E-02 0. -1.
    10030    2    1    2    0    0  0.00000000000E+00  0.00000000000E+00  0.16452425262E+03  0.10114228302E+04  0.99795185848E+03 0.  0.
        3    1    3    3  502    0 -0.23795728141E+03  0.23543193414E+03 -0.29276674385E+03  0.44470691460E+03  0.10100000352E+00 0. -1.
       -3    1    3    3    0  502  0.23795728141E+03 -0.23543193414E+03  0.45729099647E+03  0.56671591564E+03  0.10100000352E+00 0.  1.
</event>
<event>
 5   0  0.4782125E-03  0.8780747E+03  0.7818609E-02  0.9453412E-01
       -4   -1    0    0    0  501  0.00000000000E+00  0.00000000000E+00  0.33437368529E+03  0.33437609711E+03  0.12699999809E+01 0. -1.
        4   -1    0    0  501    0  0.00000000000E+00  0.00000000000E+00 -0.57645705213E+03  0.57645845111E+03  0.12699999809E+01 0.  1.
    10030    2    1    2    0    0  0.00000000000E+00  0.00000000000E+00 -0.24208336684E+03  0.91083454822E+03  0.87807472218E+03 0.  0.
        2    1    3    3  502    0 -0.18448232934E+03  0.27819970429E+03 -0.41685658920E+03  0.53403953157E+03  0.25500000920E-02 0.  1.
       -2    1    3    3    0  502  0.18448232934E+03 -0.27819970429E+03  0.17477322236E+03  0.37679501665E+03  0.25500000920E-02 0. -1.
</event>
<event>
 5   0  0.1216322E-02  0.1010322E+04  0.7818609E-02  0.9297296E-01
       -2   -1    0    0    0  501  0.00000000000E+00  0.00000000000E+00  0.23740375091E+03  0.23740375092E+03  0.25500000920E-02 0.  1.
        2   -1    0    0  501    0  0.00000000000E+00  0.00000000000E+00 -0.10749089727E+04  0.10749089727E+04  0.25500000920E-02 0. -1.
    10030    2    1    2    0    0  0.00000000000E+00  0.00000000000E+00 -0.83750522180E+03  0.13123127236E+04  0.10103215766E+04 0.  0.
        2    1    3    3  502    0  0.39116769598E+03  0.63317317800E+02 -0.11786129206E+02  0.39643430976E+03  0.25500000920E-02 0.  1.
       -2    1    3    3    0  502 -0.39116769598E+03 -0.63317317800E+02 -0.82571909259E+03  0.91587841386E+03  0.25500000920E-02 0. -1.
</event>
<event>
 5   0  0.7224879E-03  0.1004384E+04  0.7818609E-02  0.9303749E-01
        1   -1    0    0  501    0  0.00000000000E+00  0.00000000000E+00  0.64631112638E+03  0.64631112640E+03  0.50400001928E-02 0.  1.
       -1   -1    0    0    0  501  0.00000000000E+00  0.00000000000E+00 -0.39020998084E+03  0.39020998087E+03  0.50400001928E-02 0. -1.
    10030    2    1    2    0    0  0.00000000000E+00  0.00000000000E+00  0.25610114554E+03  0.10365211073E+04  0.10043844926E+04 0.  0.
        3    1    3    3  502    0  0.16199413691E+02  0.21903986586E+03 -0.33801450556E+03  0.40310631353E+03  0.10100000352E+00 0. -1.
       -3    1    3    3    0  502 -0.16199413691E+02 -0.21903986586E+03  0.59411565110E+03  0.63341479374E+03  0.10100000352E+00 0.  1.
</event>
<event>
 5   0  0.1216322E-02  0.9963630E+03  0.7818609E-02  0.9312543E-01
       -2   -1    0    0    0  501  0.00000000000E+00  0.00000000000E+00  0.44263377531E+03  0.44263377532E+03  0.25500000920E-02 0.  1.
        2   -1    0    0  501    0  0.00000000000E+00  0.00000000000E+00 -0.56070007221E+03  0.56070007222E+03  0.25500000920E-02 0. -1.
    10030    2    1    2    0    0  0.00000000000E+00  0.00000000000E+00 -0.11806629690E+03  0.10033338475E+04  0.99636296556E+03 0.  0.
        2    1    3    3  502    0  0.42919762682E+03 -0.21007972043E+03  0.82809345903E+02  0.48497575154E+03  0.25500000920E-02 0.  1.
       -2    1    3    3    0  502 -0.42919762682E+03  0.21007972043E+03 -0.20087564280E+03  0.51835809600E+03  0.25500000920E-02 0. -1.
</event>
<event>
 5   0  0.6967681E-03  0.9794936E+03  0.7818609E-02  0.9331326E-01
       -1   -1    0    0    0  501  0.00000000000E+00  0.00000000000E+00  0.28645557234E+03  0.28645557239E+03  0.50400001928E-02 0.  1.
        1   -1    0    0  501    0  0.00000000000E+00  0.00000000000E+00 -0.83730935581E+03  0.83730935583E+03  0.50400001928E-02 0. -1.
    10030    2    1    2    0    0  0.00000000000E+00  0.00000000000E+00 -0.55085378347E+03  0.11237649282E+04  0.97949360546E+03 0.  0.
        5    1    3    3  502    0  0.22316687727E+03 -0.29833358136E+03 -0.64008425559E+03  0.74063238191E+03  0.46999998093E+01 0. -1.
       -5    1    3    3    0  502 -0.22316687727E+03  0.29833358136E+03  0.89230472127E+02  0.38313254630E+03  0.46999998093E+01 0.  1.
</event>
<event>
 5   0  0.7241200E-03  0.1001375E+04  0.7818609E-02  0.9307038E-01
        1   -1    0    0  501    0  0.00000000000E+00  0.00000000000E+00  0.89566683164E+03  0.89566683166E+03  0.50400001928E-02 0.  1.
       -1   -1    0    0    0  501  0.00000000000E+00  0.00000000000E+00 -0.27988983817E+03  0.27988983822E+03  0.50400001928E-02 0. -1.
    10030    2    1    2    0    0  0.00000000000E+00  0.00000000000E+00  0.61577699347E+03  0.11755566699E+04  0.10013751437E+04 0.  0.
        4    1    3    3  502    0  0.31505186717E+03  0.33063969644E+03  0.54877889946E+03  0.71396091018E+03  0.12699999809E+01 0.  1.
       -4    1    3    3    0  502 -0.31505186717E+03 -0.33063969644E+03  0.66998094008E+02  0.46159575970E+03  0.12699999809E+01 0. -1.
</event>
<event>
 5   0  0.1245850E-02  0.9979476E+03  0.7818609E-02  0.9310799E-01
       -2   -1    0    0    0  501  0.00000000000E+00  0.00000000000E+00  0.21439568170E+03  0.21439568171E+03  0.25500000920E-02 0.  1.
        2   -1    0    0  501    0  0.00000000000E+00  0.00000000000E+00 -0.11612867448E+04  0.11612867448E+04  0.25500000920E-02 0. -1.
    10030    2    1    2    0    0  0.00000000000E+00  0.00000000000E+00 -0.94689106311E+03  0.13756824265E+04  0.99794762049E+03 0.  0.
        3    1    3    3  502    0 -0.47382825890E+02  0.37462271145E+03 -0.23814956156E+02  0.37835759601E+03  0.10100000352E+00 0.  1.
       -3    1    3    3    0  502  0.47382825890E+02 -0.37462271145E+03 -0.92307610695E+03  0.99732483051E+03  0.10100000352E+00 0. -1.
</event>
<event>
 5   0  0.7224879E-03  0.1029066E+04  0.7818609E-02  0.9277228E-01
        1   -1    0    0  501    0  0.00000000000E+00  0.00000000000E+00  0.34694370636E+03  0.34694370640E+03  0.50400001928E-02 0. -1.
       -1   -1    0    0    0  501  0.00000000000E+00  0.00000000000E+00 -0.76307485602E+03  0.76307485604E+03  0.50400001928E-02 0.  1.
    10030    2    1    2    0    0  0.00000000000E+00  0.00000000000E+00 -0.41613114966E+03  0.11100185624E+04  0.10290656321E+04 0.  0.
        3    1    3    3  502    0  0.11502106395E+03 -0.30504925592E+02  0.33189680217E+03  0.35258459003E+03  0.10100000352E+00 0. -1.
       -3    1    3    3    0  502 -0.11502106395E+03  0.30504925592E+02 -0.74802795183E+03  0.75743397240E+03  0.10100000352E+00 0.  1.
</event>
<event>
 5   0  0.7461157E-03  0.1009641E+04  0.7818609E-02  0.9298033E-01
        1   -1    0    0  501    0  0.00000000000E+00  0.00000000000E+00  0.60606623997E+03  0.60606623999E+03  0.50400001928E-02 0.  1.
       -1   -1    0    0    0  501  0.00000000000E+00  0.00000000000E+00 -0.42048863933E+03  0.42048863936E+03  0.50400001928E-02 0. -1.
    10030    2    1    2    0    0  0.00000000000E+00  0.00000000000E+00  0.18557760065E+03  0.10265548793E+04  0.10096414584E+04 0.  0.
        2    1    3    3  502    0 -0.32375170503E+03 -0.38645198295E+03  0.66203761680E+02  0.50847147383E+03  0.25500000920E-02 0. -1.
       -2    1    3    3    0  502  0.32375170503E+03  0.38645198295E+03  0.11937383897E+03  0.51808340552E+03  0.25500000920E-02 0.  1.
</event>
<event>
 5   0  0.7461157E-03  0.1001390E+04  0.7818609E-02  0.9307021E-01
       -1   -1    0    0    0  501  0.00000000000E+00  0.00000000000E+00  0.36033660446E+03  0.36033660449E+03  0.50400001928E-02 0.  1.
        1   -1    0    0  501    0  0.00000000000E+00  0.00000000000E+00 -0.69572627860E+03  0.69572627861E+03  0.50400001928E-02 0. -1.
    10030    2    1    2    0    0  0.00000000000E+00  0.00000000000E+00 -0.33538967414E+03  0.10560628831E+04  0.10013903233E+04 0.  0.
        2    1    3    3  502    0 -0.18254528715E+03 -0.36232629310E+03 -0.47712959813E+03  0.62630326356E+03  0.25500000920E-02 0. -1.
       -2    1    3    3    0  502  0.18254528715E+03  0.36232629310E+03  0.14173992399E+03  0.42975961955E+03  0.25500000920E-02 0.  1.
</event>
<event>
 5   0  0.1191822E-02  0.9464508E+03  0.7818609E-02  0.9369309E-01
        2   -1    0    0  501    0  0.00000000000E+00  0.00000000000E+00  0.62982737915E+03  0.62982737916E+03  0.25500000920E-02 0. -1.
       -2   -1    0    0    0  501  0.00000000000E+00  0.00000000000E+00 -0.35556135015E+03  0.35556135016E+03  0.25500000920E-02 0.  1.
    10030    2    1    2    0    0  0.00000000000E+00  0.00000000000E+00  0.27426602900E+03  0.98538872932E+03  0.94645078752E+03 0.  0.
        4    1    3    3  502    0  0.14171826465E+03 -0.41525174669E+03  0.32168999622E+03  0.54406263080E+03  0.12699999809E+01 0. -1.
       -4    1    3    3    0  502 -0.14171826465E+03  0.41525174669E+03 -0.47423967217E+02  0.44132609852E+03  0.12699999809E+01 0.  1.
</event>
<event>
 5   0  0.7241200E-03  0.1015491E+04  0.7818609E-02  0.9291715E-01
        1   -1    0    0  501    0  0.00000000000E+00  0.00000000000E+00  0.58836603908E+03  0.58836603910E+03  0.50400001928E-02 0. -1.
       -1   -1    0    0    0  501  0.00000000000E+00  0.00000000000E+00 -0.43817233926E+03  0.43817233929E+03  0.50400001928E-02 0.  1.
    10030    2    1    2    0    0  0.00000000000E+00  0.00000000000E+00  0.15019369982E+03  0.10265383784E+04  0.10154914548E+04 0.  0.
        4    1    3    3  502    0  0.18904177418E+03 -0.20070826973E+03 -0.35590204684E+03  0.45020937548E+03  0.12699999809E+01 0.  1.
       -4    1    3    3    0  502 -0.18904177418E+03  0.20070826973E+03  0.50609574666E+03  0.57632900292E+03  0.12699999809E+01 0. -1.
</event>
<event>
 5   0  0.7073004E-03  0.7289088E+03  0.7818609E-02  0.9669033E-01
       -1   -1    0    0    0  501  0.00000000000E+00  0.00000000000E+00  0.16940974818E+03  0.16940974825E+03  0.50400001928E-02 0. -1.
        1   -1    0    0  501    0  0.00000000000E+00  0.00000000000E+00 -0.78405775712E+03  0.78405775713E+03  0.50400001928E-02 0.  1.
    10030    2    1    2    0    0  0.00000000000E+00  0.00000000000E+00 -0.61464800894E+03  0.95346750539E+03  0.72890884816E+03 0.  0.
        1    1    3    3  502    0  0.20879626019E+03 -0.21594256788E+03 -0.57730752206E+03  0.65077726293E+03  0.50400001928E-02 0.  1.
       -1    1    3    3    0  502 -0.20879626019E+03  0.21594256788E+03 -0.37340486883E+02  0.30269024246E+03  0.50400001928E-02 0. -1.
</event>
<event>
 5   0  0.1221315E-02  0.9824388E+03  0.7818609E-02  0.9328018E-01
       -2   -1    0    0    0  501  0.00000000000E+00  0.00000000000E+00  0.84351943762E+03  0.84351943762E+03  0.25500000920E-02 0.  1.
        2   -1    0    0  501    0  0.00000000000E+00  0.00000000000E+00 -0.28605922118E+03  0.28605922119E+03  0.25500000920E-02 0. -1.
    10030    2    1    2    0    0  0.00000000000E+00  0.00000000000E+00  0.55746021644E+03  0.11295786588E+04  0.98243882941E+03 0.  0.
        5    1    3    3  502    0 -0.23425172116E+03 -0.22256031151E+03 -0.14663422064E+03  0.35486708186E+03  0.46999998093E+01 0. -1.
       -5    1    3    3    0  502  0.23425172116E+03  0.22256031151E+03  0.70409443709E+03  0.77471157695E+03  0.46999998093E+01 0.  1.
</event>
<event>
 5   0  0.1240503E-02  0.9095767E+03  0.7818609E-02  0.9413689E-01
        2   -1    0    0  501    0  0.00000000000E+00  0.00000000000E+00  0.23884580151E+04  0.23884580151E+04  0.25500000920E-02 0. -1.
       -2   -1    0    0    0  501  0.00000000000E+00  0.00000000000E+00 -0.86596646355E+02  0.86596646392E+02  0.25500000920E-02 0.  1.
    10030    2    1    2    0    0  0.00000000000E+00  0.00000000000E+00  0.23018613687E+04  0.24750546615E+04  0.90957672378E+03 0.  0.
        1    1    3    3  502    0 -0.33510934617E+03 -0.26897676328E+03  0.74562579883E+03  0.86058387446E+03  0.50400001928E-02 0.  1.
       -1    1    3    3    0  502  0.33510934617E+03  0.26897676328E+03  0.15562355699E+04  0.16144707870E+04  0.50400001928E-02 0. -1.
</event>
<event>
 5   0  0.1240503E-02  0.1011828E+04  0.7818609E-02  0.9295666E-01
       -2   -1    0    0    0  501  0.00000000000E+00  0.00000000000E+00  0.18950256596E+03  0.18950256598E+03  0.25500000920E-02 0. -1.
        2   -1    0    0  501    0  0.00000000000E+00  0.00000000000E+00 -0.13506371841E+04  0.13506371841E+04  0.25500000920E-02 0.  1.
    10030    2    1    2    0    0  0.00000000000E+00  0.00000000000E+00 -0.11611346182E+04  0.15401397501E+04  0.10118284678E+04 0.  0.
        1    1    3    3  502    0  0.41941208051E+02  0.36844299849E+03 -0.11044116530E+04  0.11650040375E+04  0.50400001928E-02 0.  1.
       -1    1    3    3    0  502 -0.41941208051E+02 -0.36844299849E+03 -0.56722965163E+02  0.37513571261E+03  0.50400001928E-02 0. -1.
</event>
<event>
 5   0  0.7224879E-03  0.9438618E+03  0.7818609E-02  0.9372354E-01
       -1   -1    0    0    0  501  0.00000000000E+00  0.00000000000E+00  0.42464928940E+03  0.42464928943E+03  0.50400001928E-02 0. -1.
        1   -1    0    0  501    0  0.00000000000E+00  0.00000000000E+00 -0.52447692185E+03  0.52447692187E+03  0.50400001928E-02 0.  1.
    10030    2    1    2    0    0  0.00000000000E+00  0.00000000000E+00 -0.99827632451E+02  0.94912621130E+03  0.94386175300E+03 0.  0.
        3    1    3    3  502    0  0.44372159402E+03 -0.16041792906E+03 -0.40062387201E+02  0.47352694752E+03  0.10100000352E+00 0. -1.
       -3    1    3    3    0  502 -0.44372159402E+03  0.16041792906E+03 -0.59765245250E+02  0.47559926377E+03  0.10100000352E+00 0.  1.
</event>
<event>
 5   0  0.1221315E-02  0.9998459E+03  0.7818609E-02  0.9308714E-01
        2   -1    0    0  501    0  0.00000000000E+00  0.00000000000E+00  0.26236873995E+03  0.26236873996E+03  0.25500000920E-02 0.  1.
       -2   -1    0    0    0  501  0.00000000000E+00  0.00000000000E+00 -0.95256371098E+03  0.95256371098E+03  0.25500000920E-02 0. -1.
    10030    2    1    2    0    0  0.00000000000E+00  0.00000000000E+00 -0.69019497102E+03  0.12149324509E+04  0.99984586928E+03 0.  0.
        5    1    3    3  502    0 -0.39137166209E+03  0.30048515475E+03 -0.44259329346E+03  0.66285293959E+03  0.46999998093E+01 0.  1.
       -5    1    3    3    0  502  0.39137166209E+03 -0.30048515475E+03 -0.24760167757E+03  0.55207951135E+03  0.46999998093E+01 0. -1.
</event>
<event>
 5   0  0.1216322E-02  0.8290288E+03  0.7818609E-02  0.9518924E-01
       -2   -1    0    0    0  501  0.00000000000E+00  0.00000000000E+00  0.16969845629E+03  0.16969845631E+03  0.25500000920E-02 0. -1.
        2   -1    0    0  501    0  0.00000000000E+00  0.00000000000E+00 -0.10125147594E+04  0.10125147594E+04  0.25500000920E-02 0.  1.
    10030    2    1    2    0    0  0.00000000000E+00  0.00000000000E+00 -0.84281630307E+03  0.11822132157E+04  0.82902880926E+03 0.  0.
        2    1    3    3  502    0 -0.38273810514E+03 -0.57669684077E+02 -0.20985675142E+03  0.44028866181E+03  0.25500000920E-02 0. -1.
       -2    1    3    3    0  502  0.38273810514E+03  0.57669684077E+02 -0.63295955165E+03  0.74192455386E+03  0.25500000920E-02 0.  1.
</event>
<event>
 5   0  0.6967681E-03  0.9976486E+03  0.7818609E-02  0.9311127E-01
        1   -1    0    0  501    0  0.00000000000E+00  0.00000000000E+00  0.45924903149E+03  0.45924903151E+03  0.50400001928E-02 0. -1.
       -1   -1    0    0    0  501  0.00000000000E+00  0.00000000000E+00 -0.54180997442E+03  0.54180997444E+03  0.50400001928E-02 0.  1.
    10030    2    1    2    0    0  0.00000000000E+00  0.00000000000E+00 -0.82560942934E+02  0.10010590060E+04  0.99764864763E+03 0.  0.
        5    1    3    3  502    0 -0.30901545628E+03  0.32221977878E+03  0.18193778913E+03  0.48211988879E+03  0.46999998093E+01 0. -1.
       -5    1    3    3    0  502  0.30901545628E+03 -0.32221977878E+03 -0.26449873207E+03  0.51893911716E+03  0.46999998093E+01 0.  1.
</event>
<event>
 5   0  0.1240503E-02  0.1008864E+04  0.7818609E-02  0.9298876E-01
       -2   -1    0    0    0  501  0.00000000000E+00  0.00000000000E+00  0.15957452086E+04  0.15957452086E+04  0.25500000920E-02 0.  1.
        2   -1    0    0  501    0  0.00000000000E+00  0.00000000000E+00 -0.15945625949E+03  0.15945625951E+03  0.25500000920E-02 0. -1.
    10030    2    1    2    0    0  0.00000000000E+00  0.00000000000E+00  0.14362889492E+04  0.17552014682E+04  0.10088638403E+04 0.  0.
        1    1    3    3  502    0  0.30320957148E+03 -0.34272686844E+03  0.10874282148E+04  0.11797872152E+04  0.50400001928E-02 0.  1.
       -1    1    3    3    0  502 -0.30320957148E+03  0.34272686844E+03  0.34886073431E+03  0.57541425300E+03  0.50400001928E-02 0. -1.
</event>
<event>
 5   0  0.1191822E-02  0.1006584E+04  0.7818609E-02  0.9301353E-01
        2   -1    0    0  501    0  0.00000000000E+00  0.00000000000E+00  0.61162682669E+03  0.61162682670E+03  0.25500000920E-02 0.  1.
       -2   -1    0    0    0  501  0.00000000000E+00  0.00000000000E+00 -0.41414570069E+03  0.41414570070E+03  0.25500000920E-02 0. -1.
    10030    2    1    2    0    0  0.00000000000E+00  0.00000000000E+00  0.19748112600E+03  0.10257725274E+04  0.10065835697E+04 0.  0.
        4    1    3    3  502    0 -0.29854588172E+02 -0.49211722455E+03 -0.43327995667E+01  0.49304264033E+03  0.12699999809E+01 0. -1.
       -4    1    3    3    0  502  0.29854588172E+02  0.49211722455E+03  0.20181392556E+03  0.53272988707E+03  0.12699999809E+01 0.  1.
</event>
<event>
 5   0  0.1240503E-02  0.9955998E+03  0.7818609E-02  0.9313384E-01
        2   -1    0    0  501    0  0.00000000000E+00  0.00000000000E+00  0.11399409558E+04  0.11399409558E+04  0.25500000920E-02 0.  1.
       -2   -1    0    0    0  501  0.00000000000E+00  0.00000000000E+00 -0.21738385108E+03  0.21738385109E+03  0.25500000920E-02 0. -1.
    10030    2    1    2    0    0  0.00000000000E+00  0.00000000000E+00  0.92255710469E+03  0.13573248069E+04  0.99559982920E+03 0.  0.
        1    1    3    3  502    0 -0.47387159843E+03 -0.77009285277E+02  0.64069957691E+03  0.80061268394E+03  0.50400001928E-02 0.  1.
       -1    1    3    3    0  502  0.47387159843E+03  0.77009285277E+02  0.28185752778E+03  0.55671212292E+03  0.50400001928E-02 0. -1.
</event>
<event>
 5   0  0.1216322E-02  0.1006374E+04  0.7818609E-02  0.9301582E-01
        2   -1    0    0  501    0  0.00000000000E+00  0.00000000000E+00  0.92082138404E+03  0.92082138404E+03  0.25500000920E-02 0.  1.
       -2   -1    0    0    0  501  0.00000000000E+00  0.00000000000E+00 -0.27496872322E+03  0.27496872323E+03  0.25500000920E-02 0. -1.
    10030    2    1    2    0    0  0.00000000000E+00  0.00000000000E+00  0.64585266082E+03  0.11957901073E+04  0.10063738476E+04 0.  0.
        2    1    3    3  502    0 -0.43132908684E+01  0.11041651720E+03 -0.26037386619E+03  0.28285148391E+03  0.25500000920E-02 0. -1.
       -2    1    3    3    0  502  0.43132908684E+01 -0.11041651720E+03  0.90622652701E+03  0.91293862336E+03  0.25500000920E-02 0.  1.
</event>
<event>
 5   0  0.7461157E-03  0.9527310E+03  0.7818609E-02  0.9361964E-01
       -1   -1    0    0    0  501  0.00000000000E+00  0.00000000000E+00  0.12838169942E+03  0.12838169952E+03  0.50400001928E-02 0.  1.
        1   -1    0    0  501    0  0.00000000000E+00  0.00000000000E+00 -0.17675735050E+04  0.17675735050E+04  0.50400001928E-02 0. -1.
    10030    2    1    2    0    0  0.00000000000E+00  0.00000000000E+00 -0.16391918055E+04  0.18959552045E+04  0.95273100195E+03 0.  0.
        2    1    3    3  502    0  0.16201428701E+03  0.43253898931E+03 -0.10515464135E+04  0.11485157666E+04  0.25500000920E-02 0. -1.
       -2    1    3    3    0  502 -0.16201428701E+03 -0.43253898931E+03 -0.58764539207E+03  0.74743943788E+03  0.25500000920E-02 0.  1.
</event>
<event>
 5   0  0.7461157E-03  0.9977231E+03  0.7818609E-02  0.9311046E-01
       -1   -1    0    0    0  501  0.00000000000E+00  0.00000000000E+00  0.36256300348E+03  0.36256300352E+03  0.50400001928E-02 0.  1.
        1   -1    0    0  501    0  0.00000000000E+00  0.00000000000E+00 -0.68639896045E+03  0.68639896047E+03  0.50400001928E-02 0. -1.
    10030    2    1    2    0    0  0.00000000000E+00  0.00000000000E+00 -0.32383595697E+03  0.10489619640E+04  0.99772314540E+03 0.  0.
        2    1    3    3  502    0  0.23254887053E+03  0.25659145976E+03  0.21561201939E+03  0.40792977008E+03  0.25500000920E-02 0.  1.
       -2    1    3    3    0  502 -0.23254887053E+03 -0.25659145976E+03 -0.53944797637E+03  0.64103219390E+03  0.25500000920E-02 0. -1.
</event>
<event>
 5   0  0.1240503E-02  0.1011266E+04  0.7818609E-02  0.9296274E-01
        2   -1    0    0  501    0  0.00000000000E+00  0.00000000000E+00  0.30078913257E+03  0.30078913258E+03  0.25500000920E-02 0. -1.
       -2   -1    0    0    0  501  0.00000000000E+00  0.00000000000E+00 -0.84997961045E+03  0.84997961045E+03  0.25500000920E-02 0.  1.
    10030    2    1    2    0    0  0.00000000000E+00  0.00000000000E+00 -0.54919047788E+03  0.11507687430E+04  0.10112658003E+04 0.  0.
        1    1    3    3  502    0 -0.42749602822E+03  0.16391665272E+03 -0.51877240322E+03  0.69191497278E+03  0.50400001928E-02 0. -1.
       -1    1    3    3    0  502  0.42749602822E+03 -0.16391665272E+03 -0.30418074659E+02  0.45885377025E+03  0.50400001928E-02 0.  1.
</event>
<event>
 5   0  0.7073004E-03  0.1007409E+04  0.7818609E-02  0.9300456E-01
       -1   -1    0    0    0  501  0.00000000000E+00  0.00000000000E+00  0.26217274498E+03  0.26217274503E+03  0.50400001928E-02 0.  1.
        1   -1    0    0  501    0  0.00000000000E+00  0.00000000000E+00 -0.96775167302E+03  0.96775167303E+03  0.50400001928E-02 0. -1.
    10030    2    1    2    0    0  0.00000000000E+00  0.00000000000E+00 -0.70557892804E+03  0.12299244181E+04  0.10074087802E+04 0.  0.
        1    1    3    3  502    0  0.27018976596E+03  0.36590978417E+03 -0.61697833546E+03  0.76652119751E+03  0.50400001928E-02 0. -1.
       -1    1    3    3    0  502 -0.27018976596E+03 -0.36590978417E+03 -0.88600592577E+02  0.46340322055E+03  0.50400001928E-02 0.  1.
</event>
<event>
 5   0  0.6967681E-03  0.9729407E+03  0.7818609E-02  0.9338731E-01
        1   -1    0    0  501    0  0.00000000000E+00  0.00000000000E+00  0.38789285813E+03  0.38789285817E+03  0.50400001928E-02 0.  1.
       -1   -1    0    0    0  501  0.00000000000E+00  0.00000000000E+00 -0.61009993987E+03  0.61009993989E+03  0.50400001928E-02 0. -1.
    10030    2    1    2    0    0  0.00000000000E+00  0.00000000000E+00 -0.22220708173E+03  0.99799279806E+03  0.97294071649E+03 0.  0.
        5    1    3    3  502    0 -0.28766862648E+03  0.10180831912E+03  0.27748221114E+03  0.41247622962E+03  0.46999998093E+01 0.  1.
       -5    1    3    3    0  502  0.28766862648E+03 -0.10180831912E+03 -0.49968929287E+03  0.58551656844E+03  0.46999998093E+01 0. -1.
</event>
<event>
 5   0  0.1240503E-02  0.1011408E+04  0.7818609E-02  0.9296121E-01
       -2   -1    0    0    0  501  0.00000000000E+00  0.00000000000E+00  0.18830382259E+03  0.18830382261E+03  0.25500000920E-02 0. -1.
        2   -1    0    0  501    0  0.00000000000E+00  0.00000000000E+00 -0.13581048523E+04  0.13581048523E+04  0.25500000920E-02 0.  1.
    10030    2    1    2    0    0  0.00000000000E+00  0.00000000000E+00 -0.11698010297E+04  0.15464086749E+04  0.10114076036E+04 0.  0.
        1    1    3    3  502    0 -0.27880451573E+03  0.81762509817E+01  0.60058083637E+02  0.28531698602E+03  0.50400001928E-02 0. -1.
       -1    1    3    3    0  502  0.27880451573E+03 -0.81762509817E+01 -0.12298591133E+04  0.12610916888E+04  0.50400001928E-02 0.  1.
</event>
<event>
 5   0  0.7241200E-03  0.1003644E+04  0.7818609E-02  0.9304557E-01
        1   -1    0    0  501    0  0.00000000000E+00  0.00000000000E+00  0.49150977795E+03  0.49150977797E+03  0.50400001928E-02 0. -1.
       -1   -1    0    0    0  501  0.00000000000E+00  0.00000000000E+00 -0.51235078204E+03  0.51235078207E+03  0.50400001928E-02 0.  1.
    10030    2    1    2    0    0  0.00000000000E+00  0.00000000000E+00 -0.20841004095E+02  0.10038605600E+04  0.10036441982E+04 0.  0.
        4    1    3    3  502    0 -0.49486619408E+03 -0.12635138380E+02 -0.92728031401E+02  0.50363905475E+03  0.12699999809E+01 0.  1.
       -4    1    3    3    0  502  0.49486619408E+03  0.12635138380E+02  0.71887027307E+02  0.50022150529E+03  0.12699999809E+01 0. -1.
</event>
<event>
 5   0  0.1216322E-02  0.6488101E+03  0.7818609E-02  0.9809015E-01
       -2   -1    0    0    0  501  0.00000000000E+00  0.00000000000E+00  0.43399682271E+03  0.43399682272E+03  0.25500000920E-02 0. -1.
        2   -1    0    0  501    0  0.00000000000E+00  0.00000000000E+00 -0.24248710262E+03  0.24248710264E+03  0.25500000920E-02 0.  1.
    10030    2    1    2    0    0  0.00000000000E+00  0.00000000000E+00  0.19150972009E+03  0.67648392536E+03  0.64881008652E+03 0.  0.
        2    1    3    3  502    0 -0.27627039141E+03 -0.11904638088E+03  0.22234714031E+03  0.37407969843E+03  0.25500000920E-02 0. -1.
       -2    1    3    3    0  502  0.27627039141E+03  0.11904638088E+03 -0.30837420217E+02  0.30240422692E+03  0.25500000920E-02 0.  1.
</event>
<event>
 5   0  0.7241200E-03  0.1008934E+04  0.7818609E-02  0.9298801E-01
       -1   -1    0    0    0  501  0.00000000000E+00  0.00000000000E+00  0.34875553681E+03  0.34875553684E+03  0.50400001928E-02 0.  1.
        1   -1    0    0  501    0  0.00000000000E+00  0.00000000000E+00 -0.72969947447E+03  0.72969947449E+03  0.50400001928E-02 0. -1.
    10030    2    1    2    0    0  0.00000000000E+00  0.00000000000E+00 -0.38094393767E+03  0.10784550113E+04  0.10089335597E+04 0.  0.
        4    1    3    3  502    0 -0.23607324997E+03 -0.29356758973E+03  0.16816564180E+03  0.41254551879E+03  0.12699999809E+01 0.  1.
       -4    1    3    3    0  502  0.23607324997E+03  0.29356758973E+03 -0.54910957947E+03  0.66590949254E+03  0.12699999809E+01 0. -1.
</event>
<event>
 5   0  0.7073004E-03  0.8604140E+03  0.7818609E-02  0.9476465E-01
       -1   -1    0    0    0  501  0.00000000000E+00  0.00000000000E+00  0.23664971140E+03  0.23664971146E+03  0.50400001928E-02 0. -1.
        1   -1    0    0  501    0  0.00000000000E+00  0.00000000000E+00 -0.78207593202E+03  0.78207593203E+03  0.50400001928E-02 0.  1.
    10030    2    1    2    0    0  0.00000000000E+00  0.00000000000E+00 -0.54542622061E+03  0.10187256435E+04  0.86041395536E+03 0.  0.
        1    1    3    3  502    0 -0.44579502298E+02  0.83487532681E+02 -0.76959686860E+03  0.77539463522E+03  0.50400001928E-02 0.  1.
       -1    1    3    3    0  502  0.44579502298E+02 -0.83487532681E+02  0.22417064799E+03  0.24333100827E+03  0.50400001928E-02 0. -1.
</event>
<event>
 5   0  0.1221315E-02  0.1018587E+04  0.7818609E-02  0.9288391E-01
       -2   -1    0    0    0  501  0.00000000000E+00  0.00000000000E+00  0.35014992816E+03  0.35014992817E+03  0.25500000920E-02 0.  1.
        2   -1    0    0  501    0  0.00000000000E+00  0.00000000000E+00 -0.74076811103E+03  0.74076811104E+03  0.25500000920E-02 0. -1.
    10030    2    1    2    0    0  0.00000000000E+00  0.00000000000E+00 -0.39061818287E+03  0.10909180392E+04  0.10185870623E+04 0.  0.
        5    1    3    3  502    0  0.12848131229E+02 -0.39889848604E+03  0.14349749974E+03  0.42414466762E+03  0.46999998093E+01 0.  1.
       -5    1    3    3    0  502 -0.12848131229E+02  0.39889848604E+03 -0.53411568261E+03  0.66677337159E+03  0.46999998093E+01 0. -1.
</event>
<event>
 5   0  0.7224879E-03  0.9767168E+03  0.7818609E-02  0.9334457E-01
       -1   -1    0    0    0  501  0.00000000000E+00  0.00000000000E+00  0.36039777723E+03  0.36039777727E+03  0.50400001928E-02 0.  1.
        1   -1    0    0  501    0  0.00000000000E+00  0.00000000000E+00 -0.66175192634E+03  0.66175192636E+03  0.50400001928E-02 0. -1.
    10030    2    1    2    0    0  0.00000000000E+00  0.00000000000E+00 -0.30135414911E+03  0.10221497036E+04  0.97671679286E+03 0.  0.
        3    1    3    3  502    0 -0.14697246307E+03  0.64857519521E+02  0.33195460501E+03  0.36878350387E+03  0.10100000352E+00 0.  1.
       -3    1    3    3    0  502  0.14697246307E+03 -0.64857519521E+02 -0.63330875412E+03  0.65336619976E+03  0.10100000352E+00 0. -1.
</event>
<event>
 5   0  0.7224879E-03  0.1052896E+04  0.7818609E-02  0.9252359E-01
       -1   -1    0    0    0  501  0.00000000000E+00  0.00000000000E+00  0.22332481518E+03  0.22332481524E+03  0.50400001928E-02 0. -1.
        1   -1    0    0  501    0  0.00000000000E+00  0.00000000000E+00 -0.12410067897E+04  0.12410067897E+04  0.50400001928E-02 0.  1.
    10030    2    1    2    0    0  0.00000000000E+00  0.00000000000E+00 -0.10176819745E+04  0.14643316050E+04  0.10528962190E+04 0.  0.
        3    1    3    3  502    0 -0.13055873382E+03  0.39180964448E+03 -0.96289387287E+03  0.10477237236E+04  0.10100000352E+00 0.  1.
       -3    1    3    3    0  502  0.13055873382E+03 -0.39180964448E+03 -0.54788101659E+02  0.41660788131E+03  0.10100000352E+00 0. -1.
</event>
<event>
 5   0  0.1216322E-02  0.1010766E+04  0.7818609E-02  0.9296815E-01
       -2   -1    0    0    0  501  0.00000000000E+00  0.00000000000E+00  0.17077021155E+03  0.17077021157E+03  0.25500000920E-02 0.  1.
        2   -1    0    0  501    0  0.00000000000E+00  0.00000000000E+00 -0.14956462154E+04  0.14956462155E+04  0.25500000920E-02 0. -1.
    10030    2    1    2    0    0  0.00000000000E+00  0.00000000000E+00 -0.13248760039E+04  0.16664164270E+04  0.10107656912E+04 0.  0.
        2    1    3    3  502    0  0.13296506601E+03 -0.23000670250E+03 -0.13712289076E+04  0.13967288603E+04  0.25500000920E-02 0. -1.
       -2    1    3    3    0  502 -0.13296506601E+03  0.23000670250E+03  0.46352903731E+02  0.26968756676E+03  0.25500000920E-02 0.  1.
</event>
<event>
 5   0  0.1191822E-02  0.9923100E+03  0.7818609E-02  0.9317019E-01
        2   -1    0    0  501    0  0.00000000000E+00  0.00000000000E+00  0.55595415506E+03  0.55595415506E+03  0.25500000920E-02 0.  1.
       -2   -1    0    0    0  501  0.00000000000E+00  0.00000000000E+00 -0.44278796143E+03  0.44278796143E+03  0.25500000920E-02 0. -1.
    10030    2    1    2    0    0  0.00000000000E+00  0.00000000000E+00  0.11316619363E+03  0.99874211650E+03  0.99231004625E+03 0.  0.
        4    1    3    3  502    0  0.34877172224E+03  0.16720418069E+03 -0.25618711689E+03  0.46393146480E+03  0.12699999809E+01 0. -1.
       -4    1    3    3    0  502 -0.34877172224E+03 -0.16720418069E+03  0.36935331052E+03  0.53481065169E+03  0.12699999809E+01 0.  1.
</event>
<event>
 5   0  0.7224879E-03  0.9827677E+03  0.7818609E-02  0.9327649E-01
       -1   -1    0    0    0  501  0.00000000000E+00  0.00000000000E+00  0.28197902269E+03  0.28197902273E+03  0.50400001928E-02 0.  1.
        1   -1    0    0  501    0  0.00000000000E+00  0.00000000000E+00 -0.85629810674E+03  0.85629810675E+03  0.50400001928E-02 0. -1.
    10030    2    1    2    0    0  0.00000000000E+00  0.00000000000E+00 -0.57431908405E+03  0.11382771295E+04  0.98276773106E+03 0.  0.
        3    1    3    3  502    0 -0.32969710699E+03 -0.13502391822E+03  0.10480792793E+03  0.37137091002E+03  0.10100000352E+00 0.  1.
       -3    1    3    3    0  502  0.32969710699E+03  0.13502391822E+03 -0.67912701198E+03  0.76690621947E+03  0.10100000352E+00 0. -1.
</event>
<event>
 5   0  0.1216322E-02  0.1007608E+04  0.7818609E-02  0.9300240E-01
        2   -1    0    0  501    0  0.00000000000E+00  0.00000000000E+00  0.18334962588E+04  0.18334962588E+04  0.25500000920E-02 0.  1.
       -2   -1    0    0    0  501  0.00000000000E+00  0.00000000000E+00 -0.13843400412E+03  0.13843400414E+03  0.25500000920E-02 0. -1.
    10030    2    1    2    0    0  0.00000000000E+00  0.00000000000E+00  0.16950622546E+04  0.19719302629E+04  0.10076075201E+04 0.  0.
        2    1    3    3  502    0  0.45531853245E+03 -0.20666949302E+03  0.96802808691E+03  0.10895437680E+04  0.25500000920E-02 0. -1.
       -2    1    3    3    0  502 -0.45531853245E+03  0.20666949302E+03  0.72703416773E+03  0.88238649491E+03  0.25500000920E-02 0.  1.
</event>
<event>
 5   0  0.1191822E-02  0.9944344E+03  0.7818609E-02  0.9314670E-01
        2   -1    0    0  501    0  0.00000000000E+00  0.00000000000E+00  0.42714528563E+03  0.42714528563E+03  0.25500000920E-02 0.  1.
       -2   -1    0    0    0  501  0.00000000000E+00  0.00000000000E+00 -0.57878426075E+03  0.57878426075E+03  0.25500000920E-02 0. -1.
    10030    2    1    2    0    0  0.00000000000E+00  0.00000000000E+00 -0.15163897512E+03  0.10059295464E+04  0.99443444908E+03 0.  0.
        4    1    3    3  502    0  0.80378558926E+02  0.47437478579E+02 -0.56984209083E+03  0.57743627223E+03  0.12699999809E+01 0. -1.
       -4    1    3    3    0  502 -0.80378558926E+02 -0.47437478579E+02  0.41820311571E+03  0.42849327416E+03  0.12699999809E+01 0.  1.
</event>
<event>
 5   0  0.1245850E-02  0.1012224E+04  0.7818609E-02  0.9295238E-01
        2   -1    0    0  501    0  0.00000000000E+00  0.00000000000E+00  0.68999405210E+03  0.68999405211E+03  0.25500000920E-02 0. -1.
       -2   -1    0    0    0  501  0.00000000000E+00  0.00000000000E+00 -0.37123412186E+03  0.37123412187E+03  0.25500000920E-02 0.  1.
    10030    2    1    2    0    0  0.00000000000E+00  0.00000000000E+00  0.31875993025E+03  0.10612281740E+04  0.10122239595E+04 0.  0.
        3    1    3    3  502    0  0.42174678217E+03 -0.19445609707E+03  0.37027980235E+03  0.59396183732E+03  0.10100000352E+00 0.  1.
       -3    1    3    3    0  502 -0.42174678217E+03  0.19445609707E+03 -0.51519872108E+02  0.46726633666E+03  0.10100000352E+00 0. -1.
</event>
<event>
 5   0  0.7224879E-03  0.9961452E+03  0.7818609E-02  0.9312783E-01
       -1   -1    0    0    0  501  0.00000000000E+00  0.00000000000E+00  0.31529547971E+03  0.31529547975E+03  0.50400001928E-02 0.  1.
        1   -1    0    0  501    0  0.00000000000E+00  0.00000000000E+00 -0.78680576238E+03  0.78680576239E+03  0.50400001928E-02 0. -1.
    10030    2    1    2    0    0  0.00000000000E+00  0.00000000000E+00 -0.47151028267E+03  0.11021012421E+04  0.99614517077E+03 0.  0.
        3    1    3    3  502    0  0.38190378911E+03  0.15923779673E+03  0.70987946131E+02  0.41981719682E+03  0.10100000352E+00 0.  1.
       -3    1    3    3    0  502 -0.38190378911E+03 -0.15923779673E+03 -0.54249822880E+03  0.68228404532E+03  0.10100000352E+00 0. -1.
</event>
<event>
 5   0  0.1216322E-02  0.1002573E+04  0.7818609E-02  0.9305727E-01
       -2   -1    0    0    0  501  0.00000000000E+00  0.00000000000E+00  0.20201281225E+03  0.20201281227E+03  0.25500000920E-02 0. -1.
        2   -1    0    0  501    0  0.00000000000E+00  0.00000000000E+00 -0.12439214200E+04  0.12439214200E+04  0.25500000920E-02 0.  1.
    10030    2    1    2    0    0  0.00000000000E+00  0.00000000000E+00 -0.10419086078E+04  0.14459342323E+04  0.10025728189E+04 0.  0.
        2    1    3    3  502    0  0.33168238359E+03 -0.19607574290E+02 -0.10622982949E+04  0.11130477653E+04  0.25500000920E-02 0.  1.
       -2    1    3    3    0  502 -0.33168238359E+03  0.19607574290E+02  0.20389687105E+02  0.33288646698E+03  0.25500000920E-02 0. -1.
</event>
<event>
 5   0  0.6967681E-03  0.9852299E+03  0.7818609E-02  0.9324894E-01
       -1   -1    0    0    0  501  0.00000000000E+00  0.00000000000E+00  0.50995663522E+03  0.50995663525E+03  0.50400001928E-02 0. -1.
        1   -1    0    0  501    0  0.00000000000E+00  0.00000000000E+00 -0.47586296449E+03  0.47586296452E+03  0.50400001928E-02 0.  1.
    10030    2    1    2    0    0  0.00000000000E+00  0.00000000000E+00  0.34093670729E+02  0.98581959977E+03  0.98522987414E+03 0.  0.
        5    1    3    3  502    0  0.36865696968E+03 -0.31318235844E+03 -0.76047745893E+02  0.48969020879E+03  0.46999998093E+01 0.  1.
       -5    1    3    3    0  502 -0.36865696968E+03  0.31318235844E+03  0.11014141662E+03  0.49612939097E+03  0.46999998093E+01 0. -1.
</event>
<event>
 5   0  0.7241200E-03  0.9793861E+03  0.7818609E-02  0.9331447E-01
        1   -1    0    0  501    0  0.00000000000E+00  0.00000000000E+00  0.40696470598E+03  0.40696470601E+03  0.50400001928E-02 0.  1.
       -1   -1    0    0    0  501  0.00000000000E+00  0.00000000000E+00 -0.58923850102E+03  0.58923850104E+03  0.50400001928E-02 0. -1.
    10030    2    1    2    0    0  0.00000000000E+00  0.00000000000E+00 -0.18227379504E+03  0.99620320705E+03  0.97938607984E+03 0.  0.
        4    1    3    3  502    0 -0.19782985815E+03  0.34856144217E+03 -0.37733263678E+03  0.55046640535E+03  0.12699999809E+01 0. -1.
       -4    1    3    3    0  502  0.19782985815E+03 -0.34856144217E+03  0.19505884174E+03  0.44573680169E+03  0.12699999809E+01 0.  1.
</event>
<event>
 5   0  0.1216322E-02  0.1101560E+04  0.7818609E-02  0.9203672E-01
       -2   -1    0    0    0  501  0.00000000000E+00  0.00000000000E+00  0.14003521791E+03  0.14003521793E+03  0.25500000920E-02 0. -1.
        2   -1    0    0  501    0  0.00000000000E+00  0.00000000000E+00 -0.21663037853E+04  0.21663037853E+04  0.25500000920E-02 0.  1.
    10030    2    1    2    0    0  0.00000000000E+00  0.00000000000E+00 -0.20262685674E+04  0.23063390032E+04  0.11015603890E+04 0.  0.
        2    1    3    3  502    0 -0.50912094927E+03 -0.20999832795E+03 -0.10287156907E+04  0.11668587794E+04  0.25500000920E-02 0. -1.
       -2    1    3    3    0  502  0.50912094927E+03  0.20999832795E+03 -0.99755287668E+03  0.11394802238E+04  0.25500000920E-02 0.  1.
</event>
<event>
 5   0  0.6967681E-03  0.9878696E+03  0.7818609E-02  0.9321950E-01
       -1   -1    0    0    0  501  0.00000000000E+00  0.00000000000E+00  0.41801450462E+03  0.41801450465E+03  0.50400001928E-02 0.  1.
        1   -1    0    0  501    0  0.00000000000E+00  0.00000000000E+00 -0.58364387747E+03  0.58364387749E+03  0.50400001928E-02 0. -1.
    10030    2    1    2    0    0  0.00000000000E+00  0.00000000000E+00 -0.16562937285E+03  0.10016583821E+04  0.98786963987E+03 0.  0.
        5    1    3    3  502    0 -0.14153467416E+03 -0.35058256484E+03 -0.40507046203E+03  0.55411584345E+03  0.46999998093E+01 0. -1.
       -5    1    3    3    0  502  0.14153467416E+03  0.35058256484E+03  0.23944108918E+03  0.44754253869E+03  0.46999998093E+01 0.  1.
</event>
<event>
 5   0  0.7224879E-03  0.9991084E+03  0.7818609E-02  0.9309523E-01
       -1   -1    0    0    0  501  0.00000000000E+00  0.00000000000E+00  0.56557143719E+03  0.56557143721E+03  0.50400001928E-02 0. -1.
        1   -1    0    0  501    0  0.00000000000E+00  0.00000000000E+00 -0.44124291511E+03  0.44124291514E+03  0.50400001928E-02 0.  1.
    10030    2    1    2    0    0  0.00000000000E+00  0.00000000000E+00  0.12432852208E+03  0.10068143524E+04  0.99910838186E+03 0.  0.
        3    1    3    3  502    0  0.73794032123E+02  0.21825665413E+03  0.50883558459E+03  0.55856529483E+03  0.10100000352E+00 0. -1.
       -3    1    3    3    0  502 -0.73794032123E+02 -0.21825665413E+03 -0.38450706250E+03  0.44824905752E+03  0.10100000352E+00 0.  1.
</event>
<event>
 5   0  0.7224879E-03  0.1133420E+04  0.7818609E-02  0.9173217E-01
       -1   -1    0    0    0  501  0.00000000000E+00  0.00000000000E+00  0.85978342976E+03  0.85978342978E+03  0.50400001928E-02 0.  1.
        1   -1    0    0  501    0  0.00000000000E+00  0.00000000000E+00 -0.37353642554E+03  0.37353642558E+03  0.50400001928E-02 0. -1.
    10030    2    1    2    0    0  0.00000000000E+00  0.00000000000E+00  0.48624700422E+03  0.12333198554E+04  0.11334203618E+04 0.  0.
        3    1    3    3  502    0 -0.68675099837E+02 -0.13157708071E+03  0.83825902756E+03  0.85129724832E+03  0.10100000352E+00 0.  1.
       -3    1    3    3    0  502  0.68675099837E+02  0.13157708071E+03 -0.35201202334E+03  0.38202260703E+03  0.10100000352E+00 0. -1.
</event>
<event>
 5   0  0.7461157E-03  0.9783596E+03  0.7818609E-02  0.9332603E-01
        1   -1    0    0  501    0  0.00000000000E+00  0.00000000000E+00  0.27981427421E+03  0.27981427426E+03  0.50400001928E-02 0. -1.
       -1   -1    0    0    0  501  0.00000000000E+00  0.00000000000E+00 -0.85519892963E+03  0.85519892965E+03  0.50400001928E-02 0.  1.
    10030    2    1    2    0    0  0.00000000000E+00  0.00000000000E+00 -0.57538465542E+03  0.11350132039E+04  0.97835958182E+03 0.  0.
        2    1    3    3  502    0  0.31437966119E+03 -0.20481366380E+03 -0.65181744484E+03  0.75209652948E+03  0.25500000920E-02 0.  1.
       -2    1    3    3    0  502 -0.31437966119E+03  0.20481366380E+03  0.76432789425E+02  0.38291667442E+03  0.25500000920E-02 0. -1.
</event>
<event>
 5   0  0.1221315E-02  0.9993510E+03  0.7818609E-02  0.9309257E-01
       -2   -1    0    0    0  501  0.00000000000E+00  0.00000000000E+00  0.31104045356E+03  0.31104045357E+03  0.25500000920E-02 0.  1.
        2   -1    0    0  501    0  0.00000000000E+00  0.00000000000E+00 -0.80271107225E+03  0.80271107225E+03  0.25500000920E-02 0. -1.
    10030    2    1    2    0    0  0.00000000000E+00  0.00000000000E+00 -0.49167061869E+03  0.11137515258E+04  0.99935102141E+03 0.  0.
        5    1    3    3  502    0 -0.18097491301E+03  0.53454122849E+00  0.27320531425E+03  0.32774294593E+03  0.46999998093E+01 0.  1.
       -5    1    3    3    0  502  0.18097491301E+03 -0.53454122849E+00 -0.76487593294E+03  0.78600857989E+03  0.46999998093E+01 0. -1.
</event>
<event>
 5   0  0.7241200E-03  0.9959514E+03  0.7818609E-02  0.9312996E-01
       -1   -1    0    0    0  501  0.00000000000E+00  0.00000000000E+00  0.35698172616E+03  0.35698172619E+03  0.50400001928E-02 0. -1.
        1   -1    0    0  501    0  0.00000000000E+00  0.00000000000E+00 -0.69465684146E+03  0.69465684147E+03  0.50400001928E-02 0.  1.
    10030    2    1    2    0    0  0.00000000000E+00  0.00000000000E+00 -0.33767511530E+03  0.10516385677E+04  0.99595140118E+03 0.  0.
        4    1    3    3  502    0  0.31808203309E+02  0.85207770304E+02  0.34813544554E+03  0.35982221619E+03  0.12699999809E+01 0. -1.
       -4    1    3    3    0  502 -0.31808203309E+02 -0.85207770304E+02 -0.68581056084E+03  0.69181635148E+03  0.12699999809E+01 0.  1.
</event>
<event>
 5   0  0.7224879E-03  0.1083993E+04  0.7818609E-02  0.9220935E-01
       -1   -1    0    0    0  501  0.00000000000E+00  0.00000000000E+00  0.21746023008E+03  0.21746023014E+03  0.50400001928E-02 0.  1.
        1   -1    0    0  501    0  0.00000000000E+00  0.00000000000E+00 -0.13508689583E+04  0.13508689583E+04  0.50400001928E-02 0. -1.
    10030    2    1    2    0    0  0.00000000000E+00  0.00000000000E+00 -0.11334087282E+04  0.15683291884E+04  0.10839931264E+04 0.  0.
        3    1    3    3  502    0 -0.26303783648E+03 -0.16319107759E+03  0.76986753368E+02  0.31897837171E+03  0.10100000352E+00 0.  1.
       -3    1    3    3    0  502  0.26303783648E+03  0.16319107759E+03 -0.12103954816E+04  0.12493508167E+04  0.10100000352E+00 0. -1.
</event>
<event>
 5   0  0.1216322E-02  0.1022687E+04  0.7818609E-02  0.9284006E-01
       -2   -1    0    0    0  501  0.00000000000E+00  0.00000000000E+00  0.27076389221E+03  0.27076389222E+03  0.25500000920E-02 0.  1.
        2   -1    0    0  501    0  0.00000000000E+00  0.00000000000E+00 -0.96568309072E+03  0.96568309072E+03  0.25500000920E-02 0. -1.
    10030    2    1    2    0    0  0.00000000000E+00  0.00000000000E+00 -0.69491919851E+03  0.12364469829E+04  0.10226868774E+04 0.  0.
        2    1    3    3  502    0 -0.50399691119E+02  0.66819830267E+02  0.26242635371E+03  0.27544983157E+03  0.25500000920E-02 0.  1.
       -2    1    3    3    0  502  0.50399691119E+02 -0.66819830267E+02 -0.95734555222E+03  0.96099715138E+03  0.25500000920E-02 0. -1.
</event>
<event>
 5   0  0.4782125E-03  0.1027843E+04  0.7818609E-02  0.9278523E-01
       -4   -1    0    0    0  501  0.00000000000E+00  0.00000000000E+00  0.35013305515E+03  0.35013535841E+03  0.12699999809E+01 0.  1.
        4   -1    0    0  501    0  0.00000000000E+00  0.00000000000E+00 -0.75432350272E+03  0.75432457182E+03  0.12699999809E+01 0. -1.
    10030    2    1    2    0    0  0.00000000000E+00  0.00000000000E+00 -0.40419044757E+03  0.11044599302E+04  0.10278432855E+04 0.  0.
        5    1    3    3  502    0  0.15934140758E+03  0.37347305285E+02 -0.72555104907E+03  0.74379494499E+03  0.46999998093E+01 0. -1.
       -5    1    3    3    0  502 -0.15934140758E+03 -0.37347305285E+02  0.32136060150E+03  0.36066498524E+03  0.46999998093E+01 0.  1.
</event>
<event>
 5   0  0.1221315E-02  0.9793780E+03  0.7818609E-02  0.9331456E-01
       -2   -1    0    0    0  501  0.00000000000E+00  0.00000000000E+00  0.32795786462E+03  0.32795786463E+03  0.25500000920E-02 0. -1.
        2   -1    0    0  501    0  0.00000000000E+00  0.00000000000E+00 -0.73117717318E+03  0.73117717319E+03  0.25500000920E-02 0.  1.
    10030    2    1    2    0    0  0.00000000000E+00  0.00000000000E+00 -0.40321930856E+03  0.10591350378E+04  0.97937797481E+03 0.  0.
        5    1    3    3  502    0 -0.34856832691E+03  0.32232609967E+03 -0.71930942736E+02  0.48019802537E+03  0.46999998093E+01 0. -1.
       -5    1    3    3    0  502  0.34856832691E+03 -0.32232609967E+03 -0.33128836582E+03  0.57893701245E+03  0.46999998093E+01 0.  1.
</event>
<event>
 5   0  0.7073004E-03  0.9970931E+03  0.7818609E-02  0.9311739E-01
        1   -1    0    0  501    0  0.00000000000E+00  0.00000000000E+00  0.43466294245E+03  0.43466294248E+03  0.50400001928E-02 0. -1.
       -1   -1    0    0    0  501  0.00000000000E+00  0.00000000000E+00 -0.57181934752E+03  0.57181934754E+03  0.50400001928E-02 0.  1.
    10030    2    1    2    0    0  0.00000000000E+00  0.00000000000E+00 -0.13715640507E+03  0.10064822900E+04  0.99709313540E+03 0.  0.
        1    1    3    3  502    0 -0.13972175655E+03  0.23157577915E+03 -0.49132874873E+03  0.56085064866E+03  0.50400001928E-02 0.  1.
       -1    1    3    3    0  502  0.13972175655E+03 -0.23157577915E+03  0.35417234366E+03  0.44563164136E+03  0.50400001928E-02 0. -1.
</event>
<event>
 5   0  0.1245850E-02  0.1048481E+04  0.7818609E-02  0.9256913E-01
       -2   -1    0    0    0  501  0.00000000000E+00  0.00000000000E+00  0.41493068589E+03  0.41493068590E+03  0.25500000920E-02 0.  1.
        2   -1    0    0  501    0  0.00000000000E+00  0.00000000000E+00 -0.66234752322E+03  0.66234752323E+03  0.25500000920E-02 0. -1.
    10030    2    1    2    0    0  0.00000000000E+00  0.00000000000E+00 -0.24741683733E+03  0.10772782091E+04  0.10484814011E+04 0.  0.
        3    1    3    3  502    0 -0.26231171405E+03  0.45387016896E+03 -0.12860764156E+03  0.53976430159E+03  0.10100000352E+00 0. -1.
       -3    1    3    3    0  502  0.26231171405E+03 -0.45387016896E+03 -0.11880919577E+03  0.53751390754E+03  0.10100000352E+00 0.  1.
</event>
<event>
 5   0  0.1221315E-02  0.9865546E+03  0.7818609E-02  0.9323416E-01
        2   -1    0    0  501    0  0.00000000000E+00  0.00000000000E+00  0.21877350816E+04  0.21877350816E+04  0.25500000920E-02 0. -1.
       -2   -1    0    0    0  501  0.00000000000E+00  0.00000000000E+00 -0.11122119759E+03  0.11122119762E+03  0.25500000920E-02 0.  1.
    10030    2    1    2    0    0  0.00000000000E+00  0.00000000000E+00  0.20765138840E+04  0.22989562792E+04  0.98655464282E+03 0.  0.
        5    1    3    3  502    0 -0.35568289774E+03  0.66527789661E+02  0.18193872034E+04  0.18550278048E+04  0.46999998093E+01 0. -1.
       -5    1    3    3    0  502  0.35568289774E+03 -0.66527789661E+02  0.25712668058E+03  0.44392847443E+03  0.46999998093E+01 0.  1.
</event>
<event>
 5   0  0.7073004E-03  0.1013952E+04  0.7818609E-02  0.9293373E-01
       -1   -1    0    0    0  501  0.00000000000E+00  0.00000000000E+00  0.16442187522E+04  0.16442187522E+04  0.50400001928E-02 0. -1.
        1   -1    0    0  501    0  0.00000000000E+00  0.00000000000E+00 -0.15632028340E+03  0.15632028348E+03  0.50400001928E-02 0.  1.
    10030    2    1    2    0    0  0.00000000000E+00  0.00000000000E+00  0.14878984688E+04  0.18005390357E+04  0.10139521515E+04 0.  0.
        1    1    3    3  502    0 -0.23703163582E+03 -0.42251819060E+03  0.10092409259E+04  0.11194967013E+04  0.50400001928E-02 0. -1.
       -1    1    3    3    0  502  0.23703163582E+03  0.42251819060E+03  0.47865754288E+03  0.68104233433E+03  0.50400001928E-02 0.  1.
</event>
<event>
 5   0  0.1216322E-02  0.1007926E+04  0.7818609E-02  0.9299894E-01
        2   -1    0    0  501    0  0.00000000000E+00  0.00000000000E+00  0.98918090771E+03  0.98918090771E+03  0.25500000920E-02 0.  1.
       -2   -1    0    0    0  501  0.00000000000E+00  0.00000000000E+00 -0.25675651052E+03  0.25675651053E+03  0.25500000920E-02 0. -1.
    10030    2    1    2    0    0  0.00000000000E+00  0.00000000000E+00  0.73242439719E+03  0.12459374182E+04  0.10079258666E+04 0.  0.
        2    1    3    3  502    0  0.38491197797E+02  0.24142294655E+02  0.98664389351E+03  0.98768952374E+03  0.25500000920E-02 0.  1.
       -2    1    3    3    0  502 -0.38491197797E+02 -0.24142294655E+02 -0.25421949632E+03  0.25824789450E+03  0.25500000920E-02 0. -1.
</event>
<event>
 5   0  0.1221315E-02  0.9808139E+03  0.7818609E-02  0.9329842E-01
       -2   -1    0    0    0  501  0.00000000000E+00  0.00000000000E+00  0.20143139199E+03  0.20143139201E+03  0.25500000920E-02 0.  1.
        2   -1    0    0  501    0  0.00000000000E+00  0.00000000000E+00 -0.11939497573E+04  0.11939497573E+04  0.25500000920E-02 0. -1.
    10030    2    1    2    0    0  0.00000000000E+00  0.00000000000E+00 -0.99251836527E+03  0.13953811493E+04  0.98081386938E+03 0.  0.
        5    1    3    3  502    0  0.19440927147E+03  0.51606380531E+02  0.14001095474E+03  0.24511903392E+03  0.46999998093E+01 0.  1.
       -5    1    3    3    0  502 -0.19440927147E+03 -0.51606380531E+02 -0.11325293200E+04  0.11502621154E+04  0.46999998093E+01 0. -1.
</event>
<event>
 5   0  0.7461157E-03  0.9810993E+03  0.7818609E-02  0.9329521E-01
        1   -1    0    0  501    0  0.00000000000E+00  0.00000000000E+00  0.76711049058E+03  0.76711049059E+03  0.50400001928E-02 0.  1.
       -1   -1    0    0    0  501  0.00000000000E+00  0.00000000000E+00 -0.31369527886E+03  0.31369527891E+03  0.50400001928E-02 0. -1.
    10030    2    1    2    0    0  0.00000000000E+00  0.00000000000E+00  0.45341521171E+03  0.10808057695E+04  0.98109925959E+03 0.  0.
        2    1    3    3  502    0  0.22570665733E+03  0.35875989217E+03  0.49876001254E+03  0.65453319665E+03  0.25500000920E-02 0. -1.
       -2    1    3    3    0  502 -0.22570665733E+03 -0.35875989217E+03 -0.45344800832E+02  0.42627257285E+03  0.25500000920E-02 0.  1.
</event>
<event>
 5   0  0.1221315E-02  0.8625234E+03  0.7818609E-02  0.9473681E-01
        2   -1    0    0  501    0  0.00000000000E+00  0.00000000000E+00  0.11379605708E+04  0.11379605708E+04  0.25500000920E-02 0.  1.
       -2   -1    0    0    0  501  0.00000000000E+00  0.00000000000E+00 -0.16343855656E+03  0.16343855658E+03  0.25500000920E-02 0. -1.
    10030    2    1    2    0    0  0.00000000000E+00  0.00000000000E+00  0.97452201422E+03  0.13013991273E+04  0.86252335184E+03 0.  0.
        5    1    3    3  502    0 -0.19961919759E+03  0.18380639774E+02 -0.88824488226E+02  0.21931154022E+03  0.46999998093E+01 0. -1.
       -5    1    3    3    0  502  0.19961919759E+03 -0.18380639774E+02  0.10633465024E+04  0.10820875871E+04  0.46999998093E+01 0.  1.
</event>
<event>
 5   0  0.7241200E-03  0.9927137E+03  0.7818609E-02  0.9316573E-01
        1   -1    0    0  501    0  0.00000000000E+00  0.00000000000E+00  0.44494559091E+03  0.44494559094E+03  0.50400001928E-02 0.  1.
       -1   -1    0    0    0  501  0.00000000000E+00  0.00000000000E+00 -0.55370847495E+03  0.55370847498E+03  0.50400001928E-02 0. -1.
    10030    2    1    2    0    0  0.00000000000E+00  0.00000000000E+00 -0.10876288405E+03  0.99865406592E+03  0.99271374445E+03 0.  0.
        4    1    3    3  502    0  0.15787885899E+03 -0.26465863546E+03  0.33704663602E+03  0.45669680882E+03  0.12699999809E+01 0.  1.
       -4    1    3    3    0  502 -0.15787885899E+03  0.26465863546E+03 -0.44580952006E+03  0.54195725709E+03  0.12699999809E+01 0. -1.
</event>
<event>
 5   0  0.6967681E-03  0.1007534E+04  0.7818609E-02  0.9300320E-01
        1   -1    0    0  501    0  0.00000000000E+00  0.00000000000E+00  0.20892846365E+03  0.20892846371E+03  0.50400001928E-02 0. -1.
       -1   -1    0    0    0  501  0.00000000000E+00  0.00000000000E+00 -0.12146804884E+04  0.12146804884E+04  0.50400001928E-02 0.  1.
    10030    2    1    2    0    0  0.00000000000E+00  0.00000000000E+00 -0.10057520247E+04  0.14236089521E+04  0.10075342740E+04 0.  0.
        5    1    3    3  502    0  0.30265984606E+03  0.39748028032E+03 -0.41168039407E+03  0.64737654616E+03  0.46999998093E+01 0.  1.
       -5    1    3    3    0  502 -0.30265984606E+03 -0.39748028032E+03 -0.59407163067E+03  0.77623240594E+03  0.46999998093E+01 0. -1.
</event>
<event>
 5   0  0.6967681E-03  0.1005721E+04  0.7818609E-02  0.9302293E-01
       -1   -1    0    0    0  501  0.00000000000E+00  0.00000000000E+00  0.25277139068E+03  0.25277139073E+03  0.50400001928E-02 0.  1.
        1   -1    0    0  501    0  0.00000000000E+00  0.00000000000E+00 -0.10003843646E+04  0.10003843646E+04  0.50400001928E-02 0. -1.
    10030    2    1    2    0    0  0.00000000000E+00  0.00000000000E+00 -0.74761297389E+03  0.12531557553E+04  0.10057207308E+04 0.  0.
        5    1    3    3  502    0  0.30110183428E+03 -0.32724180623E+03 -0.81329701195E+02  0.45209083672E+03  0.46999998093E+01 0.  1.
       -5    1    3    3    0  502 -0.30110183428E+03  0.32724180623E+03 -0.66628327270E+03  0.80106491861E+03  0.46999998093E+01 0. -1.
</event>
<event>
 5   0  0.6967681E-03  0.1025719E+04  0.7818609E-02  0.9280778E-01
        1   -1    0    0  501    0  0.00000000000E+00  0.00000000000E+00  0.94487774176E+03  0.94487774177E+03  0.50400001928E-02 0.  1.
       -1   -1    0    0    0  501  0.00000000000E+00  0.00000000000E+00 -0.27836940518E+03  0.27836940522E+03  0.50400001928E-02 0. -1.
    10030    2    1    2    0    0  0.00000000000E+00  0.00000000000E+00  0.66650833658E+03  0.12232471470E+04  0.10257193670E+04 0.  0.
        5    1    3    3  502    0  0.16123073141E+03  0.47074099300E+03  0.48129942457E+03  0.69228870952E+03  0.46999998093E+01 0.  1.
       -5    1    3    3    0  502 -0.16123073141E+03 -0.47074099300E+03  0.18520891201E+03  0.53095843747E+03  0.46999998093E+01 0. -1.
</event>
<event>
 5   0  0.1245850E-02  0.1012682E+04  0.7818609E-02  0.9294744E-01
       -2   -1    0    0    0  501  0.00000000000E+00  0.00000000000E+00  0.21789753140E+03  0.21789753141E+03  0.25500000920E-02 0.  1.
        2   -1    0    0  501    0  0.00000000000E+00  0.00000000000E+00 -0.11766128100E+04  0.11766128100E+04  0.25500000920E-02 0. -1.
    10030    2    1    2    0    0  0.00000000000E+00  0.00000000000E+00 -0.95871527856E+03  0.13945103414E+04  0.10126816414E+04 0.  0.
        3    1    3    3  502    0  0.12797422402E+03  0.45233455343E+03 -0.73843677336E+03  0.87537010955E+03  0.10100000352E+00 0.  1.
       -3    1    3    3    0  502 -0.12797422402E+03 -0.45233455343E+03 -0.22027850520E+03  0.51914023182E+03  0.10100000352E+00 0. -1.
</event>
<event>
 5   0  0.6967681E-03  0.9947686E+03  0.7818609E-02  0.9314301E-01
       -1   -1    0    0    0  501  0.00000000000E+00  0.00000000000E+00  0.91811346802E+02  0.91811346940E+02  0.50400001928E-02 0. -1.
        1   -1    0    0  501    0  0.00000000000E+00  0.00000000000E+00 -0.26945596523E+04  0.26945596523E+04  0.50400001928E-02 0.  1.
    10030    2    1    2    0    0  0.00000000000E+00  0.00000000000E+00 -0.26027483055E+04  0.27863709992E+04  0.99476861815E+03 0.  0.
        5    1    3    3  502    0 -0.41636138445E+02 -0.26956544820E+03 -0.13643776729E+03  0.30501877521E+03  0.46999998093E+01 0. -1.
       -5    1    3    3    0  502  0.41636138445E+02  0.26956544820E+03 -0.24663105382E+04  0.24813522240E+04  0.46999998093E+01 0.  1.
</event>
<event>
 5   0  0.6967681E-03  0.9960855E+03  0.7818609E-02  0.9312849E-01
        1   -1    0    0  501    0  0.00000000000E+00  0.00000000000E+00  0.12948688342E+04  0.12948688342E+04  0.50400001928E-02 0.  1.
       -1   -1    0    0    0  501  0.00000000000E+00  0.00000000000E+00 -0.19156115178E+03  0.19156115185E+03  0.50400001928E-02 0. -1.
    10030    2    1    2    0    0  0.00000000000E+00  0.00000000000E+00  0.11033076825E+04  0.14864299861E+04  0.99608546891E+03 0.  0.
        5    1    3    3  502    0 -0.36814197995E+03  0.32119671227E+03  0.40752304475E+03  0.63623342208E+03  0.46999998093E+01 0. -1.
       -5    1    3    3    0  502  0.36814197995E+03 -0.32119671227E+03  0.69578463771E+03  0.85019656400E+03  0.46999998093E+01 0.  1.
</event>
<event>
 5   0  0.1245850E-02  0.7661575E+03  0.7818609E-02  0.9610337E-01
        2   -1    0    0  501    0  0.00000000000E+00  0.00000000000E+00  0.74550951788E+03  0.74550951788E+03  0.25500000920E-02 0. -1.
       -2   -1    0    0    0  501  0.00000000000E+00  0.00000000000E+00 -0.19684432794E+03  0.19684432796E+03  0.25500000920E-02 0.  1.
    10030    2    1    2    0    0  0.00000000000E+00  0.00000000000E+00  0.54866518994E+03  0.94235384584E+03  0.76615747736E+03 0.  0.
        3    1    3    3  502    0 -0.14910551840E+03 -0.10835862574E+03 -0.13871765187E+03  0.23068733067E+03  0.10100000352E+00 0.  1.
       -3    1    3    3    0  502  0.14910551840E+03  0.10835862574E+03  0.68738284181E+03  0.71166651517E+03  0.10100000352E+00 0. -1.
</event>
<event>
 5   0  0.1240503E-02  0.1015114E+04  0.7818609E-02  0.9292122E-01
       -2   -1    0    0    0  501  0.00000000000E+00  0.00000000000E+00  0.15472010667E+03  0.15472010669E+03  0.25500000920E-02 0. -1.
        2   -1    0    0  501    0  0.00000000000E+00  0.00000000000E+00 -0.16650333054E+04  0.16650333054E+04  0.25500000920E-02 0.  1.
    10030    2    1    2    0    0  0.00000000000E+00  0.00000000000E+00 -0.15103131988E+04  0.18197534121E+04  0.10151140441E+04 0.  0.
        1    1    3    3  502    0  0.31565270641E+03 -0.18840784880E+03 -0.13825360118E+04  0.14305733020E+04  0.50400001928E-02 0.  1.
       -1    1    3    3    0  502 -0.31565270641E+03  0.18840784880E+03 -0.12777718697E+03  0.38918011009E+03  0.50400001928E-02 0. -1.
</event>
<event>
 5   0  0.1191822E-02  0.1008460E+04  0.7818609E-02  0.9299315E-01
       -2   -1    0    0    0  501  0.00000000000E+00  0.00000000000E+00  0.36568543657E+03  0.36568543658E+03  0.25500000920E-02 0. -1.
        2   -1    0    0  501    0  0.00000000000E+00  0.00000000000E+00 -0.69526355377E+03  0.69526355377E+03  0.25500000920E-02 0.  1.
    10030    2    1    2    0    0  0.00000000000E+00  0.00000000000E+00 -0.32957811720E+03  0.10609489904E+04  0.10084597289E+04 0.  0.
        4    1    3    3  502    0 -0.13305124022E+03 -0.10670712295E+03  0.33441575868E+03  0.37539919441E+03  0.12699999809E+01 0. -1.
       -4    1    3    3    0  502  0.13305124022E+03  0.10670712295E+03 -0.66399387588E+03  0.68554979594E+03  0.12699999809E+01 0.  1.
</event>
<event>
 5   0  0.7461157E-03  0.1078920E+04  0.7818609E-02  0.9225985E-01
       -1   -1    0    0    0  501  0.00000000000E+00  0.00000000000E+00  0.18682935189E+03  0.18682935196E+03  0.50400001928E-02 0.  1.
        1   -1    0    0  501    0  0.00000000000E+00  0.00000000000E+00 -0.15576621521E+04  0.15576621521E+04  0.50400001928E-02 0. -1.
    10030    2    1    2    0    0  0.00000000000E+00  0.00000000000E+00 -0.13708328002E+04  0.17444915040E+04  0.10789198495E+04 0.  0.
        2    1    3    3  502    0 -0.91240353349E+02 -0.62968454078E+02 -0.15390457477E+04  0.15430332602E+04  0.25500000920E-02 0. -1.
       -2    1    3    3    0  502  0.91240353349E+02  0.62968454078E+02  0.16821294757E+03  0.20145824388E+03  0.25500000920E-02 0.  1.
</event>
<event>
 5   0  0.1221315E-02  0.9906557E+03  0.7818609E-02  0.9318853E-01
       -2   -1    0    0    0  501  0.00000000000E+00  0.00000000000E+00  0.37233016575E+03  0.37233016576E+03  0.25500000920E-02 0. -1.
        2   -1    0    0  501    0  0.00000000000E+00  0.00000000000E+00 -0.65895732225E+03  0.65895732226E+03  0.25500000920E-02 0.  1.
    10030    2    1    2    0    0  0.00000000000E+00  0.00000000000E+00 -0.28662715650E+03  0.10312874880E+04  0.99065572027E+03 0.  0.
        5    1    3    3  502    0  0.15913219095E+03  0.70822024771E+02 -0.62599979820E+03  0.64979739206E+03  0.46999998093E+01 0.  1.
       -5    1    3    3    0  502 -0.15913219095E+03 -0.70822024771E+02  0.33937264169E+03  0.38149009596E+03  0.46999998093E+01 0. -1.
</event>
<event>
 5   0  0.7241200E-03  0.1024774E+04  0.7818609E-02  0.9281783E-01
       -1   -1    0    0    0  501  0.00000000000E+00  0.00000000000E+00  0.58417205202E+03  0.58417205204E+03  0.50400001928E-02 0. -1.
        1   -1    0    0  501    0  0.00000000000E+00  0.00000000000E+00 -0.44942315746E+03  0.44942315749E+03  0.50400001928E-02 0.  1.
    10030    2    1    2    0    0  0.00000000000E+00  0.00000000000E+00  0.13474889456E+03  0.10335952095E+04  0.10247740202E+04 0.  0.
        4    1    3    3  502    0 -0.42355399722E+03 -0.13596229217E+03 -0.18908799924E+03  0.48336282213E+03  0.12699999809E+01 0.  1.
       -4    1    3    3    0  502  0.42355399722E+03  0.13596229217E+03  0.32383689380E+03  0.55023238740E+03  0.12699999809E+01 0. -1.
</event>
<event>
 5   0  0.1240503E-02  0.1030139E+04  0.7818609E-02  0.9276093E-01
       -2   -1    0    0    0  501  0.00000000000E+00  0.00000000000E+00  0.18062409173E+03  0.18062409175E+03  0.25500000920E-02 0. -1.
        2   -1    0    0  501    0  0.00000000000E+00  0.00000000000E+00 -0.14687781818E+04  0.14687781818E+04  0.25500000920E-02 0.  1.
    10030    2    1    2    0    0  0.00000000000E+00  0.00000000000E+00 -0.12881540901E+04  0.16494022735E+04  0.10301392625E+04 0.  0.
        1    1    3    3  502    0  0.26957872233E+02  0.40305167804E+02  0.17696143748E+03  0.18348456013E+03  0.50400001928E-02 0. -1.
       -1    1    3    3    0  502 -0.26957872233E+02 -0.40305167804E+02 -0.14651155275E+04  0.14659177134E+04  0.50400001928E-02 0.  1.
</event>
<event>
 5   0  0.1221315E-02  0.1043282E+04  0.7818609E-02  0.9262308E-01
        2   -1    0    0  501    0  0.00000000000E+00  0.00000000000E+00  0.85539811370E+03  0.85539811370E+03  0.25500000920E-02 0.  1.
       -2   -1    0    0    0  501  0.00000000000E+00  0.00000000000E+00 -0.31810825251E+03  0.31810825252E+03  0.25500000920E-02 0. -1.
    10030    2    1    2    0    0  0.00000000000E+00  0.00000000000E+00  0.53728986119E+03  0.11735063662E+04  0.10432817436E+04 0.  0.
        5    1    3    3  502    0 -0.35703056417E+03 -0.86433196530E+02  0.68520224292E+03  0.77747393841E+03  0.46999998093E+01 0.  1.
       -5    1    3    3    0  502  0.35703056417E+03  0.86433196530E+02 -0.14791238172E+03  0.39603242781E+03  0.46999998093E+01 0. -1.
</event>
<event>
 5   0  0.1216322E-02  0.9918584E+03  0.7818609E-02  0.9317520E-01
       -2   -1    0    0    0  501  0.00000000000E+00  0.00000000000E+00  0.28812214473E+03  0.28812214474E+03  0.25500000920E-02 0.  1.
        2   -1    0    0  501    0  0.00000000000E+00  0.00000000000E+00 -0.85361642269E+03  0.85361642269E+03  0.25500000920E-02 0. -1.
    10030    2    1    2    0    0  0.00000000000E+00  0.00000000000E+00 -0.56549427796E+03  0.11417385674E+04  0.99185844654E+03 0.  0.
        2    1    3    3  502    0 -0.17815935791E+03 -0.37743691889E+03  0.25583769684E+02  0.41815537045E+03  0.25500000920E-02 0.  1.
       -2    1    3    3    0  502  0.17815935791E+03  0.37743691889E+03 -0.59107804764E+03  0.72358319699E+03  0.25500000920E-02 0. -1.
</event>
<event>
 5   0  0.7073004E-03  0.9781530E+03  0.7818609E-02  0.9332836E-01
       -1   -1    0    0    0  501  0.00000000000E+00  0.00000000000E+00  0.45002847623E+03  0.45002847626E+03  0.50400001928E-02 0. -1.
        1   -1    0    0  501    0  0.00000000000E+00  0.00000000000E+00 -0.53151261364E+03  0.53151261367E+03  0.50400001928E-02 0.  1.
    10030    2    1    2    0    0  0.00000000000E+00  0.00000000000E+00 -0.81484137411E+02  0.98154108993E+03  0.97815297708E+03 0.  0.
        1    1    3    3  502    0  0.20356329182E+03 -0.18581182412E+03  0.36467687778E+03  0.45711406998E+03  0.50400001928E-02 0. -1.
       -1    1    3    3    0  502 -0.20356329182E+03  0.18581182412E+03 -0.44616101519E+03  0.52442701995E+03  0.50400001928E-02 0.  1.
</event>
<event>
 5   0  0.7241200E-03  0.1023208E+04  0.7818609E-02  0.9283450E-01
        1   -1    0    0  501    0  0.00000000000E+00  0.00000000000E+00  0.31085581404E+03  0.31085581408E+03  0.50400001928E-02 0.  1.
       -1   -1    0    0    0  501  0.00000000000E+00  0.00000000000E+00 -0.84199456300E+03  0.84199456302E+03  0.50400001928E-02 0. -1.
    10030    2    1    2    0    0  0.00000000000E+00  0.00000000000E+00 -0.53113874896E+03  0.11528503771E+04  0.10232084936E+04 0.  0.
        4    1    3    3  502    0 -0.42712135982E+03  0.84965575076E+02  0.36935745274E+02  0.43705567968E+03  0.12699999809E+01 0.  1.
       -4    1    3    3    0  502  0.42712135982E+03 -0.84965575076E+02 -0.56807449423E+03  0.71579469742E+03  0.12699999809E+01 0. -1.
</event>
<event>
 5   0  0.1216322E-02  0.9955893E+03  0.7818609E-02  0.9313396E-01
       -2   -1    0    0    0  501  0.00000000000E+00  0.00000000000E+00  0.22821069080E+03  0.22821069081E+03  0.25500000920E-02 0. -1.
        2   -1    0    0  501    0  0.00000000000E+00  0.00000000000E+00 -0.10858364833E+04  0.10858364833E+04  0.25500000920E-02 0.  1.
    10030    2    1    2    0    0  0.00000000000E+00  0.00000000000E+00 -0.85762579251E+03  0.13140471741E+04  0.99558926062E+03 0.  0.
        2    1    3    3  502    0  0.19836406804E+02 -0.47846019476E+03 -0.24937940445E+03  0.53991455655E+03  0.25500000920E-02 0.  1.
       -2    1    3    3    0  502 -0.19836406804E+02  0.47846019476E+03 -0.60824638806E+03  0.77413261758E+03  0.25500000920E-02 0. -1.
</event>
<event>
 5   0  0.1221315E-02  0.9047556E+03  0.7818609E-02  0.9419656E-01
        2   -1    0    0  501    0  0.00000000000E+00  0.00000000000E+00  0.27189628245E+03  0.27189628246E+03  0.25500000920E-02 0.  1.
       -2   -1    0    0    0  501  0.00000000000E+00  0.00000000000E+00 -0.75266088076E+03  0.75266088076E+03  0.25500000920E-02 0. -1.
    10030    2    1    2    0    0  0.00000000000E+00  0.00000000000E+00 -0.48076459831E+03  0.10245571632E+04  0.90475564752E+03 0.  0.
        5    1    3    3  502    0 -0.49411681089E+02 -0.40332969709E+03 -0.46546559886E+03  0.61789697564E+03  0.46999998093E+01 0. -1.
       -5    1    3    3    0  502  0.49411681089E+02  0.40332969709E+03 -0.15298999452E+02  0.40666018758E+03  0.46999998093E+01 0.  1.
</event>
<event>
 5   0  0.7241200E-03  0.1022798E+04  0.7818609E-02  0.9283888E-01
        1   -1    0    0  501    0  0.00000000000E+00  0.00000000000E+00  0.15173328685E+04  0.15173328685E+04  0.50400001928E-02 0. -1.
       -1   -1    0    0    0  501  0.00000000000E+00  0.00000000000E+00 -0.17236103144E+03  0.17236103151E+03  0.50400001928E-02 0.  1.
    10030    2    1    2    0    0  0.00000000000E+00  0.00000000000E+00  0.13449718371E+04  0.16896939000E+04  0.10227982368E+04 0.  0.
        4    1    3    3  502    0 -0.34944330143E+03 -0.36617298782E+03  0.79314260384E+03  0.94088792151E+03  0.12699999809E+01 0. -1.
       -4    1    3    3    0  502  0.34944330143E+03  0.36617298782E+03  0.55182923322E+03  0.74880597851E+03  0.12699999809E+01 0.  1.
</event>
<event>
 5   0  0.7461157E-03  0.9916474E+03  0.7818609E-02  0.9317753E-01
       -1   -1    0    0    0  501  0.00000000000E+00  0.00000000000E+00  0.50268569356E+03  0.50268569358E+03  0.50400001928E-02 0. -1.
        1   -1    0    0  501    0  0.00000000000E+00  0.00000000000E+00 -0.48905542018E+03  0.48905542021E+03  0.50400001928E-02 0.  1.
    10030    2    1    2    0    0  0.00000000000E+00  0.00000000000E+00  0.13630273378E+02  0.99174111379E+03  0.99164744361E+03 0.  0.
        2    1    3    3  502    0  0.12941513085E+03  0.45896655064E+03  0.14263147114E+03  0.49773718695E+03  0.25500000920E-02 0.  1.
       -2    1    3    3    0  502 -0.12941513085E+03 -0.45896655064E+03 -0.12900119776E+03  0.49400392684E+03  0.25500000920E-02 0. -1.
</event>
<event>
 5   0  0.4782125E-03  0.1025975E+04  0.7818609E-02  0.9280506E-01
        3   -1    0    0  501    0  0.00000000000E+00  0.00000000000E+00  0.19408612863E+03  0.19408615491E+03  0.10100000352E+00 0.  1.
       -3   -1    0    0    0  501  0.00000000000E+00  0.00000000000E+00 -0.13558736721E+04  0.13558736759E+04  0.10100000352E+00 0. -1.
    10030    2    1    2    0    0  0.00000000000E+00  0.00000000000E+00 -0.11617875435E+04  0.15499598308E+04  0.10259752340E+04 0.  0.
        3    1    3    3  502    0  0.27263287849E+03  0.13561975314E+03 -0.12045751922E+04  0.12424664211E+04  0.10100000352E+00 0. -1.
       -3    1    3    3    0  502 -0.27263287849E+03 -0.13561975314E+03  0.42787648708E+02  0.30749340962E+03  0.10100000352E+00 0.  1.
</event>
<event>
 5   0  0.1191822E-02  0.9980532E+03  0.7818609E-02  0.9310683E-01
        2   -1    0    0  501    0  0.00000000000E+00  0.00000000000E+00  0.10578952867E+04  0.10578952867E+04  0.25500000920E-02 0. -1.
       -2   -1    0    0    0  501  0.00000000000E+00  0.00000000000E+00 -0.23539905448E+03  0.23539905450E+03  0.25500000920E-02 0.  1.
    10030    2    1    2    0    0  0.00000000000E+00  0.00000000000E+00  0.82249623218E+03  0.12932943412E+04  0.99805320546E+03 0.  0.
        4    1    3    3  502    0 -0.19565441761E+03 -0.21064972293E+03 -0.11729908414E+03  0.31050707711E+03  0.12699999809E+01 0.  1.
       -4    1    3    3    0  502  0.19565441761E+03  0.21064972293E+03  0.93979531632E+03  0.98278726405E+03  0.12699999809E+01 0. -1.
</event>
<event>
 5   0  0.6967681E-03  0.9950251E+03  0.7818609E-02  0.9314018E-01
       -1   -1    0    0    0  501  0.00000000000E+00  0.00000000000E+00  0.17121525392E+04  0.17121525393E+04  0.50400001928E-02 0.  1.
        1   -1    0    0  501    0  0.00000000000E+00  0.00000000000E+00 -0.14456582368E+03  0.14456582377E+03  0.50400001928E-02 0. -1.
    10030    2    1    2    0    0  0.00000000000E+00  0.00000000000E+00  0.15675867156E+04  0.18567183630E+04  0.99502510961E+03 0.  0.
        5    1    3    3  502    0  0.28380882052E+03 -0.16855801917E+03  0.89256163579E+02  0.34197661494E+03  0.46999998093E+01 0. -1.
       -5    1    3    3    0  502 -0.28380882052E+03  0.16855801917E+03  0.14783305520E+04  0.15147417481E+04  0.46999998093E+01 0.  1.
</event>
<event>
 5   0  0.1191822E-02  0.1008066E+04  0.7818609E-02  0.9299742E-01
        2   -1    0    0  501    0  0.00000000000E+00  0.00000000000E+00  0.19275735001E+04  0.19275735001E+04  0.25500000920E-02 0.  1.
       -2   -1    0    0    0  501  0.00000000000E+00  0.00000000000E+00 -0.13179745765E+03  0.13179745767E+03  0.25500000920E-02 0. -1.
    10030    2    1    2    0    0  0.00000000000E+00  0.00000000000E+00  0.17957760425E+04  0.20593709578E+04  0.10080660430E+04 0.  0.
        4    1    3    3  502    0  0.18733793516E+03  0.16869421994E+03  0.62537736908E+01  0.25217843757E+03  0.12699999809E+01 0. -1.
       -4    1    3    3    0  502 -0.18733793516E+03 -0.16869421994E+03  0.17895222688E+04  0.18071925202E+04  0.12699999809E+01 0.  1.
</event>
<event>
 5   0  0.1191822E-02  0.1005852E+04  0.7818609E-02  0.9302149E-01
        2   -1    0    0  501    0  0.00000000000E+00  0.00000000000E+00  0.14370134960E+04  0.14370134960E+04  0.25500000920E-02 0.  1.
       -2   -1    0    0    0  501  0.00000000000E+00  0.00000000000E+00 -0.17601409817E+03  0.17601409819E+03  0.25500000920E-02 0. -1.
    10030    2    1    2    0    0  0.00000000000E+00  0.00000000000E+00  0.12609993978E+04  0.16130275942E+04  0.10058521453E+04 0.  0.
        4    1    3    3  502    0 -0.12849057425E+01  0.33463240709E+03  0.12325656640E+04  0.12771844924E+04  0.12699999809E+01 0.  1.
       -4    1    3    3    0  502  0.12849057425E+01 -0.33463240709E+03  0.28433733846E+02  0.33584310173E+03  0.12699999809E+01 0. -1.
</event>
<event>
 5   0  0.1245850E-02  0.1001186E+04  0.7818609E-02  0.9307245E-01
       -2   -1    0    0    0  501  0.00000000000E+00  0.00000000000E+00  0.13583203392E+03  0.13583203395E+03  0.25500000920E-02 0.  1.
        2   -1    0    0  501    0  0.00000000000E+00  0.00000000000E+00 -0.18448779271E+04  0.18448779271E+04  0.25500000920E-02 0. -1.
    10030    2    1    2    0    0  0.00000000000E+00  0.00000000000E+00 -0.17090458932E+04  0.19807099611E+04  0.10011863387E+04 0.  0.
        3    1    3    3  502    0 -0.13935680326E+03 -0.14945248672E+01  0.96678731548E+02  0.16961526922E+03  0.10100000352E+00 0.  1.
       -3    1    3    3    0  502  0.13935680326E+03  0.14945248672E+01 -0.18057246248E+04  0.18110946919E+04  0.10100000352E+00 0. -1.
</event>
<event>
 5   0  0.7461157E-03  0.9867981E+03  0.7818609E-02  0.9323144E-01
       -1   -1    0    0    0  501  0.00000000000E+00  0.00000000000E+00  0.36594537768E+03  0.36594537771E+03  0.50400001928E-02 0.  1.
        1   -1    0    0  501    0  0.00000000000E+00  0.00000000000E+00 -0.66524311505E+03  0.66524311506E+03  0.50400001928E-02 0. -1.
    10030    2    1    2    0    0  0.00000000000E+00  0.00000000000E+00 -0.29929773737E+03  0.10311884928E+04  0.98679814149E+03 0.  0.
        2    1    3    3  502    0 -0.64128022371E+02 -0.35690712170E+02  0.36020964742E+03  0.36761014715E+03  0.25500000920E-02 0.  1.
       -2    1    3    3    0  502  0.64128022371E+02  0.35690712170E+02 -0.65950738479E+03  0.66357834563E+03  0.25500000920E-02 0. -1.
</event>
<event>
 5   0  0.7241200E-03  0.1000541E+04  0.7818609E-02  0.9307952E-01
       -1   -1    0    0    0  501  0.00000000000E+00  0.00000000000E+00  0.22457619232E+03  0.22457619238E+03  0.50400001928E-02 0.  1.
        1   -1    0    0  501    0  0.00000000000E+00  0.00000000000E+00 -0.11144123069E+04  0.11144123069E+04  0.50400001928E-02 0. -1.
    10030    2    1    2    0    0  0.00000000000E+00  0.00000000000E+00 -0.88983611456E+03  0.13389884993E+04  0.10005407990E+04 0.  0.
        4    1    3    3  502    0  0.27913357452E+03  0.14227246774E+03  0.77025536587E+02  0.32263222667E+03  0.12699999809E+01 0.  1.
       -4    1    3    3    0  502 -0.27913357452E+03 -0.14227246774E+03 -0.96686165114E+03  0.10163562726E+04  0.12699999809E+01 0. -1.
</event>
<event>
 5   0  0.6967681E-03  0.1002027E+04  0.7818609E-02  0.9306325E-01
        1   -1    0    0  501    0  0.00000000000E+00  0.00000000000E+00  0.62937995055E+03  0.62937995057E+03  0.50400001928E-02 0.  1.
       -1   -1    0    0    0  501  0.00000000000E+00  0.00000000000E+00 -0.39882803603E+03  0.39882803606E+03  0.50400001928E-02 0. -1.
    10030    2    1    2    0    0  0.00000000000E+00  0.00000000000E+00  0.23055191452E+03  0.10282079866E+04  0.10020266855E+04 0.  0.
        5    1    3    3  502    0  0.18066120277E+03 -0.23950563086E+03  0.52699627427E+03  0.60642277373E+03  0.46999998093E+01 0.  1.
       -5    1    3    3    0  502 -0.18066120277E+03  0.23950563086E+03 -0.29644435974E+03  0.42178521291E+03  0.46999998093E+01 0. -1.
</event>
<event>
 5   0  0.1240503E-02  0.9960372E+03  0.7818609E-02  0.9312902E-01
        2   -1    0    0  501    0  0.00000000000E+00  0.00000000000E+00  0.15788185938E+04  0.15788185938E+04  0.25500000920E-02 0.  1.
       -2   -1    0    0    0  501  0.00000000000E+00  0.00000000000E+00 -0.15709374274E+03  0.15709374276E+03  0.25500000920E-02 0. -1.
    10030    2    1    2    0    0  0.00000000000E+00  0.00000000000E+00  0.14217248511E+04  0.17359123366E+04  0.99603719214E+03 0.  0.
        1    1    3    3  502    0  0.10049286947E+03 -0.14900131504E+03  0.15203305817E+04  0.15309164858E+04  0.50400001928E-02 0.  1.
       -1    1    3    3    0  502 -0.10049286947E+03  0.14900131504E+03 -0.98605730656E+02  0.20499585079E+03  0.50400001928E-02 0. -1.
</event>
<event>
 5   0  0.1221315E-02  0.1002408E+04  0.7818609E-02  0.9305908E-01
       -2   -1    0    0    0  501  0.00000000000E+00  0.00000000000E+00  0.22502738241E+03  0.22502738243E+03  0.25500000920E-02 0. -1.
        2   -1    0    0  501    0  0.00000000000E+00  0.00000000000E+00 -0.11163330465E+04  0.11163330465E+04  0.25500000920E-02 0.  1.
    10030    2    1    2    0    0  0.00000000000E+00  0.00000000000E+00 -0.89130566409E+03  0.13413604289E+04  0.10024081072E+04 0.  0.
        5    1    3    3  502    0 -0.78248021145E+02  0.33964959864E+03  0.36260472766E+02  0.35045900553E+03  0.46999998093E+01 0. -1.
       -5    1    3    3    0  502  0.78248021145E+02 -0.33964959864E+03 -0.92756613686E+03  0.99090142341E+03  0.46999998093E+01 0.  1.
</event>
<event>
 5   0  0.1191822E-02  0.9263499E+03  0.7818609E-02  0.9393229E-01
        2   -1    0    0  501    0  0.00000000000E+00  0.00000000000E+00  0.50777514363E+03  0.50777514363E+03  0.25500000920E-02 0.  1.
       -2   -1    0    0    0  501  0.00000000000E+00  0.00000000000E+00 -0.42249218103E+03  0.42249218104E+03  0.25500000920E-02 0. -1.
    10030    2    1    2    0    0  0.00000000000E+00  0.00000000000E+00  0.85282962597E+02  0.93026732467E+03  0.92634988619E+03 0.  0.
        4    1    3    3  502    0 -0.35054240352E+03 -0.53224592682E+02 -0.25663992779E+03  0.43769681215E+03  0.12699999809E+01 0.  1.
       -4    1    3    3    0  502  0.35054240352E+03  0.53224592682E+02  0.34192289038E+03  0.49257051252E+03  0.12699999809E+01 0. -1.
</event>
<event>
 5   0  0.6967681E-03  0.9872581E+03  0.7818609E-02  0.9322631E-01
       -1   -1    0    0    0  501  0.00000000000E+00  0.00000000000E+00  0.29312733199E+03  0.29312733204E+03  0.50400001928E-02 0.  1.
        1   -1    0    0  501    0  0.00000000000E+00  0.00000000000E+00 -0.83127577145E+03  0.83127577147E+03  0.50400001928E-02 0. -1.
    10030    2    1    2    0    0  0.00000000000E+00  0.00000000000E+00 -0.53814843946E+03  0.11244031035E+04  0.98725812039E+03 0.  0.
        5    1    3    3  502    0  0.29637429761E+03 -0.19660269742E+03 -0.65890474148E+03  0.74877759933E+03  0.46999998093E+01 0. -1.
       -5    1    3    3    0  502 -0.29637429761E+03  0.19660269742E+03  0.12075630202E+03  0.37562550418E+03  0.46999998093E+01 0.  1.
</event>
<event>
 5   0  0.7073004E-03  0.1008791E+04  0.7818609E-02  0.9298955E-01
       -1   -1    0    0    0  501  0.00000000000E+00  0.00000000000E+00  0.26545398456E+03  0.26545398461E+03  0.50400001928E-02 0.  1.
        1   -1    0    0  501    0  0.00000000000E+00  0.00000000000E+00 -0.95841424789E+03  0.95841424791E+03  0.50400001928E-02 0. -1.
    10030    2    1    2    0    0  0.00000000000E+00  0.00000000000E+00 -0.69296026334E+03  0.12238682325E+04  0.10087911201E+04 0.  0.
        1    1    3    3  502    0  0.89230008684E+02  0.33275797071E+03 -0.79343468675E+03  0.86500200213E+03  0.50400001928E-02 0. -1.
       -1    1    3    3    0  502 -0.89230008684E+02 -0.33275797071E+03  0.10047442342E+03  0.35886623038E+03  0.50400001928E-02 0.  1.
</event>
<event>
 5   0  0.7461157E-03  0.9150891E+03  0.7818609E-02  0.9406913E-01
       -1   -1    0    0    0  501  0.00000000000E+00  0.00000000000E+00  0.17423061145E+03  0.17423061152E+03  0.50400001928E-02 0. -1.
        1   -1    0    0  501    0  0.00000000000E+00  0.00000000000E+00 -0.12015512829E+04  0.12015512829E+04  0.50400001928E-02 0.  1.
    10030    2    1    2    0    0  0.00000000000E+00  0.00000000000E+00 -0.10273206715E+04  0.13757818944E+04  0.91508909897E+03 0.  0.
        2    1    3    3  502    0  0.17869547545E+03 -0.39546404684E+03 -0.29567117949E+03  0.52511458909E+03  0.25500000920E-02 0. -1.
       -2    1    3    3    0  502 -0.17869547545E+03  0.39546404684E+03 -0.73164949198E+03  0.85066730536E+03  0.25500000920E-02 0.  1.
</event>
<event>
 5   0  0.7461157E-03  0.1011450E+04  0.7818609E-02  0.9296075E-01
        1   -1    0    0  501    0  0.00000000000E+00  0.00000000000E+00  0.43799243119E+03  0.43799243122E+03  0.50400001928E-02 0. -1.
       -1   -1    0    0    0  501  0.00000000000E+00  0.00000000000E+00 -0.58393224812E+03  0.58393224815E+03  0.50400001928E-02 0.  1.
    10030    2    1    2    0    0  0.00000000000E+00  0.00000000000E+00 -0.14593981693E+03  0.10219246794E+04  0.10114502559E+04 0.  0.
        2    1    3    3  502    0 -0.26468810253E+03 -0.35425850518E+03  0.17492584499E+03  0.47556064951E+03  0.25500000920E-02 0. -1.
       -2    1    3    3    0  502  0.26468810253E+03  0.35425850518E+03 -0.32086566192E+03  0.54636402985E+03  0.25500000920E-02 0.  1.
</event>
<event>
 5   0  0.7224879E-03  0.9834514E+03  0.7818609E-02  0.9326884E-01
       -1   -1    0    0    0  501  0.00000000000E+00  0.00000000000E+00  0.13960242585E+03  0.13960242594E+03  0.50400001928E-02 0. -1.
        1   -1    0    0  501    0  0.00000000000E+00  0.00000000000E+00 -0.17320197119E+04  0.17320197119E+04  0.50400001928E-02 0.  1.
    10030    2    1    2    0    0  0.00000000000E+00  0.00000000000E+00 -0.15924172861E+04  0.18716221379E+04  0.98345137854E+03 0.  0.
        3    1    3    3  502    0 -0.40979950330E+03  0.15201128389E+03 -0.12249426414E+04  0.13005873858E+04  0.10100000352E+00 0.  1.
       -3    1    3    3    0  502  0.40979950330E+03 -0.15201128389E+03 -0.36747464472E+03  0.57103475205E+03  0.10100000352E+00 0. -1.
</event>
<event>
 5   0  0.1240503E-02  0.9814296E+03  0.7818609E-02  0.9329150E-01
       -2   -1    0    0    0  501  0.00000000000E+00  0.00000000000E+00  0.15048137356E+03  0.15048137358E+03  0.25500000920E-02 0.  1.
        2   -1    0    0  501    0  0.00000000000E+00  0.00000000000E+00 -0.16002049477E+04  0.16002049477E+04  0.25500000920E-02 0. -1.
    10030    2    1    2    0    0  0.00000000000E+00  0.00000000000E+00 -0.14497235741E+04  0.17506863212E+04  0.98142964805E+03 0.  0.
        1    1    3    3  502    0 -0.34621717521E+03  0.34772425185E+03 -0.71639088342E+03  0.86832850097E+03  0.50400001928E-02 0.  1.
       -1    1    3    3    0  502  0.34621717521E+03 -0.34772425185E+03 -0.73333269068E+03  0.88235782026E+03  0.50400001928E-02 0. -1.
</event>
<event>
 5   0  0.7461157E-03  0.1341307E+04  0.7818609E-02  0.8997435E-01
       -1   -1    0    0    0  501  0.00000000000E+00  0.00000000000E+00  0.31238663547E+03  0.31238663551E+03  0.50400001928E-02 0. -1.
        1   -1    0    0  501    0  0.00000000000E+00  0.00000000000E+00 -0.14398053747E+04  0.14398053748E+04  0.50400001928E-02 0.  1.
    10030    2    1    2    0    0  0.00000000000E+00  0.00000000000E+00 -0.11274187393E+04  0.17521920103E+04  0.13413067610E+04 0.  0.
        2    1    3    3  502    0  0.31952442573E+03  0.33543719191E+03  0.69776808906E+02  0.46848988401E+03  0.25500000920E-02 0. -1.
       -2    1    3    3    0  502 -0.31952442573E+03 -0.33543719191E+03 -0.11971955482E+04  0.12837021263E+04  0.25500000920E-02 0.  1.
</event>
<event>
 5   0  0.7073004E-03  0.1015938E+04  0.7818609E-02  0.9291235E-01
        1   -1    0    0  501    0  0.00000000000E+00  0.00000000000E+00  0.30592675441E+03  0.30592675446E+03  0.50400001928E-02 0.  1.
       -1   -1    0    0    0  501  0.00000000000E+00  0.00000000000E+00 -0.84344468936E+03  0.84344468937E+03  0.50400001928E-02 0. -1.
    10030    2    1    2    0    0  0.00000000000E+00  0.00000000000E+00 -0.53751793494E+03  0.11493714438E+04  0.10159375894E+04 0.  0.
        1    1    3    3  502    0 -0.46822973730E+03  0.15273545532E+03 -0.12806690331E+03  0.50888931798E+03  0.50400001928E-02 0.  1.
       -1    1    3    3    0  502  0.46822973730E+03 -0.15273545532E+03 -0.40945103163E+03  0.64048212585E+03  0.50400001928E-02 0. -1.
</event>
<event>
 5   0  0.1191822E-02  0.9995014E+03  0.7818609E-02  0.9309092E-01
       -2   -1    0    0    0  501  0.00000000000E+00  0.00000000000E+00  0.66191204758E+03  0.66191204759E+03  0.25500000920E-02 0. -1.
        2   -1    0    0  501    0  0.00000000000E+00  0.00000000000E+00 -0.37731716970E+03  0.37731716971E+03  0.25500000920E-02 0.  1.
    10030    2    1    2    0    0  0.00000000000E+00  0.00000000000E+00  0.28459487789E+03  0.10392292173E+04  0.99950143650E+03 0.  0.
        4    1    3    3  502    0  0.49844793019E+03 -0.34851632817E+02  0.13275710618E+03  0.51700197056E+03  0.12699999809E+01 0. -1.
       -4    1    3    3    0  502 -0.49844793019E+03  0.34851632817E+02  0.15183777171E+03  0.52222724674E+03  0.12699999809E+01 0.  1.
</event>
<event>
 5   0  0.6967681E-03  0.9555323E+03  0.7818609E-02  0.9358707E-01
        1   -1    0    0  501    0  0.00000000000E+00  0.00000000000E+00  0.10366064861E+04  0.10366064861E+04  0.50400001928E-02 0.  1.
       -1   -1    0    0    0  501  0.00000000000E+00  0.00000000000E+00 -0.22019977516E+03  0.22019977522E+03  0.50400001928E-02 0. -1.
    10030    2    1    2    0    0  0.00000000000E+00  0.00000000000E+00  0.81640671090E+03  0.12568062613E+04  0.95553234420E+03 0.  0.
        5    1    3    3  502    0 -0.22152921466E+03 -0.41451802603E+03  0.29553215227E+03  0.55521322920E+03  0.46999998093E+01 0.  1.
       -5    1    3    3    0  502  0.22152921466E+03  0.41451802603E+03  0.52087455863E+03  0.70159303209E+03  0.46999998093E+01 0. -1.
</event>
<event>
 5   0  0.6967681E-03  0.9977583E+03  0.7818609E-02  0.9311007E-01
       -1   -1    0    0    0  501  0.00000000000E+00  0.00000000000E+00  0.31995769064E+03  0.31995769068E+03  0.50400001928E-02 0. -1.
        1   -1    0    0  501    0  0.00000000000E+00  0.00000000000E+00 -0.77785411384E+03  0.77785411386E+03  0.50400001928E-02 0.  1.
    10030    2    1    2    0    0  0.00000000000E+00  0.00000000000E+00 -0.45789642321E+03  0.10978118045E+04  0.99775829928E+03 0.  0.
        5    1    3    3  502    0  0.31273384878E+03  0.24542182771E+03  0.10264285175E+03  0.41059953568E+03  0.46999998093E+01 0. -1.
       -5    1    3    3    0  502 -0.31273384878E+03 -0.24542182771E+03 -0.56053927496E+03  0.68721226885E+03  0.46999998093E+01 0.  1.
</event>
<event>
 5   0  0.4782125E-03  0.1001720E+04  0.7818609E-02  0.9306661E-01
       -3   -1    0    0    0  501  0.00000000000E+00  0.00000000000E+00  0.10326674425E+04  0.10326674474E+04  0.10100000352E+00 0. -1.
        3   -1    0    0  501    0  0.00000000000E+00  0.00000000000E+00 -0.24292484088E+03  0.24292486187E+03  0.10100000352E+00 0.  1.
    10030    2    1    2    0    0  0.00000000000E+00  0.00000000000E+00  0.78974260160E+03  0.12755923093E+04  0.10017197027E+04 0.  0.
        5    1    3    3  502    0 -0.75517793796E+02  0.32942315355E+03 -0.75798548341E+02  0.34639581580E+03  0.46999998093E+01 0.  1.
       -5    1    3    3    0  502  0.75517793796E+02 -0.32942315355E+03  0.86554114994E+03  0.92919649349E+03  0.46999998093E+01 0. -1.
</event>
<event>
 5   0  0.7461157E-03  0.1005833E+04  0.7818609E-02  0.9302170E-01
       -1   -1    0    0    0  501  0.00000000000E+00  0.00000000000E+00  0.89870605058E+03  0.89870605059E+03  0.50400001928E-02 0. -1.
        1   -1    0    0  501    0  0.00000000000E+00  0.00000000000E+00 -0.28143267136E+03  0.28143267140E+03  0.50400001928E-02 0.  1.
    10030    2    1    2    0    0  0.00000000000E+00  0.00000000000E+00  0.61727337922E+03  0.11801387220E+04  0.10058334745E+04 0.  0.
        2    1    3    3  502    0  0.19408317536E+03  0.22315033775E+02  0.85236590246E+03  0.87446776463E+03  0.25500000920E-02 0. -1.
       -2    1    3    3    0  502 -0.19408317536E+03 -0.22315033775E+02 -0.23509252324E+03  0.30567095737E+03  0.25500000920E-02 0.  1.
</event>
<event>
 5   0  0.1240503E-02  0.1241109E+04  0.7818609E-02  0.9077616E-01
       -2   -1    0    0    0  501  0.00000000000E+00  0.00000000000E+00  0.27001496454E+03  0.27001496455E+03  0.25500000920E-02 0.  1.
        2   -1    0    0  501    0  0.00000000000E+00  0.00000000000E+00 -0.14261728688E+04  0.14261728688E+04  0.25500000920E-02 0. -1.
    10030    2    1    2    0    0  0.00000000000E+00  0.00000000000E+00 -0.11561579043E+04  0.16961878334E+04  0.12411092081E+04 0.  0.
        1    1    3    3  502    0 -0.47622313850E+02  0.61758965654E+03 -0.52688535123E+03  0.81319926341E+03  0.50400001928E-02 0.  1.
       -1    1    3    3    0  502  0.47622313850E+02 -0.61758965654E+03 -0.62927255305E+03  0.88298856997E+03  0.50400001928E-02 0. -1.
</event>
<event>
 5   0  0.7461157E-03  0.9822507E+03  0.7818609E-02  0.9328229E-01
       -1   -1    0    0    0  501  0.00000000000E+00  0.00000000000E+00  0.21016508387E+03  0.21016508393E+03  0.50400001928E-02 0. -1.
        1   -1    0    0  501    0  0.00000000000E+00  0.00000000000E+00 -0.11476887167E+04  0.11476887167E+04  0.50400001928E-02 0.  1.
    10030    2    1    2    0    0  0.00000000000E+00  0.00000000000E+00 -0.93752363285E+03  0.13578538007E+04  0.98225067159E+03 0.  0.
        2    1    3    3  502    0  0.92881815904E+02  0.11206699587E+03  0.17966331027E+03  0.23122488697E+03  0.25500000920E-02 0. -1.
       -2    1    3    3    0  502 -0.92881815904E+02 -0.11206699587E+03 -0.11171869431E+04  0.11266289137E+04  0.25500000920E-02 0.  1.
</event>
<event>
 5   0  0.1240503E-02  0.9967379E+03  0.7818609E-02  0.9312130E-01
        2   -1    0    0  501    0  0.00000000000E+00  0.00000000000E+00  0.40679793025E+03  0.40679793026E+03  0.25500000920E-02 0.  1.
       -2   -1    0    0    0  501  0.00000000000E+00  0.00000000000E+00 -0.61055283636E+03  0.61055283637E+03  0.25500000920E-02 0. -1.
    10030    2    1    2    0    0  0.00000000000E+00  0.00000000000E+00 -0.20375490611E+03  0.10173507666E+04  0.99673793977E+03 0.  0.
        1    1    3    3  502    0  0.39593754237E+03  0.22705799759E+03 -0.30614043956E+03  0.54958515308E+03  0.50400001928E-02 0. -1.
       -1    1    3    3    0  502 -0.39593754237E+03 -0.22705799759E+03  0.10238553345E+03  0.46776561354E+03  0.50400001928E-02 0.  1.
</event>
<event>
 5   0  0.1245850E-02  0.9413813E+03  0.7818609E-02  0.9375282E-01
       -2   -1    0    0    0  501  0.00000000000E+00  0.00000000000E+00  0.18446627233E+03  0.18446627234E+03  0.25500000920E-02 0.  1.
        2   -1    0    0  501    0  0.00000000000E+00  0.00000000000E+00 -0.12010308243E+04  0.12010308243E+04  0.25500000920E-02 0. -1.
    10030    2    1    2    0    0  0.00000000000E+00  0.00000000000E+00 -0.10165645520E+04  0.13854970967E+04  0.94138128116E+03 0.  0.
        3    1    3    3  502    0  0.47026317782E+02 -0.13370272405E+03  0.15231441013E+03  0.20805668150E+03  0.10100000352E+00 0.  1.
       -3    1    3    3    0  502 -0.47026317782E+02  0.13370272405E+03 -0.11688789621E+04  0.11774404152E+04  0.10100000352E+00 0. -1.
</event>
<event>
 5   0  0.1245850E-02  0.1010549E+04  0.7818609E-02  0.9297050E-01
        2   -1    0    0  501    0  0.00000000000E+00  0.00000000000E+00  0.29153275928E+03  0.29153275929E+03  0.25500000920E-02 0.  1.
       -2   -1    0    0    0  501  0.00000000000E+00  0.00000000000E+00 -0.87572387461E+03  0.87572387461E+03  0.25500000920E-02 0. -1.
    10030    2    1    2    0    0  0.00000000000E+00  0.00000000000E+00 -0.58419111533E+03  0.11672566339E+04  0.10105487569E+04 0.  0.
        3    1    3    3  502    0 -0.33906446976E+03  0.16806258016E+03  0.94624986034E+02  0.39008158594E+03  0.10100000352E+00 0.  1.
       -3    1    3    3    0  502  0.33906446976E+03 -0.16806258016E+03 -0.67881610137E+03  0.77717504796E+03  0.10100000352E+00 0. -1.
</event>
<event>
 5   0  0.7073004E-03  0.1046312E+04  0.7818609E-02  0.9259160E-01
        1   -1    0    0  501    0  0.00000000000E+00  0.00000000000E+00  0.11792671715E+04  0.11792671716E+04  0.50400001928E-02 0. -1.
       -1   -1    0    0    0  501  0.00000000000E+00  0.00000000000E+00 -0.23208677398E+03  0.23208677404E+03  0.50400001928E-02 0.  1.
    10030    2    1    2    0    0  0.00000000000E+00  0.00000000000E+00  0.94718039756E+03  0.14113539456E+04  0.10463122164E+04 0.  0.
        1    1    3    3  502    0  0.45676887101E+03 -0.23943409238E+03  0.35502775377E+03  0.62610797159E+03  0.50400001928E-02 0.  1.
       -1    1    3    3    0  502 -0.45676887101E+03  0.23943409238E+03  0.59215264379E+03  0.78524597401E+03  0.50400001928E-02 0. -1.
</event>
<event>
 5   0  0.6967681E-03  0.1037106E+04  0.7818609E-02  0.9268758E-01
       -1   -1    0    0    0  501  0.00000000000E+00  0.00000000000E+00  0.41337032774E+03  0.41337032777E+03  0.50400001928E-02 0.  1.
        1   -1    0    0  501    0  0.00000000000E+00  0.00000000000E+00 -0.65049975093E+03  0.65049975095E+03  0.50400001928E-02 0. -1.
    10030    2    1    2    0    0  0.00000000000E+00  0.00000000000E+00 -0.23712942319E+03  0.10638700787E+04  0.10371061571E+04 0.  0.
        5    1    3    3  502    0 -0.33234570496E+03  0.39199953910E+03 -0.47807128307E+02  0.51616365406E+03  0.46999998093E+01 0. -1.
       -5    1    3    3    0  502  0.33234570496E+03 -0.39199953910E+03 -0.18932229488E+03  0.54770642465E+03  0.46999998093E+01 0.  1.
</event>
<event>
 5   0  0.1245850E-02  0.9726103E+03  0.7818609E-02  0.9339106E-01
        2   -1    0    0  501    0  0.00000000000E+00  0.00000000000E+00  0.20045266553E+04  0.20045266553E+04  0.25500000920E-02 0. -1.
       -2   -1    0    0    0  501  0.00000000000E+00  0.00000000000E+00 -0.11797933051E+03  0.11797933053E+03  0.25500000920E-02 0.  1.
    10030    2    1    2    0    0  0.00000000000E+00  0.00000000000E+00  0.18865473248E+04  0.21225059859E+04  0.97261032857E+03 0.  0.
        3    1    3    3  502    0  0.26021691862E+03  0.84318271477E+02  0.18207292646E+04  0.18411619920E+04  0.10100000352E+00 0. -1.
       -3    1    3    3    0  502 -0.26021691862E+03 -0.84318271477E+02  0.65818060258E+02  0.28134399389E+03  0.10100000352E+00 0.  1.
</event>
<event>
 5   0  0.6967681E-03  0.1019026E+04  0.7818609E-02  0.9287920E-01
       -1   -1    0    0    0  501  0.00000000000E+00  0.00000000000E+00  0.62556507627E+03  0.62556507629E+03  0.50400001928E-02 0.  1.
        1   -1    0    0  501    0  0.00000000000E+00  0.00000000000E+00 -0.41499029766E+03  0.41499029769E+03  0.50400001928E-02 0. -1.
    10030    2    1    2    0    0  0.00000000000E+00  0.00000000000E+00  0.21057477862E+03  0.10405553740E+04  0.10190258824E+04 0.  0.
        5    1    3    3  502    0  0.22926094097E+03 -0.24128220211E+03 -0.28861335251E+03  0.44056490708E+03  0.46999998093E+01 0. -1.
       -5    1    3    3    0  502 -0.22926094097E+03  0.24128220211E+03  0.49918813113E+03  0.59999046690E+03  0.46999998093E+01 0.  1.
</event>
<event>
 5   0  0.1216322E-02  0.1007567E+04  0.7818609E-02  0.9300284E-01
        2   -1    0    0  501    0  0.00000000000E+00  0.00000000000E+00  0.40116484699E+03  0.40116484699E+03  0.25500000920E-02 0.  1.
       -2   -1    0    0    0  501  0.00000000000E+00  0.00000000000E+00 -0.63265267662E+03  0.63265267662E+03  0.25500000920E-02 0. -1.
    10030    2    1    2    0    0  0.00000000000E+00  0.00000000000E+00 -0.23148782963E+03  0.10338175236E+04  0.10075673957E+04 0.  0.
        2    1    3    3  502    0 -0.36298895138E+02  0.31322635195E+03 -0.51887914519E+03  0.60717701263E+03  0.25500000920E-02 0. -1.
       -2    1    3    3    0  502  0.36298895138E+02 -0.31322635195E+03  0.28739131556E+03  0.42664051098E+03  0.25500000920E-02 0.  1.
</event>
<event>
 5   0  0.7073004E-03  0.9638203E+03  0.7818609E-02  0.9349141E-01
        1   -1    0    0  501    0  0.00000000000E+00  0.00000000000E+00  0.14654965192E+04  0.14654965192E+04  0.50400001928E-02 0.  1.
       -1   -1    0    0    0  501  0.00000000000E+00  0.00000000000E+00 -0.15847011514E+03  0.15847011522E+03  0.50400001928E-02 0. -1.
    10030    2    1    2    0    0  0.00000000000E+00  0.00000000000E+00  0.13070264040E+04  0.16239666344E+04  0.96382031976E+03 0.  0.
        1    1    3    3  502    0  0.40130812281E+03  0.24902888871E+03  0.49213094539E+03  0.68209710767E+03  0.50400001928E-02 0.  1.
       -1    1    3    3    0  502 -0.40130812281E+03 -0.24902888871E+03  0.81489545863E+03  0.94186952672E+03  0.50400001928E-02 0. -1.
</event>
<event>
 5   0  0.7073004E-03  0.7763657E+03  0.7818609E-02  0.9594871E-01
       -1   -1    0    0    0  501  0.00000000000E+00  0.00000000000E+00  0.20466954577E+03  0.20466954583E+03  0.50400001928E-02 0. -1.
        1   -1    0    0  501    0  0.00000000000E+00  0.00000000000E+00 -0.73624009453E+03  0.73624009454E+03  0.50400001928E-02 0.  1.
    10030    2    1    2    0    0  0.00000000000E+00  0.00000000000E+00 -0.53157054876E+03  0.94090964037E+03  0.77636570187E+03 0.  0.
        1    1    3    3  502    0 -0.52559101954E+02  0.18860358476E+03 -0.67201554254E+03  0.69995618493E+03  0.50400001928E-02 0.  1.
       -1    1    3    3    0  502  0.52559101954E+02 -0.18860358476E+03  0.14044499378E+03  0.24095345544E+03  0.50400001928E-02 0. -1.
</event>
<event>
 5   0  0.7461157E-03  0.9871024E+03  0.7818609E-02  0.9322805E-01
       -1   -1    0    0    0  501  0.00000000000E+00  0.00000000000E+00  0.45716892435E+03  0.45716892438E+03  0.50400001928E-02 0. -1.
        1   -1    0    0  501    0  0.00000000000E+00  0.00000000000E+00 -0.53282888906E+03  0.53282888909E+03  0.50400001928E-02 0.  1.
    10030    2    1    2    0    0  0.00000000000E+00  0.00000000000E+00 -0.75659964708E+02  0.98999781347E+03  0.98710244676E+03 0.  0.
        2    1    3    3  502    0  0.47664462245E+03  0.99362852686E+02 -0.11887379580E+03  0.50119262957E+03  0.25500000920E-02 0.  1.
       -2    1    3    3    0  502 -0.47664462245E+03 -0.99362852686E+02  0.43213831091E+02  0.48880518390E+03  0.25500000920E-02 0. -1.
</event>
<event>
 5   0  0.1191822E-02  0.9955214E+03  0.7818609E-02  0.9313471E-01
        2   -1    0    0  501    0  0.00000000000E+00  0.00000000000E+00  0.18894694122E+04  0.18894694122E+04  0.25500000920E-02 0. -1.
       -2   -1    0    0    0  501  0.00000000000E+00  0.00000000000E+00 -0.13112978684E+03  0.13112978687E+03  0.25500000920E-02 0.  1.
    10030    2    1    2    0    0  0.00000000000E+00  0.00000000000E+00  0.17583396254E+04  0.20205991991E+04  0.99552141373E+03 0.  0.
        4    1    3    3  502    0 -0.52657272290E+02  0.14530705048E+03  0.18395307468E+04  0.18460124346E+04  0.12699999809E+01 0. -1.
       -4    1    3    3    0  502  0.52657272290E+02 -0.14530705048E+03 -0.81191121434E+02  0.17458676451E+03  0.12699999809E+01 0.  1.
</event>
<event>
 5   0  0.7224879E-03  0.9663990E+03  0.7818609E-02  0.9346185E-01
        1   -1    0    0  501    0  0.00000000000E+00  0.00000000000E+00  0.83762238837E+03  0.83762238839E+03  0.50400001928E-02 0. -1.
       -1   -1    0    0    0  501  0.00000000000E+00  0.00000000000E+00 -0.27874345002E+03  0.27874345007E+03  0.50400001928E-02 0.  1.
    10030    2    1    2    0    0  0.00000000000E+00  0.00000000000E+00  0.55887893835E+03  0.11163658385E+04  0.96639899500E+03 0.  0.
        3    1    3    3  502    0 -0.24006772129E+03  0.29955413309E+03 -0.59555608386E+02  0.38847402764E+03  0.10100000352E+00 0.  1.
       -3    1    3    3    0  502  0.24006772129E+03 -0.29955413309E+03  0.61843454674E+03  0.72789181082E+03  0.10100000352E+00 0. -1.
</event>
<event>
 5   0  0.6967681E-03  0.9899828E+03  0.7818609E-02  0.9319600E-01
        1   -1    0    0  501    0  0.00000000000E+00  0.00000000000E+00  0.69114203107E+03  0.69114203108E+03  0.50400001928E-02 0.  1.
       -1   -1    0    0    0  501  0.00000000000E+00  0.00000000000E+00 -0.35450962129E+03  0.35450962132E+03  0.50400001928E-02 0. -1.
    10030    2    1    2    0    0  0.00000000000E+00  0.00000000000E+00  0.33663240978E+03  0.10456516524E+04  0.98998282756E+03 0.  0.
        5    1    3    3  502    0 -0.70614371269E+02  0.23742309053E+03 -0.28431135533E+03  0.37710893667E+03  0.46999998093E+01 0. -1.
       -5    1    3    3    0  502  0.70614371269E+02 -0.23742309053E+03  0.62094376511E+03  0.66854271574E+03  0.46999998093E+01 0.  1.
</event>
<event>
 5   0  0.7461157E-03  0.9728011E+03  0.7818609E-02  0.9338890E-01
        1   -1    0    0  501    0  0.00000000000E+00  0.00000000000E+00  0.37833838377E+03  0.37833838380E+03  0.50400001928E-02 0. -1.
       -1   -1    0    0    0  501  0.00000000000E+00  0.00000000000E+00 -0.62532771772E+03  0.62532771774E+03  0.50400001928E-02 0.  1.
    10030    2    1    2    0    0  0.00000000000E+00  0.00000000000E+00 -0.24698933395E+03  0.10036661015E+04  0.97280106512E+03 0.  0.
        2    1    3    3  502    0  0.25867235115E+03 -0.24217070155E+03  0.22028516107E+03  0.41723325147E+03  0.25500000920E-02 0. -1.
       -2    1    3    3    0  502 -0.25867235115E+03  0.24217070155E+03 -0.46727449502E+03  0.58643285007E+03  0.25500000920E-02 0.  1.
</event>
<event>
 5   0  0.1216322E-02  0.1002641E+04  0.7818609E-02  0.9305653E-01
        2   -1    0    0  501    0  0.00000000000E+00  0.00000000000E+00  0.12458985720E+04  0.12458985721E+04  0.25500000920E-02 0. -1.
       -2   -1    0    0    0  501  0.00000000000E+00  0.00000000000E+00 -0.20171950577E+03  0.20171950579E+03  0.25500000920E-02 0.  1.
    10030    2    1    2    0    0  0.00000000000E+00  0.00000000000E+00  0.10441790663E+04  0.14476180778E+04  0.10026406020E+04 0.  0.
        2    1    3    3  502    0 -0.21749349047E+03  0.34706438146E+02  0.11723057112E+04  0.11928154240E+04  0.25500000920E-02 0. -1.
       -2    1    3    3    0  502  0.21749349047E+03 -0.34706438146E+02 -0.12812664493E+03  0.25480265382E+03  0.25500000920E-02 0.  1.
</event>
<event>
 5   0  0.4782125E-03  0.1003442E+04  0.7818609E-02  0.9304778E-01
        3   -1    0    0  501    0  0.00000000000E+00  0.00000000000E+00  0.39702006003E+03  0.39702007288E+03  0.10100000352E+00 0.  1.
       -3   -1    0    0    0  501  0.00000000000E+00  0.00000000000E+00 -0.63403314144E+03  0.63403314948E+03  0.10100000352E+00 0. -1.
    10030    2    1    2    0    0  0.00000000000E+00  0.00000000000E+00 -0.23701308141E+03  0.10310532224E+04  0.10034418501E+04 0.  0.
        1    1    3    3  502    0 -0.46102857679E+01 -0.85771859168E+02  0.38940880093E+03  0.39876970901E+03  0.50400001928E-02 0.  1.
       -1    1    3    3    0  502  0.46102857679E+01  0.85771859168E+02 -0.62642188234E+03  0.63228351335E+03  0.50400001928E-02 0. -1.
</event>
<event>
 5   0  0.1191822E-02  0.9801449E+03  0.7818609E-02  0.9330594E-01
       -2   -1    0    0    0  501  0.00000000000E+00  0.00000000000E+00  0.26320331868E+03  0.26320331869E+03  0.25500000920E-02 0.  1.
        2   -1    0    0  501    0  0.00000000000E+00  0.00000000000E+00 -0.91249234711E+03  0.91249234712E+03  0.25500000920E-02 0. -1.
    10030    2    1    2    0    0  0.00000000000E+00  0.00000000000E+00 -0.64928902843E+03  0.11756956658E+04  0.98014491590E+03 0.  0.
        4    1    3    3  502    0  0.14849561579E+03 -0.38091941714E+03 -0.64877667371E+03  0.76685287736E+03  0.12699999809E+01 0. -1.
       -4    1    3    3    0  502 -0.14849561579E+03  0.38091941714E+03 -0.51235472551E+00  0.40884278845E+03  0.12699999809E+01 0.  1.
</event>
<event>
 5   0  0.1191822E-02  0.9658487E+03  0.7818609E-02  0.9346815E-01
       -2   -1    0    0    0  501  0.00000000000E+00  0.00000000000E+00  0.30106421554E+03  0.30106421555E+03  0.25500000920E-02 0.  1.
        2   -1    0    0  501    0  0.00000000000E+00  0.00000000000E+00 -0.77463851597E+03  0.77463851598E+03  0.25500000920E-02 0. -1.
    10030    2    1    2    0    0  0.00000000000E+00  0.00000000000E+00 -0.47357430044E+03  0.10757027315E+04  0.96584871930E+03 0.  0.
        4    1    3    3  502    0  0.34703037849E+03 -0.16630902417E+03  0.88160294660E+02  0.39479440925E+03  0.12699999809E+01 0.  1.
       -4    1    3    3    0  502 -0.34703037849E+03  0.16630902417E+03 -0.56173459510E+03  0.68090832228E+03  0.12699999809E+01 0. -1.
</event>
<event>
 5   0  0.7241200E-03  0.1006994E+04  0.7818609E-02  0.9300907E-01
       -1   -1    0    0    0  501  0.00000000000E+00  0.00000000000E+00  0.29003533123E+03  0.29003533127E+03  0.50400001928E-02 0.  1.
        1   -1    0    0  501    0  0.00000000000E+00  0.00000000000E+00 -0.87406299314E+03  0.87406299315E+03  0.50400001928E-02 0. -1.
    10030    2    1    2    0    0  0.00000000000E+00  0.00000000000E+00 -0.58402766191E+03  0.11640983244E+04  0.10069938426E+04 0.  0.
        4    1    3    3  502    0  0.43758029366E+03 -0.74482170627E+02 -0.56675477037E+03  0.71988658119E+03  0.12699999809E+01 0.  1.
       -4    1    3    3    0  502 -0.43758029366E+03  0.74482170627E+02 -0.17272891535E+02  0.44421174323E+03  0.12699999809E+01 0. -1.
</event>
<event>
 5   0  0.1216322E-02  0.9099644E+03  0.7818609E-02  0.9413210E-01
        2   -1    0    0  501    0  0.00000000000E+00  0.00000000000E+00  0.74412754625E+03  0.74412754625E+03  0.25500000920E-02 0. -1.
       -2   -1    0    0    0  501  0.00000000000E+00  0.00000000000E+00 -0.27818996010E+03  0.27818996012E+03  0.25500000920E-02 0.  1.
    10030    2    1    2    0    0  0.00000000000E+00  0.00000000000E+00  0.46593758614E+03  0.10223175064E+04  0.90996442219E+03 0.  0.
        2    1    3    3  502    0  0.34316938029E+03 -0.29143360765E+03  0.30672559786E+03  0.54477459892E+03  0.25500000920E-02 0. -1.
       -2    1    3    3    0  502 -0.34316938029E+03  0.29143360765E+03  0.15921198828E+03  0.47754290745E+03  0.25500000920E-02 0.  1.
</event>
<event>
 5   0  0.4782125E-03  0.9976757E+03  0.7818609E-02  0.9311098E-01
       -3   -1    0    0    0  501  0.00000000000E+00  0.00000000000E+00  0.28249703342E+03  0.28249705147E+03  0.10100000352E+00 0. -1.
        3   -1    0    0  501    0  0.00000000000E+00  0.00000000000E+00 -0.88085589173E+03  0.88085589752E+03  0.10100000352E+00 0.  1.
    10030    2    1    2    0    0  0.00000000000E+00  0.00000000000E+00 -0.59835885832E+03  0.11633529490E+04  0.99767567907E+03 0.  0.
        3    1    3    3  502    0 -0.18391086654E+03  0.24874008556E+03 -0.75550267105E+03  0.81638173250E+03  0.10100000352E+00 0.  1.
       -3    1    3    3    0  502  0.18391086654E+03 -0.24874008556E+03  0.15714381273E+03  0.34697121649E+03  0.10100000352E+00 0. -1.
</event>
<event>
 5   0  0.1191822E-02  0.9983565E+03  0.7818609E-02  0.9310349E-01
       -2   -1    0    0    0  501  0.00000000000E+00  0.00000000000E+00  0.29966985967E+03  0.29966985968E+03  0.25500000920E-02 0.  1.
        2   -1    0    0  501    0  0.00000000000E+00  0.00000000000E+00 -0.83151152909E+03  0.83151152909E+03  0.25500000920E-02 0. -1.
    10030    2    1    2    0    0  0.00000000000E+00  0.00000000000E+00 -0.53184166941E+03  0.11311813888E+04  0.99835653600E+03 0.  0.
        4    1    3    3  502    0  0.41111511744E+03 -0.13410886156E+02  0.54515885204E+02  0.41493262862E+03  0.12699999809E+01 0.  1.
       -4    1    3    3    0  502 -0.41111511744E+03  0.13410886156E+02 -0.58635755462E+03  0.71624876015E+03  0.12699999809E+01 0. -1.
</event>
<event>
 5   0  0.1221315E-02  0.9898887E+03  0.7818609E-02  0.9319705E-01
       -2   -1    0    0    0  501  0.00000000000E+00  0.00000000000E+00  0.45621938221E+03  0.45621938221E+03  0.25500000920E-02 0.  1.
        2   -1    0    0  501    0  0.00000000000E+00  0.00000000000E+00 -0.53695639802E+03  0.53695639802E+03  0.25500000920E-02 0. -1.
    10030    2    1    2    0    0  0.00000000000E+00  0.00000000000E+00 -0.80737015811E+02  0.99317578024E+03  0.98988871331E+03 0.  0.
        5    1    3    3  502    0  0.51543102400E+02 -0.34562573868E+03  0.31127209496E+03  0.46800240356E+03  0.46999998093E+01 0.  1.
       -5    1    3    3    0  502 -0.51543102400E+02  0.34562573868E+03 -0.39200911077E+03  0.52517337667E+03  0.46999998093E+01 0. -1.
</event>
<event>
 5   0  0.4782125E-03  0.9979495E+03  0.7818609E-02  0.9310797E-01
        4   -1    0    0  501    0  0.00000000000E+00  0.00000000000E+00  0.34153836121E+03  0.34154072243E+03  0.12699999809E+01 0. -1.
       -4   -1    0    0    0  501  0.00000000000E+00  0.00000000000E+00 -0.72897804654E+03  0.72897915281E+03  0.12699999809E+01 0.  1.
    10030    2    1    2    0    0  0.00000000000E+00  0.00000000000E+00 -0.38743968533E+03  0.10705198752E+04  0.99794954457E+03 0.  0.
        4    1    3    3  502    0 -0.29443317912E+03  0.61718646987E+02  0.23331698266E+03  0.38070791382E+03  0.12699999809E+01 0. -1.
       -4    1    3    3    0  502  0.29443317912E+03 -0.61718646987E+02 -0.62075666799E+03  0.68981196141E+03  0.12699999809E+01 0.  1.
</event>
<event>
 5   0  0.1221315E-02  0.9983886E+03  0.7818609E-02  0.9310314E-01
       -2   -1    0    0    0  501  0.00000000000E+00  0.00000000000E+00  0.63796448534E+03  0.63796448534E+03  0.25500000920E-02 0.  1.
        2   -1    0    0  501    0  0.00000000000E+00  0.00000000000E+00 -0.39060947027E+03  0.39060947028E+03  0.25500000920E-02 0. -1.
    10030    2    1    2    0    0  0.00000000000E+00  0.00000000000E+00  0.24735501507E+03  0.10285739556E+04  0.99838864111E+03 0.  0.
        5    1    3    3  502    0 -0.15804134056E+03 -0.28629715815E+03 -0.26485836103E+03  0.42085053107E+03  0.46999998093E+01 0. -1.
       -5    1    3    3    0  502  0.15804134056E+03  0.28629715815E+03  0.51221337610E+03  0.60772342455E+03  0.46999998093E+01 0.  1.
</event>
<event>
 5   0  0.6967681E-03  0.9989403E+03  0.7818609E-02  0.9309708E-01
       -1   -1    0    0    0  501  0.00000000000E+00  0.00000000000E+00  0.26346602966E+03  0.26346602971E+03  0.50400001928E-02 0. -1.
        1   -1    0    0  501    0  0.00000000000E+00  0.00000000000E+00 -0.94687892967E+03  0.94687892968E+03  0.50400001928E-02 0.  1.
    10030    2    1    2    0    0  0.00000000000E+00  0.00000000000E+00 -0.68341290001E+03  0.12103449594E+04  0.99894030293E+03 0.  0.
        5    1    3    3  502    0 -0.43120972804E+03  0.12073212600E+02 -0.36720533058E+02  0.43296429364E+03  0.46999998093E+01 0.  1.
       -5    1    3    3    0  502  0.43120972804E+03 -0.12073212600E+02 -0.64669236695E+03  0.77738066575E+03  0.46999998093E+01 0. -1.
</event>
<event>
 5   0  0.7461157E-03  0.8008932E+03  0.7818609E-02  0.9558725E-01
       -1   -1    0    0    0  501  0.00000000000E+00  0.00000000000E+00  0.16464579028E+03  0.16464579035E+03  0.50400001928E-02 0.  1.
        1   -1    0    0  501    0  0.00000000000E+00  0.00000000000E+00 -0.97395439829E+03  0.97395439831E+03  0.50400001928E-02 0. -1.
    10030    2    1    2    0    0  0.00000000000E+00  0.00000000000E+00 -0.80930860802E+03  0.11386001887E+04  0.80089323047E+03 0.  0.
        2    1    3    3  502    0  0.21230554178E+03 -0.12436210926E+03  0.44505490271E+02  0.25004062863E+03  0.25500000920E-02 0.  1.
       -2    1    3    3    0  502 -0.21230554178E+03  0.12436210926E+03 -0.85381409829E+03  0.88855956004E+03  0.25500000920E-02 0. -1.
</event>
<event>
 5   0  0.1240503E-02  0.9930932E+03  0.7818609E-02  0.9316153E-01
       -2   -1    0    0    0  501  0.00000000000E+00  0.00000000000E+00  0.51652956254E+03  0.51652956255E+03  0.25500000920E-02 0.  1.
        2   -1    0    0  501    0  0.00000000000E+00  0.00000000000E+00 -0.47733676318E+03  0.47733676319E+03  0.25500000920E-02 0. -1.
    10030    2    1    2    0    0  0.00000000000E+00  0.00000000000E+00  0.39192799360E+02  0.99386632574E+03  0.99309324734E+03 0.  0.
        1    1    3    3  502    0 -0.44884371772E+03  0.20851588382E+03 -0.20671631282E+02  0.49534520600E+03  0.50400001928E-02 0.  1.
       -1    1    3    3    0  502  0.44884371772E+03 -0.20851588382E+03  0.59864430642E+02  0.49852111974E+03  0.50400001928E-02 0. -1.
</event>
<event>
 5   0  0.7241200E-03  0.1005915E+04  0.7818609E-02  0.9302081E-01
        1   -1    0    0  501    0  0.00000000000E+00  0.00000000000E+00  0.13509480150E+04  0.13509480150E+04  0.50400001928E-02 0.  1.
       -1   -1    0    0    0  501  0.00000000000E+00  0.00000000000E+00 -0.18725107459E+03  0.18725107466E+03  0.50400001928E-02 0. -1.
    10030    2    1    2    0    0  0.00000000000E+00  0.00000000000E+00  0.11636969404E+04  0.15381990897E+04  0.10059154390E+04 0.  0.
        4    1    3    3  502    0  0.47745922068E+03  0.75048606869E+02  0.36905285553E+03  0.60811283812E+03  0.12699999809E+01 0. -1.
       -4    1    3    3    0  502 -0.47745922068E+03 -0.75048606869E+02  0.79464408490E+03  0.93008625158E+03  0.12699999809E+01 0.  1.
</event>
<event>
 5   0  0.1245850E-02  0.9881456E+03  0.7818609E-02  0.9321643E-01
        2   -1    0    0  501    0  0.00000000000E+00  0.00000000000E+00  0.12850951508E+04  0.12850951508E+04  0.25500000920E-02 0.  1.
       -2   -1    0    0    0  501  0.00000000000E+00  0.00000000000E+00 -0.18995320847E+03  0.18995320849E+03  0.25500000920E-02 0. -1.
    10030    2    1    2    0    0  0.00000000000E+00  0.00000000000E+00  0.10951419423E+04  0.14750483593E+04  0.98814563116E+03 0.  0.
        3    1    3    3  502    0  0.22970192711E+03  0.43672686141E+03  0.58457807942E+03  0.76499991368E+03  0.10100000352E+00 0. -1.
       -3    1    3    3    0  502 -0.22970192711E+03 -0.43672686141E+03  0.51056386287E+03  0.71004844558E+03  0.10100000352E+00 0.  1.
</event>
<event>
 5   0  0.6967681E-03  0.9924070E+03  0.7818609E-02  0.9316912E-01
       -1   -1    0    0    0  501  0.00000000000E+00  0.00000000000E+00  0.44454601177E+03  0.44454601180E+03  0.50400001928E-02 0. -1.
        1   -1    0    0  501    0  0.00000000000E+00  0.00000000000E+00 -0.55386377426E+03  0.55386377428E+03  0.50400001928E-02 0.  1.
    10030    2    1    2    0    0  0.00000000000E+00  0.00000000000E+00 -0.10931776249E+03  0.99840978608E+03  0.99240703733E+03 0.  0.
        5    1    3    3  502    0  0.26810580248E+03 -0.38898862814E+03  0.97925798150E+02  0.48249810994E+03  0.46999998093E+01 0. -1.
       -5    1    3    3    0  502 -0.26810580248E+03  0.38898862814E+03 -0.20724356064E+03  0.51591167614E+03  0.46999998093E+01 0.  1.
</event>
<event>
 5   0  0.7224879E-03  0.9966373E+03  0.7818609E-02  0.9312241E-01
       -1   -1    0    0    0  501  0.00000000000E+00  0.00000000000E+00  0.37273602751E+03  0.37273602755E+03  0.50400001928E-02 0.  1.
        1   -1    0    0  501    0  0.00000000000E+00  0.00000000000E+00 -0.66621264124E+03  0.66621264125E+03  0.50400001928E-02 0. -1.
    10030    2    1    2    0    0  0.00000000000E+00  0.00000000000E+00 -0.29347661372E+03  0.10389486688E+04  0.99663725277E+03 0.  0.
        3    1    3    3  502    0 -0.28692523382E+03  0.36069265442E+03 -0.34424462156E+03  0.57526485242E+03  0.10100000352E+00 0. -1.
       -3    1    3    3    0  502  0.28692523382E+03 -0.36069265442E+03  0.50768007836E+02  0.46368381638E+03  0.10100000352E+00 0.  1.
</event>
<event>
 5   0  0.6967681E-03  0.9662580E+03  0.7818609E-02  0.9346347E-01
        1   -1    0    0  501    0  0.00000000000E+00  0.00000000000E+00  0.72128660927E+03  0.72128660929E+03  0.50400001928E-02 0. -1.
       -1   -1    0    0    0  501  0.00000000000E+00  0.00000000000E+00 -0.32360731104E+03  0.32360731107E+03  0.50400001928E-02 0.  1.
    10030    2    1    2    0    0  0.00000000000E+00  0.00000000000E+00  0.39767929824E+03  0.10448939204E+04  0.96625797827E+03 0.  0.
        5    1    3    3  502    0 -0.37186639435E+02  0.29680533498E+03 -0.21139520755E+03  0.36631445071E+03  0.46999998093E+01 0. -1.
       -5    1    3    3    0  502  0.37186639435E+02 -0.29680533498E+03  0.60907450579E+03  0.67857946965E+03  0.46999998093E+01 0.  1.
</event>
<event>
 5   0  0.1216322E-02  0.1000903E+04  0.7818609E-02  0.9307555E-01
        2   -1    0    0  501    0  0.00000000000E+00  0.00000000000E+00  0.94265908816E+03  0.94265908817E+03  0.25500000920E-02 0. -1.
       -2   -1    0    0    0  501  0.00000000000E+00  0.00000000000E+00 -0.26568629873E+03  0.26568629874E+03  0.25500000920E-02 0.  1.
    10030    2    1    2    0    0  0.00000000000E+00  0.00000000000E+00  0.67697278943E+03  0.12083453869E+04  0.10009028007E+04 0.  0.
        2    1    3    3  502    0  0.26137554576E+03 -0.15974054512E+03  0.81625671807E+03  0.87184244418E+03  0.25500000920E-02 0. -1.
       -2    1    3    3    0  502 -0.26137554576E+03  0.15974054512E+03 -0.13928392864E+03  0.33650294272E+03  0.25500000920E-02 0.  1.
</event>
<event>
 5   0  0.1221315E-02  0.9886933E+03  0.7818609E-02  0.9321033E-01
        2   -1    0    0  501    0  0.00000000000E+00  0.00000000000E+00  0.54634683658E+03  0.54634683659E+03  0.25500000920E-02 0.  1.
       -2   -1    0    0    0  501  0.00000000000E+00  0.00000000000E+00 -0.44729572909E+03  0.44729572910E+03  0.25500000920E-02 0. -1.
    10030    2    1    2    0    0  0.00000000000E+00  0.00000000000E+00  0.99051107494E+02  0.99364256569E+03  0.98869329241E+03 0.  0.
        5    1    3    3  502    0 -0.12980599598E+03 -0.47278533633E+03 -0.13885027006E+02  0.49050020878E+03  0.46999998093E+01 0. -1.
       -5    1    3    3    0  502  0.12980599598E+03  0.47278533633E+03  0.11293613450E+03  0.50314235691E+03  0.46999998093E+01 0.  1.
</event>
<event>
 5   0  0.7241200E-03  0.1000220E+04  0.7818609E-02  0.9308303E-01
       -1   -1    0    0    0  501  0.00000000000E+00  0.00000000000E+00  0.27313762820E+03  0.27313762825E+03  0.50400001928E-02 0. -1.
        1   -1    0    0  501    0  0.00000000000E+00  0.00000000000E+00 -0.91569297942E+03  0.91569297944E+03  0.50400001928E-02 0.  1.
    10030    2    1    2    0    0  0.00000000000E+00  0.00000000000E+00 -0.64255535122E+03  0.11888306077E+04  0.10002203929E+04 0.  0.
        4    1    3    3  502    0  0.36980024432E+03 -0.22848524559E+03 -0.27360081228E+02  0.43555472112E+03  0.12699999809E+01 0. -1.
       -4    1    3    3    0  502 -0.36980024432E+03  0.22848524559E+03 -0.61519527000E+03  0.75327588656E+03  0.12699999809E+01 0.  1.
</event>
<event>
 5   0  0.1191822E-02  0.9840731E+03  0.7818609E-02  0.9326188E-01
        2   -1    0    0  501    0  0.00000000000E+00  0.00000000000E+00  0.11828311882E+04  0.11828311882E+04  0.25500000920E-02 0. -1.
       -2   -1    0    0    0  501  0.00000000000E+00  0.00000000000E+00 -0.20467838960E+03  0.20467838961E+03  0.25500000920E-02 0.  1.
    10030    2    1    2    0    0  0.00000000000E+00  0.00000000000E+00  0.97815279857E+03  0.13875095778E+04  0.98407313300E+03 0.  0.
        4    1    3    3  502    0 -0.15232354039E+03 -0.46635604361E+03  0.54198206143E+03  0.73105170008E+03  0.12699999809E+01 0. -1.
       -4    1    3    3    0  502  0.15232354039E+03  0.46635604361E+03  0.43617073714E+03  0.65645787771E+03  0.12699999809E+01 0.  1.
</event>
<event>
 5   0  0.6967681E-03  0.1053791E+04  0.7818609E-02  0.9251439E-01
        1   -1    0    0  501    0  0.00000000000E+00  0.00000000000E+00  0.68283475959E+03  0.68283475961E+03  0.50400001928E-02 0. -1.
       -1   -1    0    0    0  501  0.00000000000E+00  0.00000000000E+00 -0.40656811495E+03  0.40656811498E+03  0.50400001928E-02 0.  1.
    10030    2    1    2    0    0  0.00000000000E+00  0.00000000000E+00  0.27626664464E+03  0.10894028746E+04  0.10537909490E+04 0.  0.
        5    1    3    3  502    0  0.35350120277E+03 -0.38974502541E+03  0.11015460832E+03  0.53760618758E+03  0.46999998093E+01 0.  1.
       -5    1    3    3    0  502 -0.35350120277E+03  0.38974502541E+03  0.16611203632E+03  0.55179668701E+03  0.46999998093E+01 0. -1.
</event>
<event>
 5   0  0.1216322E-02  0.9628580E+03  0.7818609E-02  0.9350246E-01
       -2   -1    0    0    0  501  0.00000000000E+00  0.00000000000E+00  0.21630632210E+03  0.21630632212E+03  0.25500000920E-02 0. -1.
        2   -1    0    0  501    0  0.00000000000E+00  0.00000000000E+00 -0.10715077609E+04  0.10715077609E+04  0.25500000920E-02 0.  1.
    10030    2    1    2    0    0  0.00000000000E+00  0.00000000000E+00 -0.85520143881E+03  0.12878140830E+04  0.96285804328E+03 0.  0.
        2    1    3    3  502    0 -0.24018775986E+03  0.60613316604E+02 -0.97972665849E+03  0.10105584889E+04  0.25500000920E-02 0.  1.
       -2    1    3    3    0  502  0.24018775986E+03 -0.60613316604E+02  0.12452521968E+03  0.27725559413E+03  0.25500000920E-02 0. -1.
</event>
<event>
 5   0  0.1245850E-02  0.1005280E+04  0.7818609E-02  0.9302773E-01
        2   -1    0    0  501    0  0.00000000000E+00  0.00000000000E+00  0.62875837493E+03  0.62875837493E+03  0.25500000920E-02 0.  1.
       -2   -1    0    0    0  501  0.00000000000E+00  0.00000000000E+00 -0.40181884318E+03  0.40181884319E+03  0.25500000920E-02 0. -1.
    10030    2    1    2    0    0  0.00000000000E+00  0.00000000000E+00  0.22693953175E+03  0.10305772181E+04  0.10052799866E+04 0.  0.
        3    1    3    3  502    0 -0.48772687219E+03 -0.13802298071E+02  0.23725150642E+03  0.54254612043E+03  0.10100000352E+00 0. -1.
       -3    1    3    3    0  502  0.48772687219E+03  0.13802298071E+02 -0.10311974674E+02  0.48803109769E+03  0.10100000352E+00 0.  1.
</event>
<event>
 5   0  0.7461157E-03  0.1053668E+04  0.7818609E-02  0.9251565E-01
       -1   -1    0    0    0  501  0.00000000000E+00  0.00000000000E+00  0.37013053084E+03  0.37013053087E+03  0.50400001928E-02 0.  1.
        1   -1    0    0  501    0  0.00000000000E+00  0.00000000000E+00 -0.74988162408E+03  0.74988162409E+03  0.50400001928E-02 0. -1.
    10030    2    1    2    0    0  0.00000000000E+00  0.00000000000E+00 -0.37975109324E+03  0.11200121550E+04  0.10536680381E+04 0.  0.
        2    1    3    3  502    0 -0.13830489419E+02 -0.22253267825E+03 -0.69725845027E+03  0.73203922150E+03  0.25500000920E-02 0. -1.
       -2    1    3    3    0  502  0.13830489419E+02  0.22253267825E+03  0.31750735703E+03  0.38797293347E+03  0.25500000920E-02 0.  1.
</event>
<event>
 5   0  0.6967681E-03  0.9978180E+03  0.7818609E-02  0.9310941E-01
       -1   -1    0    0    0  501  0.00000000000E+00  0.00000000000E+00  0.35222118036E+03  0.35222118039E+03  0.50400001928E-02 0.  1.
        1   -1    0    0  501    0  0.00000000000E+00  0.00000000000E+00 -0.70668714691E+03  0.70668714693E+03  0.50400001928E-02 0. -1.
    10030    2    1    2    0    0  0.00000000000E+00  0.00000000000E+00 -0.35446596655E+03  0.10589083273E+04  0.99781798151E+03 0.  0.
        5    1    3    3  502    0 -0.32142117246E+03 -0.16444736930E+03 -0.54259865891E+03  0.65175908281E+03  0.46999998093E+01 0.  1.
       -5    1    3    3    0  502  0.32142117246E+03  0.16444736930E+03  0.18813269236E+03  0.40714924451E+03  0.46999998093E+01 0. -1.
</event>
<event>
 5   0  0.1245850E-02  0.8881044E+03  0.7818609E-02  0.9440575E-01
        2   -1    0    0  501    0  0.00000000000E+00  0.00000000000E+00  0.14170667968E+04  0.14170667968E+04  0.25500000920E-02 0.  1.
       -2   -1    0    0    0  501  0.00000000000E+00  0.00000000000E+00 -0.13914824683E+03  0.13914824686E+03  0.25500000920E-02 0. -1.
    10030    2    1    2    0    0  0.00000000000E+00  0.00000000000E+00  0.12779185499E+04  0.15562150436E+04  0.88810440926E+03 0.  0.
        3    1    3    3  502    0  0.18244681253E+03 -0.87222643438E+01 -0.70272675596E+02  0.19570686354E+03  0.10100000352E+00 0. -1.
       -3    1    3    3    0  502 -0.18244681253E+03  0.87222643438E+01  0.13481912255E+04  0.13605081801E+04  0.10100000352E+00 0.  1.
</event>
<event>
 5   0  0.1245850E-02  0.9765684E+03  0.7818609E-02  0.9334624E-01
        2   -1    0    0  501    0  0.00000000000E+00  0.00000000000E+00  0.10733194206E+04  0.10733194206E+04  0.25500000920E-02 0.  1.
       -2   -1    0    0    0  501  0.00000000000E+00  0.00000000000E+00 -0.22213468844E+03  0.22213468846E+03  0.25500000920E-02 0. -1.
    10030    2    1    2    0    0  0.00000000000E+00  0.00000000000E+00  0.85118473212E+03  0.12954541090E+04  0.97656843098E+03 0.  0.
        3    1    3    3  502    0  0.33754964632E+03  0.26275392073E+03  0.73794063461E+03  0.85295707806E+03  0.10100000352E+00 0.  1.
       -3    1    3    3    0  502 -0.33754964632E+03 -0.26275392073E+03  0.11324409751E+03  0.44249703097E+03  0.10100000352E+00 0. -1.
</event>
<event>
 5   0  0.1216322E-02  0.7841813E+03  0.7818609E-02  0.9583201E-01
        2   -1    0    0  501    0  0.00000000000E+00  0.00000000000E+00  0.19830156393E+04  0.19830156393E+04  0.25500000920E-02 0. -1.
       -2   -1    0    0    0  501  0.00000000000E+00  0.00000000000E+00 -0.77525905036E+02  0.77525905078E+02  0.25500000920E-02 0.  1.
    10030    2    1    2    0    0  0.00000000000E+00  0.00000000000E+00  0.19054897342E+04  0.20605415444E+04  0.78418131113E+03 0.  0.
        2    1    3    3  502    0 -0.72823111928E+02 -0.38515954110E+03  0.92866156625E+03  0.10079996936E+04  0.25500000920E-02 0. -1.
       -2    1    3    3    0  502  0.72823111928E+02  0.38515954110E+03  0.97682816799E+03  0.10525418507E+04  0.25500000920E-02 0.  1.
</event>
<event>
 5   0  0.7073004E-03  0.1004771E+04  0.7818609E-02  0.9303327E-01
        1   -1    0    0  501    0  0.00000000000E+00  0.00000000000E+00  0.97485030170E+03  0.97485030172E+03  0.50400001928E-02 0.  1.
       -1   -1    0    0    0  501  0.00000000000E+00  0.00000000000E+00 -0.25890253700E+03  0.25890253705E+03  0.50400001928E-02 0. -1.
    10030    2    1    2    0    0  0.00000000000E+00  0.00000000000E+00  0.71594776471E+03  0.12337528388E+04  0.10047710512E+04 0.  0.
        1    1    3    3  502    0  0.37340992232E+03  0.14405048007E+03 -0.14881097896E+02  0.40050837444E+03  0.50400001928E-02 0. -1.
       -1    1    3    3    0  502 -0.37340992232E+03 -0.14405048007E+03  0.73082886260E+03  0.83324446433E+03  0.50400001928E-02 0.  1.
</event>
<event>
 5   0  0.1191822E-02  0.1003648E+04  0.7818609E-02  0.9304552E-01
        2   -1    0    0  501    0  0.00000000000E+00  0.00000000000E+00  0.50405163948E+03  0.50405163949E+03  0.25500000920E-02 0. -1.
       -2   -1    0    0    0  501  0.00000000000E+00  0.00000000000E+00 -0.49960647863E+03  0.49960647863E+03  0.25500000920E-02 0.  1.
    10030    2    1    2    0    0  0.00000000000E+00  0.00000000000E+00  0.44451608567E+01  0.10036581181E+04  0.10036482744E+04 0.  0.
        4    1    3    3  502    0  0.40684561949E+03  0.17663204939E+03  0.23696647002E+03  0.50286873017E+03  0.12699999809E+01 0. -1.
       -4    1    3    3    0  502 -0.40684561949E+03 -0.17663204939E+03 -0.23252130916E+03  0.50078938795E+03  0.12699999809E+01 0.  1.
</event>
<event>
 5   0  0.1245850E-02  0.1005597E+04  0.7818609E-02  0.9302427E-01
       -2   -1    0    0    0  501  0.00000000000E+00  0.00000000000E+00  0.22053212108E+03  0.22053212109E+03  0.25500000920E-02 0.  1.
        2   -1    0    0  501    0  0.00000000000E+00  0.00000000000E+00 -0.11463474916E+04  0.11463474916E+04  0.25500000920E-02 0. -1.
    10030    2    1    2    0    0  0.00000000000E+00  0.00000000000E+00 -0.92581537049E+03  0.13668796127E+04  0.10055972232E+04 0.  0.
        3    1    3    3  502    0  0.43282103024E+03  0.18665609525E+03 -0.22500841597E+03  0.52230579125E+03  0.10100000352E+00 0.  1.
       -3    1    3    3    0  502 -0.43282103024E+03 -0.18665609525E+03 -0.70080695452E+03  0.84457382141E+03  0.10100000352E+00 0. -1.
</event>
<event>
 5   0  0.7461157E-03  0.9958967E+03  0.7818609E-02  0.9313057E-01
        1   -1    0    0  501    0  0.00000000000E+00  0.00000000000E+00  0.43029048725E+03  0.43029048728E+03  0.50400001928E-02 0. -1.
       -1   -1    0    0    0  501  0.00000000000E+00  0.00000000000E+00 -0.57624452608E+03  0.57624452610E+03  0.50400001928E-02 0.  1.
    10030    2    1    2    0    0  0.00000000000E+00  0.00000000000E+00 -0.14595403883E+03  0.10065350134E+04  0.99589665714E+03 0.  0.
        2    1    3    3  502    0  0.47459102204E+03  0.35512416473E+02  0.75062110369E+02  0.48180088247E+03  0.25500000920E-02 0. -1.
       -2    1    3    3    0  502 -0.47459102204E+03 -0.35512416473E+02 -0.22101614920E+03  0.52473413091E+03  0.25500000920E-02 0.  1.
</event>
<event>
 5   0  0.7073004E-03  0.1004936E+04  0.7818609E-02  0.9303148E-01
        1   -1    0    0  501    0  0.00000000000E+00  0.00000000000E+00  0.21372429649E+04  0.21372429649E+04  0.50400001928E-02 0. -1.
       -1   -1    0    0    0  501  0.00000000000E+00  0.00000000000E+00 -0.11813075262E+03  0.11813075273E+03  0.50400001928E-02 0.  1.
    10030    2    1    2    0    0  0.00000000000E+00  0.00000000000E+00  0.20191122123E+04  0.22553737177E+04  0.10049360579E+04 0.  0.
        1    1    3    3  502    0  0.28735738304E+03  0.36603936174E+03  0.14348785142E+04  0.15084546498E+04  0.50400001928E-02 0.  1.
       -1    1    3    3    0  502 -0.28735738304E+03 -0.36603936174E+03  0.58423369810E+03  0.74691906787E+03  0.50400001928E-02 0. -1.
</event>
<event>
 5   0  0.1240503E-02  0.1003192E+04  0.7818609E-02  0.9305050E-01
       -2   -1    0    0    0  501  0.00000000000E+00  0.00000000000E+00  0.24695696627E+03  0.24695696629E+03  0.25500000920E-02 0. -1.
        2   -1    0    0  501    0  0.00000000000E+00  0.00000000000E+00 -0.10187959434E+04  0.10187959434E+04  0.25500000920E-02 0.  1.
    10030    2    1    2    0    0  0.00000000000E+00  0.00000000000E+00 -0.77183897709E+03  0.12657529097E+04  0.10031924151E+04 0.  0.
        1    1    3    3  502    0 -0.13084603553E+03 -0.28679257895E+03 -0.87819937240E+03  0.93306205906E+03  0.50400001928E-02 0.  1.
       -1    1    3    3    0  502  0.13084603553E+03  0.28679257895E+03  0.10636039531E+03  0.33269085059E+03  0.50400001928E-02 0. -1.
</event>
<event>
 5   0  0.6967681E-03  0.9534163E+03  0.7818609E-02  0.9361166E-01
       -1   -1    0    0    0  501  0.00000000000E+00  0.00000000000E+00  0.79084114573E+03  0.79084114575E+03  0.50400001928E-02 0. -1.
        1   -1    0    0  501    0  0.00000000000E+00  0.00000000000E+00 -0.28735311058E+03  0.28735311063E+03  0.50400001928E-02 0.  1.
    10030    2    1    2    0    0  0.00000000000E+00  0.00000000000E+00  0.50348803515E+03  0.10781942564E+04  0.95341630621E+03 0.  0.
        5    1    3    3  502    0 -0.18937608072E+03  0.34432205082E+03  0.55688658229E+03  0.68159058838E+03  0.46999998093E+01 0. -1.
       -5    1    3    3    0  502  0.18937608072E+03 -0.34432205082E+03 -0.53398547140E+02  0.39660366800E+03  0.46999998093E+01 0.  1.
</event>
<event>
 5   0  0.7241200E-03  0.1032411E+04  0.7818609E-02  0.9273695E-01
       -1   -1    0    0    0  501  0.00000000000E+00  0.00000000000E+00  0.21224670781E+03  0.21224670787E+03  0.50400001928E-02 0. -1.
        1   -1    0    0  501    0  0.00000000000E+00  0.00000000000E+00 -0.12554632672E+04  0.12554632672E+04  0.50400001928E-02 0.  1.
    10030    2    1    2    0    0  0.00000000000E+00  0.00000000000E+00 -0.10432165594E+04  0.14677099751E+04  0.10324106650E+04 0.  0.
        4    1    3    3  502    0  0.19448121036E+03 -0.14934335909E+03 -0.11673806009E+04  0.11928560099E+04  0.12699999809E+01 0.  1.
       -4    1    3    3    0  502 -0.19448121036E+03  0.14934335909E+03  0.12416404149E+03  0.27485396520E+03  0.12699999809E+01 0. -1.
</event>
<event>
 5   0  0.1245850E-02  0.1046311E+04  0.7818609E-02  0.9259162E-01
        2   -1    0    0  501    0  0.00000000000E+00  0.00000000000E+00  0.25456125009E+03  0.25456125010E+03  0.25500000920E-02 0. -1.
       -2   -1    0    0    0  501  0.00000000000E+00  0.00000000000E+00 -0.10751495604E+04  0.10751495604E+04  0.25500000920E-02 0.  1.
    10030    2    1    2    0    0  0.00000000000E+00  0.00000000000E+00 -0.82058831029E+03  0.13297108105E+04  0.10463105010E+04 0.  0.
        3    1    3    3  502    0  0.37432894848E+03 -0.12216391830E+03 -0.84803970625E+03  0.93499600972E+03  0.10100000352E+00 0.  1.
       -3    1    3    3    0  502 -0.37432894848E+03  0.12216391830E+03  0.27451395962E+02  0.39471480077E+03  0.10100000352E+00 0. -1.
</event>
<event>
 5   0  0.7241200E-03  0.1029890E+04  0.7818609E-02  0.9276356E-01
        1   -1    0    0  501    0  0.00000000000E+00  0.00000000000E+00  0.61433817058E+03  0.61433817060E+03  0.50400001928E-02 0.  1.
       -1   -1    0    0    0  501  0.00000000000E+00  0.00000000000E+00 -0.43163230302E+03  0.43163230305E+03  0.50400001928E-02 0. -1.
    10030    2    1    2    0    0  0.00000000000E+00  0.00000000000E+00  0.18270586756E+03  0.10459704736E+04  0.10298897017E+04 0.  0.
        4    1    3    3  502    0 -0.35070975746E+03 -0.37683635103E+03  0.78361919950E+02  0.52071601937E+03  0.12699999809E+01 0. -1.
       -4    1    3    3    0  502  0.35070975746E+03  0.37683635103E+03  0.10434394761E+03  0.52525445427E+03  0.12699999809E+01 0.  1.
</event>
<event>
 5   0  0.7073004E-03  0.9650607E+03  0.7818609E-02  0.9347718E-01
       -1   -1    0    0    0  501  0.00000000000E+00  0.00000000000E+00  0.22449819360E+03  0.22449819366E+03  0.50400001928E-02 0. -1.
        1   -1    0    0  501    0  0.00000000000E+00  0.00000000000E+00 -0.10371377828E+04  0.10371377828E+04  0.50400001928E-02 0.  1.
    10030    2    1    2    0    0  0.00000000000E+00  0.00000000000E+00 -0.81263958917E+03  0.12616359764E+04  0.96506074170E+03 0.  0.
        1    1    3    3  502    0  0.47707067415E+03  0.51352013958E+02 -0.47300684596E+03  0.67377216760E+03  0.50400001928E-02 0.  1.
       -1    1    3    3    0  502 -0.47707067415E+03 -0.51352013958E+02 -0.33963274320E+03  0.58786380885E+03  0.50400001928E-02 0. -1.
</event>
<event>
 5   0  0.7461157E-03  0.9241267E+03  0.7818609E-02  0.9395914E-01
        1   -1    0    0  501    0  0.00000000000E+00  0.00000000000E+00  0.78192309401E+03  0.78192309403E+03  0.50400001928E-02 0. -1.
       -1   -1    0    0    0  501  0.00000000000E+00  0.00000000000E+00 -0.27304799248E+03  0.27304799253E+03  0.50400001928E-02 0.  1.
    10030    2    1    2    0    0  0.00000000000E+00  0.00000000000E+00  0.50887510153E+03  0.10549710866E+04  0.92412668207E+03 0.  0.
        2    1    3    3  502    0 -0.21844861770E+03 -0.71563781126E+02 -0.20314005749E+03  0.30676873424E+03  0.25500000920E-02 0.  1.
       -2    1    3    3    0  502  0.21844861770E+03  0.71563781126E+02  0.71201515901E+03  0.74820235232E+03  0.25500000920E-02 0. -1.
</event>
<event>
 5   0  0.1240503E-02  0.1013999E+04  0.7818609E-02  0.9293323E-01
       -2   -1    0    0    0  501  0.00000000000E+00  0.00000000000E+00  0.31900419050E+03  0.31900419051E+03  0.25500000920E-02 0.  1.
        2   -1    0    0  501    0  0.00000000000E+00  0.00000000000E+00 -0.80578442781E+03  0.80578442782E+03  0.25500000920E-02 0. -1.
    10030    2    1    2    0    0  0.00000000000E+00  0.00000000000E+00 -0.48678023731E+03  0.11247886183E+04  0.10139992290E+04 0.  0.
        1    1    3    3  502    0  0.80839185470E+02 -0.47230429278E+03 -0.59633299436E+02  0.48286897738E+03  0.50400001928E-02 0.  1.
       -1    1    3    3    0  502 -0.80839185470E+02  0.47230429278E+03 -0.42714693787E+03  0.64191964095E+03  0.50400001928E-02 0. -1.
</event>
<event>
 5   0  0.6967681E-03  0.9990743E+03  0.7818609E-02  0.9309561E-01
        1   -1    0    0  501    0  0.00000000000E+00  0.00000000000E+00  0.12166949812E+04  0.12166949812E+04  0.50400001928E-02 0. -1.
       -1   -1    0    0    0  501  0.00000000000E+00  0.00000000000E+00 -0.20509444580E+03  0.20509444586E+03  0.50400001928E-02 0.  1.
    10030    2    1    2    0    0  0.00000000000E+00  0.00000000000E+00  0.10116005354E+04  0.14217894271E+04  0.99907433743E+03 0.  0.
        5    1    3    3  502    0 -0.28135058574E+03  0.93567923534E+02 -0.66285429805E+02  0.30385680281E+03  0.46999998093E+01 0.  1.
       -5    1    3    3    0  502  0.28135058574E+03 -0.93567923534E+02  0.10778859652E+04  0.11179326243E+04  0.46999998093E+01 0. -1.
</event>
<event>
 5   0  0.1245850E-02  0.1012311E+04  0.7818609E-02  0.9295145E-01
       -2   -1    0    0    0  501  0.00000000000E+00  0.00000000000E+00  0.50183746248E+03  0.50183746249E+03  0.25500000920E-02 0.  1.
        2   -1    0    0  501    0  0.00000000000E+00  0.00000000000E+00 -0.51051050788E+03  0.51051050789E+03  0.25500000920E-02 0. -1.
    10030    2    1    2    0    0  0.00000000000E+00  0.00000000000E+00 -0.86730453985E+01  0.10123479704E+04  0.10123108176E+04 0.  0.
        3    1    3    3  502    0 -0.63052178761E+02  0.44788461748E+03  0.22286574114E+03  0.50422748496E+03  0.10100000352E+00 0.  1.
       -3    1    3    3    0  502  0.63052178761E+02 -0.44788461748E+03 -0.23153878654E+03  0.50812048541E+03  0.10100000352E+00 0. -1.
</event>
<event>
 5   0  0.1216322E-02  0.9615475E+03  0.7818609E-02  0.9351754E-01
        2   -1    0    0  501    0  0.00000000000E+00  0.00000000000E+00  0.37205738897E+03  0.37205738898E+03  0.25500000920E-02 0.  1.
       -2   -1    0    0    0  501  0.00000000000E+00  0.00000000000E+00 -0.62125736122E+03  0.62125736123E+03  0.25500000920E-02 0. -1.
    10030    2    1    2    0    0  0.00000000000E+00  0.00000000000E+00 -0.24919997225E+03  0.99331475021E+03  0.96154748547E+03 0.  0.
        2    1    3    3  502    0  0.13983566307E+03 -0.78353061918E+02 -0.59284095275E+03  0.61412833370E+03  0.25500000920E-02 0. -1.
       -2    1    3    3    0  502 -0.13983566307E+03  0.78353061918E+02  0.34364098050E+03  0.37918641651E+03  0.25500000920E-02 0.  1.
</event>
<event>
 5   0  0.1191822E-02  0.9845603E+03  0.7818609E-02  0.9325643E-01
        2   -1    0    0  501    0  0.00000000000E+00  0.00000000000E+00  0.10050411987E+04  0.10050411987E+04  0.25500000920E-02 0. -1.
       -2   -1    0    0    0  501  0.00000000000E+00  0.00000000000E+00 -0.24112418943E+03  0.24112418944E+03  0.25500000920E-02 0.  1.
    10030    2    1    2    0    0  0.00000000000E+00  0.00000000000E+00  0.76391700929E+03  0.12461653882E+04  0.98456029656E+03 0.  0.
        4    1    3    3  502    0 -0.10007317965E+03  0.31738644141E+02 -0.22678780679E+03  0.24991259478E+03  0.12699999809E+01 0.  1.
       -4    1    3    3    0  502  0.10007317965E+03 -0.31738644141E+02  0.99070481609E+03  0.99625279339E+03  0.12699999809E+01 0. -1.
</event>
<event>
 5   0  0.1245850E-02  0.1011560E+04  0.7818609E-02  0.9295956E-01
        2   -1    0    0  501    0  0.00000000000E+00  0.00000000000E+00  0.48760390975E+03  0.48760390975E+03  0.25500000920E-02 0. -1.
       -2   -1    0    0    0  501  0.00000000000E+00  0.00000000000E+00 -0.52463347999E+03  0.52463347999E+03  0.25500000920E-02 0.  1.
    10030    2    1    2    0    0  0.00000000000E+00  0.00000000000E+00 -0.37029570238E+02  0.10122373897E+04  0.10115598569E+04 0.  0.
        3    1    3    3  502    0  0.36709792394E+03 -0.18071514696E+02  0.32917420891E+03  0.49339956974E+03  0.10100000352E+00 0. -1.
       -3    1    3    3    0  502 -0.36709792394E+03  0.18071514696E+02 -0.36620377915E+03  0.51883782001E+03  0.10100000352E+00 0.  1.
</event>
<event>
 5   0  0.7073004E-03  0.1000404E+04  0.7818609E-02  0.9308102E-01
        1   -1    0    0  501    0  0.00000000000E+00  0.00000000000E+00  0.10697658986E+04  0.10697658986E+04  0.50400001928E-02 0.  1.
       -1   -1    0    0    0  501  0.00000000000E+00  0.00000000000E+00 -0.23388484236E+03  0.23388484242E+03  0.50400001928E-02 0. -1.
    10030    2    1    2    0    0  0.00000000000E+00  0.00000000000E+00  0.83588105626E+03  0.13036507411E+04  0.10004039756E+04 0.  0.
        1    1    3    3  502    0 -0.93462550095E+02 -0.30555939482E+03  0.91943219744E+03  0.97337421259E+03  0.50400001928E-02 0.  1.
       -1    1    3    3    0  502  0.93462550095E+02  0.30555939482E+03 -0.83551141178E+02  0.33027652846E+03  0.50400001928E-02 0. -1.
</event>
<event>
 5   0  0.6967681E-03  0.9629307E+03  0.7818609E-02  0.9350163E-01
        1   -1    0    0  501    0  0.00000000000E+00  0.00000000000E+00  0.99001471944E+03  0.99001471946E+03  0.50400001928E-02 0. -1.
       -1   -1    0    0    0  501  0.00000000000E+00  0.00000000000E+00 -0.23414691982E+03  0.23414691987E+03  0.50400001928E-02 0.  1.
    10030    2    1    2    0    0  0.00000000000E+00  0.00000000000E+00  0.75586779963E+03  0.12241616393E+04  0.96293072891E+03 0.  0.
        5    1    3    3  502    0 -0.36995524232E+03  0.28060113390E+03  0.53965708684E+03  0.71193801629E+03  0.46999998093E+01 0. -1.
       -5    1    3    3    0  502  0.36995524232E+03 -0.28060113390E+03  0.21621071279E+03  0.51222362303E+03  0.46999998093E+01 0.  1.
</event>
<event>
 5   0  0.4782125E-03  0.1003063E+04  0.7818609E-02  0.9305192E-01
        3   -1    0    0  501    0  0.00000000000E+00  0.00000000000E+00  0.36541404636E+03  0.36541406032E+03  0.10100000352E+00 0.  1.
       -3   -1    0    0    0  501  0.00000000000E+00  0.00000000000E+00 -0.68835231083E+03  0.68835231824E+03  0.10100000352E+00 0. -1.
    10030    2    1    2    0    0  0.00000000000E+00  0.00000000000E+00 -0.32293826447E+03  0.10537663786E+04  0.10030625394E+04 0.  0.
        2    1    3    3  502    0  0.43949395922E+03 -0.96095428367E+02 -0.39436033986E+03  0.59825525422E+03  0.25500000920E-02 0. -1.
       -2    1    3    3    0  502 -0.43949395922E+03  0.96095428367E+02  0.71422075386E+02  0.45551112434E+03  0.25500000920E-02 0.  1.
</event>
<event>
 5   0  0.1191822E-02  0.1026739E+04  0.7818609E-02  0.9279694E-01
        2   -1    0    0  501    0  0.00000000000E+00  0.00000000000E+00  0.14749944300E+03  0.14749944302E+03  0.25500000920E-02 0. -1.
       -2   -1    0    0    0  501  0.00000000000E+00  0.00000000000E+00 -0.17867748552E+04  0.17867748552E+04  0.25500000920E-02 0.  1.
    10030    2    1    2    0    0  0.00000000000E+00  0.00000000000E+00 -0.16392754122E+04  0.19342742982E+04  0.10267391020E+04 0.  0.
        4    1    3    3  502    0  0.30249377765E+03  0.34632517289E+02 -0.40958057645E+02  0.30721502593E+03  0.12699999809E+01 0. -1.
       -4    1    3    3    0  502 -0.30249377765E+03 -0.34632517289E+02 -0.15983173545E+04  0.16270592723E+04  0.12699999809E+01 0.  1.
</event>
<event>
 5   0  0.1216322E-02  0.9972525E+03  0.7818609E-02  0.9311563E-01
        2   -1    0    0  501    0  0.00000000000E+00  0.00000000000E+00  0.10533217354E+04  0.10533217354E+04  0.25500000920E-02 0.  1.
       -2   -1    0    0    0  501  0.00000000000E+00  0.00000000000E+00 -0.23604195899E+03  0.23604195901E+03  0.25500000920E-02 0. -1.
    10030    2    1    2    0    0  0.00000000000E+00  0.00000000000E+00  0.81727977636E+03  0.12893636944E+04  0.99725247731E+03 0.  0.
        2    1    3    3  502    0  0.26239846229E+03 -0.31100523857E+03  0.36040169414E+02  0.40850471876E+03  0.25500000920E-02 0. -1.
       -2    1    3    3    0  502 -0.26239846229E+03  0.31100523857E+03  0.78123960695E+03  0.88085897560E+03  0.25500000920E-02 0.  1.
</event>
<event>
 5   0  0.7461157E-03  0.9732356E+03  0.7818609E-02  0.9338397E-01
        1   -1    0    0  501    0  0.00000000000E+00  0.00000000000E+00  0.11509490333E+03  0.11509490344E+03  0.50400001928E-02 0.  1.
       -1   -1    0    0    0  501  0.00000000000E+00  0.00000000000E+00 -0.20574056067E+04  0.20574056067E+04  0.50400001928E-02 0. -1.
    10030    2    1    2    0    0  0.00000000000E+00  0.00000000000E+00 -0.19423107034E+04  0.21725005101E+04  0.97323563340E+03 0.  0.
        2    1    3    3  502    0 -0.12390938641E+03  0.34075449031E+03 -0.24669037762E+03  0.43854680608E+03  0.25500000920E-02 0.  1.
       -2    1    3    3    0  502  0.12390938641E+03 -0.34075449031E+03 -0.16956203258E+04  0.17339537041E+04  0.25500000920E-02 0. -1.
</event>
<event>
 5   0  0.4782125E-03  0.1022636E+04  0.7818609E-02  0.9284061E-01
       -4   -1    0    0    0  501  0.00000000000E+00  0.00000000000E+00  0.15899513835E+04  0.15899518908E+04  0.12699999809E+01 0. -1.
        4   -1    0    0  501    0  0.00000000000E+00  0.00000000000E+00 -0.16443346572E+03  0.16443837006E+03  0.12699999809E+01 0.  1.
    10030    2    1    2    0    0  0.00000000000E+00  0.00000000000E+00  0.14255179178E+04  0.17543902608E+04  0.10226357383E+04 0.  0.
        1    1    3    3  502    0  0.65177245543E+02  0.11791505164E+03  0.15589547855E+04  0.15647658151E+04  0.50400001928E-02 0. -1.
       -1    1    3    3    0  502 -0.65177245543E+02 -0.11791505164E+03 -0.13343686769E+03  0.18962444574E+03  0.50400001928E-02 0.  1.
</event>
<event>
 5   0  0.1240503E-02  0.1010346E+04  0.7818609E-02  0.9297270E-01
        2   -1    0    0  501    0  0.00000000000E+00  0.00000000000E+00  0.11774718540E+04  0.11774718540E+04  0.25500000920E-02 0.  1.
       -2   -1    0    0    0  501  0.00000000000E+00  0.00000000000E+00 -0.21673524829E+03  0.21673524831E+03  0.25500000920E-02 0. -1.
    10030    2    1    2    0    0  0.00000000000E+00  0.00000000000E+00  0.96073660566E+03  0.13942071023E+04  0.10103457916E+04 0.  0.
        1    1    3    3  502    0 -0.33696267847E+03  0.17674245256E+03  0.21828519039E+02  0.38112757114E+03  0.50400001928E-02 0. -1.
       -1    1    3    3    0  502  0.33696267847E+03 -0.17674245256E+03  0.93890808663E+03  0.10130795311E+04  0.50400001928E-02 0.  1.
</event>
<event>
 5   0  0.7241200E-03  0.9614521E+03  0.7818609E-02  0.9351864E-01
        1   -1    0    0  501    0  0.00000000000E+00  0.00000000000E+00  0.45591764801E+03  0.45591764804E+03  0.50400001928E-02 0. -1.
       -1   -1    0    0    0  501  0.00000000000E+00  0.00000000000E+00 -0.50688437296E+03  0.50688437298E+03  0.50400001928E-02 0.  1.
    10030    2    1    2    0    0  0.00000000000E+00  0.00000000000E+00 -0.50966724950E+02  0.96280202102E+03  0.96145209169E+03 0.  0.
        4    1    3    3  502    0  0.45116881471E+02 -0.45890063930E+03 -0.16158072571E+03  0.48860543751E+03  0.12699999809E+01 0.  1.
       -4    1    3    3    0  502 -0.45116881471E+02  0.45890063930E+03  0.11061400077E+03  0.47419658351E+03  0.12699999809E+01 0. -1.
</event>
<event>
 5   0  0.6967681E-03  0.1001128E+04  0.7818609E-02  0.9307309E-01
       -1   -1    0    0    0  501  0.00000000000E+00  0.00000000000E+00  0.25018860860E+03  0.25018860865E+03  0.50400001928E-02 0.  1.
        1   -1    0    0  501    0  0.00000000000E+00  0.00000000000E+00 -0.10015016946E+04  0.10015016946E+04  0.50400001928E-02 0. -1.
    10030    2    1    2    0    0  0.00000000000E+00  0.00000000000E+00 -0.75131308598E+03  0.12516903033E+04  0.10011279949E+04 0.  0.
        5    1    3    3  502    0 -0.36539048742E+03 -0.23873317641E+03 -0.68200955467E+03  0.80973011583E+03  0.46999998093E+01 0. -1.
       -5    1    3    3    0  502  0.36539048742E+03  0.23873317641E+03 -0.69303531316E+02  0.44196018743E+03  0.46999998093E+01 0.  1.
</event>
<event>
 5   0  0.7073004E-03  0.1008941E+04  0.7818609E-02  0.9298793E-01
        1   -1    0    0  501    0  0.00000000000E+00  0.00000000000E+00  0.51445736280E+03  0.51445736282E+03  0.50400001928E-02 0. -1.
       -1   -1    0    0    0  501  0.00000000000E+00  0.00000000000E+00 -0.49467708962E+03  0.49467708965E+03  0.50400001928E-02 0.  1.
    10030    2    1    2    0    0  0.00000000000E+00  0.00000000000E+00  0.19780273174E+02  0.10091344525E+04  0.10089405750E+04 0.  0.
        1    1    3    3  502    0  0.27126686353E+03  0.27046859458E+02 -0.41465936306E+03  0.49624553525E+03  0.50400001928E-02 0.  1.
       -1    1    3    3    0  502 -0.27126686353E+03 -0.27046859458E+02  0.43443963623E+03  0.51288891722E+03  0.50400001928E-02 0. -1.
</event>
<event>
 5   0  0.7224879E-03  0.1023579E+04  0.7818609E-02  0.9283055E-01
        1   -1    0    0  501    0  0.00000000000E+00  0.00000000000E+00  0.97029928536E+03  0.97029928537E+03  0.50400001928E-02 0. -1.
       -1   -1    0    0    0  501  0.00000000000E+00  0.00000000000E+00 -0.26994603401E+03  0.26994603406E+03  0.50400001928E-02 0.  1.
    10030    2    1    2    0    0  0.00000000000E+00  0.00000000000E+00  0.70035325135E+03  0.12402453194E+04  0.10235789055E+04 0.  0.
        3    1    3    3  502    0 -0.44148367103E+03  0.74453489685E+02  0.65060682858E+03  0.78977237829E+03  0.10100000352E+00 0. -1.
       -3    1    3    3    0  502  0.44148367103E+03 -0.74453489685E+02  0.49746422770E+02  0.45047294114E+03  0.10100000352E+00 0.  1.
</event>
<event>
 5   0  0.1245850E-02  0.9743213E+03  0.7818609E-02  0.9337166E-01
        2   -1    0    0  501    0  0.00000000000E+00  0.00000000000E+00  0.16176602409E+04  0.16176602409E+04  0.25500000920E-02 0.  1.
       -2   -1    0    0    0  501  0.00000000000E+00  0.00000000000E+00 -0.14670910916E+03  0.14670910918E+03  0.25500000920E-02 0. -1.
    10030    2    1    2    0    0  0.00000000000E+00  0.00000000000E+00  0.14709511318E+04  0.17643693501E+04  0.97432128765E+03 0.  0.
        3    1    3    3  502    0 -0.74071510720E+02  0.18877611539E+03 -0.66644814454E+02  0.21345854852E+03  0.10100000352E+00 0. -1.
       -3    1    3    3    0  502  0.74071510720E+02 -0.18877611539E+03  0.15375959462E+04  0.15509108016E+04  0.10100000352E+00 0.  1.
</event>
<event>
 5   0  0.1240503E-02  0.1006407E+04  0.7818609E-02  0.9301546E-01
       -2   -1    0    0    0  501  0.00000000000E+00  0.00000000000E+00  0.25951566892E+03  0.25951566893E+03  0.25500000920E-02 0.  1.
        2   -1    0    0  501    0  0.00000000000E+00  0.00000000000E+00 -0.97571655730E+03  0.97571655730E+03  0.25500000920E-02 0. -1.
    10030    2    1    2    0    0  0.00000000000E+00  0.00000000000E+00 -0.71620088838E+03  0.12352322262E+04  0.10064069456E+04 0.  0.
        1    1    3    3  502    0  0.20965914629E+03  0.30882624692E+03 -0.77229527943E+03  0.85777071940E+03  0.50400001928E-02 0. -1.
       -1    1    3    3    0  502 -0.20965914629E+03 -0.30882624692E+03  0.56094391049E+02  0.37746150683E+03  0.50400001928E-02 0.  1.
</event>
<event>
 5   0  0.6967681E-03  0.1031123E+04  0.7818609E-02  0.9275054E-01
       -1   -1    0    0    0  501  0.00000000000E+00  0.00000000000E+00  0.22362477786E+03  0.22362477792E+03  0.50400001928E-02 0. -1.
        1   -1    0    0  501    0  0.00000000000E+00  0.00000000000E+00 -0.11886137269E+04  0.11886137269E+04  0.50400001928E-02 0.  1.
    10030    2    1    2    0    0  0.00000000000E+00  0.00000000000E+00 -0.96498894906E+03  0.14122385048E+04  0.10311226517E+04 0.  0.
        5    1    3    3  502    0  0.43988664412E+03 -0.61686046974E+02 -0.84089347848E+03  0.95101491061E+03  0.46999998093E+01 0.  1.
       -5    1    3    3    0  502 -0.43988664412E+03  0.61686046974E+02 -0.12409547058E+03  0.46122359424E+03  0.46999998093E+01 0. -1.
</event>
<event>
 5   0  0.1191822E-02  0.1057966E+04  0.7818609E-02  0.9247158E-01
       -2   -1    0    0    0  501  0.00000000000E+00  0.00000000000E+00  0.11101823833E+04  0.11101823833E+04  0.25500000920E-02 0.  1.
        2   -1    0    0  501    0  0.00000000000E+00  0.00000000000E+00 -0.25205148640E+03  0.25205148641E+03  0.25500000920E-02 0. -1.
    10030    2    1    2    0    0  0.00000000000E+00  0.00000000000E+00  0.85813089691E+03  0.13622338697E+04  0.10579661997E+04 0.  0.
        4    1    3    3  502    0  0.18689909452E+03 -0.45927112882E+03  0.19178310606E+03  0.53164237413E+03  0.12699999809E+01 0. -1.
       -4    1    3    3    0  502 -0.18689909452E+03  0.45927112882E+03  0.66634779085E+03  0.83059149560E+03  0.12699999809E+01 0.  1.
</event>
<event>
 5   0  0.7461157E-03  0.1010066E+04  0.7818609E-02  0.9297573E-01
       -1   -1    0    0    0  501  0.00000000000E+00  0.00000000000E+00  0.23135090394E+03  0.23135090400E+03  0.50400001928E-02 0.  1.
        1   -1    0    0  501    0  0.00000000000E+00  0.00000000000E+00 -0.11024731372E+04  0.11024731372E+04  0.50400001928E-02 0. -1.
    10030    2    1    2    0    0  0.00000000000E+00  0.00000000000E+00 -0.87112223327E+03  0.13338240412E+04  0.10100656551E+04 0.  0.
        2    1    3    3  502    0  0.33456297384E+03  0.28394974855E+03 -0.10543256487E+03  0.45130462984E+03  0.25500000920E-02 0.  1.
       -2    1    3    3    0  502 -0.33456297384E+03 -0.28394974855E+03 -0.76568966841E+03  0.88251941139E+03  0.25500000920E-02 0. -1.
</event>
<event>
 5   0  0.1221315E-02  0.9896682E+03  0.7818609E-02  0.9319950E-01
        2   -1    0    0  501    0  0.00000000000E+00  0.00000000000E+00  0.58710984895E+03  0.58710984895E+03  0.25500000920E-02 0. -1.
       -2   -1    0    0    0  501  0.00000000000E+00  0.00000000000E+00 -0.41706131230E+03  0.41706131230E+03  0.25500000920E-02 0.  1.
    10030    2    1    2    0    0  0.00000000000E+00  0.00000000000E+00  0.17004853665E+03  0.10041711613E+04  0.98966823546E+03 0.  0.
        5    1    3    3  502    0  0.25695139784E+03  0.36532047017E+03  0.30111383475E+03  0.53867865955E+03  0.46999998093E+01 0. -1.
       -5    1    3    3    0  502 -0.25695139784E+03 -0.36532047017E+03 -0.13106529810E+03  0.46549250171E+03  0.46999998093E+01 0.  1.
</event>
<event>
 5   0  0.1221315E-02  0.9979523E+03  0.7818609E-02  0.9310793E-01
       -2   -1    0    0    0  501  0.00000000000E+00  0.00000000000E+00  0.56213825934E+03  0.56213825934E+03  0.25500000920E-02 0.  1.
        2   -1    0    0  501    0  0.00000000000E+00  0.00000000000E+00 -0.44291100154E+03  0.44291100155E+03  0.25500000920E-02 0. -1.
    10030    2    1    2    0    0  0.00000000000E+00  0.00000000000E+00  0.11922725780E+03  0.10050492609E+04  0.99795234246E+03 0.  0.
        5    1    3    3  502    0  0.47525424720E+03  0.25316230115E+02  0.21050440166E+03  0.52042454218E+03  0.46999998093E+01 0.  1.
       -5    1    3    3    0  502 -0.47525424720E+03 -0.25316230115E+02 -0.91277143866E+02  0.48462471871E+03  0.46999998093E+01 0. -1.
</event>
<event>
 5   0  0.1245850E-02  0.1002563E+04  0.7818609E-02  0.9305738E-01
       -2   -1    0    0    0  501  0.00000000000E+00  0.00000000000E+00  0.13849126348E+03  0.13849126350E+03  0.25500000920E-02 0.  1.
        2   -1    0    0  501    0  0.00000000000E+00  0.00000000000E+00 -0.18144343983E+04  0.18144343983E+04  0.25500000920E-02 0. -1.
    10030    2    1    2    0    0  0.00000000000E+00  0.00000000000E+00 -0.16759431348E+04  0.19529256618E+04  0.10025633393E+04 0.  0.
        3    1    3    3  502    0 -0.27399392791E+03  0.37378443743E+03 -0.12101022494E+04  0.12958143935E+04  0.10100000352E+00 0. -1.
       -3    1    3    3    0  502  0.27399392791E+03 -0.37378443743E+03 -0.46584088539E+03  0.65711126828E+03  0.10100000352E+00 0.  1.
</event>
<event>
 5   0  0.1221315E-02  0.9895508E+03  0.7818609E-02  0.9320080E-01
       -2   -1    0    0    0  501  0.00000000000E+00  0.00000000000E+00  0.14667687491E+03  0.14667687493E+03  0.25500000920E-02 0. -1.
        2   -1    0    0  501    0  0.00000000000E+00  0.00000000000E+00 -0.16689930786E+04  0.16689930786E+04  0.25500000920E-02 0.  1.
    10030    2    1    2    0    0  0.00000000000E+00  0.00000000000E+00 -0.15223162037E+04  0.18156699536E+04  0.98955078503E+03 0.  0.
        5    1    3    3  502    0 -0.31729225434E+03 -0.37821568972E+03 -0.82087134664E+03  0.95790048562E+03  0.46999998093E+01 0.  1.
       -5    1    3    3    0  502  0.31729225434E+03  0.37821568972E+03 -0.70144485708E+03  0.85776946794E+03  0.46999998093E+01 0. -1.
</event>
<event>
 5   0  0.1216322E-02  0.1005746E+04  0.7818609E-02  0.9302265E-01
        2   -1    0    0  501    0  0.00000000000E+00  0.00000000000E+00  0.56938555284E+03  0.56938555285E+03  0.25500000920E-02 0.  1.
       -2   -1    0    0    0  501  0.00000000000E+00  0.00000000000E+00 -0.44412995197E+03  0.44412995198E+03  0.25500000920E-02 0. -1.
    10030    2    1    2    0    0  0.00000000000E+00  0.00000000000E+00  0.12525560087E+03  0.10135155048E+04  0.10057458491E+04 0.  0.
        2    1    3    3  502    0  0.14807907622E+03  0.43126640969E+02  0.54496290512E+03  0.56636727301E+03  0.25500000920E-02 0.  1.
       -2    1    3    3    0  502 -0.14807907622E+03 -0.43126640969E+02 -0.41970730425E+03  0.44714823182E+03  0.25500000920E-02 0. -1.
</event>
<event>
 5   0  0.1221315E-02  0.1004313E+04  0.7818609E-02  0.9303827E-01
        2   -1    0    0  501    0  0.00000000000E+00  0.00000000000E+00  0.64457122865E+03  0.64457122865E+03  0.25500000920E-02 0.  1.
       -2   -1    0    0    0  501  0.00000000000E+00  0.00000000000E+00 -0.39120754008E+03  0.39120754009E+03  0.25500000920E-02 0. -1.
    10030    2    1    2    0    0  0.00000000000E+00  0.00000000000E+00  0.25336368857E+03  0.10357787687E+04  0.10043129488E+04 0.  0.
        5    1    3    3  502    0 -0.51008971750E+02  0.48453300331E+03  0.13639684121E+01  0.48723515565E+03  0.46999998093E+01 0. -1.
       -5    1    3    3    0  502  0.51008971750E+02 -0.48453300331E+03  0.25199972016E+03  0.54854361308E+03  0.46999998093E+01 0.  1.
</event>
<event>
 5   0  0.1216322E-02  0.1023423E+04  0.7818609E-02  0.9283221E-01
       -2   -1    0    0    0  501  0.00000000000E+00  0.00000000000E+00  0.41315233578E+03  0.41315233579E+03  0.25500000920E-02 0. -1.
        2   -1    0    0  501    0  0.00000000000E+00  0.00000000000E+00 -0.63378272473E+03  0.63378272474E+03  0.25500000920E-02 0.  1.
    10030    2    1    2    0    0  0.00000000000E+00  0.00000000000E+00 -0.22063038896E+03  0.10469350605E+04  0.10234233007E+04 0.  0.
        2    1    3    3  502    0 -0.20886947995E+03  0.36733078709E+03  0.18491586028E+03  0.46125073679E+03  0.25500000920E-02 0. -1.
       -2    1    3    3    0  502  0.20886947995E+03 -0.36733078709E+03 -0.40554624924E+03  0.58568432374E+03  0.25500000920E-02 0.  1.
</event>
<event>
 5   0  0.1191822E-02  0.1005262E+04  0.7818609E-02  0.9302792E-01
       -2   -1    0    0    0  501  0.00000000000E+00  0.00000000000E+00  0.16141327967E+03  0.16141327969E+03  0.25500000920E-02 0. -1.
        2   -1    0    0  501    0  0.00000000000E+00  0.00000000000E+00 -0.15651628341E+04  0.15651628341E+04  0.25500000920E-02 0.  1.
    10030    2    1    2    0    0  0.00000000000E+00  0.00000000000E+00 -0.14037495545E+04  0.17265761138E+04  0.10052622868E+04 0.  0.
        4    1    3    3  502    0 -0.43011249291E+03  0.56675920068E+01 -0.25528989368E+03  0.50020337950E+03  0.12699999809E+01 0. -1.
       -4    1    3    3    0  502  0.43011249291E+03 -0.56675920068E+01 -0.11484596608E+04  0.12263727343E+04  0.12699999809E+01 0.  1.
</event>
<event>
 5   0  0.1240503E-02  0.1009604E+04  0.7818609E-02  0.9298074E-01
       -2   -1    0    0    0  501  0.00000000000E+00  0.00000000000E+00  0.22514976665E+03  0.22514976667E+03  0.25500000920E-02 0.  1.
        2   -1    0    0  501    0  0.00000000000E+00  0.00000000000E+00 -0.11318017046E+04  0.11318017046E+04  0.25500000920E-02 0. -1.
    10030    2    1    2    0    0  0.00000000000E+00  0.00000000000E+00 -0.90665193798E+03  0.13569514713E+04  0.10096036642E+04 0.  0.
        1    1    3    3  502    0 -0.13938309934E+03 -0.48472012177E+03 -0.48163539867E+03  0.69739078149E+03  0.50400001928E-02 0.  1.
       -1    1    3    3    0  502  0.13938309934E+03  0.48472012177E+03 -0.42501653931E+03  0.65956068981E+03  0.50400001928E-02 0. -1.
</event>
<event>
 5   0  0.7073004E-03  0.1013746E+04  0.7818609E-02  0.9293596E-01
        1   -1    0    0  501    0  0.00000000000E+00  0.00000000000E+00  0.10046402707E+04  0.10046402708E+04  0.50400001928E-02 0.  1.
       -1   -1    0    0    0  501  0.00000000000E+00  0.00000000000E+00 -0.25573358480E+03  0.25573358485E+03  0.50400001928E-02 0. -1.
    10030    2    1    2    0    0  0.00000000000E+00  0.00000000000E+00  0.74890668595E+03  0.12603738556E+04  0.10137460390E+04 0.  0.
        1    1    3    3  502    0 -0.38630552456E+03  0.32810029912E+03  0.38216704354E+03  0.63477036303E+03  0.50400001928E-02 0. -1.
       -1    1    3    3    0  502  0.38630552456E+03 -0.32810029912E+03  0.36673964241E+03  0.62560349258E+03  0.50400001928E-02 0.  1.
</event>
<event>
 5   0  0.6967681E-03  0.1024438E+04  0.7818609E-02  0.9282141E-01
       -1   -1    0    0    0  501  0.00000000000E+00  0.00000000000E+00  0.44345084713E+03  0.44345084716E+03  0.50400001928E-02 0. -1.
        1   -1    0    0  501    0  0.00000000000E+00  0.00000000000E+00 -0.59165121868E+03  0.59165121870E+03  0.50400001928E-02 0.  1.
    10030    2    1    2    0    0  0.00000000000E+00  0.00000000000E+00 -0.14820037155E+03  0.10351020659E+04  0.10244378637E+04 0.  0.
        5    1    3    3  502    0 -0.36969741906E+02  0.19800445393E+03 -0.54993092536E+03  0.58567793049E+03  0.46999998093E+01 0.  1.
       -5    1    3    3    0  502  0.36969741906E+02 -0.19800445393E+03  0.40173055381E+03  0.44942413537E+03  0.46999998093E+01 0. -1.
</event>
<event>
 5   0  0.7461157E-03  0.9792284E+03  0.7818609E-02  0.9331625E-01
        1   -1    0    0  501    0  0.00000000000E+00  0.00000000000E+00  0.33723507202E+03  0.33723507206E+03  0.50400001928E-02 0.  1.
       -1   -1    0    0    0  501  0.00000000000E+00  0.00000000000E+00 -0.71084555270E+03  0.71084555272E+03  0.50400001928E-02 0. -1.
    10030    2    1    2    0    0  0.00000000000E+00  0.00000000000E+00 -0.37361048068E+03  0.10480806248E+04  0.97922837212E+03 0.  0.
        2    1    3    3  502    0  0.34822704494E+03  0.34335116417E+03 -0.21235758556E+03  0.53314898567E+03  0.25500000920E-02 0.  1.
       -2    1    3    3    0  502 -0.34822704494E+03 -0.34335116417E+03 -0.16125289512E+03  0.51493163911E+03  0.25500000920E-02 0. -1.
</event>
<event>
 5   0  0.6967681E-03  0.1007729E+04  0.7818609E-02  0.9300108E-01
        1   -1    0    0  501    0  0.00000000000E+00  0.00000000000E+00  0.94429558708E+03  0.94429558709E+03  0.50400001928E-02 0. -1.
       -1   -1    0    0    0  501  0.00000000000E+00  0.00000000000E+00 -0.26885606942E+03  0.26885606946E+03  0.50400001928E-02 0.  1.
    10030    2    1    2    0    0  0.00000000000E+00  0.00000000000E+00  0.67543951767E+03  0.12131516566E+04  0.10077293286E+04 0.  0.
        5    1    3    3  502    0 -0.54253433886E+02 -0.15207436638E+03 -0.23684119014E+03  0.28668081091E+03  0.46999998093E+01 0.  1.
       -5    1    3    3    0  502  0.54253433886E+02  0.15207436638E+03  0.91228070781E+03  0.92647084565E+03  0.46999998093E+01 0. -1.
</event>
<event>
 5   0  0.1240503E-02  0.9719057E+03  0.7818609E-02  0.9339906E-01
        2   -1    0    0  501    0  0.00000000000E+00  0.00000000000E+00  0.12281757325E+04  0.12281757325E+04  0.25500000920E-02 0.  1.
       -2   -1    0    0    0  501  0.00000000000E+00  0.00000000000E+00 -0.19227717491E+03  0.19227717492E+03  0.25500000920E-02 0. -1.
    10030    2    1    2    0    0  0.00000000000E+00  0.00000000000E+00  0.10358985576E+04  0.14204529074E+04  0.97190567474E+03 0.  0.
        1    1    3    3  502    0  0.15131542288E+03  0.45258419799E+03  0.65206926325E+03  0.80803659421E+03  0.50400001928E-02 0.  1.
       -1    1    3    3    0  502 -0.15131542288E+03 -0.45258419799E+03  0.38382929432E+03  0.61241631320E+03  0.50400001928E-02 0. -1.
</event>
<event>
 5   0  0.1191822E-02  0.9976135E+03  0.7818609E-02  0.9311166E-01
        2   -1    0    0  501    0  0.00000000000E+00  0.00000000000E+00  0.17848698680E+04  0.17848698680E+04  0.25500000920E-02 0. -1.
       -2   -1    0    0    0  501  0.00000000000E+00  0.00000000000E+00 -0.13939848648E+03  0.13939848651E+03  0.25500000920E-02 0.  1.
    10030    2    1    2    0    0  0.00000000000E+00  0.00000000000E+00  0.16454713816E+04  0.19242683545E+04  0.99761346863E+03 0.  0.
        4    1    3    3  502    0 -0.36099640151E+03 -0.30024053278E+03  0.11474729417E+04  0.12398219809E+04  0.12699999809E+01 0. -1.
       -4    1    3    3    0  502  0.36099640151E+03  0.30024053278E+03  0.49799843981E+03  0.68444637364E+03  0.12699999809E+01 0.  1.
</event>
<event>
 5   0  0.7241200E-03  0.9955040E+03  0.7818609E-02  0.9313490E-01
       -1   -1    0    0    0  501  0.00000000000E+00  0.00000000000E+00  0.90258176954E+03  0.90258176955E+03  0.50400001928E-02 0. -1.
        1   -1    0    0  501    0  0.00000000000E+00  0.00000000000E+00 -0.27449815821E+03  0.27449815826E+03  0.50400001928E-02 0.  1.
    10030    2    1    2    0    0  0.00000000000E+00  0.00000000000E+00  0.62808361133E+03  0.11770799278E+04  0.99550395963E+03 0.  0.
        4    1    3    3  502    0 -0.42970613918E+03  0.36904254706E+02  0.60785265945E+03  0.74531587838E+03  0.12699999809E+01 0. -1.
       -4    1    3    3    0  502  0.42970613918E+03 -0.36904254706E+02  0.20230951883E+02  0.43176404943E+03  0.12699999809E+01 0.  1.
</event>
<event>
 5   0  0.7461157E-03  0.1068150E+04  0.7818609E-02  0.9236803E-01
       -1   -1    0    0    0  501  0.00000000000E+00  0.00000000000E+00  0.32575682437E+03  0.32575682441E+03  0.50400001928E-02 0.  1.
        1   -1    0    0  501    0  0.00000000000E+00  0.00000000000E+00 -0.87561043810E+03  0.87561043811E+03  0.50400001928E-02 0. -1.
    10030    2    1    2    0    0  0.00000000000E+00  0.00000000000E+00 -0.54985361372E+03  0.12013672625E+04  0.10681499440E+04 0.  0.
        2    1    3    3  502    0  0.31754392201E+03 -0.22197848980E+03 -0.68836958988E+03  0.78991220058E+03  0.25500000920E-02 0. -1.
       -2    1    3    3    0  502 -0.31754392201E+03  0.22197848980E+03  0.13851597616E+03  0.41145506195E+03  0.25500000920E-02 0.  1.
</event>
<event>
 5   0  0.7461157E-03  0.1020319E+04  0.7818609E-02  0.9286536E-01
       -1   -1    0    0    0  501  0.00000000000E+00  0.00000000000E+00  0.28081086138E+03  0.28081086143E+03  0.50400001928E-02 0.  1.
        1   -1    0    0  501    0  0.00000000000E+00  0.00000000000E+00 -0.92682563555E+03  0.92682563556E+03  0.50400001928E-02 0. -1.
    10030    2    1    2    0    0  0.00000000000E+00  0.00000000000E+00 -0.64601477417E+03  0.12076364970E+04  0.10203189797E+04 0.  0.
        2    1    3    3  502    0  0.40096411909E+03  0.26653062186E+03 -0.52265124867E+03  0.71061601792E+03  0.25500000920E-02 0.  1.
       -2    1    3    3    0  502 -0.40096411909E+03 -0.26653062186E+03 -0.12336352550E+03  0.49702047907E+03  0.25500000920E-02 0. -1.
</event>
<event>
 5   0  0.1216322E-02  0.9810197E+03  0.7818609E-02  0.9329611E-01
       -2   -1    0    0    0  501  0.00000000000E+00  0.00000000000E+00  0.23769483182E+03  0.23769483184E+03  0.25500000920E-02 0.  1.
        2   -1    0    0  501    0  0.00000000000E+00  0.00000000000E+00 -0.10122219381E+04  0.10122219381E+04  0.25500000920E-02 0. -1.
    10030    2    1    2    0    0  0.00000000000E+00  0.00000000000E+00 -0.77452710627E+03  0.12499167699E+04  0.98101972121E+03 0.  0.
        2    1    3    3  502    0 -0.46913925361E+03 -0.38398792405E+02 -0.56304227390E+03  0.73388194469E+03  0.25500000920E-02 0. -1.
       -2    1    3    3    0  502  0.46913925361E+03  0.38398792405E+02 -0.21148483236E+03  0.51603482524E+03  0.25500000920E-02 0.  1.
</event>
<event>
 5   0  0.7073004E-03  0.9885492E+03  0.7818609E-02  0.9321194E-01
        1   -1    0    0  501    0  0.00000000000E+00  0.00000000000E+00  0.74576261245E+03  0.74576261246E+03  0.50400001928E-02 0.  1.
       -1   -1    0    0    0  501  0.00000000000E+00  0.00000000000E+00 -0.32759399766E+03  0.32759399770E+03  0.50400001928E-02 0. -1.
    10030    2    1    2    0    0  0.00000000000E+00  0.00000000000E+00  0.41816861478E+03  0.10733566102E+04  0.98854915012E+03 0.  0.
        1    1    3    3  502    0  0.29766861381E+03 -0.98059459572E+01 -0.21922447274E+03  0.36981364185E+03  0.50400001928E-02 0. -1.
       -1    1    3    3    0  502 -0.29766861381E+03  0.98059459572E+01  0.63739308752E+03  0.70354296832E+03  0.50400001928E-02 0.  1.
</event>
<event>
 5   0  0.7461157E-03  0.9922239E+03  0.7818609E-02  0.9317115E-01
       -1   -1    0    0    0  501  0.00000000000E+00  0.00000000000E+00  0.21557147598E+03  0.21557147604E+03  0.50400001928E-02 0. -1.
        1   -1    0    0  501    0  0.00000000000E+00  0.00000000000E+00 -0.11417423190E+04  0.11417423190E+04  0.50400001928E-02 0.  1.
    10030    2    1    2    0    0  0.00000000000E+00  0.00000000000E+00 -0.92617084305E+03  0.13573137951E+04  0.99222392019E+03 0.  0.
        2    1    3    3  502    0  0.45175931528E+03  0.12148588808E+03 -0.68903258714E+03  0.83283324027E+03  0.25500000920E-02 0.  1.
       -2    1    3    3    0  502 -0.45175931528E+03 -0.12148588808E+03 -0.23713825591E+03  0.52448055481E+03  0.25500000920E-02 0. -1.
</event>
<event>
 5   0  0.7224879E-03  0.9966021E+03  0.7818609E-02  0.9312279E-01
        1   -1    0    0  501    0  0.00000000000E+00  0.00000000000E+00  0.46301730414E+03  0.46301730416E+03  0.50400001928E-02 0. -1.
       -1   -1    0    0    0  501  0.00000000000E+00  0.00000000000E+00 -0.53627352791E+03  0.53627352793E+03  0.50400001928E-02 0.  1.
    10030    2    1    2    0    0  0.00000000000E+00  0.00000000000E+00 -0.73256223772E+02  0.99929083210E+03  0.99660207344E+03 0.  0.
        3    1    3    3  502    0 -0.41631135429E+02 -0.38372748243E+03 -0.35263545555E+03  0.52281134926E+03  0.10100000352E+00 0.  1.
       -3    1    3    3    0  502  0.41631135429E+02  0.38372748243E+03  0.27937923177E+03  0.47647948283E+03  0.10100000352E+00 0. -1.
</event>
<event>
 5   0  0.7241200E-03  0.9996110E+03  0.7818609E-02  0.9308972E-01
       -1   -1    0    0    0  501  0.00000000000E+00  0.00000000000E+00  0.48923275473E+03  0.48923275476E+03  0.50400001928E-02 0.  1.
        1   -1    0    0  501    0  0.00000000000E+00  0.00000000000E+00 -0.51060669922E+03  0.51060669924E+03  0.50400001928E-02 0. -1.
    10030    2    1    2    0    0  0.00000000000E+00  0.00000000000E+00 -0.21373944485E+02  0.99983945400E+03  0.99961096847E+03 0.  0.
        4    1    3    3  502    0 -0.35889700801E+03  0.11603440692E+02 -0.35841885936E+03  0.50735332249E+03  0.12699999809E+01 0. -1.
       -4    1    3    3    0  502  0.35889700801E+03 -0.11603440692E+02  0.33704491488E+03  0.49248613152E+03  0.12699999809E+01 0.  1.
</event>
<event>
 5   0  0.1191822E-02  0.9746117E+03  0.7818609E-02  0.9336837E-01
       -2   -1    0    0    0  501  0.00000000000E+00  0.00000000000E+00  0.21222131564E+03  0.21222131566E+03  0.25500000920E-02 0.  1.
        2   -1    0    0  501    0  0.00000000000E+00  0.00000000000E+00 -0.11189591453E+04  0.11189591453E+04  0.25500000920E-02 0. -1.
    10030    2    1    2    0    0  0.00000000000E+00  0.00000000000E+00 -0.90673782970E+03  0.13311804610E+04  0.97461168059E+03 0.  0.
        4    1    3    3  502    0  0.31397084441E+03  0.28301149582E+03 -0.12218817514E+03  0.44000541014E+03  0.12699999809E+01 0.  1.
       -4    1    3    3    0  502 -0.31397084441E+03 -0.28301149582E+03 -0.78454965455E+03  0.89117505086E+03  0.12699999809E+01 0. -1.
</event>
<event>
 5   0  0.1216322E-02  0.1006294E+04  0.7818609E-02  0.9301669E-01
        2   -1    0    0  501    0  0.00000000000E+00  0.00000000000E+00  0.50089878341E+03  0.50089878341E+03  0.25500000920E-02 0. -1.
       -2   -1    0    0    0  501  0.00000000000E+00  0.00000000000E+00 -0.50540490565E+03  0.50540490566E+03  0.25500000920E-02 0.  1.
    10030    2    1    2    0    0  0.00000000000E+00  0.00000000000E+00 -0.45061222465E+01  0.10063036891E+04  0.10062936001E+04 0.  0.
        2    1    3    3  502    0  0.17357202792E+03  0.66555604488E+02 -0.46980432928E+03  0.50524549002E+03  0.25500000920E-02 0.  1.
       -2    1    3    3    0  502 -0.17357202792E+03 -0.66555604488E+02  0.46529820704E+03  0.50105819906E+03  0.25500000920E-02 0. -1.
</event>
<event>
 5   0  0.1221315E-02  0.1000016E+04  0.7818609E-02  0.9308528E-01
       -2   -1    0    0    0  501  0.00000000000E+00  0.00000000000E+00  0.28142436565E+03  0.28142436566E+03  0.25500000920E-02 0.  1.
        2   -1    0    0  501    0  0.00000000000E+00  0.00000000000E+00 -0.88836596699E+03  0.88836596700E+03  0.25500000920E-02 0. -1.
    10030    2    1    2    0    0  0.00000000000E+00  0.00000000000E+00 -0.60694160134E+03  0.11697903327E+04  0.10000156573E+04 0.  0.
        5    1    3    3  502    0 -0.11421597226E+03 -0.17256171114E+03  0.22895271112E+03  0.30864909913E+03  0.46999998093E+01 0.  1.
       -5    1    3    3    0  502  0.11421597226E+03  0.17256171114E+03 -0.83589431246E+03  0.86114123352E+03  0.46999998093E+01 0. -1.
</event>
<event>
 5   0  0.1245850E-02  0.9999676E+03  0.7818609E-02  0.9308580E-01
       -2   -1    0    0    0  501  0.00000000000E+00  0.00000000000E+00  0.14898669851E+03  0.14898669853E+03  0.25500000920E-02 0. -1.
        2   -1    0    0  501    0  0.00000000000E+00  0.00000000000E+00 -0.16778933789E+04  0.16778933789E+04  0.25500000920E-02 0.  1.
    10030    2    1    2    0    0  0.00000000000E+00  0.00000000000E+00 -0.15289066804E+04  0.18268800775E+04  0.99996758949E+03 0.  0.
        3    1    3    3  502    0 -0.37721358789E+02  0.14800684554E+03 -0.16342277608E+04  0.16413498444E+04  0.10100000352E+00 0.  1.
       -3    1    3    3    0  502  0.37721358789E+02 -0.14800684554E+03  0.10532108035E+03  0.18553023313E+03  0.10100000352E+00 0. -1.
</event>
<event>
 5   0  0.1240503E-02  0.9904771E+03  0.7818609E-02  0.9319051E-01
       -2   -1    0    0    0  501  0.00000000000E+00  0.00000000000E+00  0.18686304042E+03  0.18686304044E+03  0.25500000920E-02 0.  1.
        2   -1    0    0  501    0  0.00000000000E+00  0.00000000000E+00 -0.13125186514E+04  0.13125186514E+04  0.25500000920E-02 0. -1.
    10030    2    1    2    0    0  0.00000000000E+00  0.00000000000E+00 -0.11256556110E+04  0.14993816919E+04  0.99047710895E+03 0.  0.
        1    1    3    3  502    0  0.43274815512E+03  0.16050711264E+03 -0.83458596817E+03  0.95371234514E+03  0.50400001928E-02 0. -1.
       -1    1    3    3    0  502 -0.43274815512E+03 -0.16050711264E+03 -0.29106964285E+03  0.54566934675E+03  0.50400001928E-02 0.  1.
</event>
<event>
 5   0  0.7224879E-03  0.1017919E+04  0.7818609E-02  0.9289107E-01
       -1   -1    0    0    0  501  0.00000000000E+00  0.00000000000E+00  0.14193681859E+03  0.14193681868E+03  0.50400001928E-02 0.  1.
        1   -1    0    0  501    0  0.00000000000E+00  0.00000000000E+00 -0.18250343217E+04  0.18250343217E+04  0.50400001928E-02 0. -1.
    10030    2    1    2    0    0  0.00000000000E+00  0.00000000000E+00 -0.16830975031E+04  0.19669711404E+04  0.10179185931E+04 0.  0.
        3    1    3    3  502    0  0.32089702962E+03  0.11466247701E+03 -0.11103710918E+03  0.35840150261E+03  0.10100000352E+00 0.  1.
       -3    1    3    3    0  502 -0.32089702962E+03 -0.11466247701E+03 -0.15720603939E+04  0.16085696377E+04  0.10100000352E+00 0. -1.
</event>
<event>
 5   0  0.7224879E-03  0.9985887E+03  0.7818609E-02  0.9310094E-01
        1   -1    0    0  501    0  0.00000000000E+00  0.00000000000E+00  0.81004166158E+03  0.81004166159E+03  0.50400001928E-02 0. -1.
       -1   -1    0    0    0  501  0.00000000000E+00  0.00000000000E+00 -0.30775561007E+03  0.30775561011E+03  0.50400001928E-02 0.  1.
    10030    2    1    2    0    0  0.00000000000E+00  0.00000000000E+00  0.50228605151E+03  0.11177972717E+04  0.99858873571E+03 0.  0.
        3    1    3    3  502    0  0.44142084976E+03  0.20821929639E+03  0.13327728521E+03  0.50593525964E+03  0.10100000352E+00 0.  1.
       -3    1    3    3    0  502 -0.44142084976E+03 -0.20821929639E+03  0.36900876630E+03  0.61186201206E+03  0.10100000352E+00 0. -1.
</event>
<event>
 5   0  0.1221315E-02  0.8327257E+03  0.7818609E-02  0.9513820E-01
        2   -1    0    0  501    0  0.00000000000E+00  0.00000000000E+00  0.14436293743E+04  0.14436293743E+04  0.25500000920E-02 0.  1.
       -2   -1    0    0    0  501  0.00000000000E+00  0.00000000000E+00 -0.12008485309E+03  0.12008485311E+03  0.25500000920E-02 0. -1.
    10030    2    1    2    0    0  0.00000000000E+00  0.00000000000E+00  0.13235445212E+04  0.15637142274E+04  0.83272569635E+03 0.  0.
        5    1    3    3  502    0 -0.17381472080E+03 -0.20501150129E+03  0.12588343907E+04  0.12872169149E+04  0.46999998093E+01 0.  1.
       -5    1    3    3    0  502  0.17381472080E+03  0.20501150129E+03  0.64710130496E+02  0.27649731249E+03  0.46999998093E+01 0. -1.
</event>
<event>
 5   0  0.7241200E-03  0.1038142E+04  0.7818609E-02  0.9267673E-01
       -1   -1    0    0    0  501  0.00000000000E+00  0.00000000000E+00  0.30210662420E+03  0.30210662424E+03  0.50400001928E-02 0. -1.
        1   -1    0    0  501    0  0.00000000000E+00  0.00000000000E+00 -0.89185274800E+03  0.89185274801E+03  0.50400001928E-02 0.  1.
    10030    2    1    2    0    0  0.00000000000E+00  0.00000000000E+00 -0.58974612380E+03  0.11939593722E+04  0.10381418458E+04 0.  0.
        4    1    3    3  502    0  0.10368629971E+02 -0.48878230788E+03 -0.94290307709E+02  0.49790353284E+03  0.12699999809E+01 0. -1.
       -4    1    3    3    0  502 -0.10368629971E+02  0.48878230788E+03 -0.49545581609E+03  0.69605583941E+03  0.12699999809E+01 0.  1.
</event>
<event>
 5   0  0.1240503E-02  0.1012284E+04  0.7818609E-02  0.9295174E-01
        2   -1    0    0  501    0  0.00000000000E+00  0.00000000000E+00  0.61973331964E+03  0.61973331964E+03  0.25500000920E-02 0.  1.
       -2   -1    0    0    0  501  0.00000000000E+00  0.00000000000E+00 -0.41337082249E+03  0.41337082250E+03  0.25500000920E-02 0. -1.
    10030    2    1    2    0    0  0.00000000000E+00  0.00000000000E+00  0.20636249715E+03  0.10331041421E+04  0.10122838971E+04 0.  0.
        1    1    3    3  502    0  0.25442087536E+03  0.17140767065E+03 -0.30767688181E+03  0.43448318149E+03  0.50400001928E-02 0.  1.
       -1    1    3    3    0  502 -0.25442087536E+03 -0.17140767065E+03  0.51403937896E+03  0.59862096065E+03  0.50400001928E-02 0. -1.
</event>
<event>
 5   0  0.1245850E-02  0.9738310E+03  0.7818609E-02  0.9337722E-01
        2   -1    0    0  501    0  0.00000000000E+00  0.00000000000E+00  0.70854317607E+03  0.70854317608E+03  0.25500000920E-02 0. -1.
       -2   -1    0    0    0  501  0.00000000000E+00  0.00000000000E+00 -0.33461149432E+03  0.33461149433E+03  0.25500000920E-02 0.  1.
    10030    2    1    2    0    0  0.00000000000E+00  0.00000000000E+00  0.37393168175E+03  0.10431546704E+04  0.97383097290E+03 0.  0.
        3    1    3    3  502    0 -0.36754772935E+02  0.29665041591E+03  0.59868946811E+03  0.66916475701E+03  0.10100000352E+00 0. -1.
       -3    1    3    3    0  502  0.36754772935E+02 -0.29665041591E+03 -0.22475778636E+03  0.37398991340E+03  0.10100000352E+00 0.  1.
</event>
<event>
 5   0  0.4782125E-03  0.9878401E+03  0.7818609E-02  0.9321983E-01
        3   -1    0    0  501    0  0.00000000000E+00  0.00000000000E+00  0.26468326857E+03  0.26468328784E+03  0.10100000352E+00 0. -1.
       -3   -1    0    0    0  501  0.00000000000E+00  0.00000000000E+00 -0.92169399402E+03  0.92169399955E+03  0.10100000352E+00 0.  1.
    10030    2    1    2    0    0  0.00000000000E+00  0.00000000000E+00 -0.65701072544E+03  0.11863772874E+04  0.98784005522E+03 0.  0.
        5    1    3    3  502    0  0.12323307752E+01  0.26162332847E+02  0.26382180119E+03  0.26516036484E+03  0.46999998093E+01 0. -1.
       -5    1    3    3    0  502 -0.12323307752E+01 -0.26162332847E+02 -0.92083252663E+03  0.92121692256E+03  0.46999998093E+01 0.  1.
</event>
<event>
 5   0  0.7073004E-03  0.9876154E+03  0.7818609E-02  0.9322233E-01
        1   -1    0    0  501    0  0.00000000000E+00  0.00000000000E+00  0.23865996611E+03  0.23865996616E+03  0.50400001928E-02 0. -1.
       -1   -1    0    0    0  501  0.00000000000E+00  0.00000000000E+00 -0.10217300561E+04  0.10217300561E+04  0.50400001928E-02 0.  1.
    10030    2    1    2    0    0  0.00000000000E+00  0.00000000000E+00 -0.78307009001E+03  0.12603900223E+04  0.98761543246E+03 0.  0.
        1    1    3    3  502    0  0.18790883191E+03  0.15423805181E+03 -0.94007180029E+03  0.97099644462E+03  0.50400001928E-02 0.  1.
       -1    1    3    3    0  502 -0.18790883191E+03 -0.15423805181E+03  0.15700171029E+03  0.28939357767E+03  0.50400001928E-02 0. -1.
</event>
<event>
 5   0  0.1245850E-02  0.9636605E+03  0.7818609E-02  0.9349325E-01
       -2   -1    0    0    0  501  0.00000000000E+00  0.00000000000E+00  0.16878975633E+03  0.16878975635E+03  0.25500000920E-02 0. -1.
        2   -1    0    0  501    0  0.00000000000E+00  0.00000000000E+00 -0.13754412598E+04  0.13754412598E+04  0.25500000920E-02 0.  1.
    10030    2    1    2    0    0  0.00000000000E+00  0.00000000000E+00 -0.12066515034E+04  0.15442310161E+04  0.96366051098E+03 0.  0.
        3    1    3    3  502    0  0.59245050427E+02  0.42012439442E+03 -0.96925599200E+03  0.10580508830E+04  0.10100000352E+00 0.  1.
       -3    1    3    3    0  502 -0.59245050427E+02 -0.42012439442E+03 -0.23739551143E+03  0.48618013312E+03  0.10100000352E+00 0. -1.
</event>
<event>
 5   0  0.1240503E-02  0.1016464E+04  0.7818609E-02  0.9290669E-01
        2   -1    0    0  501    0  0.00000000000E+00  0.00000000000E+00  0.70748598648E+03  0.70748598649E+03  0.25500000920E-02 0.  1.
       -2   -1    0    0    0  501  0.00000000000E+00  0.00000000000E+00 -0.36509548884E+03  0.36509548885E+03  0.25500000920E-02 0. -1.
    10030    2    1    2    0    0  0.00000000000E+00  0.00000000000E+00  0.34239049764E+03  0.10725814753E+04  0.10164643468E+04 0.  0.
        1    1    3    3  502    0 -0.41337311018E+02  0.36727242923E+03 -0.19692290405E+03  0.41877970429E+03  0.50400001928E-02 0. -1.
       -1    1    3    3    0  502  0.41337311018E+02 -0.36727242923E+03  0.53931340169E+03  0.65380177105E+03  0.50400001928E-02 0.  1.
</event>
<event>
 5   0  0.7461157E-03  0.9834321E+03  0.7818609E-02  0.9326905E-01
       -1   -1    0    0    0  501  0.00000000000E+00  0.00000000000E+00  0.43555394707E+03  0.43555394710E+03  0.50400001928E-02 0.  1.
        1   -1    0    0  501    0  0.00000000000E+00  0.00000000000E+00 -0.55511991220E+03  0.55511991222E+03  0.50400001928E-02 0. -1.
    10030    2    1    2    0    0  0.00000000000E+00  0.00000000000E+00 -0.11956596513E+03  0.99067385932E+03  0.98343208994E+03 0.  0.
        2    1    3    3  502    0  0.13737864046E+03  0.32426043108E+03  0.28591595389E+03  0.45361398866E+03  0.25500000920E-02 0.  1.
       -2    1    3    3    0  502 -0.13737864046E+03 -0.32426043108E+03 -0.40548191901E+03  0.53705987066E+03  0.25500000920E-02 0. -1.
</event>
<event>
 5   0  0.1191822E-02  0.1001304E+04  0.7818609E-02  0.9307116E-01
        2   -1    0    0  501    0  0.00000000000E+00  0.00000000000E+00  0.55465053526E+03  0.55465053527E+03  0.25500000920E-02 0.  1.
       -2   -1    0    0    0  501  0.00000000000E+00  0.00000000000E+00 -0.45191060654E+03  0.45191060654E+03  0.25500000920E-02 0. -1.
    10030    2    1    2    0    0  0.00000000000E+00  0.00000000000E+00  0.10273992873E+03  0.10065611418E+04  0.10013040693E+04 0.  0.
        4    1    3    3  502    0  0.29028403497E+02  0.36024670694E+03  0.39964312156E+03  0.53882889267E+03  0.12699999809E+01 0.  1.
       -4    1    3    3    0  502 -0.29028403497E+02 -0.36024670694E+03 -0.29690319283E+03  0.46773224914E+03  0.12699999809E+01 0. -1.
</event>
<event>
 5   0  0.1216322E-02  0.9150379E+03  0.7818609E-02  0.9406976E-01
        2   -1    0    0  501    0  0.00000000000E+00  0.00000000000E+00  0.13667455792E+04  0.13667455792E+04  0.25500000920E-02 0.  1.
       -2   -1    0    0    0  501  0.00000000000E+00  0.00000000000E+00 -0.15315476942E+03  0.15315476944E+03  0.25500000920E-02 0. -1.
    10030    2    1    2    0    0  0.00000000000E+00  0.00000000000E+00  0.12135908098E+04  0.15199003486E+04  0.91503793158E+03 0.  0.
        2    1    3    3  502    0  0.43024015541E+03  0.14062918736E+03  0.71748052355E+03  0.84832862815E+03  0.25500000920E-02 0. -1.
       -2    1    3    3    0  502 -0.43024015541E+03 -0.14062918736E+03  0.49611028622E+03  0.67157172049E+03  0.25500000920E-02 0.  1.
</event>
<event>
 5   0  0.7224879E-03  0.9859621E+03  0.7818609E-02  0.9324077E-01
       -1   -1    0    0    0  501  0.00000000000E+00  0.00000000000E+00  0.35753815435E+03  0.35753815439E+03  0.50400001928E-02 0. -1.
        1   -1    0    0  501    0  0.00000000000E+00  0.00000000000E+00 -0.67973247977E+03  0.67973247979E+03  0.50400001928E-02 0.  1.
    10030    2    1    2    0    0  0.00000000000E+00  0.00000000000E+00 -0.32219432541E+03  0.10372706342E+04  0.98596206073E+03 0.  0.
        3    1    3    3  502    0  0.24753582851E+02 -0.26816395141E+03 -0.59550860449E+03  0.65357107717E+03  0.10100000352E+00 0.  1.
       -3    1    3    3    0  502 -0.24753582851E+02  0.26816395141E+03  0.27331427907E+03  0.38369955700E+03  0.10100000352E+00 0. -1.
</event>
<event>
 5   0  0.7241200E-03  0.9925863E+03  0.7818609E-02  0.9316714E-01
        1   -1    0    0  501    0  0.00000000000E+00  0.00000000000E+00  0.48548509550E+03  0.48548509552E+03  0.50400001928E-02 0. -1.
       -1   -1    0    0    0  501  0.00000000000E+00  0.00000000000E+00 -0.50734179744E+03  0.50734179747E+03  0.50400001928E-02 0.  1.
    10030    2    1    2    0    0  0.00000000000E+00  0.00000000000E+00 -0.21856701945E+02  0.99282689299E+03  0.99258628039E+03 0.  0.
        4    1    3    3  502    0 -0.48036530649E+03  0.85497023613E+02  0.79893986904E+02  0.49441402768E+03  0.12699999809E+01 0. -1.
       -4    1    3    3    0  502  0.48036530649E+03 -0.85497023613E+02 -0.10175068885E+03  0.49841286531E+03  0.12699999809E+01 0.  1.
</event>
<event>
 5   0  0.6967681E-03  0.9614579E+03  0.7818609E-02  0.9351857E-01
        1   -1    0    0  501    0  0.00000000000E+00  0.00000000000E+00  0.47829980422E+03  0.47829980425E+03  0.50400001928E-02 0.  1.
       -1   -1    0    0    0  501  0.00000000000E+00  0.00000000000E+00 -0.48317041242E+03  0.48317041244E+03  0.50400001928E-02 0. -1.
    10030    2    1    2    0    0  0.00000000000E+00  0.00000000000E+00 -0.48706081911E+01  0.96147021669E+03  0.96145787987E+03 0.  0.
        5    1    3    3  502    0 -0.32352272617E+03 -0.70041706458E+02  0.34614545683E+03  0.47896927070E+03  0.46999998093E+01 0.  1.
       -5    1    3    3    0  502  0.32352272617E+03  0.70041706458E+02 -0.35101606502E+03  0.48250094600E+03  0.46999998093E+01 0. -1.
</event>
<event>
 5   0  0.7241200E-03  0.1000592E+04  0.7818609E-02  0.9307896E-01
       -1   -1    0    0    0  501  0.00000000000E+00  0.00000000000E+00  0.11716134246E+04  0.11716134246E+04  0.50400001928E-02 0. -1.
        1   -1    0    0  501    0  0.00000000000E+00  0.00000000000E+00 -0.21363349110E+03  0.21363349116E+03  0.50400001928E-02 0.  1.
    10030    2    1    2    0    0  0.00000000000E+00  0.00000000000E+00  0.95797993353E+03  0.13852469158E+04  0.10005915574E+04 0.  0.
        4    1    3    3  502    0  0.36885750425E+03  0.32173469463E+03  0.62236471715E+03  0.79177555293E+03  0.12699999809E+01 0. -1.
       -4    1    3    3    0  502 -0.36885750425E+03 -0.32173469463E+03  0.33561521638E+03  0.59347136286E+03  0.12699999809E+01 0.  1.
</event>
<event>
 5   0  0.7073004E-03  0.8502344E+03  0.7818609E-02  0.9490022E-01
       -1   -1    0    0    0  501  0.00000000000E+00  0.00000000000E+00  0.13020699899E+03  0.13020699909E+03  0.50400001928E-02 0. -1.
        1   -1    0    0  501    0  0.00000000000E+00  0.00000000000E+00 -0.13879795399E+04  0.13879795399E+04  0.50400001928E-02 0.  1.
    10030    2    1    2    0    0  0.00000000000E+00  0.00000000000E+00 -0.12577725409E+04  0.15181865390E+04  0.85023443974E+03 0.  0.
        1    1    3    3  502    0  0.10385508166E+03 -0.16758182285E+03 -0.13014120383E+04  0.13162609312E+04  0.50400001928E-02 0.  1.
       -1    1    3    3    0  502 -0.10385508166E+03  0.16758182285E+03  0.43639497441E+02  0.20192560783E+03  0.50400001928E-02 0. -1.
</event>
<event>
 5   0  0.1221315E-02  0.1042292E+04  0.7818609E-02  0.9263339E-01
        2   -1    0    0  501    0  0.00000000000E+00  0.00000000000E+00  0.14797429417E+04  0.14797429417E+04  0.25500000920E-02 0. -1.
       -2   -1    0    0    0  501  0.00000000000E+00  0.00000000000E+00 -0.18354066551E+03  0.18354066552E+03  0.25500000920E-02 0.  1.
    10030    2    1    2    0    0  0.00000000000E+00  0.00000000000E+00  0.12962022762E+04  0.16632836072E+04  0.10422917141E+04 0.  0.
        5    1    3    3  502    0  0.24894769584E+03 -0.38444125964E+03  0.10448122277E+04  0.11408000344E+04  0.46999998093E+01 0.  1.
       -5    1    3    3    0  502 -0.24894769584E+03  0.38444125964E+03  0.25139004850E+03  0.52248357281E+03  0.46999998093E+01 0. -1.
</event>
<event>
 5   0  0.7241200E-03  0.9998603E+03  0.7818609E-02  0.9308698E-01
       -1   -1    0    0    0  501  0.00000000000E+00  0.00000000000E+00  0.51382308000E+03  0.51382308002E+03  0.50400001928E-02 0.  1.
        1   -1    0    0  501    0  0.00000000000E+00  0.00000000000E+00 -0.48641282619E+03  0.48641282621E+03  0.50400001928E-02 0. -1.
    10030    2    1    2    0    0  0.00000000000E+00  0.00000000000E+00  0.27410253810E+02  0.10002359062E+04  0.99986026329E+03 0.  0.
        4    1    3    3  502    0 -0.24070867166E+03  0.24943303469E+03  0.37407791624E+03  0.50999353303E+03  0.12699999809E+01 0.  1.
       -4    1    3    3    0  502  0.24070867166E+03 -0.24943303469E+03 -0.34666766243E+03  0.49024237320E+03  0.12699999809E+01 0. -1.
</event>
<event>
 5   0  0.4782125E-03  0.8215393E+03  0.7818609E-02  0.9529353E-01
        4   -1    0    0  501    0  0.00000000000E+00  0.00000000000E+00  0.32051787324E+03  0.32052038931E+03  0.12699999809E+01 0. -1.
       -4   -1    0    0    0  501  0.00000000000E+00  0.00000000000E+00 -0.52642931778E+03  0.52643084970E+03  0.12699999809E+01 0.  1.
    10030    2    1    2    0    0  0.00000000000E+00  0.00000000000E+00 -0.20591144454E+03  0.84695123901E+03  0.82153933458E+03 0.  0.
        2    1    3    3  502    0 -0.66633612063E+02 -0.20519984103E+03 -0.46331729266E+03  0.51108700502E+03  0.25500000920E-02 0.  1.
       -2    1    3    3    0  502  0.66633612063E+02  0.20519984103E+03  0.25740584812E+03  0.33586423399E+03  0.25500000920E-02 0. -1.
</event>
<event>
 5   0  0.1245850E-02  0.1002232E+04  0.7818609E-02  0.9306100E-01
        2   -1    0    0  501    0  0.00000000000E+00  0.00000000000E+00  0.18000221540E+04  0.18000221540E+04  0.25500000920E-02 0. -1.
       -2   -1    0    0    0  501  0.00000000000E+00  0.00000000000E+00 -0.13950780750E+03  0.13950780752E+03  0.25500000920E-02 0.  1.
    10030    2    1    2    0    0  0.00000000000E+00  0.00000000000E+00  0.16605143465E+04  0.19395299615E+04  0.10022317979E+04 0.  0.
        3    1    3    3  502    0 -0.42519147139E+03 -0.26437378692E+03  0.78985585324E+03  0.93517568705E+03  0.10100000352E+00 0.  1.
       -3    1    3    3    0  502  0.42519147139E+03  0.26437378692E+03  0.87065849323E+03  0.10043542744E+04  0.10100000352E+00 0. -1.
</event>
<event>
 5   0  0.1245850E-02  0.1004390E+04  0.7818609E-02  0.9303743E-01
        2   -1    0    0  501    0  0.00000000000E+00  0.00000000000E+00  0.80089979981E+03  0.80089979981E+03  0.25500000920E-02 0.  1.
       -2   -1    0    0    0  501  0.00000000000E+00  0.00000000000E+00 -0.31489582480E+03  0.31489582481E+03  0.25500000920E-02 0. -1.
    10030    2    1    2    0    0  0.00000000000E+00  0.00000000000E+00  0.48600397501E+03  0.11157956246E+04  0.10043903684E+04 0.  0.
        3    1    3    3  502    0  0.11232399902E+03  0.26587902244E+03 -0.21354576969E+03  0.35904058445E+03  0.10100000352E+00 0. -1.
       -3    1    3    3    0  502 -0.11232399902E+03 -0.26587902244E+03  0.69954974469E+03  0.75675504017E+03  0.10100000352E+00 0.  1.
</event>
<event>
 5   0  0.6967681E-03  0.1001692E+04  0.7818609E-02  0.9306691E-01
        1   -1    0    0  501    0  0.00000000000E+00  0.00000000000E+00  0.79478522529E+03  0.79478522530E+03  0.50400001928E-02 0. -1.
       -1   -1    0    0    0  501  0.00000000000E+00  0.00000000000E+00 -0.31561577951E+03  0.31561577955E+03  0.50400001928E-02 0.  1.
    10030    2    1    2    0    0  0.00000000000E+00  0.00000000000E+00  0.47916944578E+03  0.11104010049E+04  0.10016920853E+04 0.  0.
        5    1    3    3  502    0  0.11196539551E+02  0.14628420730E+03  0.77040542892E+03  0.78426465349E+03  0.46999998093E+01 0. -1.
       -5    1    3    3    0  502 -0.11196539551E+02 -0.14628420730E+03 -0.29123598314E+03  0.32613635136E+03  0.46999998093E+01 0.  1.
</event>
<event>
 5   0  0.1221315E-02  0.9938688E+03  0.7818609E-02  0.9315295E-01
       -2   -1    0    0    0  501  0.00000000000E+00  0.00000000000E+00  0.18910055031E+03  0.18910055033E+03  0.25500000920E-02 0. -1.
        2   -1    0    0  501    0  0.00000000000E+00  0.00000000000E+00 -0.13058862190E+04  0.13058862190E+04  0.25500000920E-02 0.  1.
    10030    2    1    2    0    0  0.00000000000E+00  0.00000000000E+00 -0.11167856687E+04  0.14949867693E+04  0.99386880959E+03 0.  0.
        5    1    3    3  502    0 -0.20799771508E+03  0.23545691803E+03 -0.11375011377E+04  0.11800991221E+04  0.46999998093E+01 0. -1.
       -5    1    3    3    0  502  0.20799771508E+03 -0.23545691803E+03  0.20715469009E+02  0.31488764723E+03  0.46999998093E+01 0.  1.
</event>
<event>
 5   0  0.1245850E-02  0.1202045E+04  0.7818609E-02  0.9111068E-01
       -2   -1    0    0    0  501  0.00000000000E+00  0.00000000000E+00  0.43194155862E+03  0.43194155862E+03  0.25500000920E-02 0. -1.
        2   -1    0    0  501    0  0.00000000000E+00  0.00000000000E+00 -0.83628915085E+03  0.83628915085E+03  0.25500000920E-02 0.  1.
    10030    2    1    2    0    0  0.00000000000E+00  0.00000000000E+00 -0.40434759223E+03  0.12682307095E+04  0.12020449896E+04 0.  0.
        3    1    3    3  502    0  0.19211485259E+03 -0.19993061602E+03 -0.76477722263E+03  0.81348913838E+03  0.10100000352E+00 0.  1.
       -3    1    3    3    0  502 -0.19211485259E+03  0.19993061602E+03  0.36042963040E+03  0.45474157109E+03  0.10100000352E+00 0. -1.
</event>
<event>
 5   0  0.7224879E-03  0.9825567E+03  0.7818609E-02  0.9327886E-01
       -1   -1    0    0    0  501  0.00000000000E+00  0.00000000000E+00  0.74737251688E+03  0.74737251690E+03  0.50400001928E-02 0.  1.
        1   -1    0    0  501    0  0.00000000000E+00  0.00000000000E+00 -0.32293723160E+03  0.32293723164E+03  0.50400001928E-02 0. -1.
    10030    2    1    2    0    0  0.00000000000E+00  0.00000000000E+00  0.42443528529E+03  0.10703097485E+04  0.98255668865E+03 0.  0.
        3    1    3    3  502    0  0.46015861476E+03  0.54852516842E+02  0.34557567050E+02  0.46470311489E+03  0.10100000352E+00 0. -1.
       -3    1    3    3    0  502 -0.46015861476E+03 -0.54852516842E+02  0.38987771824E+03  0.60560663365E+03  0.10100000352E+00 0.  1.
</event>
<event>
 5   0  0.7224879E-03  0.9029129E+03  0.7818609E-02  0.9421947E-01
        1   -1    0    0  501    0  0.00000000000E+00  0.00000000000E+00  0.54224408619E+03  0.54224408621E+03  0.50400001928E-02 0. -1.
       -1   -1    0    0    0  501  0.00000000000E+00  0.00000000000E+00 -0.37586934836E+03  0.37586934840E+03  0.50400001928E-02 0.  1.
    10030    2    1    2    0    0  0.00000000000E+00  0.00000000000E+00  0.16637473782E+03  0.91811343461E+03  0.90291291132E+03 0.  0.
        3    1    3    3  502    0  0.24528193020E+03  0.62399368168E+02 -0.29694577106E+03  0.39017138232E+03  0.10100000352E+00 0.  1.
       -3    1    3    3    0  502 -0.24528193020E+03 -0.62399368168E+02  0.46332050888E+03  0.52794205229E+03  0.10100000352E+00 0. -1.
</event>
<event>
 5   0  0.7241200E-03  0.1024047E+04  0.7818609E-02  0.9282556E-01
       -1   -1    0    0    0  501  0.00000000000E+00  0.00000000000E+00  0.79078017318E+03  0.79078017320E+03  0.50400001928E-02 0. -1.
        1   -1    0    0  501    0  0.00000000000E+00  0.00000000000E+00 -0.33153104345E+03  0.33153104349E+03  0.50400001928E-02 0.  1.
    10030    2    1    2    0    0  0.00000000000E+00  0.00000000000E+00  0.45924912972E+03  0.11223112167E+04  0.10240472176E+04 0.  0.
        4    1    3    3  502    0 -0.44120306317E+03  0.18122219558E+03  0.25573661125E+02  0.47765809129E+03  0.12699999809E+01 0.  1.
       -4    1    3    3    0  502  0.44120306317E+03 -0.18122219558E+03  0.43367546860E+03  0.64465312540E+03  0.12699999809E+01 0. -1.
</event>
<event>
 5   0  0.4782125E-03  0.9952639E+03  0.7818609E-02  0.9313755E-01
        3   -1    0    0  501    0  0.00000000000E+00  0.00000000000E+00  0.70889621314E+03  0.70889622033E+03  0.10100000352E+00 0. -1.
       -3   -1    0    0    0  501  0.00000000000E+00  0.00000000000E+00 -0.34932836226E+03  0.34932837686E+03  0.10100000352E+00 0.  1.
    10030    2    1    2    0    0  0.00000000000E+00  0.00000000000E+00  0.35956785087E+03  0.10582245972E+04  0.99526391411E+03 0.  0.
        3    1    3    3  502    0 -0.22632605894E+03 -0.25465559968E+03  0.56544793387E+03  0.66015478149E+03  0.10100000352E+00 0. -1.
       -3    1    3    3    0  502  0.22632605894E+03  0.25465559968E+03 -0.20588008299E+03  0.39806981571E+03  0.10100000352E+00 0.  1.
</event>
<event>
 5   0  0.1240503E-02  0.9928039E+03  0.7818609E-02  0.9316473E-01
        2   -1    0    0  501    0  0.00000000000E+00  0.00000000000E+00  0.15444732036E+04  0.15444732036E+04  0.25500000920E-02 0.  1.
       -2   -1    0    0    0  501  0.00000000000E+00  0.00000000000E+00 -0.15954623048E+03  0.15954623050E+03  0.25500000920E-02 0. -1.
    10030    2    1    2    0    0  0.00000000000E+00  0.00000000000E+00  0.13849269731E+04  0.17040194341E+04  0.99280386326E+03 0.  0.
        1    1    3    3  502    0 -0.39394814983E+03  0.22507337467E+03  0.34678750289E+03  0.57106456809E+03  0.50400001928E-02 0. -1.
       -1    1    3    3    0  502  0.39394814983E+03 -0.22507337467E+03  0.10381394702E+04  0.11329548660E+04  0.50400001928E-02 0.  1.
</event>
<event>
 5   0  0.1221315E-02  0.1021606E+04  0.7818609E-02  0.9285160E-01
        2   -1    0    0  501    0  0.00000000000E+00  0.00000000000E+00  0.14735660671E+04  0.14735660671E+04  0.25500000920E-02 0.  1.
       -2   -1    0    0    0  501  0.00000000000E+00  0.00000000000E+00 -0.17706682833E+03  0.17706682834E+03  0.25500000920E-02 0. -1.
    10030    2    1    2    0    0  0.00000000000E+00  0.00000000000E+00  0.12964992388E+04  0.16506328955E+04  0.10216059316E+04 0.  0.
        5    1    3    3  502    0  0.31312635723E+03  0.38487825956E+03  0.84426686681E+03  0.97927933843E+03  0.46999998093E+01 0.  1.
       -5    1    3    3    0  502 -0.31312635723E+03 -0.38487825956E+03  0.45223237197E+03  0.67135355703E+03  0.46999998093E+01 0. -1.
</event>
<event>
 5   0  0.1216322E-02  0.1004961E+04  0.7818609E-02  0.9303121E-01
       -2   -1    0    0    0  501  0.00000000000E+00  0.00000000000E+00  0.24458423033E+03  0.24458423034E+03  0.25500000920E-02 0. -1.
        2   -1    0    0  501    0  0.00000000000E+00  0.00000000000E+00 -0.10323087319E+04  0.10323087319E+04  0.25500000920E-02 0.  1.
    10030    2    1    2    0    0  0.00000000000E+00  0.00000000000E+00 -0.78772450157E+03  0.12768929622E+04  0.10049605697E+04 0.  0.
        2    1    3    3  502    0 -0.75396238341E+02  0.48686098441E+03 -0.51944017942E+03  0.71591641334E+03  0.25500000920E-02 0.  1.
       -2    1    3    3    0  502  0.75396238341E+02 -0.48686098441E+03 -0.26828432216E+03  0.56097654890E+03  0.25500000920E-02 0. -1.
</event>
<event>
 5   0  0.1245850E-02  0.1005124E+04  0.7818609E-02  0.9302943E-01
       -2   -1    0    0    0  501  0.00000000000E+00  0.00000000000E+00  0.57088121128E+03  0.57088121128E+03  0.25500000920E-02 0. -1.
        2   -1    0    0  501    0  0.00000000000E+00  0.00000000000E+00 -0.44241863214E+03  0.44241863215E+03  0.25500000920E-02 0.  1.
    10030    2    1    2    0    0  0.00000000000E+00  0.00000000000E+00  0.12846257914E+03  0.10132998434E+04  0.10051238423E+04 0.  0.
        3    1    3    3  502    0 -0.28701159338E+03 -0.29194304494E+03 -0.22962227552E+03  0.46939620348E+03  0.10100000352E+00 0.  1.
       -3    1    3    3    0  502  0.28701159338E+03  0.29194304494E+03  0.35808485465E+03  0.54390363995E+03  0.10100000352E+00 0. -1.
</event>
<event>
 5   0  0.7461157E-03  0.9699600E+03  0.7818609E-02  0.9342120E-01
        1   -1    0    0  501    0  0.00000000000E+00  0.00000000000E+00  0.10340231168E+04  0.10340231168E+04  0.50400001928E-02 0. -1.
       -1   -1    0    0    0  501  0.00000000000E+00  0.00000000000E+00 -0.22746649329E+03  0.22746649334E+03  0.50400001928E-02 0.  1.
    10030    2    1    2    0    0  0.00000000000E+00  0.00000000000E+00  0.80655662354E+03  0.12614896102E+04  0.96996002475E+03 0.  0.
        2    1    3    3  502    0  0.41630179706E+03  0.12543133193E+03  0.12383856632E+03  0.45207985553E+03  0.25500000920E-02 0.  1.
       -2    1    3    3    0  502 -0.41630179706E+03 -0.12543133193E+03  0.68271805722E+03  0.80940975465E+03  0.25500000920E-02 0. -1.
</event>
<event>
 5   0  0.7073004E-03  0.6853244E+03  0.7818609E-02  0.9742664E-01
       -1   -1    0    0    0  501  0.00000000000E+00  0.00000000000E+00  0.19150500784E+03  0.19150500790E+03  0.50400001928E-02 0.  1.
        1   -1    0    0  501    0  0.00000000000E+00  0.00000000000E+00 -0.61312956531E+03  0.61312956533E+03  0.50400001928E-02 0. -1.
    10030    2    1    2    0    0  0.00000000000E+00  0.00000000000E+00 -0.42162455747E+03  0.80463457323E+03  0.68532439689E+03 0.  0.
        1    1    3    3  502    0 -0.13159396783E+03  0.30353349650E+03 -0.10600958943E+03  0.34740119306E+03  0.50400001928E-02 0.  1.
       -1    1    3    3    0  502  0.13159396783E+03 -0.30353349650E+03 -0.31561496804E+03  0.45723338017E+03  0.50400001928E-02 0. -1.
</event>
<event>
 5   0  0.1245850E-02  0.1381069E+04  0.7818609E-02  0.8967637E-01
        2   -1    0    0  501    0  0.00000000000E+00  0.00000000000E+00  0.24702576865E+04  0.24702576865E+04  0.25500000920E-02 0. -1.
       -2   -1    0    0    0  501  0.00000000000E+00  0.00000000000E+00 -0.19303177217E+03  0.19303177219E+03  0.25500000920E-02 0.  1.
    10030    2    1    2    0    0  0.00000000000E+00  0.00000000000E+00  0.22772259143E+04  0.26632894587E+04  0.13810694682E+04 0.  0.
        3    1    3    3  502    0 -0.10330173795E+03  0.68266450996E+03  0.11611125301E+04  0.13508828224E+04  0.10100000352E+00 0. -1.
       -3    1    3    3    0  502  0.10330173795E+03 -0.68266450996E+03  0.11161133843E+04  0.13124066363E+04  0.10100000352E+00 0.  1.
</event>
<event>
 5   0  0.1221315E-02  0.1005608E+04  0.7818609E-02  0.9302415E-01
       -2   -1    0    0    0  501  0.00000000000E+00  0.00000000000E+00  0.25789009607E+03  0.25789009608E+03  0.25500000920E-02 0.  1.
        2   -1    0    0  501    0  0.00000000000E+00  0.00000000000E+00 -0.98030872112E+03  0.98030872113E+03  0.25500000920E-02 0. -1.
    10030    2    1    2    0    0  0.00000000000E+00  0.00000000000E+00 -0.72241862506E+03  0.12381988172E+04  0.10056080952E+04 0.  0.
        5    1    3    3  502    0 -0.55772433276E+00  0.40467286739E+03  0.61815050988E+01  0.40474775066E+03  0.46999998093E+01 0.  1.
       -5    1    3    3    0  502  0.55772433276E+00 -0.40467286739E+03 -0.72860013016E+03  0.83345106654E+03  0.46999998093E+01 0. -1.
</event>
<event>
 5   0  0.7224879E-03  0.9649178E+03  0.7818609E-02  0.9347882E-01
        1   -1    0    0  501    0  0.00000000000E+00  0.00000000000E+00  0.46207964882E+03  0.46207964884E+03  0.50400001928E-02 0.  1.
       -1   -1    0    0    0  501  0.00000000000E+00  0.00000000000E+00 -0.50373696697E+03  0.50373696699E+03  0.50400001928E-02 0. -1.
    10030    2    1    2    0    0  0.00000000000E+00  0.00000000000E+00 -0.41657318154E+02  0.96581661584E+03  0.96491782203E+03 0.  0.
        3    1    3    3  502    0 -0.33588924742E+03  0.34163428668E+03  0.36066334206E+02  0.48045432981E+03  0.10100000352E+00 0. -1.
       -3    1    3    3    0  502  0.33588924742E+03 -0.34163428668E+03 -0.77723652359E+02  0.48536228603E+03  0.10100000352E+00 0.  1.
</event>
<event>
 5   0  0.7461157E-03  0.1015255E+04  0.7818609E-02  0.9291970E-01
        1   -1    0    0  501    0  0.00000000000E+00  0.00000000000E+00  0.53359244732E+03  0.53359244735E+03  0.50400001928E-02 0. -1.
       -1   -1    0    0    0  501  0.00000000000E+00  0.00000000000E+00 -0.48292609252E+03  0.48292609255E+03  0.50400001928E-02 0.  1.
    10030    2    1    2    0    0  0.00000000000E+00  0.00000000000E+00  0.50666354799E+02  0.10165185399E+04  0.10152550726E+04 0.  0.
        2    1    3    3  502    0 -0.83021704389E+01  0.48732652733E+03  0.16738872461E+03  0.51533974755E+03  0.25500000920E-02 0. -1.
       -2    1    3    3    0  502  0.83021704389E+01 -0.48732652733E+03 -0.11672236981E+03  0.50117879234E+03  0.25500000920E-02 0.  1.
</event>
<event>
 5   0  0.7461157E-03  0.9899878E+03  0.7818609E-02  0.9319595E-01
       -1   -1    0    0    0  501  0.00000000000E+00  0.00000000000E+00  0.39371293078E+03  0.39371293082E+03  0.50400001928E-02 0. -1.
        1   -1    0    0  501    0  0.00000000000E+00  0.00000000000E+00 -0.62232893865E+03  0.62232893867E+03  0.50400001928E-02 0.  1.
    10030    2    1    2    0    0  0.00000000000E+00  0.00000000000E+00 -0.22861600786E+03  0.10160418695E+04  0.98998777846E+03 0.  0.
        2    1    3    3  502    0 -0.26090183218E+03 -0.23480525739E+03 -0.47251441999E+03  0.58861970069E+03  0.25500000920E-02 0.  1.
       -2    1    3    3    0  502  0.26090183218E+03  0.23480525739E+03  0.24389841213E+03  0.42742216879E+03  0.25500000920E-02 0. -1.
</event>
<event>
 5   0  0.1191822E-02  0.9781069E+03  0.7818609E-02  0.9332888E-01
       -2   -1    0    0    0  501  0.00000000000E+00  0.00000000000E+00  0.18223749413E+03  0.18223749415E+03  0.25500000920E-02 0.  1.
        2   -1    0    0  501    0  0.00000000000E+00  0.00000000000E+00 -0.13124263745E+04  0.13124263745E+04  0.25500000920E-02 0. -1.
    10030    2    1    2    0    0  0.00000000000E+00  0.00000000000E+00 -0.11301888804E+04  0.14946638687E+04  0.97810693430E+03 0.  0.
        4    1    3    3  502    0  0.37486847788E+03  0.10819641276E+03 -0.11452252041E+03  0.40663234011E+03  0.12699999809E+01 0.  1.
       -4    1    3    3    0  502 -0.37486847788E+03 -0.10819641276E+03 -0.10156663600E+04  0.10880315285E+04  0.12699999809E+01 0. -1.
</event>
<event>
 5   0  0.6967681E-03  0.9937096E+03  0.7818609E-02  0.9315471E-01
       -1   -1    0    0    0  501  0.00000000000E+00  0.00000000000E+00  0.26542322092E+03  0.26542322097E+03  0.50400001928E-02 0. -1.
        1   -1    0    0  501    0  0.00000000000E+00  0.00000000000E+00 -0.93007942727E+03  0.93007942729E+03  0.50400001928E-02 0.  1.
    10030    2    1    2    0    0  0.00000000000E+00  0.00000000000E+00 -0.66465620635E+03  0.11955026483E+04  0.99370956992E+03 0.  0.
        5    1    3    3  502    0  0.81315846910E+02 -0.25177847042E+03 -0.83824451948E+03  0.87902254212E+03  0.46999998093E+01 0.  1.
       -5    1    3    3    0  502 -0.81315846910E+02  0.25177847042E+03  0.17358831313E+03  0.31648010614E+03  0.46999998093E+01 0. -1.
</event>
<event>
 5   0  0.1221315E-02  0.9928495E+03  0.7818609E-02  0.9316422E-01
        2   -1    0    0  501    0  0.00000000000E+00  0.00000000000E+00  0.19879907809E+04  0.19879907809E+04  0.25500000920E-02 0. -1.
       -2   -1    0    0    0  501  0.00000000000E+00  0.00000000000E+00 -0.12396312181E+03  0.12396312184E+03  0.25500000920E-02 0.  1.
    10030    2    1    2    0    0  0.00000000000E+00  0.00000000000E+00  0.18640276591E+04  0.21119539028E+04  0.99284952207E+03 0.  0.
        5    1    3    3  502    0  0.47002227209E+03  0.12008212040E+03  0.70815770625E+03  0.85839971973E+03  0.46999998093E+01 0. -1.
       -5    1    3    3    0  502 -0.47002227209E+03 -0.12008212040E+03  0.11558699529E+04  0.12535541831E+04  0.46999998093E+01 0.  1.
</event>
<event>
 5   0  0.7461157E-03  0.9994559E+03  0.7818609E-02  0.9309142E-01
        1   -1    0    0  501    0  0.00000000000E+00  0.00000000000E+00  0.15934252918E+04  0.15934252918E+04  0.50400001928E-02 0. -1.
       -1   -1    0    0    0  501  0.00000000000E+00  0.00000000000E+00 -0.15672403111E+03  0.15672403119E+03  0.50400001928E-02 0.  1.
    10030    2    1    2    0    0  0.00000000000E+00  0.00000000000E+00  0.14367012606E+04  0.17501493230E+04  0.99945592214E+03 0.  0.
        2    1    3    3  502    0 -0.28617430397E+03  0.31477863204E+03  0.11774824963E+04  0.12519769760E+04  0.25500000920E-02 0. -1.
       -2    1    3    3    0  502  0.28617430397E+03 -0.31477863204E+03  0.25921876437E+03  0.49817234694E+03  0.25500000920E-02 0.  1.
</event>
<event>
 5   0  0.1240503E-02  0.1018222E+04  0.7818609E-02  0.9288782E-01
       -2   -1    0    0    0  501  0.00000000000E+00  0.00000000000E+00  0.10550902491E+04  0.10550902491E+04  0.25500000920E-02 0. -1.
        2   -1    0    0  501    0  0.00000000000E+00  0.00000000000E+00 -0.24566039138E+03  0.24566039140E+03  0.25500000920E-02 0.  1.
    10030    2    1    2    0    0  0.00000000000E+00  0.00000000000E+00  0.80942985770E+03  0.13007506405E+04  0.10182217510E+04 0.  0.
        1    1    3    3  502    0 -0.13615755467E+03  0.46669935044E+03  0.59780663018E+03  0.77053223846E+03  0.50400001928E-02 0. -1.
       -1    1    3    3    0  502  0.13615755467E+03 -0.46669935044E+03  0.21162322752E+03  0.53021840202E+03  0.50400001928E-02 0.  1.
</event>
<event>
 5   0  0.6967681E-03  0.1021561E+04  0.7818609E-02  0.9285209E-01
        1   -1    0    0  501    0  0.00000000000E+00  0.00000000000E+00  0.40262952286E+03  0.40262952289E+03  0.50400001928E-02 0. -1.
       -1   -1    0    0    0  501  0.00000000000E+00  0.00000000000E+00 -0.64798166924E+03  0.64798166926E+03  0.50400001928E-02 0.  1.
    10030    2    1    2    0    0  0.00000000000E+00  0.00000000000E+00 -0.24535214639E+03  0.10506111922E+04  0.10215606694E+04 0.  0.
        5    1    3    3  502    0 -0.41178384422E+03  0.46910793327E+02 -0.42967437404E+03  0.59699976097E+03  0.46999998093E+01 0.  1.
       -5    1    3    3    0  502  0.41178384422E+03 -0.46910793327E+02  0.18432222766E+03  0.45361143118E+03  0.46999998093E+01 0. -1.
</event>
<event>
 5   0  0.4782125E-03  0.9663440E+03  0.7818609E-02  0.9346248E-01
       -4   -1    0    0    0  501  0.00000000000E+00  0.00000000000E+00  0.79943429293E+03  0.79943530170E+03  0.12699999809E+01 0.  1.
        4   -1    0    0  501    0  0.00000000000E+00  0.00000000000E+00 -0.29202292072E+03  0.29202568230E+03  0.12699999809E+01 0. -1.
    10030    2    1    2    0    0  0.00000000000E+00  0.00000000000E+00  0.50741137221E+03  0.10914609840E+04  0.96634402723E+03 0.  0.
        1    1    3    3  502    0 -0.57290838999E+01 -0.13073049991E+03 -0.27162980240E+03  0.30150627785E+03  0.50400001928E-02 0. -1.
       -1    1    3    3    0  502  0.57290838999E+01  0.13073049991E+03  0.77904117461E+03  0.78995470615E+03  0.50400001928E-02 0.  1.
</event>
<event>
 5   0  0.1216322E-02  0.1012560E+04  0.7818609E-02  0.9294875E-01
        2   -1    0    0  501    0  0.00000000000E+00  0.00000000000E+00  0.17357026298E+04  0.17357026298E+04  0.25500000920E-02 0. -1.
       -2   -1    0    0    0  501  0.00000000000E+00  0.00000000000E+00 -0.14767475422E+03  0.14767475424E+03  0.25500000920E-02 0.  1.
    10030    2    1    2    0    0  0.00000000000E+00  0.00000000000E+00  0.15880278756E+04  0.18833773841E+04  0.10125600412E+04 0.  0.
        2    1    3    3  502    0  0.59307847936E+02 -0.11160651402E+03  0.17058883677E+04  0.17105638129E+04  0.25500000920E-02 0. -1.
       -2    1    3    3    0  502 -0.59307847936E+02  0.11160651402E+03 -0.11786049208E+03  0.17281357122E+03  0.25500000920E-02 0.  1.
</event>
<event>
 5   0  0.1216322E-02  0.9992144E+03  0.7818609E-02  0.9309407E-01
       -2   -1    0    0    0  501  0.00000000000E+00  0.00000000000E+00  0.32952759852E+03  0.32952759853E+03  0.25500000920E-02 0. -1.
        2   -1    0    0  501    0  0.00000000000E+00  0.00000000000E+00 -0.75747022088E+03  0.75747022088E+03  0.25500000920E-02 0.  1.
    10030    2    1    2    0    0  0.00000000000E+00  0.00000000000E+00 -0.42794262236E+03  0.10869978194E+04  0.99921437708E+03 0.  0.
        2    1    3    3  502    0  0.96488206194E+02  0.44612370548E+03 -0.43497144588E+03  0.63050495102E+03  0.25500000920E-02 0.  1.
       -2    1    3    3    0  502 -0.96488206194E+02 -0.44612370548E+03  0.70288235193E+01  0.45649286839E+03  0.25500000920E-02 0. -1.
</event>
<event>
 5   0  0.1191822E-02  0.1056081E+04  0.7818609E-02  0.9249088E-01
        2   -1    0    0  501    0  0.00000000000E+00  0.00000000000E+00  0.33561843668E+03  0.33561843669E+03  0.25500000920E-02 0.  1.
       -2   -1    0    0    0  501  0.00000000000E+00  0.00000000000E+00 -0.83078568925E+03  0.83078568925E+03  0.25500000920E-02 0. -1.
    10030    2    1    2    0    0  0.00000000000E+00  0.00000000000E+00 -0.49516725257E+03  0.11664041259E+04  0.10560814254E+04 0.  0.
        4    1    3    3  502    0 -0.52340390057E+03  0.69649448145E+02 -0.25284493387E+03  0.58543561750E+03  0.12699999809E+01 0. -1.
       -4    1    3    3    0  502  0.52340390057E+03 -0.69649448145E+02 -0.24232231870E+03  0.58096850844E+03  0.12699999809E+01 0.  1.
</event>
<event>
 5   0  0.1216322E-02  0.1002854E+04  0.7818609E-02  0.9305420E-01
        2   -1    0    0  501    0  0.00000000000E+00  0.00000000000E+00  0.51382049079E+03  0.51382049079E+03  0.25500000920E-02 0.  1.
       -2   -1    0    0    0  501  0.00000000000E+00  0.00000000000E+00 -0.48933272472E+03  0.48933272473E+03  0.25500000920E-02 0. -1.
    10030    2    1    2    0    0  0.00000000000E+00  0.00000000000E+00  0.24487766063E+02  0.10031532155E+04  0.10028542881E+04 0.  0.
        2    1    3    3  502    0 -0.28070204637E+03  0.25536446672E+03 -0.31561063060E+03  0.49357341891E+03  0.25500000920E-02 0. -1.
       -2    1    3    3    0  502  0.28070204637E+03 -0.25536446672E+03  0.34009839666E+03  0.50957979661E+03  0.25500000920E-02 0.  1.
</event>
<event>
 5   0  0.1216322E-02  0.1001089E+04  0.7818609E-02  0.9307352E-01
        2   -1    0    0  501    0  0.00000000000E+00  0.00000000000E+00  0.10151851528E+04  0.10151851528E+04  0.25500000920E-02 0. -1.
       -2   -1    0    0    0  501  0.00000000000E+00  0.00000000000E+00 -0.24679691528E+03  0.24679691529E+03  0.25500000920E-02 0.  1.
    10030    2    1    2    0    0  0.00000000000E+00  0.00000000000E+00  0.76838823750E+03  0.12619820681E+04  0.10010885358E+04 0.  0.
        2    1    3    3  502    0 -0.19005335359E+03  0.95892342523E+02  0.95527813201E+03  0.97870931746E+03  0.25500000920E-02 0. -1.
       -2    1    3    3    0  502  0.19005335359E+03 -0.95892342523E+02 -0.18688989451E+03  0.28327275062E+03  0.25500000920E-02 0.  1.
</event>
<event>
 5   0  0.1245850E-02  0.9921979E+03  0.7818609E-02  0.9317144E-01
        2   -1    0    0  501    0  0.00000000000E+00  0.00000000000E+00  0.52665267176E+03  0.52665267176E+03  0.25500000920E-02 0.  1.
       -2   -1    0    0    0  501  0.00000000000E+00  0.00000000000E+00 -0.46731781912E+03  0.46731781913E+03  0.25500000920E-02 0. -1.
    10030    2    1    2    0    0  0.00000000000E+00  0.00000000000E+00  0.59334852634E+02  0.99397049090E+03  0.99219791979E+03 0.  0.
        3    1    3    3  502    0  0.26436753987E+03  0.41480685362E+03 -0.34940005168E+02  0.49312851885E+03  0.10100000352E+00 0.  1.
       -3    1    3    3    0  502 -0.26436753987E+03 -0.41480685362E+03  0.94274857803E+02  0.50084197204E+03  0.10100000352E+00 0. -1.
</event>
<event>
 5   0  0.7241200E-03  0.9635846E+03  0.7818609E-02  0.9349412E-01
        1   -1    0    0  501    0  0.00000000000E+00  0.00000000000E+00  0.28852834275E+03  0.28852834280E+03  0.50400001928E-02 0.  1.
       -1   -1    0    0    0  501  0.00000000000E+00  0.00000000000E+00 -0.80450965427E+03  0.80450965428E+03  0.50400001928E-02 0. -1.
    10030    2    1    2    0    0  0.00000000000E+00  0.00000000000E+00 -0.51598131151E+03  0.10930379971E+04  0.96358463522E+03 0.  0.
        4    1    3    3  502    0 -0.34568637939E+03 -0.22993858930E+03  0.19289905045E+02  0.41562548175E+03  0.12699999809E+01 0.  1.
       -4    1    3    3    0  502  0.34568637939E+03  0.22993858930E+03 -0.53527121656E+03  0.67741251533E+03  0.12699999809E+01 0. -1.
</event>
<event>
 5   0  0.7073004E-03  0.9870847E+03  0.7818609E-02  0.9322825E-01
       -1   -1    0    0    0  501  0.00000000000E+00  0.00000000000E+00  0.42635719167E+03  0.42635719170E+03  0.50400001928E-02 0. -1.
        1   -1    0    0  501    0  0.00000000000E+00  0.00000000000E+00 -0.57131456816E+03  0.57131456818E+03  0.50400001928E-02 0.  1.
    10030    2    1    2    0    0  0.00000000000E+00  0.00000000000E+00 -0.14495737650E+03  0.99767175988E+03  0.98708474786E+03 0.  0.
        1    1    3    3  502    0  0.22190405606E+02 -0.12037528867E+03  0.41077227553E+03  0.42862161237E+03  0.50400001928E-02 0. -1.
       -1    1    3    3    0  502 -0.22190405606E+02  0.12037528867E+03 -0.55572965202E+03  0.56905014751E+03  0.50400001928E-02 0.  1.
</event>
<event>
 5   0  0.7224879E-03  0.1044294E+04  0.7818609E-02  0.9261255E-01
       -1   -1    0    0    0  501  0.00000000000E+00  0.00000000000E+00  0.36831941849E+03  0.36831941853E+03  0.50400001928E-02 0. -1.
        1   -1    0    0  501    0  0.00000000000E+00  0.00000000000E+00 -0.74022005012E+03  0.74022005014E+03  0.50400001928E-02 0.  1.
    10030    2    1    2    0    0  0.00000000000E+00  0.00000000000E+00 -0.37190063163E+03  0.11085394687E+04  0.10442938637E+04 0.  0.
        3    1    3    3  502    0 -0.27969957227E+03 -0.52889612401E+02  0.27870994566E+03  0.39838223585E+03  0.10100000352E+00 0. -1.
       -3    1    3    3    0  502  0.27969957227E+03  0.52889612401E+02 -0.65061057729E+03  0.71015723281E+03  0.10100000352E+00 0.  1.
</event>
<event>
 5   0  0.4782125E-03  0.9785963E+03  0.7818609E-02  0.9332337E-01
        3   -1    0    0  501    0  0.00000000000E+00  0.00000000000E+00  0.66641673845E+03  0.66641674611E+03  0.10100000352E+00 0.  1.
       -3   -1    0    0    0  501  0.00000000000E+00  0.00000000000E+00 -0.35925371029E+03  0.35925372449E+03  0.10100000352E+00 0. -1.
    10030    2    1    2    0    0  0.00000000000E+00  0.00000000000E+00  0.30716302816E+03  0.10256704706E+04  0.97859633577E+03 0.  0.
        3    1    3    3  502    0  0.84949041387E+02 -0.16435274737E+03 -0.32118115752E+03  0.37065551574E+03  0.10100000352E+00 0. -1.
       -3    1    3    3    0  502 -0.84949041387E+02  0.16435274737E+03  0.62834418568E+03  0.65501495485E+03  0.10100000352E+00 0.  1.
</event>
<event>
 5   0  0.7461157E-03  0.1057810E+04  0.7818609E-02  0.9247318E-01
       -1   -1    0    0    0  501  0.00000000000E+00  0.00000000000E+00  0.55741079554E+03  0.55741079557E+03  0.50400001928E-02 0. -1.
        1   -1    0    0  501    0  0.00000000000E+00  0.00000000000E+00 -0.50185699947E+03  0.50185699949E+03  0.50400001928E-02 0.  1.
    10030    2    1    2    0    0  0.00000000000E+00  0.00000000000E+00  0.55553796078E+02  0.10592677951E+04  0.10578100195E+04 0.  0.
        2    1    3    3  502    0 -0.18003646802E+03 -0.68913804756E+02 -0.46542420235E+03  0.50376773461E+03  0.25500000920E-02 0.  1.
       -2    1    3    3    0  502  0.18003646802E+03  0.68913804756E+02  0.52097799842E+03  0.55550006044E+03  0.25500000920E-02 0. -1.
</event>
<event>
 5   0  0.7073004E-03  0.9913556E+03  0.7818609E-02  0.9318077E-01
        1   -1    0    0  501    0  0.00000000000E+00  0.00000000000E+00  0.11770431945E+04  0.11770431945E+04  0.50400001928E-02 0. -1.
       -1   -1    0    0    0  501  0.00000000000E+00  0.00000000000E+00 -0.20874042663E+03  0.20874042669E+03  0.50400001928E-02 0.  1.
    10030    2    1    2    0    0  0.00000000000E+00  0.00000000000E+00  0.96830276785E+03  0.13857836212E+04  0.99135563473E+03 0.  0.
        1    1    3    3  502    0 -0.30251375437E+03  0.25913874175E+03  0.71770960750E+02  0.40474501836E+03  0.50400001928E-02 0.  1.
       -1    1    3    3    0  502  0.30251375437E+03 -0.25913874175E+03  0.89653180710E+03  0.98103860282E+03  0.50400001928E-02 0. -1.
</event>
<event>
 5   0  0.1191822E-02  0.9974647E+03  0.7818609E-02  0.9311330E-01
        2   -1    0    0  501    0  0.00000000000E+00  0.00000000000E+00  0.67133675818E+03  0.67133675819E+03  0.25500000920E-02 0. -1.
       -2   -1    0    0    0  501  0.00000000000E+00  0.00000000000E+00 -0.37050547116E+03  0.37050547117E+03  0.25500000920E-02 0.  1.
    10030    2    1    2    0    0  0.00000000000E+00  0.00000000000E+00  0.30083128702E+03  0.10418422294E+04  0.99746466986E+03 0.  0.
        4    1    3    3  502    0  0.44536049472E+03  0.14876041964E+03 -0.25160346865E+02  0.47022365813E+03  0.12699999809E+01 0.  1.
       -4    1    3    3    0  502 -0.44536049472E+03 -0.14876041964E+03  0.32599163388E+03  0.57161857123E+03  0.12699999809E+01 0. -1.
</event>
<event>
 5   0  0.1191822E-02  0.1051111E+04  0.7818609E-02  0.9254198E-01
        2   -1    0    0  501    0  0.00000000000E+00  0.00000000000E+00  0.11887208630E+04  0.11887208630E+04  0.25500000920E-02 0.  1.
       -2   -1    0    0    0  501  0.00000000000E+00  0.00000000000E+00 -0.23235785329E+03  0.23235785330E+03  0.25500000920E-02 0. -1.
    10030    2    1    2    0    0  0.00000000000E+00  0.00000000000E+00  0.95636300974E+03  0.14210787163E+04  0.10511110843E+04 0.  0.
        4    1    3    3  502    0  0.51853012147E+03 -0.26715272918E+02  0.58818150498E+03  0.78456758050E+03  0.12699999809E+01 0.  1.
       -4    1    3    3    0  502 -0.51853012147E+03  0.26715272918E+02  0.36818150476E+03  0.63651113582E+03  0.12699999809E+01 0. -1.
</event>
<event>
 5   0  0.1216322E-02  0.7468010E+03  0.7818609E-02  0.9640383E-01
        2   -1    0    0  501    0  0.00000000000E+00  0.00000000000E+00  0.52544960833E+03  0.52544960833E+03  0.25500000920E-02 0. -1.
       -2   -1    0    0    0  501  0.00000000000E+00  0.00000000000E+00 -0.26534974790E+03  0.26534974791E+03  0.25500000920E-02 0.  1.
    10030    2    1    2    0    0  0.00000000000E+00  0.00000000000E+00  0.26009986043E+03  0.79079935624E+03  0.74680096709E+03 0.  0.
        2    1    3    3  502    0  0.25049529144E+03  0.16503812845E+03 -0.10540696356E+03  0.31795613353E+03  0.25500000920E-02 0.  1.
       -2    1    3    3    0  502 -0.25049529144E+03 -0.16503812845E+03  0.36550682399E+03  0.47284322271E+03  0.25500000920E-02 0. -1.
</event>
<event>
 5   0  0.6967681E-03  0.9924789E+03  0.7818609E-02  0.9316833E-01
       -1   -1    0    0    0  501  0.00000000000E+00  0.00000000000E+00  0.88453711261E+03  0.88453711262E+03  0.50400001928E-02 0.  1.
        1   -1    0    0  501    0  0.00000000000E+00  0.00000000000E+00 -0.27839824394E+03  0.27839824398E+03  0.50400001928E-02 0. -1.
    10030    2    1    2    0    0  0.00000000000E+00  0.00000000000E+00  0.60613886867E+03  0.11629353566E+04  0.99247887410E+03 0.  0.
        5    1    3    3  502    0 -0.11188448587E+02 -0.99499610520E+02  0.87255128812E+03  0.87828992610E+03  0.46999998093E+01 0.  1.
       -5    1    3    3    0  502  0.11188448587E+02  0.99499610520E+02 -0.26641241945E+03  0.28464543051E+03  0.46999998093E+01 0. -1.
</event>
<event>
 5   0  0.7241200E-03  0.1005399E+04  0.7818609E-02  0.9302643E-01
       -1   -1    0    0    0  501  0.00000000000E+00  0.00000000000E+00  0.16177400318E+04  0.16177400318E+04  0.50400001928E-02 0.  1.
        1   -1    0    0  501    0  0.00000000000E+00  0.00000000000E+00 -0.15620969685E+03  0.15620969693E+03  0.50400001928E-02 0. -1.
    10030    2    1    2    0    0  0.00000000000E+00  0.00000000000E+00  0.14615303350E+04  0.17739497287E+04  0.10053987866E+04 0.  0.
        4    1    3    3  502    0  0.15516720039E+03  0.60731116887E+02 -0.10606289904E+03  0.19752488473E+03  0.12699999809E+01 0. -1.
       -4    1    3    3    0  502 -0.15516720039E+03 -0.60731116887E+02  0.15675932340E+04  0.15764248440E+04  0.12699999809E+01 0.  1.
</event>
<event>
 5   0  0.7224879E-03  0.1002683E+04  0.7818609E-02  0.9305607E-01
        1   -1    0    0  501    0  0.00000000000E+00  0.00000000000E+00  0.55986960773E+03  0.55986960775E+03  0.50400001928E-02 0.  1.
       -1   -1    0    0    0  501  0.00000000000E+00  0.00000000000E+00 -0.44893172753E+03  0.44893172755E+03  0.50400001928E-02 0. -1.
    10030    2    1    2    0    0  0.00000000000E+00  0.00000000000E+00  0.11093788020E+03  0.10088013353E+04  0.10026828616E+04 0.  0.
        3    1    3    3  502    0  0.47032879423E+02  0.26304809450E+02 -0.44600931355E+03  0.44925310541E+03  0.10100000352E+00 0. -1.
       -3    1    3    3    0  502 -0.47032879423E+02 -0.26304809450E+02  0.55694719375E+03  0.55954822989E+03  0.10100000352E+00 0.  1.
</event>
<event>
 5   0  0.4782125E-03  0.9734222E+03  0.7818609E-02  0.9338185E-01
        3   -1    0    0  501    0  0.00000000000E+00  0.00000000000E+00  0.31695273161E+03  0.31695274771E+03  0.10100000352E+00 0. -1.
       -3   -1    0    0    0  501  0.00000000000E+00  0.00000000000E+00 -0.74739121746E+03  0.74739122428E+03  0.10100000352E+00 0.  1.
    10030    2    1    2    0    0  0.00000000000E+00  0.00000000000E+00 -0.43043848584E+03  0.10643439720E+04  0.97342221087E+03 0.  0.
        1    1    3    3  502    0  0.27515365069E+03  0.19513332025E+03 -0.59884858674E+03  0.68731810250E+03  0.50400001928E-02 0.  1.
       -1    1    3    3    0  502 -0.27515365069E+03 -0.19513332025E+03  0.16841010089E+03  0.37702586949E+03  0.50400001928E-02 0. -1.
</event>
<event>
 5   0  0.7241200E-03  0.9933695E+03  0.7818609E-02  0.9315847E-01
       -1   -1    0    0    0  501  0.00000000000E+00  0.00000000000E+00  0.54704506973E+03  0.54704506975E+03  0.50400001928E-02 0. -1.
        1   -1    0    0  501    0  0.00000000000E+00  0.00000000000E+00 -0.45096056383E+03  0.45096056386E+03  0.50400001928E-02 0.  1.
    10030    2    1    2    0    0  0.00000000000E+00  0.00000000000E+00  0.96084505895E+02  0.99800563361E+03  0.99336952462E+03 0.  0.
        4    1    3    3  502    0 -0.34393304820E+03  0.34460824596E+03  0.14673183538E+03  0.50850430602E+03  0.12699999809E+01 0. -1.
       -4    1    3    3    0  502  0.34393304820E+03 -0.34460824596E+03 -0.50647329481E+02  0.48950132759E+03  0.12699999809E+01 0.  1.
</event>
<event>
 5   0  0.7461157E-03  0.1015594E+04  0.7818609E-02  0.9291605E-01
        1   -1    0    0  501    0  0.00000000000E+00  0.00000000000E+00  0.16066666297E+04  0.16066666297E+04  0.50400001928E-02 0.  1.
       -1   -1    0    0    0  501  0.00000000000E+00  0.00000000000E+00 -0.16049234150E+03  0.16049234158E+03  0.50400001928E-02 0. -1.
    10030    2    1    2    0    0  0.00000000000E+00  0.00000000000E+00  0.14461742882E+04  0.17671589713E+04  0.10155937957E+04 0.  0.
        2    1    3    3  502    0  0.49666122054E+03 -0.53449220149E+02  0.56429133463E+03  0.75362716078E+03  0.25500000920E-02 0. -1.
       -2    1    3    3    0  502 -0.49666122054E+03  0.53449220149E+02  0.88188295356E+03  0.10135318105E+04  0.25500000920E-02 0.  1.
</event>
<event>
 5   0  0.1240503E-02  0.9940397E+03  0.7818609E-02  0.9315106E-01
        2   -1    0    0  501    0  0.00000000000E+00  0.00000000000E+00  0.13329760951E+04  0.13329760951E+04  0.25500000920E-02 0. -1.
       -2   -1    0    0    0  501  0.00000000000E+00  0.00000000000E+00 -0.18532118558E+03  0.18532118560E+03  0.25500000920E-02 0.  1.
    10030    2    1    2    0    0  0.00000000000E+00  0.00000000000E+00  0.11476549096E+04  0.15182972807E+04  0.99403965779E+03 0.  0.
        1    1    3    3  502    0 -0.31712451757E+03 -0.38983910757E+02  0.11553261408E+04  0.11986935374E+04  0.50400001928E-02 0. -1.
       -1    1    3    3    0  502  0.31712451757E+03  0.38983910757E+02 -0.76712312542E+01  0.31960374334E+03  0.50400001928E-02 0.  1.
</event>
<event>
 5   0  0.1216322E-02  0.1001552E+04  0.7818609E-02  0.9306845E-01
        2   -1    0    0  501    0  0.00000000000E+00  0.00000000000E+00  0.13081194369E+04  0.13081194369E+04  0.25500000920E-02 0. -1.
       -2   -1    0    0    0  501  0.00000000000E+00  0.00000000000E+00 -0.19170759401E+03  0.19170759402E+03  0.25500000920E-02 0.  1.
    10030    2    1    2    0    0  0.00000000000E+00  0.00000000000E+00  0.11164118429E+04  0.14998270309E+04  0.10015516561E+04 0.  0.
        2    1    3    3  502    0  0.23367226972E+03  0.21413725109E+03  0.11388027678E+04  0.11820868140E+04  0.25500000920E-02 0. -1.
       -2    1    3    3    0  502 -0.23367226972E+03 -0.21413725109E+03 -0.22390924871E+02  0.31774021694E+03  0.25500000920E-02 0.  1.
</event>
<event>
 5   0  0.1245850E-02  0.9863363E+03  0.7818609E-02  0.9323659E-01
       -2   -1    0    0    0  501  0.00000000000E+00  0.00000000000E+00  0.16514685490E+03  0.16514685492E+03  0.25500000920E-02 0.  1.
        2   -1    0    0  501    0  0.00000000000E+00  0.00000000000E+00 -0.14727184046E+04  0.14727184046E+04  0.25500000920E-02 0. -1.
    10030    2    1    2    0    0  0.00000000000E+00  0.00000000000E+00 -0.13075715497E+04  0.16378652596E+04  0.98633627672E+03 0.  0.
        3    1    3    3  502    0  0.19875690699E+03 -0.44317954226E+03 -0.51188472473E+03  0.70564750149E+03  0.10100000352E+00 0.  1.
       -3    1    3    3    0  502 -0.19875690699E+03  0.44317954226E+03 -0.79568682501E+03  0.93221775807E+03  0.10100000352E+00 0. -1.
</event>
<event>
 5   0  0.1221315E-02  0.1001985E+04  0.7818609E-02  0.9306370E-01
       -2   -1    0    0    0  501  0.00000000000E+00  0.00000000000E+00  0.73286336040E+03  0.73286336040E+03  0.25500000920E-02 0.  1.
        2   -1    0    0  501    0  0.00000000000E+00  0.00000000000E+00 -0.34248347092E+03  0.34248347093E+03  0.25500000920E-02 0. -1.
    10030    2    1    2    0    0  0.00000000000E+00  0.00000000000E+00  0.39037988948E+03  0.10753468313E+04  0.10019852043E+04 0.  0.
        5    1    3    3  502    0 -0.18151509815E+02 -0.86639266754E+02 -0.33399999461E+03  0.34556320153E+03  0.46999998093E+01 0. -1.
       -5    1    3    3    0  502  0.18151509815E+02  0.86639266754E+02  0.72437988409E+03  0.72978362980E+03  0.46999998093E+01 0.  1.
</event>
<event>
 5   0  0.6967681E-03  0.8732325E+03  0.7818609E-02  0.9459675E-01
       -1   -1    0    0    0  501  0.00000000000E+00  0.00000000000E+00  0.13439040777E+04  0.13439040777E+04  0.50400001928E-02 0. -1.
        1   -1    0    0  501    0  0.00000000000E+00  0.00000000000E+00 -0.14185070708E+03  0.14185070717E+03  0.50400001928E-02 0.  1.
    10030    2    1    2    0    0  0.00000000000E+00  0.00000000000E+00  0.12020533707E+04  0.14857547849E+04  0.87323248622E+03 0.  0.
        5    1    3    3  502    0  0.33840050031E+03  0.11501968882E+03  0.10276350862E+04  0.10880259132E+04  0.46999998093E+01 0. -1.
       -5    1    3    3    0  502 -0.33840050031E+03 -0.11501968882E+03  0.17441828442E+03  0.39772887167E+03  0.46999998093E+01 0.  1.
</event>
<event>
 5   0  0.7461157E-03  0.9813794E+03  0.7818609E-02  0.9329207E-01
       -1   -1    0    0    0  501  0.00000000000E+00  0.00000000000E+00  0.45787680777E+03  0.45787680780E+03  0.50400001928E-02 0. -1.
        1   -1    0    0  501    0  0.00000000000E+00  0.00000000000E+00 -0.52585401756E+03  0.52585401758E+03  0.50400001928E-02 0.  1.
    10030    2    1    2    0    0  0.00000000000E+00  0.00000000000E+00 -0.67977209783E+02  0.98373082538E+03  0.98137935364E+03 0.  0.
        2    1    3    3  502    0 -0.48703017692E+03 -0.37025958055E+02 -0.81080359513E+02  0.49511952042E+03  0.25500000920E-02 0. -1.
       -2    1    3    3    0  502  0.48703017692E+03  0.37025958055E+02  0.13103149730E+02  0.48861130496E+03  0.25500000920E-02 0.  1.
</event>
<event>
 5   0  0.6967681E-03  0.8254099E+03  0.7818609E-02  0.9523949E-01
       -1   -1    0    0    0  501  0.00000000000E+00  0.00000000000E+00  0.27163075069E+03  0.27163075074E+03  0.50400001928E-02 0.  1.
        1   -1    0    0  501    0  0.00000000000E+00  0.00000000000E+00 -0.62704740912E+03  0.62704740914E+03  0.50400001928E-02 0. -1.
    10030    2    1    2    0    0  0.00000000000E+00  0.00000000000E+00 -0.35541665843E+03  0.89867815988E+03  0.82540985817E+03 0.  0.
        5    1    3    3  502    0 -0.15353629128E+03 -0.17032056253E+03 -0.55126896387E+03  0.59707792396E+03  0.46999998093E+01 0. -1.
       -5    1    3    3    0  502  0.15353629128E+03  0.17032056253E+03  0.19585230544E+03  0.30160023592E+03  0.46999998093E+01 0.  1.
</event>
<event>
 5   0  0.1216322E-02  0.1002385E+04  0.7818609E-02  0.9305933E-01
       -2   -1    0    0    0  501  0.00000000000E+00  0.00000000000E+00  0.82215189332E+03  0.82215189332E+03  0.25500000920E-02 0. -1.
        2   -1    0    0  501    0  0.00000000000E+00  0.00000000000E+00 -0.30553235602E+03  0.30553235603E+03  0.25500000920E-02 0.  1.
    10030    2    1    2    0    0  0.00000000000E+00  0.00000000000E+00  0.51661953730E+03  0.11276842494E+04  0.10023851655E+04 0.  0.
        2    1    3    3  502    0 -0.41906964126E+03 -0.24901320975E+03  0.12727221079E+03  0.50381063754E+03  0.25500000920E-02 0.  1.
       -2    1    3    3    0  502  0.41906964126E+03  0.24901320975E+03  0.38934732651E+03  0.62387361181E+03  0.25500000920E-02 0. -1.
</event>
<event>
 5   0  0.1240503E-02  0.1006627E+04  0.7818609E-02  0.9301306E-01
        2   -1    0    0  501    0  0.00000000000E+00  0.00000000000E+00  0.84003587930E+03  0.84003587930E+03  0.25500000920E-02 0. -1.
       -2   -1    0    0    0  501  0.00000000000E+00  0.00000000000E+00 -0.30156370424E+03  0.30156370425E+03  0.25500000920E-02 0.  1.
    10030    2    1    2    0    0  0.00000000000E+00  0.00000000000E+00  0.53847217506E+03  0.11415995835E+04  0.10066267063E+04 0.  0.
        1    1    3    3  502    0 -0.67585908857E+01  0.20516586734E+03  0.79040382680E+03  0.81662532481E+03  0.50400001928E-02 0. -1.
       -1    1    3    3    0  502  0.67585908857E+01 -0.20516586734E+03 -0.25193165174E+03  0.32497425874E+03  0.50400001928E-02 0.  1.
</event>
<event>
 5   0  0.1240503E-02  0.9603426E+03  0.7818609E-02  0.9353143E-01
       -2   -1    0    0    0  501  0.00000000000E+00  0.00000000000E+00  0.29546434018E+03  0.29546434019E+03  0.25500000920E-02 0. -1.
        2   -1    0    0  501    0  0.00000000000E+00  0.00000000000E+00 -0.78034627033E+03  0.78034627033E+03  0.25500000920E-02 0.  1.
    10030    2    1    2    0    0  0.00000000000E+00  0.00000000000E+00 -0.48488193015E+03  0.10758106105E+04  0.96034263860E+03 0.  0.
        1    1    3    3  502    0  0.42041759657E+03 -0.99695932691E+02 -0.77942273553E+01  0.43214694781E+03  0.50400001928E-02 0. -1.
       -1    1    3    3    0  502 -0.42041759657E+03  0.99695932691E+02 -0.47708770280E+03  0.64366366270E+03  0.50400001928E-02 0.  1.
</event>
<event>
 5   0  0.1245850E-02  0.1040627E+04  0.7818609E-02  0.9265075E-01
        2   -1    0    0  501    0  0.00000000000E+00  0.00000000000E+00  0.46123762281E+03  0.46123762281E+03  0.25500000920E-02 0. -1.
       -2   -1    0    0    0  501  0.00000000000E+00  0.00000000000E+00 -0.58695560343E+03  0.58695560343E+03  0.25500000920E-02 0.  1.
    10030    2    1    2    0    0  0.00000000000E+00  0.00000000000E+00 -0.12571798062E+03  0.10481932262E+04  0.10406267481E+04 0.  0.
        3    1    3    3  502    0  0.28870531112E+03 -0.32816317695E+03  0.22147736341E+03  0.48999393882E+03  0.10100000352E+00 0. -1.
       -3    1    3    3    0  502 -0.28870531112E+03  0.32816317695E+03 -0.34719534403E+03  0.55819928743E+03  0.10100000352E+00 0.  1.
</event>
<event>
 5   0  0.7241200E-03  0.9723439E+03  0.7818609E-02  0.9339409E-01
       -1   -1    0    0    0  501  0.00000000000E+00  0.00000000000E+00  0.46938505749E+03  0.46938505752E+03  0.50400001928E-02 0. -1.
        1   -1    0    0  501    0  0.00000000000E+00  0.00000000000E+00 -0.50355918971E+03  0.50355918973E+03  0.50400001928E-02 0.  1.
    10030    2    1    2    0    0  0.00000000000E+00  0.00000000000E+00 -0.34174132217E+02  0.97294424725E+03  0.97234388821E+03 0.  0.
        4    1    3    3  502    0 -0.52972763965E+01  0.14865339324E+03  0.44605469262E+03  0.47020452377E+03  0.12699999809E+01 0. -1.
       -4    1    3    3    0  502  0.52972763965E+01 -0.14865339324E+03 -0.48022882484E+03  0.50273972348E+03  0.12699999809E+01 0.  1.
</event>
<event>
 5   0  0.1245850E-02  0.1004714E+04  0.7818609E-02  0.9303390E-01
        2   -1    0    0  501    0  0.00000000000E+00  0.00000000000E+00  0.45403427508E+03  0.45403427509E+03  0.25500000920E-02 0. -1.
       -2   -1    0    0    0  501  0.00000000000E+00  0.00000000000E+00 -0.55582254548E+03  0.55582254549E+03  0.25500000920E-02 0.  1.
    10030    2    1    2    0    0  0.00000000000E+00  0.00000000000E+00 -0.10178827040E+03  0.10098568206E+04  0.10047138628E+04 0.  0.
        3    1    3    3  502    0 -0.35052378125E+02  0.34186847633E+03  0.31739620566E+03  0.46780667576E+03  0.10100000352E+00 0. -1.
       -3    1    3    3    0  502  0.35052378125E+02 -0.34186847633E+03 -0.41918447605E+03  0.54205014481E+03  0.10100000352E+00 0.  1.
</event>
<event>
 5   0  0.7461157E-03  0.1037535E+04  0.7818609E-02  0.9268308E-01
        1   -1    0    0  501    0  0.00000000000E+00  0.00000000000E+00  0.66034646046E+03  0.66034646048E+03  0.50400001928E-02 0.  1.
       -1   -1    0    0    0  501  0.00000000000E+00  0.00000000000E+00 -0.40754353335E+03  0.40754353338E+03  0.50400001928E-02 0. -1.
    10030    2    1    2    0    0  0.00000000000E+00  0.00000000000E+00  0.25280292711E+03  0.10678899939E+04  0.10375354062E+04 0.  0.
        2    1    3    3  502    0 -0.87055777697E+02 -0.32173286790E+03 -0.28275765902E+03  0.43708424870E+03  0.25500000920E-02 0. -1.
       -2    1    3    3    0  502  0.87055777697E+02  0.32173286790E+03  0.53556058612E+03  0.63080574517E+03  0.25500000920E-02 0.  1.
</event>
<event>
 5   0  0.1221315E-02  0.9999057E+03  0.7818609E-02  0.9308648E-01
        2   -1    0    0  501    0  0.00000000000E+00  0.00000000000E+00  0.69429784225E+03  0.69429784226E+03  0.25500000920E-02 0. -1.
       -2   -1    0    0    0  501  0.00000000000E+00  0.00000000000E+00 -0.36000807407E+03  0.36000807408E+03  0.25500000920E-02 0.  1.
    10030    2    1    2    0    0  0.00000000000E+00  0.00000000000E+00  0.33428976818E+03  0.10543059163E+04  0.99990565360E+03 0.  0.
        5    1    3    3  502    0 -0.11929885478E+03 -0.15784083246E+03 -0.31694639444E+03  0.37366168133E+03  0.46999998093E+01 0.  1.
       -5    1    3    3    0  502  0.11929885478E+03  0.15784083246E+03  0.65123616262E+03  0.68064423501E+03  0.46999998093E+01 0. -1.
</event>
<event>
 5   0  0.1245850E-02  0.9894308E+03  0.7818609E-02  0.9320213E-01
       -2   -1    0    0    0  501  0.00000000000E+00  0.00000000000E+00  0.24561943749E+03  0.24561943750E+03  0.25500000920E-02 0.  1.
        2   -1    0    0  501    0  0.00000000000E+00  0.00000000000E+00 -0.99643302546E+03  0.99643302546E+03  0.25500000920E-02 0. -1.
    10030    2    1    2    0    0  0.00000000000E+00  0.00000000000E+00 -0.75081358797E+03  0.12420524630E+04  0.98943078428E+03 0.  0.
        3    1    3    3  502    0 -0.49168598529E+02  0.49202873205E+03 -0.35622523939E+03  0.60943109178E+03  0.10100000352E+00 0.  1.
       -3    1    3    3    0  502  0.49168598529E+02 -0.49202873205E+03 -0.39458834858E+03  0.63262137119E+03  0.10100000352E+00 0. -1.
</event>
<event>
 5   0  0.7461157E-03  0.9827789E+03  0.7818609E-02  0.9327637E-01
       -1   -1    0    0    0  501  0.00000000000E+00  0.00000000000E+00  0.43822861843E+03  0.43822861846E+03  0.50400001928E-02 0.  1.
        1   -1    0    0  501    0  0.00000000000E+00  0.00000000000E+00 -0.55099919234E+03  0.55099919236E+03  0.50400001928E-02 0. -1.
    10030    2    1    2    0    0  0.00000000000E+00  0.00000000000E+00 -0.11277057390E+03  0.98922781082E+03  0.98277894736E+03 0.  0.
        2    1    3    3  502    0  0.18776625277E+03  0.23869932577E+03  0.33245267686E+03  0.45028692648E+03  0.25500000920E-02 0.  1.
       -2    1    3    3    0  502 -0.18776625277E+03 -0.23869932577E+03 -0.44522325076E+03  0.53894088435E+03  0.25500000920E-02 0. -1.
</event>
<event>
 5   0  0.7461157E-03  0.9839973E+03  0.7818609E-02  0.9326272E-01
        1   -1    0    0  501    0  0.00000000000E+00  0.00000000000E+00  0.12178023357E+04  0.12178023357E+04  0.50400001928E-02 0.  1.
       -1   -1    0    0    0  501  0.00000000000E+00  0.00000000000E+00 -0.19877009414E+03  0.19877009420E+03  0.50400001928E-02 0. -1.
    10030    2    1    2    0    0  0.00000000000E+00  0.00000000000E+00  0.10190322415E+04  0.14165724299E+04  0.98399732713E+03 0.  0.
        2    1    3    3  502    0  0.32440661454E+03 -0.23598504074E+02  0.10409372888E+04  0.10905718592E+04  0.25500000920E-02 0.  1.
       -2    1    3    3    0  502 -0.32440661454E+03  0.23598504074E+02 -0.21905047270E+02  0.32600057064E+03  0.25500000920E-02 0. -1.
</event>
<event>
 5   0  0.4782125E-03  0.9998730E+03  0.7818609E-02  0.9308684E-01
       -3   -1    0    0    0  501  0.00000000000E+00  0.00000000000E+00  0.10090683511E+04  0.10090683562E+04  0.10100000352E+00 0. -1.
        3   -1    0    0  501    0  0.00000000000E+00  0.00000000000E+00 -0.24769034046E+03  0.24769036105E+03  0.10100000352E+00 0.  1.
    10030    2    1    2    0    0  0.00000000000E+00  0.00000000000E+00  0.76137801066E+03  0.12567587172E+04  0.99987299104E+03 0.  0.
        5    1    3    3  502    0 -0.32994779493E+03  0.65082844540E+02  0.84560114645E+03  0.91003555585E+03  0.46999998093E+01 0. -1.
       -5    1    3    3    0  502  0.32994779493E+03 -0.65082844540E+02 -0.84223135794E+02  0.34672316138E+03  0.46999998093E+01 0.  1.
</event>
<event>
 5   0  0.6967681E-03  0.9920862E+03  0.7818609E-02  0.9317267E-01
       -1   -1    0    0    0  501  0.00000000000E+00  0.00000000000E+00  0.31771742332E+03  0.31771742336E+03  0.50400001928E-02 0.  1.
        1   -1    0    0  501    0  0.00000000000E+00  0.00000000000E+00 -0.77445784105E+03  0.77445784106E+03  0.50400001928E-02 0. -1.
    10030    2    1    2    0    0  0.00000000000E+00  0.00000000000E+00 -0.45674041773E+03  0.10921752644E+04  0.99208618528E+03 0.  0.
        5    1    3    3  502    0  0.71605373631E+02  0.41168065243E+03  0.65853933767E+02  0.42304505636E+03  0.46999998093E+01 0.  1.
       -5    1    3    3    0  502 -0.71605373631E+02 -0.41168065243E+03 -0.52259435150E+03  0.66913020806E+03  0.46999998093E+01 0. -1.
</event>
<event>
 5   0  0.1216322E-02  0.9851822E+03  0.7818609E-02  0.9324948E-01
        2   -1    0    0  501    0  0.00000000000E+00  0.00000000000E+00  0.12954352054E+04  0.12954352054E+04  0.25500000920E-02 0.  1.
       -2   -1    0    0    0  501  0.00000000000E+00  0.00000000000E+00 -0.18730847786E+03  0.18730847788E+03  0.25500000920E-02 0. -1.
    10030    2    1    2    0    0  0.00000000000E+00  0.00000000000E+00  0.11081267275E+04  0.14827436833E+04  0.98518220954E+03 0.  0.
        2    1    3    3  502    0  0.22954163606E+02 -0.14114637903E+03  0.12635078608E+04  0.12715743424E+04  0.25500000920E-02 0.  1.
       -2    1    3    3    0  502 -0.22954163606E+02  0.14114637903E+03 -0.15538113327E+03  0.21116934087E+03  0.25500000920E-02 0. -1.
</event>
<event>
 5   0  0.1216322E-02  0.9948691E+03  0.7818609E-02  0.9314190E-01
        2   -1    0    0  501    0  0.00000000000E+00  0.00000000000E+00  0.55506303697E+03  0.55506303698E+03  0.25500000920E-02 0.  1.
       -2   -1    0    0    0  501  0.00000000000E+00  0.00000000000E+00 -0.44578922676E+03  0.44578922677E+03  0.25500000920E-02 0. -1.
    10030    2    1    2    0    0  0.00000000000E+00  0.00000000000E+00  0.10927381021E+03  0.10008522637E+04  0.99486908096E+03 0.  0.
        2    1    3    3  502    0 -0.85662914826E+01  0.45227660905E+03 -0.15352198536E+03  0.47769918614E+03  0.25500000920E-02 0. -1.
       -2    1    3    3    0  502  0.85662914826E+01 -0.45227660905E+03  0.26279579557E+03  0.52315307761E+03  0.25500000920E-02 0.  1.
</event>
<event>
 5   0  0.7224879E-03  0.9936770E+03  0.7818609E-02  0.9315507E-01
       -1   -1    0    0    0  501  0.00000000000E+00  0.00000000000E+00  0.23528083978E+03  0.23528083983E+03  0.50400001928E-02 0. -1.
        1   -1    0    0  501    0  0.00000000000E+00  0.00000000000E+00 -0.10491653527E+04  0.10491653527E+04  0.50400001928E-02 0.  1.
    10030    2    1    2    0    0  0.00000000000E+00  0.00000000000E+00 -0.81388451293E+03  0.12844461925E+04  0.99367702055E+03 0.  0.
        3    1    3    3  502    0  0.45045985054E+03 -0.80393987880E+02 -0.15672364263E+03  0.48367301000E+03  0.10100000352E+00 0. -1.
       -3    1    3    3    0  502 -0.45045985054E+03  0.80393987880E+02 -0.65716087029E+03  0.80077318255E+03  0.10100000352E+00 0.  1.
</event>
<event>
 5   0  0.1191822E-02  0.1013336E+04  0.7818609E-02  0.9294037E-01
       -2   -1    0    0    0  501  0.00000000000E+00  0.00000000000E+00  0.98455209036E+03  0.98455209036E+03  0.25500000920E-02 0. -1.
        2   -1    0    0  501    0  0.00000000000E+00  0.00000000000E+00 -0.26074054417E+03  0.26074054418E+03  0.25500000920E-02 0.  1.
    10030    2    1    2    0    0  0.00000000000E+00  0.00000000000E+00  0.72381154619E+03  0.12452926345E+04  0.10133363663E+04 0.  0.
        4    1    3    3  502    0  0.88331073360E+02  0.21200369433E+03 -0.19309499230E+03  0.30005871739E+03  0.12699999809E+01 0.  1.
       -4    1    3    3    0  502 -0.88331073360E+02 -0.21200369433E+03  0.91690653849E+03  0.94523391716E+03  0.12699999809E+01 0. -1.
</event>
<event>
 5   0  0.7073004E-03  0.1007168E+04  0.7818609E-02  0.9300717E-01
       -1   -1    0    0    0  501  0.00000000000E+00  0.00000000000E+00  0.18991527138E+03  0.18991527144E+03  0.50400001928E-02 0.  1.
        1   -1    0    0  501    0  0.00000000000E+00  0.00000000000E+00 -0.13353165434E+04  0.13353165434E+04  0.50400001928E-02 0. -1.
    10030    2    1    2    0    0  0.00000000000E+00  0.00000000000E+00 -0.11454012720E+04  0.15252318148E+04  0.10071683152E+04 0.  0.
        1    1    3    3  502    0  0.26680527321E+02 -0.50259537588E+03 -0.59817824909E+03  0.78174879604E+03  0.50400001928E-02 0. -1.
       -1    1    3    3    0  502 -0.26680527321E+02  0.50259537588E+03 -0.54722302289E+03  0.74348301878E+03  0.50400001928E-02 0.  1.
</event>
<event>
 5   0  0.1216322E-02  0.9711432E+03  0.7818609E-02  0.9340773E-01
        2   -1    0    0  501    0  0.00000000000E+00  0.00000000000E+00  0.28962635092E+04  0.28962635092E+04  0.25500000920E-02 0. -1.
       -2   -1    0    0    0  501  0.00000000000E+00  0.00000000000E+00 -0.81408267371E+02  0.81408267411E+02  0.25500000920E-02 0.  1.
    10030    2    1    2    0    0  0.00000000000E+00  0.00000000000E+00  0.28148552418E+04  0.29776717766E+04  0.97114323186E+03 0.  0.
        2    1    3    3  502    0  0.29575318088E+03  0.18409147603E+03  0.24445854440E+04  0.24692828126E+04  0.25500000920E-02 0. -1.
       -2    1    3    3    0  502 -0.29575318088E+03 -0.18409147603E+03  0.37026979783E+03  0.50838896402E+03  0.25500000920E-02 0.  1.
</event>
<event>
 5   0  0.7224879E-03  0.1006287E+04  0.7818609E-02  0.9301676E-01
        1   -1    0    0  501    0  0.00000000000E+00  0.00000000000E+00  0.61001783480E+03  0.61001783482E+03  0.50400001928E-02 0. -1.
       -1   -1    0    0    0  501  0.00000000000E+00  0.00000000000E+00 -0.41499378537E+03  0.41499378540E+03  0.50400001928E-02 0.  1.
    10030    2    1    2    0    0  0.00000000000E+00  0.00000000000E+00  0.19502404944E+03  0.10250116202E+04  0.10062874548E+04 0.  0.
        3    1    3    3  502    0  0.11510591213E+03  0.42834550782E+03  0.33947005070E+03  0.55854200432E+03  0.10100000352E+00 0. -1.
       -3    1    3    3    0  502 -0.11510591213E+03 -0.42834550782E+03 -0.14444600126E+03  0.46646961590E+03  0.10100000352E+00 0.  1.
</event>
<event>
 5   0  0.4782125E-03  0.9966152E+03  0.7818609E-02  0.9312265E-01
       -3   -1    0    0    0  501  0.00000000000E+00  0.00000000000E+00  0.11624090186E+04  0.11624090230E+04  0.10100000352E+00 0.  1.
        3   -1    0    0  501    0  0.00000000000E+00  0.00000000000E+00 -0.21361708080E+03  0.21361710467E+03  0.10100000352E+00 0. -1.
    10030    2    1    2    0    0  0.00000000000E+00  0.00000000000E+00  0.94879193782E+03  0.13760261277E+04  0.99661515280E+03 0.  0.
        5    1    3    3  502    0  0.14913862476E+03 -0.23852222213E+02 -0.18122133504E+03  0.23595448750E+03  0.46999998093E+01 0. -1.
       -5    1    3    3    0  502 -0.14913862476E+03  0.23852222213E+02  0.11300132729E+04  0.11400716402E+04  0.46999998093E+01 0.  1.
</event>
<event>
 5   0  0.1240503E-02  0.9798034E+03  0.7818609E-02  0.9330978E-01
       -2   -1    0    0    0  501  0.00000000000E+00  0.00000000000E+00  0.30814686424E+03  0.30814686425E+03  0.25500000920E-02 0. -1.
        2   -1    0    0  501    0  0.00000000000E+00  0.00000000000E+00 -0.77886134844E+03  0.77886134844E+03  0.25500000920E-02 0.  1.
    10030    2    1    2    0    0  0.00000000000E+00  0.00000000000E+00 -0.47071448420E+03  0.10870082127E+04  0.97980341335E+03 0.  0.
        1    1    3    3  502    0 -0.22845902538E+03 -0.40565649603E+03 -0.66183471643E+02  0.47024564963E+03  0.50400001928E-02 0. -1.
       -1    1    3    3    0  502  0.22845902538E+03  0.40565649603E+03 -0.40453101256E+03  0.61676256306E+03  0.50400001928E-02 0.  1.
</event>
<event>
 5   0  0.1221315E-02  0.1002712E+04  0.7818609E-02  0.9305576E-01
        2   -1    0    0  501    0  0.00000000000E+00  0.00000000000E+00  0.29187413758E+04  0.29187413758E+04  0.25500000920E-02 0.  1.
       -2   -1    0    0    0  501  0.00000000000E+00  0.00000000000E+00 -0.86118505170E+02  0.86118505208E+02  0.25500000920E-02 0. -1.
    10030    2    1    2    0    0  0.00000000000E+00  0.00000000000E+00  0.28326228706E+04  0.30048598810E+04  0.10027116122E+04 0.  0.
        5    1    3    3  502    0 -0.35400322013E+03 -0.35481489032E+03  0.13829859128E+04  0.14710146197E+04  0.46999998093E+01 0. -1.
       -5    1    3    3    0  502  0.35400322013E+03  0.35481489032E+03  0.14496369578E+04  0.15338452613E+04  0.46999998093E+01 0.  1.
</event>
<event>
 5   0  0.7073004E-03  0.1021231E+04  0.7818609E-02  0.9285561E-01
        1   -1    0    0  501    0  0.00000000000E+00  0.00000000000E+00  0.90314855691E+03  0.90314855693E+03  0.50400001928E-02 0. -1.
       -1   -1    0    0    0  501  0.00000000000E+00  0.00000000000E+00 -0.28868778970E+03  0.28868778974E+03  0.50400001928E-02 0.  1.
    10030    2    1    2    0    0  0.00000000000E+00  0.00000000000E+00  0.61446076721E+03  0.11918363467E+04  0.10212305532E+04 0.  0.
        1    1    3    3  502    0 -0.26029092168E+03  0.57747321622E+02 -0.20099916386E+03  0.33389636260E+03  0.50400001928E-02 0.  1.
       -1    1    3    3    0  502  0.26029092168E+03 -0.57747321622E+02  0.81545993107E+03  0.85793998407E+03  0.50400001928E-02 0. -1.
</event>
<event>
 5   0  0.7241200E-03  0.1045618E+04  0.7818609E-02  0.9259880E-01
       -1   -1    0    0    0  501  0.00000000000E+00  0.00000000000E+00  0.11768084697E+04  0.11768084697E+04  0.50400001928E-02 0.  1.
        1   -1    0    0  501    0  0.00000000000E+00  0.00000000000E+00 -0.23226327106E+03  0.23226327111E+03  0.50400001928E-02 0. -1.
    10030    2    1    2    0    0  0.00000000000E+00  0.00000000000E+00  0.94454519865E+03  0.14090717408E+04  0.10456182566E+04 0.  0.
        4    1    3    3  502    0  0.91265424368E+02  0.17748646228E+03 -0.17890665111E+03  0.26802989514E+03  0.12699999809E+01 0. -1.
       -4    1    3    3    0  502 -0.91265424368E+02 -0.17748646228E+03  0.11234518498E+04  0.11410418457E+04  0.12699999809E+01 0.  1.
</event>
<event>
 5   0  0.7241200E-03  0.1007815E+04  0.7818609E-02  0.9300014E-01
        1   -1    0    0  501    0  0.00000000000E+00  0.00000000000E+00  0.28403254738E+03  0.28403254743E+03  0.50400001928E-02 0. -1.
       -1   -1    0    0    0  501  0.00000000000E+00  0.00000000000E+00 -0.89399252894E+03  0.89399252895E+03  0.50400001928E-02 0.  1.
    10030    2    1    2    0    0  0.00000000000E+00  0.00000000000E+00 -0.60995998156E+03  0.11780250764E+04  0.10078154104E+04 0.  0.
        4    1    3    3  502    0 -0.44981811185E+03  0.20211750131E+03 -0.18387971877E+03  0.52630901755E+03  0.12699999809E+01 0.  1.
       -4    1    3    3    0  502  0.44981811185E+03 -0.20211750131E+03 -0.42608026279E+03  0.65171605882E+03  0.12699999809E+01 0. -1.
</event>
<event>
 5   0  0.1216322E-02  0.1015511E+04  0.7818609E-02  0.9291694E-01
       -2   -1    0    0    0  501  0.00000000000E+00  0.00000000000E+00  0.50669732817E+03  0.50669732817E+03  0.25500000920E-02 0.  1.
        2   -1    0    0  501    0  0.00000000000E+00  0.00000000000E+00 -0.50881589900E+03  0.50881589901E+03  0.25500000920E-02 0. -1.
    10030    2    1    2    0    0  0.00000000000E+00  0.00000000000E+00 -0.21185708369E+01  0.10155132272E+04  0.10155110173E+04 0.  0.
        2    1    3    3  502    0  0.60452920342E+02 -0.41223860416E+02  0.50139747202E+03  0.50670838477E+03  0.25500000920E-02 0.  1.
       -2    1    3    3    0  502 -0.60452920342E+02  0.41223860416E+02 -0.50351604285E+03  0.50880484241E+03  0.25500000920E-02 0. -1.
</event>
<event>
 5   0  0.1216322E-02  0.1016976E+04  0.7818609E-02  0.9290120E-01
        2   -1    0    0  501    0  0.00000000000E+00  0.00000000000E+00  0.67413778721E+03  0.67413778721E+03  0.25500000920E-02 0. -1.
       -2   -1    0    0    0  501  0.00000000000E+00  0.00000000000E+00 -0.38354167847E+03  0.38354167848E+03  0.25500000920E-02 0.  1.
    10030    2    1    2    0    0  0.00000000000E+00  0.00000000000E+00  0.29059610873E+03  0.10576794657E+04  0.10169757882E+04 0.  0.
        2    1    3    3  502    0 -0.26194512040E+01  0.35346305186E+03  0.52546489439E+03  0.63329009608E+03  0.25500000920E-02 0. -1.
       -2    1    3    3    0  502  0.26194512040E+01 -0.35346305186E+03 -0.23486878566E+03  0.42438936961E+03  0.25500000920E-02 0.  1.
</event>
<event>
 5   0  0.1191822E-02  0.1016251E+04  0.7818609E-02  0.9290898E-01
        2   -1    0    0  501    0  0.00000000000E+00  0.00000000000E+00  0.76491673141E+03  0.76491673141E+03  0.25500000920E-02 0. -1.
       -2   -1    0    0    0  501  0.00000000000E+00  0.00000000000E+00 -0.33754214233E+03  0.33754214234E+03  0.25500000920E-02 0.  1.
    10030    2    1    2    0    0  0.00000000000E+00  0.00000000000E+00  0.42737458907E+03  0.11024588738E+04  0.10162512135E+04 0.  0.
        4    1    3    3  502    0  0.85944683843E+02  0.36788232008E+03 -0.15494096340E+03  0.40832855050E+03  0.12699999809E+01 0.  1.
       -4    1    3    3    0  502 -0.85944683843E+02 -0.36788232008E+03  0.58231555247E+03  0.69413032326E+03  0.12699999809E+01 0. -1.
</event>
<event>
 5   0  0.1221315E-02  0.9947803E+03  0.7818609E-02  0.9314288E-01
        2   -1    0    0  501    0  0.00000000000E+00  0.00000000000E+00  0.94794549886E+03  0.94794549887E+03  0.25500000920E-02 0.  1.
       -2   -1    0    0    0  501  0.00000000000E+00  0.00000000000E+00 -0.26098225341E+03  0.26098225342E+03  0.25500000920E-02 0. -1.
    10030    2    1    2    0    0  0.00000000000E+00  0.00000000000E+00  0.68696324545E+03  0.12089277523E+04  0.99478028210E+03 0.  0.
        5    1    3    3  502    0 -0.34639311797E+02 -0.13583503546E+03  0.92341407593E+03  0.93400571969E+03  0.46999998093E+01 0.  1.
       -5    1    3    3    0  502  0.34639311797E+02  0.13583503546E+03 -0.23645083048E+03  0.27492203260E+03  0.46999998093E+01 0. -1.
</event>
<event>
 5   0  0.1216322E-02  0.1037996E+04  0.7818609E-02  0.9267825E-01
        2   -1    0    0  501    0  0.00000000000E+00  0.00000000000E+00  0.12755590291E+04  0.12755590291E+04  0.25500000920E-02 0.  1.
       -2   -1    0    0    0  501  0.00000000000E+00  0.00000000000E+00 -0.21116946249E+03  0.21116946251E+03  0.25500000920E-02 0. -1.
    10030    2    1    2    0    0  0.00000000000E+00  0.00000000000E+00  0.10643895666E+04  0.14867284916E+04  0.10379963672E+04 0.  0.
        2    1    3    3  502    0  0.15690357986E+03 -0.24322868213E+03 -0.84828620966E+02  0.30162032446E+03  0.25500000920E-02 0. -1.
       -2    1    3    3    0  502 -0.15690357986E+03  0.24322868213E+03  0.11492181876E+04  0.11851081671E+04  0.25500000920E-02 0.  1.
</event>
<event>
 5   0  0.1240503E-02  0.9291517E+03  0.7818609E-02  0.9389857E-01
        2   -1    0    0  501    0  0.00000000000E+00  0.00000000000E+00  0.57428119176E+03  0.57428119177E+03  0.25500000920E-02 0. -1.
       -2   -1    0    0    0  501  0.00000000000E+00  0.00000000000E+00 -0.37582757282E+03  0.37582757283E+03  0.25500000920E-02 0.  1.
    10030    2    1    2    0    0  0.00000000000E+00  0.00000000000E+00  0.19845361894E+03  0.95010876460E+03  0.92915166991E+03 0.  0.
        1    1    3    3  502    0  0.26259470777E+03 -0.37459160870E+03  0.16432345064E+02  0.45776071898E+03  0.50400001928E-02 0.  1.
       -1    1    3    3    0  502 -0.26259470777E+03  0.37459160870E+03  0.18202127388E+03  0.49234804562E+03  0.50400001928E-02 0. -1.
</event>
<event>
 5   0  0.1191822E-02  0.6651862E+03  0.7818609E-02  0.9778693E-01
       -2   -1    0    0    0  501  0.00000000000E+00  0.00000000000E+00  0.84611263924E+02  0.84611263962E+02  0.25500000920E-02 0. -1.
        2   -1    0    0  501    0  0.00000000000E+00  0.00000000000E+00 -0.13073691931E+04  0.13073691931E+04  0.25500000920E-02 0.  1.
    10030    2    1    2    0    0  0.00000000000E+00  0.00000000000E+00 -0.12227579292E+04  0.13919804571E+04  0.66518616905E+03 0.  0.
        4    1    3    3  502    0 -0.20736160111E+03  0.14390399097E+03 -0.10646100168E+04  0.10941221564E+04  0.12699999809E+01 0.  1.
       -4    1    3    3    0  502  0.20736160111E+03 -0.14390399097E+03 -0.15814791241E+03  0.29785830075E+03  0.12699999809E+01 0. -1.
</event>
<event>
 5   0  0.1191822E-02  0.1018297E+04  0.7818609E-02  0.9288702E-01
        2   -1    0    0  501    0  0.00000000000E+00  0.00000000000E+00  0.16856012861E+04  0.16856012861E+04  0.25500000920E-02 0.  1.
       -2   -1    0    0    0  501  0.00000000000E+00  0.00000000000E+00 -0.15379199330E+03  0.15379199332E+03  0.25500000920E-02 0. -1.
    10030    2    1    2    0    0  0.00000000000E+00  0.00000000000E+00  0.15318092928E+04  0.18393932794E+04  0.10182965810E+04 0.  0.
        4    1    3    3  502    0  0.15196671248E+03 -0.59515506914E+02  0.16370686639E+04  0.16451843059E+04  0.12699999809E+01 0.  1.
       -4    1    3    3    0  502 -0.15196671248E+03  0.59515506914E+02 -0.10525937113E+03  0.19420897346E+03  0.12699999809E+01 0. -1.
</event>
<event>
 5   0  0.1221315E-02  0.1005992E+04  0.7818609E-02  0.9301997E-01
       -2   -1    0    0    0  501  0.00000000000E+00  0.00000000000E+00  0.16754050018E+03  0.16754050020E+03  0.25500000920E-02 0.  1.
        2   -1    0    0  501    0  0.00000000000E+00  0.00000000000E+00 -0.15101122797E+04  0.15101122797E+04  0.25500000920E-02 0. -1.
    10030    2    1    2    0    0  0.00000000000E+00  0.00000000000E+00 -0.13425717795E+04  0.16776527799E+04  0.10059919815E+04 0.  0.
        5    1    3    3  502    0 -0.68267487559E+01 -0.45117323717E+03 -0.10418630329E+04  0.11353874069E+04  0.46999998093E+01 0. -1.
       -5    1    3    3    0  502  0.68267487559E+01  0.45117323717E+03 -0.30070874657E+03  0.54226537295E+03  0.46999998093E+01 0.  1.
</event>
<event>
 5   0  0.7461157E-03  0.9977106E+03  0.7818609E-02  0.9311059E-01
        1   -1    0    0  501    0  0.00000000000E+00  0.00000000000E+00  0.29888866215E+03  0.29888866220E+03  0.50400001928E-02 0. -1.
       -1   -1    0    0    0  501  0.00000000000E+00  0.00000000000E+00 -0.83260638333E+03  0.83260638335E+03  0.50400001928E-02 0.  1.
    10030    2    1    2    0    0  0.00000000000E+00  0.00000000000E+00 -0.53371772118E+03  0.11314950455E+04  0.99771059541E+03 0.  0.
        2    1    3    3  502    0  0.27537076078E+03  0.40527130292E+03 -0.37314158282E+03  0.61588028520E+03  0.25500000920E-02 0.  1.
       -2    1    3    3    0  502 -0.27537076078E+03 -0.40527130292E+03 -0.16057613836E+03  0.51561476034E+03  0.25500000920E-02 0. -1.
</event>
<event>
 5   0  0.1221315E-02  0.9870437E+03  0.7818609E-02  0.9322870E-01
       -2   -1    0    0    0  501  0.00000000000E+00  0.00000000000E+00  0.10526575682E+03  0.10526575685E+03  0.25500000920E-02 0. -1.
        2   -1    0    0  501    0  0.00000000000E+00  0.00000000000E+00 -0.23137992154E+04  0.23137992154E+04  0.25500000920E-02 0.  1.
    10030    2    1    2    0    0  0.00000000000E+00  0.00000000000E+00 -0.22085334585E+04  0.24190649722E+04  0.98704371853E+03 0.  0.
        5    1    3    3  502    0 -0.40479678219E+03 -0.20639791731E+03 -0.15762080858E+04  0.16404007300E+04  0.46999998093E+01 0.  1.
       -5    1    3    3    0  502  0.40479678219E+03  0.20639791731E+03 -0.63232537273E+03  0.77866424223E+03  0.46999998093E+01 0. -1.
</event>
<event>
 5   0  0.1245850E-02  0.1008059E+04  0.7818609E-02  0.9299749E-01
        2   -1    0    0  501    0  0.00000000000E+00  0.00000000000E+00  0.98351722258E+03  0.98351722259E+03  0.25500000920E-02 0.  1.
       -2   -1    0    0    0  501  0.00000000000E+00  0.00000000000E+00 -0.25830341876E+03  0.25830341878E+03  0.25500000920E-02 0. -1.
    10030    2    1    2    0    0  0.00000000000E+00  0.00000000000E+00  0.72521380382E+03  0.12418206414E+04  0.10080592463E+04 0.  0.
        3    1    3    3  502    0 -0.22497867639E+03  0.26223653624E+03 -0.89453081408E+02  0.35691073078E+03  0.10100000352E+00 0. -1.
       -3    1    3    3    0  502  0.22497867639E+03 -0.26223653624E+03  0.81466688523E+03  0.88490991059E+03  0.10100000352E+00 0.  1.
</event>
<event>
 5   0  0.4782125E-03  0.1024278E+04  0.7818609E-02  0.9282311E-01
       -4   -1    0    0    0  501  0.00000000000E+00  0.00000000000E+00  0.15056015029E+03  0.15056550652E+03  0.12699999809E+01 0.  1.
        4   -1    0    0  501    0  0.00000000000E+00  0.00000000000E+00 -0.17420339404E+04  0.17420344034E+04  0.12699999809E+01 0. -1.
    10030    2    1    2    0    0  0.00000000000E+00  0.00000000000E+00 -0.15914737901E+04  0.18925999099E+04  0.10242780844E+04 0.  0.
        2    1    3    3  502    0  0.47619660836E+03  0.12179530550E+03 -0.10615103811E+04  0.11697869872E+04  0.25500000920E-02 0. -1.
       -2    1    3    3    0  502 -0.47619660836E+03 -0.12179530550E+03 -0.52996340902E+03  0.72281292266E+03  0.25500000920E-02 0.  1.
</event>
<event>
 5   0  0.7073004E-03  0.1047010E+04  0.7818609E-02  0.9258437E-01
        1   -1    0    0  501    0  0.00000000000E+00  0.00000000000E+00  0.13209938753E+04  0.13209938753E+04  0.50400001928E-02 0. -1.
       -1   -1    0    0    0  501  0.00000000000E+00  0.00000000000E+00 -0.20746291765E+03  0.20746291771E+03  0.50400001928E-02 0.  1.
    10030    2    1    2    0    0  0.00000000000E+00  0.00000000000E+00  0.11135309577E+04  0.15284567930E+04  0.10470095389E+04 0.  0.
        1    1    3    3  502    0  0.21968692877E+03  0.47406553577E+03  0.50930941854E+03  0.72965509847E+03  0.50400001928E-02 0. -1.
       -1    1    3    3    0  502 -0.21968692877E+03 -0.47406553577E+03  0.60422153912E+03  0.79880169457E+03  0.50400001928E-02 0.  1.
</event>
<event>
 5   0  0.6967681E-03  0.1020909E+04  0.7818609E-02  0.9285905E-01
       -1   -1    0    0    0  501  0.00000000000E+00  0.00000000000E+00  0.29237687845E+03  0.29237687850E+03  0.50400001928E-02 0.  1.
        1   -1    0    0  501    0  0.00000000000E+00  0.00000000000E+00 -0.89119096508E+03  0.89119096509E+03  0.50400001928E-02 0. -1.
    10030    2    1    2    0    0  0.00000000000E+00  0.00000000000E+00 -0.59881408662E+03  0.11835678436E+04  0.10209086786E+04 0.  0.
        5    1    3    3  502    0  0.25604819475E+03 -0.83317555506E+02 -0.80213181448E+03  0.84613239561E+03  0.46999998093E+01 0. -1.
       -5    1    3    3    0  502 -0.25604819475E+03  0.83317555506E+02  0.20331772786E+03  0.33743544798E+03  0.46999998093E+01 0.  1.
</event>
<event>
 5   0  0.6967681E-03  0.1000633E+04  0.7818609E-02  0.9307851E-01
       -1   -1    0    0    0  501  0.00000000000E+00  0.00000000000E+00  0.17326927289E+03  0.17326927297E+03  0.50400001928E-02 0. -1.
        1   -1    0    0  501    0  0.00000000000E+00  0.00000000000E+00 -0.14446689583E+04  0.14446689583E+04  0.50400001928E-02 0.  1.
    10030    2    1    2    0    0  0.00000000000E+00  0.00000000000E+00 -0.12713996854E+04  0.16179382312E+04  0.10006332795E+04 0.  0.
        5    1    3    3  502    0  0.10684033550E+02 -0.15304286820E+03  0.13426105341E+03  0.20392250621E+03  0.46999998093E+01 0. -1.
       -5    1    3    3    0  502 -0.10684033550E+02  0.15304286820E+03 -0.14056607388E+04  0.14140157250E+04  0.46999998093E+01 0.  1.
</event>
<event>
 5   0  0.4782125E-03  0.9938096E+03  0.7818609E-02  0.9315360E-01
        3   -1    0    0  501    0  0.00000000000E+00  0.00000000000E+00  0.13879956750E+04  0.13879956787E+04  0.10100000352E+00 0.  1.
       -3   -1    0    0    0  501  0.00000000000E+00  0.00000000000E+00 -0.17789274243E+03  0.17789277110E+03  0.10100000352E+00 0. -1.
    10030    2    1    2    0    0  0.00000000000E+00  0.00000000000E+00  0.12101029326E+04  0.15658884498E+04  0.99380960436E+03 0.  0.
        3    1    3    3  502    0  0.22644590565E+03  0.37861156346E+03  0.96535338119E+03  0.10613819411E+04  0.10100000352E+00 0.  1.
       -3    1    3    3    0  502 -0.22644590565E+03 -0.37861156346E+03  0.24474955140E+03  0.50450650866E+03  0.10100000352E+00 0. -1.
</event>
<event>
 5   0  0.1240503E-02  0.9573962E+03  0.7818609E-02  0.9356547E-01
       -2   -1    0    0    0  501  0.00000000000E+00  0.00000000000E+00  0.26814958215E+03  0.26814958216E+03  0.25500000920E-02 0.  1.
        2   -1    0    0  501    0  0.00000000000E+00  0.00000000000E+00 -0.85456729797E+03  0.85456729797E+03  0.25500000920E-02 0. -1.
    10030    2    1    2    0    0  0.00000000000E+00  0.00000000000E+00 -0.58641771581E+03  0.11227168801E+04  0.95739618524E+03 0.  0.
        1    1    3    3  502    0  0.97432195138E+02  0.46521235083E+03 -0.22649701541E+03  0.52651349653E+03  0.50400001928E-02 0. -1.
       -1    1    3    3    0  502 -0.97432195138E+02 -0.46521235083E+03 -0.35992070041E+03  0.59620338360E+03  0.50400001928E-02 0.  1.
</event>
<event>
 5   0  0.1240503E-02  0.9797787E+03  0.7818609E-02  0.9331006E-01
        2   -1    0    0  501    0  0.00000000000E+00  0.00000000000E+00  0.38163774886E+03  0.38163774887E+03  0.25500000920E-02 0. -1.
       -2   -1    0    0    0  501  0.00000000000E+00  0.00000000000E+00 -0.62884647284E+03  0.62884647285E+03  0.25500000920E-02 0.  1.
    10030    2    1    2    0    0  0.00000000000E+00  0.00000000000E+00 -0.24720872398E+03  0.10104842217E+04  0.97977865313E+03 0.  0.
        1    1    3    3  502    0 -0.41612134024E+03 -0.69399995505E+02 -0.38044351138E+03  0.56807622249E+03  0.50400001928E-02 0.  1.
       -1    1    3    3    0  502  0.41612134024E+03  0.69399995505E+02  0.13323478740E+03  0.44240799922E+03  0.50400001928E-02 0. -1.
</event>
<event>
 5   0  0.7241200E-03  0.9591182E+03  0.7818609E-02  0.9354556E-01
       -1   -1    0    0    0  501  0.00000000000E+00  0.00000000000E+00  0.22050784717E+03  0.22050784722E+03  0.50400001928E-02 0. -1.
        1   -1    0    0  501    0  0.00000000000E+00  0.00000000000E+00 -0.10429422642E+04  0.10429422642E+04  0.50400001928E-02 0.  1.
    10030    2    1    2    0    0  0.00000000000E+00  0.00000000000E+00 -0.82243441700E+03  0.12634501114E+04  0.95911824805E+03 0.  0.
        4    1    3    3  502    0  0.12611244898E+03 -0.15993627537E+03  0.16069805788E+03  0.25944063035E+03  0.12699999809E+01 0. -1.
       -4    1    3    3    0  502 -0.12611244898E+03  0.15993627537E+03 -0.98313247488E+03  0.10040094810E+04  0.12699999809E+01 0.  1.
</event>
<event>
 5   0  0.1216322E-02  0.9966315E+03  0.7818609E-02  0.9312247E-01
       -2   -1    0    0    0  501  0.00000000000E+00  0.00000000000E+00  0.19815389518E+03  0.19815389520E+03  0.25500000920E-02 0. -1.
        2   -1    0    0  501    0  0.00000000000E+00  0.00000000000E+00 -0.12531602111E+04  0.12531602111E+04  0.25500000920E-02 0.  1.
    10030    2    1    2    0    0  0.00000000000E+00  0.00000000000E+00 -0.10550063159E+04  0.14513141063E+04  0.99663148078E+03 0.  0.
        2    1    3    3  502    0 -0.27914570310E+03 -0.40950436976E+03 -0.45180180927E+03  0.67062733860E+03  0.25500000920E-02 0. -1.
       -2    1    3    3    0  502  0.27914570310E+03  0.40950436976E+03 -0.60320450661E+03  0.78068676766E+03  0.25500000920E-02 0.  1.
</event>
<event>
 5   0  0.4782125E-03  0.9952089E+03  0.7818609E-02  0.9313815E-01
       -3   -1    0    0    0  501  0.00000000000E+00  0.00000000000E+00  0.95296394673E+03  0.95296395208E+03  0.10100000352E+00 0. -1.
        3   -1    0    0  501    0  0.00000000000E+00  0.00000000000E+00 -0.25983164172E+03  0.25983166135E+03  0.10100000352E+00 0.  1.
    10030    2    1    2    0    0  0.00000000000E+00  0.00000000000E+00  0.69313230501E+03  0.12127956134E+04  0.99520892666E+03 0.  0.
        2    1    3    3  502    0  0.38656140860E+03 -0.16032957228E+03  0.18495645575E+02  0.41890020683E+03  0.25500000920E-02 0.  1.
       -2    1    3    3    0  502 -0.38656140860E+03  0.16032957228E+03  0.67463665943E+03  0.79389540660E+03  0.25500000920E-02 0. -1.
</event>
<event>
 5   0  0.1221315E-02  0.1000246E+04  0.7818609E-02  0.9308275E-01
        2   -1    0    0  501    0  0.00000000000E+00  0.00000000000E+00  0.14217392312E+04  0.14217392312E+04  0.25500000920E-02 0. -1.
       -2   -1    0    0    0  501  0.00000000000E+00  0.00000000000E+00 -0.17592745883E+03  0.17592745885E+03  0.25500000920E-02 0.  1.
    10030    2    1    2    0    0  0.00000000000E+00  0.00000000000E+00  0.12458117723E+04  0.15976666900E+04  0.10002459099E+04 0.  0.
        5    1    3    3  502    0  0.41626662300E+03  0.17600388788E+03  0.28090417832E+03  0.53215084080E+03  0.46999998093E+01 0.  1.
       -5    1    3    3    0  502 -0.41626662300E+03 -0.17600388788E+03  0.96490759402E+03  0.10655158492E+04  0.46999998093E+01 0. -1.
</event>
<event>
 5   0  0.1221315E-02  0.9970537E+03  0.7818609E-02  0.9311782E-01
       -2   -1    0    0    0  501  0.00000000000E+00  0.00000000000E+00  0.13737224812E+03  0.13737224815E+03  0.25500000920E-02 0.  1.
        2   -1    0    0  501    0  0.00000000000E+00  0.00000000000E+00 -0.18091647090E+04  0.18091647090E+04  0.25500000920E-02 0. -1.
    10030    2    1    2    0    0  0.00000000000E+00  0.00000000000E+00 -0.16717924609E+04  0.19465369572E+04  0.99705370633E+03 0.  0.
        5    1    3    3  502    0 -0.34504889219E+03  0.17595681382E+03 -0.22321521046E+03  0.44706449033E+03  0.46999998093E+01 0.  1.
       -5    1    3    3    0  502  0.34504889219E+03 -0.17595681382E+03 -0.14485772504E+04  0.14994724668E+04  0.46999998093E+01 0. -1.
</event>
<event>
 5   0  0.7073004E-03  0.1018962E+04  0.7818609E-02  0.9287989E-01
        1   -1    0    0  501    0  0.00000000000E+00  0.00000000000E+00  0.83141601475E+03  0.83141601476E+03  0.50400001928E-02 0. -1.
       -1   -1    0    0    0  501  0.00000000000E+00  0.00000000000E+00 -0.31220331689E+03  0.31220331693E+03  0.50400001928E-02 0.  1.
    10030    2    1    2    0    0  0.00000000000E+00  0.00000000000E+00  0.51921269786E+03  0.11436193317E+04  0.10189618983E+04 0.  0.
        1    1    3    3  502    0 -0.31920250950E+02  0.43565209888E+03 -0.34692727840E+02  0.43819543479E+03  0.50400001928E-02 0.  1.
       -1    1    3    3    0  502  0.31920250950E+02 -0.43565209888E+03  0.55390542570E+03  0.70542389690E+03  0.50400001928E-02 0. -1.
</event>
<event>
 5   0  0.7241200E-03  0.9852984E+03  0.7818609E-02  0.9324818E-01
        1   -1    0    0  501    0  0.00000000000E+00  0.00000000000E+00  0.44499109828E+03  0.44499109831E+03  0.50400001928E-02 0.  1.
       -1   -1    0    0    0  501  0.00000000000E+00  0.00000000000E+00 -0.54541144329E+03  0.54541144332E+03  0.50400001928E-02 0. -1.
    10030    2    1    2    0    0  0.00000000000E+00  0.00000000000E+00 -0.10042034501E+03  0.99040254163E+03  0.98529840595E+03 0.  0.
        4    1    3    3  502    0 -0.29615955614E+03  0.32713514098E+03  0.16995355004E+03  0.47287810821E+03  0.12699999809E+01 0.  1.
       -4    1    3    3    0  502  0.29615955614E+03 -0.32713514098E+03 -0.27037389505E+03  0.51752443341E+03  0.12699999809E+01 0. -1.
</event>
<event>
 5   0  0.1245850E-02  0.1006438E+04  0.7818609E-02  0.9301512E-01
       -2   -1    0    0    0  501  0.00000000000E+00  0.00000000000E+00  0.16718270419E+03  0.16718270421E+03  0.25500000920E-02 0. -1.
        2   -1    0    0  501    0  0.00000000000E+00  0.00000000000E+00 -0.15146863085E+04  0.15146863085E+04  0.25500000920E-02 0.  1.
    10030    2    1    2    0    0  0.00000000000E+00  0.00000000000E+00 -0.13475036043E+04  0.16818690128E+04  0.10064379824E+04 0.  0.
        3    1    3    3  502    0 -0.35095906685E+03  0.36062782455E+03 -0.67014884759E+03  0.83804784026E+03  0.10100000352E+00 0. -1.
       -3    1    3    3    0  502  0.35095906685E+03 -0.36062782455E+03 -0.67735475675E+03  0.84382117249E+03  0.10100000352E+00 0.  1.
</event>
<event>
 5   0  0.1240503E-02  0.9945718E+03  0.7818609E-02  0.9314518E-01
       -2   -1    0    0    0  501  0.00000000000E+00  0.00000000000E+00  0.23651220035E+03  0.23651220037E+03  0.25500000920E-02 0. -1.
        2   -1    0    0  501    0  0.00000000000E+00  0.00000000000E+00 -0.10455834794E+04  0.10455834794E+04  0.25500000920E-02 0.  1.
    10030    2    1    2    0    0  0.00000000000E+00  0.00000000000E+00 -0.80907127909E+03  0.12820956798E+04  0.99457176591E+03 0.  0.
        1    1    3    3  502    0 -0.22329585342E+03  0.41887699598E+03 -0.59562722898E+03  0.76163690289E+03  0.50400001928E-02 0.  1.
       -1    1    3    3    0  502  0.22329585342E+03 -0.41887699598E+03 -0.21344405011E+03  0.52045877692E+03  0.50400001928E-02 0. -1.
</event>
<event>
 5   0  0.1221315E-02  0.9588277E+03  0.7818609E-02  0.9354891E-01
       -2   -1    0    0    0  501  0.00000000000E+00  0.00000000000E+00  0.24795727183E+03  0.24795727184E+03  0.25500000920E-02 0. -1.
        2   -1    0    0  501    0  0.00000000000E+00  0.00000000000E+00 -0.92692438365E+03  0.92692438365E+03  0.25500000920E-02 0.  1.
    10030    2    1    2    0    0  0.00000000000E+00  0.00000000000E+00 -0.67896711182E+03  0.11748816555E+04  0.95882770375E+03 0.  0.
        5    1    3    3  502    0  0.44933034044E+03 -0.70238269736E+02 -0.52525115343E+03  0.69479639719E+03  0.46999998093E+01 0.  1.
       -5    1    3    3    0  502 -0.44933034044E+03  0.70238269736E+02 -0.15371595839E+03  0.48008525830E+03  0.46999998093E+01 0. -1.
</event>
<event>
 5   0  0.4782125E-03  0.9124054E+03  0.7818609E-02  0.9410206E-01
        4   -1    0    0  501    0  0.00000000000E+00  0.00000000000E+00  0.41733013634E+03  0.41733206874E+03  0.12699999809E+01 0.  1.
       -4   -1    0    0    0  501  0.00000000000E+00  0.00000000000E+00 -0.49869215451E+03  0.49869377164E+03  0.12699999809E+01 0. -1.
    10030    2    1    2    0    0  0.00000000000E+00  0.00000000000E+00 -0.81362018167E+02  0.91602584038E+03  0.91240537167E+03 0.  0.
        4    1    3    3  502    0  0.37845316863E+03 -0.25285285299E+03 -0.96080511136E+01  0.45525299961E+03  0.12699999809E+01 0. -1.
       -4    1    3    3    0  502 -0.37845316863E+03  0.25285285299E+03 -0.71753967053E+02  0.46077284077E+03  0.12699999809E+01 0.  1.
</event>
<event>
 5   0  0.1245850E-02  0.1038732E+04  0.7818609E-02  0.9267055E-01
        2   -1    0    0  501    0  0.00000000000E+00  0.00000000000E+00  0.43170532852E+03  0.43170532853E+03  0.25500000920E-02 0. -1.
       -2   -1    0    0    0  501  0.00000000000E+00  0.00000000000E+00 -0.62482731216E+03  0.62482731217E+03  0.25500000920E-02 0.  1.
    10030    2    1    2    0    0  0.00000000000E+00  0.00000000000E+00 -0.19312198365E+03  0.10565326407E+04  0.10387324585E+04 0.  0.
        3    1    3    3  502    0  0.29541751304E+03 -0.36113162396E+03  0.13550156494E+03  0.48584796093E+03  0.10100000352E+00 0. -1.
       -3    1    3    3    0  502 -0.29541751304E+03  0.36113162396E+03 -0.32862354859E+03  0.57068467977E+03  0.10100000352E+00 0.  1.
</event>
<event>
 5   0  0.1191822E-02  0.1009177E+04  0.7818609E-02  0.9298536E-01
        2   -1    0    0  501    0  0.00000000000E+00  0.00000000000E+00  0.15915625024E+04  0.15915625024E+04  0.25500000920E-02 0. -1.
       -2   -1    0    0    0  501  0.00000000000E+00  0.00000000000E+00 -0.15997464113E+03  0.15997464115E+03  0.25500000920E-02 0.  1.
    10030    2    1    2    0    0  0.00000000000E+00  0.00000000000E+00  0.14315878612E+04  0.17515371435E+04  0.10091771701E+04 0.  0.
        4    1    3    3  502    0 -0.21188524730E+03 -0.41046849274E+03  0.36338283571E+03  0.58773160519E+03  0.12699999809E+01 0.  1.
       -4    1    3    3    0  502  0.21188524730E+03  0.41046849274E+03  0.10682050255E+04  0.11638055383E+04  0.12699999809E+01 0. -1.
</event>
<event>
 5   0  0.6967681E-03  0.9928940E+03  0.7818609E-02  0.9316373E-01
       -1   -1    0    0    0  501  0.00000000000E+00  0.00000000000E+00  0.17588838679E+03  0.17588838687E+03  0.50400001928E-02 0. -1.
        1   -1    0    0  501    0  0.00000000000E+00  0.00000000000E+00 -0.14012273947E+04  0.14012273947E+04  0.50400001928E-02 0.  1.
    10030    2    1    2    0    0  0.00000000000E+00  0.00000000000E+00 -0.12253390079E+04  0.15771157816E+04  0.99289400451E+03 0.  0.
        5    1    3    3  502    0  0.38846162741E+03  0.10772644163E+03 -0.10728408743E+04  0.11460877164E+04  0.46999998093E+01 0.  1.
       -5    1    3    3    0  502 -0.38846162741E+03 -0.10772644163E+03 -0.15249813363E+03  0.43102806516E+03  0.46999998093E+01 0. -1.
</event>
<event>
 5   0  0.1245850E-02  0.1000187E+04  0.7818609E-02  0.9308339E-01
        2   -1    0    0  501    0  0.00000000000E+00  0.00000000000E+00  0.69750089816E+03  0.69750089816E+03  0.25500000920E-02 0.  1.
       -2   -1    0    0    0  501  0.00000000000E+00  0.00000000000E+00 -0.35855682311E+03  0.35855682312E+03  0.25500000920E-02 0. -1.
    10030    2    1    2    0    0  0.00000000000E+00  0.00000000000E+00  0.33894407505E+03  0.10560577213E+04  0.10001873948E+04 0.  0.
        3    1    3    3  502    0 -0.37608168168E+03 -0.14348939259E+03  0.48281000769E+03  0.62859537925E+03  0.10100000352E+00 0.  1.
       -3    1    3    3    0  502  0.37608168168E+03  0.14348939259E+03 -0.14386593264E+03  0.42746234203E+03  0.10100000352E+00 0. -1.
</event>
<event>
 5   0  0.1191822E-02  0.1005112E+04  0.7818609E-02  0.9302956E-01
       -2   -1    0    0    0  501  0.00000000000E+00  0.00000000000E+00  0.14968840254E+03  0.14968840256E+03  0.25500000920E-02 0. -1.
        2   -1    0    0  501    0  0.00000000000E+00  0.00000000000E+00 -0.16872544695E+04  0.16872544695E+04  0.25500000920E-02 0.  1.
    10030    2    1    2    0    0  0.00000000000E+00  0.00000000000E+00 -0.15375660669E+04  0.18369428720E+04  0.10051117873E+04 0.  0.
        4    1    3    3  502    0 -0.29620883610E+03  0.38613964974E+03 -0.99790693123E+03  0.11102537368E+04  0.12699999809E+01 0.  1.
       -4    1    3    3    0  502  0.29620883610E+03 -0.38613964974E+03 -0.53965913569E+03  0.72668913526E+03  0.12699999809E+01 0. -1.
</event>
<event>
 5   0  0.1240503E-02  0.9983932E+03  0.7818609E-02  0.9310309E-01
       -2   -1    0    0    0  501  0.00000000000E+00  0.00000000000E+00  0.16444725135E+03  0.16444725137E+03  0.25500000920E-02 0. -1.
        2   -1    0    0  501    0  0.00000000000E+00  0.00000000000E+00 -0.15153628090E+04  0.15153628090E+04  0.25500000920E-02 0.  1.
    10030    2    1    2    0    0  0.00000000000E+00  0.00000000000E+00 -0.13509155576E+04  0.16798100604E+04  0.99839320662E+03 0.  0.
        1    1    3    3  502    0  0.30565875785E+03 -0.15275243730E+03 -0.12877555509E+04  0.13323193845E+04  0.50400001928E-02 0.  1.
       -1    1    3    3    0  502 -0.30565875785E+03  0.15275243730E+03 -0.63160006736E+02  0.34749067588E+03  0.50400001928E-02 0. -1.
</event>
<event>
 5   0  0.7241200E-03  0.1001163E+04  0.7818609E-02  0.9307270E-01
       -1   -1    0    0    0  501  0.00000000000E+00  0.00000000000E+00  0.20405777051E+03  0.20405777057E+03  0.50400001928E-02 0.  1.
        1   -1    0    0  501    0  0.00000000000E+00  0.00000000000E+00 -0.12279945087E+04  0.12279945087E+04  0.50400001928E-02 0. -1.
    10030    2    1    2    0    0  0.00000000000E+00  0.00000000000E+00 -0.10239367382E+04  0.14320522793E+04  0.10011629672E+04 0.  0.
        4    1    3    3  502    0  0.30894872442E+03  0.18543868651E+03 -0.14934738719E+02  0.36064037502E+03  0.12699999809E+01 0.  1.
       -4    1    3    3    0  502 -0.30894872442E+03 -0.18543868651E+03 -0.10090019995E+04  0.10714119043E+04  0.12699999809E+01 0. -1.
</event>
<event>
 5   0  0.1245850E-02  0.1030432E+04  0.7818609E-02  0.9275783E-01
       -2   -1    0    0    0  501  0.00000000000E+00  0.00000000000E+00  0.18634965886E+03  0.18634965888E+03  0.25500000920E-02 0. -1.
        2   -1    0    0  501    0  0.00000000000E+00  0.00000000000E+00 -0.14244594408E+04  0.14244594408E+04  0.25500000920E-02 0.  1.
    10030    2    1    2    0    0  0.00000000000E+00  0.00000000000E+00 -0.12381097820E+04  0.16108090997E+04  0.10304320082E+04 0.  0.
        3    1    3    3  502    0  0.14290976931E+03 -0.13033206525E+03 -0.13655521592E+04  0.13791817716E+04  0.10100000352E+00 0.  1.
       -3    1    3    3    0  502 -0.14290976931E+03  0.13033206525E+03  0.12744237726E+03  0.23162732809E+03  0.10100000352E+00 0. -1.
</event>
<event>
 5   0  0.1221315E-02  0.9649683E+03  0.7818609E-02  0.9347824E-01
        2   -1    0    0  501    0  0.00000000000E+00  0.00000000000E+00  0.11548504085E+04  0.11548504085E+04  0.25500000920E-02 0. -1.
       -2   -1    0    0    0  501  0.00000000000E+00  0.00000000000E+00 -0.20157669888E+03  0.20157669890E+03  0.25500000920E-02 0.  1.
    10030    2    1    2    0    0  0.00000000000E+00  0.00000000000E+00  0.95327370958E+03  0.13564271074E+04  0.96496825450E+03 0.  0.
        5    1    3    3  502    0 -0.40148118853E+03 -0.22440994756E+03  0.68141108279E+03  0.82212536943E+03  0.46999998093E+01 0. -1.
       -5    1    3    3    0  502  0.40148118853E+03  0.22440994756E+03  0.27186262678E+03  0.53430173792E+03  0.46999998093E+01 0.  1.
</event>
<event>
 5   0  0.7224879E-03  0.9166445E+03  0.7818609E-02  0.9405011E-01
       -1   -1    0    0    0  501  0.00000000000E+00  0.00000000000E+00  0.42409535235E+03  0.42409535238E+03  0.50400001928E-02 0.  1.
        1   -1    0    0  501    0  0.00000000000E+00  0.00000000000E+00 -0.49531143949E+03  0.49531143952E+03  0.50400001928E-02 0. -1.
    10030    2    1    2    0    0  0.00000000000E+00  0.00000000000E+00 -0.71216087146E+02  0.91940679190E+03  0.91664448829E+03 0.  0.
        3    1    3    3  502    0  0.22105108654E+03  0.39754791034E+03 -0.91914057010E+02  0.46406478853E+03  0.10100000352E+00 0. -1.
       -3    1    3    3    0  502 -0.22105108654E+03 -0.39754791034E+03  0.20697969864E+02  0.45534200337E+03  0.10100000352E+00 0.  1.
</event>
<event>
 5   0  0.4782125E-03  0.1012566E+04  0.7818609E-02  0.9294869E-01
       -3   -1    0    0    0  501  0.00000000000E+00  0.00000000000E+00  0.60674883082E+03  0.60674883923E+03  0.10100000352E+00 0. -1.
        3   -1    0    0  501    0  0.00000000000E+00  0.00000000000E+00 -0.42245197331E+03  0.42245198538E+03  0.10100000352E+00 0.  1.
    10030    2    1    2    0    0  0.00000000000E+00  0.00000000000E+00  0.18429685751E+03  0.10292008246E+04  0.10125655562E+04 0.  0.
        4    1    3    3  502    0 -0.79268247348E+02  0.65035360829E+02 -0.41178667910E+03  0.42436179750E+03  0.12699999809E+01 0.  1.
       -4    1    3    3    0  502  0.79268247348E+02 -0.65035360829E+02  0.59608353661E+03  0.60483902711E+03  0.12699999809E+01 0. -1.
</event>
<event>
 5   0  0.7241200E-03  0.1001594E+04  0.7818609E-02  0.9306798E-01
       -1   -1    0    0    0  501  0.00000000000E+00  0.00000000000E+00  0.26306960029E+03  0.26306960034E+03  0.50400001928E-02 0.  1.
        1   -1    0    0  501    0  0.00000000000E+00  0.00000000000E+00 -0.95335158973E+03  0.95335158974E+03  0.50400001928E-02 0. -1.
    10030    2    1    2    0    0  0.00000000000E+00  0.00000000000E+00 -0.69028198944E+03  0.12164211901E+04  0.10015943723E+04 0.  0.
        4    1    3    3  502    0  0.21679039545E+03 -0.11677575883E+03 -0.87474768378E+03  0.90874626634E+03  0.12699999809E+01 0. -1.
       -4    1    3    3    0  502 -0.21679039545E+03  0.11677575883E+03  0.18446569434E+03  0.30767492374E+03  0.12699999809E+01 0.  1.
</event>
<event>
 5   0  0.1191822E-02  0.1005565E+04  0.7818609E-02  0.9302462E-01
       -2   -1    0    0    0  501  0.00000000000E+00  0.00000000000E+00  0.21670070293E+03  0.21670070294E+03  0.25500000920E-02 0.  1.
        2   -1    0    0  501    0  0.00000000000E+00  0.00000000000E+00 -0.11665405666E+04  0.11665405666E+04  0.25500000920E-02 0. -1.
    10030    2    1    2    0    0  0.00000000000E+00  0.00000000000E+00 -0.94983986369E+03  0.13832412696E+04  0.10055648379E+04 0.  0.
        4    1    3    3  502    0  0.71055716167E+02 -0.38159999109E+03 -0.35332205156E+02  0.38976588566E+03  0.12699999809E+01 0.  1.
       -4    1    3    3    0  502 -0.71055716167E+02  0.38159999109E+03 -0.91450765853E+03  0.99347538390E+03  0.12699999809E+01 0. -1.
</event>
<event>
 5   0  0.7224879E-03  0.1024933E+04  0.7818609E-02  0.9281614E-01
       -1   -1    0    0    0  501  0.00000000000E+00  0.00000000000E+00  0.87363491920E+03  0.87363491921E+03  0.50400001928E-02 0.  1.
        1   -1    0    0  501    0  0.00000000000E+00  0.00000000000E+00 -0.30060834518E+03  0.30060834522E+03  0.50400001928E-02 0. -1.
    10030    2    1    2    0    0  0.00000000000E+00  0.00000000000E+00  0.57302657401E+03  0.11742432644E+04  0.10249330659E+04 0.  0.
        3    1    3    3  502    0  0.30536374438E+03 -0.24868876581E+03  0.66219928626E+03  0.77045507561E+03  0.10100000352E+00 0.  1.
       -3    1    3    3    0  502 -0.30536374438E+03  0.24868876581E+03 -0.89172712242E+02  0.40378818882E+03  0.10100000352E+00 0. -1.
</event>
<event>
 5   0  0.1221315E-02  0.9943848E+03  0.7818609E-02  0.9314725E-01
       -2   -1    0    0    0  501  0.00000000000E+00  0.00000000000E+00  0.23273998955E+03  0.23273998957E+03  0.25500000920E-02 0. -1.
        2   -1    0    0  501    0  0.00000000000E+00  0.00000000000E+00 -0.10621307820E+04  0.10621307820E+04  0.25500000920E-02 0.  1.
    10030    2    1    2    0    0  0.00000000000E+00  0.00000000000E+00 -0.82939079241E+03  0.12948707715E+04  0.99438484925E+03 0.  0.
        5    1    3    3  502    0 -0.16452354426E+03  0.13447797263E+03 -0.99999125233E+03  0.10223291625E+04  0.46999998093E+01 0.  1.
       -5    1    3    3    0  502  0.16452354426E+03 -0.13447797263E+03  0.17060045992E+03  0.27254160904E+03  0.46999998093E+01 0. -1.
</event>
<event>
 5   0  0.1216322E-02  0.9964620E+03  0.7818609E-02  0.9312434E-01
       -2   -1    0    0    0  501  0.00000000000E+00  0.00000000000E+00  0.51054969063E+03  0.51054969063E+03  0.25500000920E-02 0.  1.
        2   -1    0    0  501    0  0.00000000000E+00  0.00000000000E+00 -0.48620949105E+03  0.48620949105E+03  0.25500000920E-02 0. -1.
    10030    2    1    2    0    0  0.00000000000E+00  0.00000000000E+00  0.24340199581E+02  0.99675918169E+03  0.99646195159E+03 0.  0.
        2    1    3    3  502    0 -0.35641557917E+02  0.13872021673E+02  0.50907913589E+03  0.51051378066E+03  0.25500000920E-02 0.  1.
       -2    1    3    3    0  502  0.35641557917E+02 -0.13872021673E+02 -0.48473893631E+03  0.48624540103E+03  0.25500000920E-02 0. -1.
</event>
<event>
 5   0  0.1221315E-02  0.8435281E+03  0.7818609E-02  0.9499065E-01
        2   -1    0    0  501    0  0.00000000000E+00  0.00000000000E+00  0.94730295989E+03  0.94730295990E+03  0.25500000920E-02 0. -1.
       -2   -1    0    0    0  501  0.00000000000E+00  0.00000000000E+00 -0.18778037872E+03  0.18778037874E+03  0.25500000920E-02 0.  1.
    10030    2    1    2    0    0  0.00000000000E+00  0.00000000000E+00  0.75952258117E+03  0.11350833386E+04  0.84352808746E+03 0.  0.
        5    1    3    3  502    0 -0.17149611358E+03  0.38162586251E+03  0.45113850331E+03  0.61530257197E+03  0.46999998093E+01 0. -1.
       -5    1    3    3    0  502  0.17149611358E+03 -0.38162586251E+03  0.30838407787E+03  0.51978076666E+03  0.46999998093E+01 0.  1.
</event>
<event>
 5   0  0.7224879E-03  0.9653998E+03  0.7818609E-02  0.9347330E-01
       -1   -1    0    0    0  501  0.00000000000E+00  0.00000000000E+00  0.30232471516E+03  0.30232471521E+03  0.50400001928E-02 0.  1.
        1   -1    0    0  501    0  0.00000000000E+00  0.00000000000E+00 -0.77069185344E+03  0.77069185346E+03  0.50400001928E-02 0. -1.
    10030    2    1    2    0    0  0.00000000000E+00  0.00000000000E+00 -0.46836713828E+03  0.10730165687E+04  0.96539980340E+03 0.  0.
        3    1    3    3  502    0  0.22845148012E+03  0.35888552933E+03  0.19296507812E+02  0.42586531598E+03  0.10100000352E+00 0.  1.
       -3    1    3    3    0  502 -0.22845148012E+03 -0.35888552933E+03 -0.48766364609E+03  0.64715125269E+03  0.10100000352E+00 0. -1.
</event>
<event>
 5   0  0.7241200E-03  0.9535715E+03  0.7818609E-02  0.9360986E-01
       -1   -1    0    0    0  501  0.00000000000E+00  0.00000000000E+00  0.11717172715E+03  0.11717172726E+03  0.50400001928E-02 0. -1.
        1   -1    0    0  501    0  0.00000000000E+00  0.00000000000E+00 -0.19400981159E+04  0.19400981159E+04  0.50400001928E-02 0.  1.
    10030    2    1    2    0    0  0.00000000000E+00  0.00000000000E+00 -0.18229263887E+04  0.20572698432E+04  0.95357149117E+03 0.  0.
        4    1    3    3  502    0  0.22742348515E+03  0.16364970981E+03 -0.79183719745E+02  0.29116033983E+03  0.12699999809E+01 0. -1.
       -4    1    3    3    0  502 -0.22742348515E+03 -0.16364970981E+03 -0.17437426690E+04  0.17661095033E+04  0.12699999809E+01 0.  1.
</event>
<event>
 5   0  0.1245850E-02  0.1256189E+04  0.7818609E-02  0.9065048E-01
       -2   -1    0    0    0  501  0.00000000000E+00  0.00000000000E+00  0.62642617395E+03  0.62642617395E+03  0.25500000920E-02 0.  1.
        2   -1    0    0  501    0  0.00000000000E+00  0.00000000000E+00 -0.62976768506E+03  0.62976768506E+03  0.25500000920E-02 0. -1.
    10030    2    1    2    0    0  0.00000000000E+00  0.00000000000E+00 -0.33415111098E+01  0.12561938590E+04  0.12561894147E+04 0.  0.
        3    1    3    3  502    0 -0.23840781863E+03  0.51692257944E+03  0.26376512869E+03  0.62739086256E+03  0.10100000352E+00 0.  1.
       -3    1    3    3    0  502  0.23840781863E+03 -0.51692257944E+03 -0.26710663980E+03  0.62880299645E+03  0.10100000352E+00 0. -1.
</event>
<event>
 5   0  0.7461157E-03  0.8871925E+03  0.7818609E-02  0.9441734E-01
        1   -1    0    0  501    0  0.00000000000E+00  0.00000000000E+00  0.14164476025E+04  0.14164476025E+04  0.50400001928E-02 0. -1.
       -1   -1    0    0    0  501  0.00000000000E+00  0.00000000000E+00 -0.13892335453E+03  0.13892335462E+03  0.50400001928E-02 0.  1.
    10030    2    1    2    0    0  0.00000000000E+00  0.00000000000E+00  0.12775242480E+04  0.15553709571E+04  0.88719254401E+03 0.  0.
        2    1    3    3  502    0 -0.44122740314E+03  0.20377119332E+02  0.71063659673E+03  0.83672051540E+03  0.25500000920E-02 0. -1.
       -2    1    3    3    0  502  0.44122740314E+03 -0.20377119332E+02  0.56688765122E+03  0.71865044172E+03  0.25500000920E-02 0.  1.
</event>
<event>
 5   0  0.1191822E-02  0.9248333E+03  0.7818609E-02  0.9395060E-01
        2   -1    0    0  501    0  0.00000000000E+00  0.00000000000E+00  0.10481534371E+04  0.10481534371E+04  0.25500000920E-02 0.  1.
       -2   -1    0    0    0  501  0.00000000000E+00  0.00000000000E+00 -0.20400558084E+03  0.20400558085E+03  0.25500000920E-02 0. -1.
    10030    2    1    2    0    0  0.00000000000E+00  0.00000000000E+00  0.84414785629E+03  0.12521590180E+04  0.92483328391E+03 0.  0.
        4    1    3    3  502    0 -0.25504040089E+03 -0.25560693287E+03  0.30961631634E+02  0.36240963805E+03  0.12699999809E+01 0. -1.
       -4    1    3    3    0  502  0.25504040089E+03  0.25560693287E+03  0.81318622465E+03  0.88974937993E+03  0.12699999809E+01 0.  1.
</event>
<event>
 5   0  0.7241200E-03  0.1009141E+04  0.7818609E-02  0.9298575E-01
        1   -1    0    0  501    0  0.00000000000E+00  0.00000000000E+00  0.60491236343E+03  0.60491236345E+03  0.50400001928E-02 0.  1.
       -1   -1    0    0    0  501  0.00000000000E+00  0.00000000000E+00 -0.42087332013E+03  0.42087332016E+03  0.50400001928E-02 0. -1.
    10030    2    1    2    0    0  0.00000000000E+00  0.00000000000E+00  0.18403904330E+03  0.10257856836E+04  0.10091411691E+04 0.  0.
        4    1    3    3  502    0  0.17831203338E+02  0.16476375377E+03 -0.39241714065E+03  0.42597872194E+03  0.12699999809E+01 0. -1.
       -4    1    3    3    0  502 -0.17831203338E+02 -0.16476375377E+03  0.57645618395E+03  0.59980696168E+03  0.12699999809E+01 0.  1.
</event>
<event>
 5   0  0.7073004E-03  0.9934554E+03  0.7818609E-02  0.9315752E-01
        1   -1    0    0  501    0  0.00000000000E+00  0.00000000000E+00  0.19329981557E+04  0.19329981557E+04  0.50400001928E-02 0.  1.
       -1   -1    0    0    0  501  0.00000000000E+00  0.00000000000E+00 -0.12764543672E+03  0.12764543682E+03  0.50400001928E-02 0. -1.
    10030    2    1    2    0    0  0.00000000000E+00  0.00000000000E+00  0.18053527190E+04  0.20606435925E+04  0.99345537167E+03 0.  0.
        1    1    3    3  502    0 -0.27252598497E+03 -0.33768672152E+03  0.14040869417E+04  0.14696131716E+04  0.50400001928E-02 0.  1.
       -1    1    3    3    0  502  0.27252598497E+03  0.33768672152E+03  0.40126577729E+03  0.59103042090E+03  0.50400001928E-02 0. -1.
</event>
<event>
 5   0  0.6967681E-03  0.1017184E+04  0.7818609E-02  0.9289896E-01
       -1   -1    0    0    0  501  0.00000000000E+00  0.00000000000E+00  0.33618500146E+03  0.33618500150E+03  0.50400001928E-02 0.  1.
        1   -1    0    0  501    0  0.00000000000E+00  0.00000000000E+00 -0.76941509349E+03  0.76941509350E+03  0.50400001928E-02 0. -1.
    10030    2    1    2    0    0  0.00000000000E+00  0.00000000000E+00 -0.43323009203E+03  0.11056000950E+04  0.10171839841E+04 0.  0.
        5    1    3    3  502    0  0.14928283742E+03 -0.31920964075E+03 -0.61518161043E+03  0.70897860624E+03  0.46999998093E+01 0. -1.
       -5    1    3    3    0  502 -0.14928283742E+03  0.31920964075E+03  0.18195151841E+03  0.39662148876E+03  0.46999998093E+01 0.  1.
</event>
<event>
 5   0  0.7224879E-03  0.1030993E+04  0.7818609E-02  0.9275190E-01
        1   -1    0    0  501    0  0.00000000000E+00  0.00000000000E+00  0.12570025861E+04  0.12570025861E+04  0.50400001928E-02 0.  1.
       -1   -1    0    0    0  501  0.00000000000E+00  0.00000000000E+00 -0.21140513780E+03  0.21140513786E+03  0.50400001928E-02 0. -1.
    10030    2    1    2    0    0  0.00000000000E+00  0.00000000000E+00  0.10455974483E+04  0.14684077240E+04  0.10309933171E+04 0.  0.
        3    1    3    3  502    0  0.13319118568E+03 -0.47084583343E+03  0.75378054424E+03  0.89867725568E+03  0.10100000352E+00 0.  1.
       -3    1    3    3    0  502 -0.13319118568E+03  0.47084583343E+03  0.29181690405E+03  0.56973046828E+03  0.10100000352E+00 0. -1.
</event>
<event>
 5   0  0.1216322E-02  0.1006449E+04  0.7818609E-02  0.9301500E-01
        2   -1    0    0  501    0  0.00000000000E+00  0.00000000000E+00  0.66180523038E+03  0.66180523038E+03  0.25500000920E-02 0.  1.
       -2   -1    0    0    0  501  0.00000000000E+00  0.00000000000E+00 -0.38264242400E+03  0.38264242401E+03  0.25500000920E-02 0. -1.
    10030    2    1    2    0    0  0.00000000000E+00  0.00000000000E+00  0.27916280638E+03  0.10444476544E+04  0.10064487221E+04 0.  0.
        2    1    3    3  502    0 -0.16205216989E+03  0.47574450206E+03  0.16585569429E+03  0.52924649110E+03  0.25500000920E-02 0. -1.
       -2    1    3    3    0  502  0.16205216989E+03 -0.47574450206E+03  0.11330711209E+03  0.51520116330E+03  0.25500000920E-02 0.  1.
</event>
<event>
 5   0  0.7241200E-03  0.1033449E+04  0.7818609E-02  0.9272601E-01
       -1   -1    0    0    0  501  0.00000000000E+00  0.00000000000E+00  0.22215462908E+03  0.22215462914E+03  0.50400001928E-02 0. -1.
        1   -1    0    0  501    0  0.00000000000E+00  0.00000000000E+00 -0.12018839636E+04  0.12018839636E+04  0.50400001928E-02 0.  1.
    10030    2    1    2    0    0  0.00000000000E+00  0.00000000000E+00 -0.97972933456E+03  0.14240385928E+04  0.10334487625E+04 0.  0.
        4    1    3    3  502    0  0.35391586864E+03  0.35104076511E+02  0.26661346431E+02  0.35665274225E+03  0.12699999809E+01 0. -1.
       -4    1    3    3    0  502 -0.35391586864E+03 -0.35104076511E+02 -0.10063906810E+04  0.10673858505E+04  0.12699999809E+01 0.  1.
</event>
<event>
 5   0  0.1245850E-02  0.9548080E+03  0.7818609E-02  0.9359548E-01
        2   -1    0    0  501    0  0.00000000000E+00  0.00000000000E+00  0.16966208808E+04  0.16966208808E+04  0.25500000920E-02 0.  1.
       -2   -1    0    0    0  501  0.00000000000E+00  0.00000000000E+00 -0.13433442026E+03  0.13433442029E+03  0.25500000920E-02 0. -1.
    10030    2    1    2    0    0  0.00000000000E+00  0.00000000000E+00  0.15622864605E+04  0.18309553011E+04  0.95480800678E+03 0.  0.
        3    1    3    3  502    0 -0.20173350435E+03  0.91478067983E+02  0.15921156326E+04  0.16074504165E+04  0.10100000352E+00 0.  1.
       -3    1    3    3    0  502  0.20173350435E+03 -0.91478067983E+02 -0.29829172131E+02  0.22350488453E+03  0.10100000352E+00 0. -1.
</event>
<event>
 5   0  0.4782125E-03  0.9853964E+03  0.7818609E-02  0.9324708E-01
        3   -1    0    0  501    0  0.00000000000E+00  0.00000000000E+00  0.23817212465E+03  0.23817214606E+03  0.10100000352E+00 0.  1.
       -3   -1    0    0    0  501  0.00000000000E+00  0.00000000000E+00 -0.10192270803E+04  0.10192270853E+04  0.10100000352E+00 0. -1.
    10030    2    1    2    0    0  0.00000000000E+00  0.00000000000E+00 -0.78105495565E+03  0.12573992314E+04  0.98539635848E+03 0.  0.
        1    1    3    3  502    0  0.45227967314E+03  0.86497788527E+02 -0.16690192992E+03  0.48979079656E+03  0.50400001928E-02 0.  1.
       -1    1    3    3    0  502 -0.45227967314E+03 -0.86497788527E+02 -0.61415302573E+03  0.76760843481E+03  0.50400001928E-02 0. -1.
</event>
<event>
 5   0  0.1191822E-02  0.1029443E+04  0.7818609E-02  0.9276829E-01
        2   -1    0    0  501    0  0.00000000000E+00  0.00000000000E+00  0.30706624357E+03  0.30706624358E+03  0.25500000920E-02 0. -1.
       -2   -1    0    0    0  501  0.00000000000E+00  0.00000000000E+00 -0.86280447776E+03  0.86280447777E+03  0.25500000920E-02 0.  1.
    10030    2    1    2    0    0  0.00000000000E+00  0.00000000000E+00 -0.55573823419E+03  0.11698707213E+04  0.10294428200E+04 0.  0.
        4    1    3    3  502    0  0.12023492253E+03 -0.28554200920E+03 -0.74496861027E+03  0.80682744053E+03  0.12699999809E+01 0.  1.
       -4    1    3    3    0  502 -0.12023492253E+03  0.28554200920E+03  0.18923037607E+03  0.36304328081E+03  0.12699999809E+01 0. -1.
</event>
<event>
 5   0  0.7073004E-03  0.1018978E+04  0.7818609E-02  0.9287971E-01
        1   -1    0    0  501    0  0.00000000000E+00  0.00000000000E+00  0.67519193050E+03  0.67519193051E+03  0.50400001928E-02 0.  1.
       -1   -1    0    0    0  501  0.00000000000E+00  0.00000000000E+00 -0.38445237600E+03  0.38445237603E+03  0.50400001928E-02 0. -1.
    10030    2    1    2    0    0  0.00000000000E+00  0.00000000000E+00  0.29073955450E+03  0.10596443065E+04  0.10189781979E+04 0.  0.
        1    1    3    3  502    0  0.37645044522E+03  0.31662722827E+02  0.50086295674E+03  0.62736047627E+03  0.50400001928E-02 0.  1.
       -1    1    3    3    0  502 -0.37645044522E+03 -0.31662722827E+02 -0.21012340224E+03  0.43228383028E+03  0.50400001928E-02 0. -1.
</event>
<event>
 5   0  0.1221315E-02  0.9790295E+03  0.7818609E-02  0.9331849E-01
        2   -1    0    0  501    0  0.00000000000E+00  0.00000000000E+00  0.24466779400E+03  0.24466779402E+03  0.25500000920E-02 0.  1.
       -2   -1    0    0    0  501  0.00000000000E+00  0.00000000000E+00 -0.97938789031E+03  0.97938789031E+03  0.25500000920E-02 0. -1.
    10030    2    1    2    0    0  0.00000000000E+00  0.00000000000E+00 -0.73472009631E+03  0.12240556843E+04  0.97902946760E+03 0.  0.
        5    1    3    3  502    0  0.10634644746E+03 -0.42313018709E+03 -0.64483613305E+03  0.77857848069E+03  0.46999998093E+01 0. -1.
       -5    1    3    3    0  502 -0.10634644746E+03  0.42313018709E+03 -0.89883963261E+02  0.44547720364E+03  0.46999998093E+01 0.  1.
</event>
<event>
 5   0  0.4782125E-03  0.1008734E+04  0.7818609E-02  0.9299017E-01
        3   -1    0    0  501    0  0.00000000000E+00  0.00000000000E+00  0.20271402461E+03  0.20271404977E+03  0.10100000352E+00 0.  1.
       -3   -1    0    0    0  501  0.00000000000E+00  0.00000000000E+00 -0.12549007049E+04  0.12549007090E+04  0.10100000352E+00 0. -1.
    10030    2    1    2    0    0  0.00000000000E+00  0.00000000000E+00 -0.10521866803E+04  0.14576147588E+04  0.10087338473E+04 0.  0.
        4    1    3    3  502    0  0.43968439346E+02  0.19589040468E+03  0.14248498181E+03  0.24619069285E+03  0.12699999809E+01 0.  1.
       -4    1    3    3    0  502 -0.43968439346E+02 -0.19589040468E+03 -0.11946716621E+04  0.12114240659E+04  0.12699999809E+01 0. -1.
</event>
<event>
 5   0  0.1240503E-02  0.9769520E+03  0.7818609E-02  0.9334191E-01
        2   -1    0    0  501    0  0.00000000000E+00  0.00000000000E+00  0.10638799352E+04  0.10638799352E+04  0.25500000920E-02 0. -1.
       -2   -1    0    0    0  501  0.00000000000E+00  0.00000000000E+00 -0.22428169756E+03  0.22428169758E+03  0.25500000920E-02 0.  1.
    10030    2    1    2    0    0  0.00000000000E+00  0.00000000000E+00  0.83959823764E+03  0.12881616328E+04  0.97695199038E+03 0.  0.
        1    1    3    3  502    0  0.86947970385E+01 -0.46229860778E+03  0.62750007090E+03  0.77945618302E+03  0.50400001928E-02 0. -1.
       -1    1    3    3    0  502 -0.86947970385E+01  0.46229860778E+03  0.21209816674E+03  0.50870544975E+03  0.50400001928E-02 0.  1.
</event>
<event>
 5   0  0.1245850E-02  0.9820565E+03  0.7818609E-02  0.9328447E-01
        2   -1    0    0  501    0  0.00000000000E+00  0.00000000000E+00  0.71446005879E+03  0.71446005880E+03  0.25500000920E-02 0. -1.
       -2   -1    0    0    0  501  0.00000000000E+00  0.00000000000E+00 -0.33746986346E+03  0.33746986347E+03  0.25500000920E-02 0.  1.
    10030    2    1    2    0    0  0.00000000000E+00  0.00000000000E+00  0.37699019533E+03  0.10519299223E+04  0.98205649226E+03 0.  0.
        3    1    3    3  502    0 -0.27540531316E+02  0.48561344858E+03  0.11640242978E+03  0.50012842167E+03  0.10100000352E+00 0.  1.
       -3    1    3    3    0  502  0.27540531316E+02 -0.48561344858E+03  0.26058776555E+03  0.55180150060E+03  0.10100000352E+00 0. -1.
</event>
<event>
 5   0  0.7073004E-03  0.9996601E+03  0.7818609E-02  0.9308918E-01
        1   -1    0    0  501    0  0.00000000000E+00  0.00000000000E+00  0.16011801112E+04  0.16011801113E+04  0.50400001928E-02 0.  1.
       -1   -1    0    0    0  501  0.00000000000E+00  0.00000000000E+00 -0.15602871480E+03  0.15602871488E+03  0.50400001928E-02 0. -1.
    10030    2    1    2    0    0  0.00000000000E+00  0.00000000000E+00  0.14451513964E+04  0.17572088261E+04  0.99966009224E+03 0.  0.
        1    1    3    3  502    0 -0.14575216922E+03 -0.38676312940E+03  0.22850808519E+03  0.47227678126E+03  0.50400001928E-02 0. -1.
       -1    1    3    3    0  502  0.14575216922E+03  0.38676312940E+03  0.12166433113E+04  0.12849320449E+04  0.50400001928E-02 0.  1.
</event>
<event>
 5   0  0.4782125E-03  0.9958715E+03  0.7818609E-02  0.9313084E-01
        4   -1    0    0  501    0  0.00000000000E+00  0.00000000000E+00  0.50897412957E+03  0.50897571403E+03  0.12699999809E+01 0. -1.
       -4   -1    0    0    0  501  0.00000000000E+00  0.00000000000E+00 -0.48713360207E+03  0.48713525757E+03  0.12699999809E+01 0.  1.
    10030    2    1    2    0    0  0.00000000000E+00  0.00000000000E+00  0.21840527495E+02  0.99611097160E+03  0.99587150732E+03 0.  0.
        5    1    3    3  502    0  0.15091951250E+03 -0.15679532365E+03 -0.43702271701E+03  0.48823397869E+03  0.46999998093E+01 0.  1.
       -5    1    3    3    0  502 -0.15091951250E+03  0.15679532365E+03  0.45886324450E+03  0.50787699291E+03  0.46999998093E+01 0. -1.
</event>
<event>
 5   0  0.1240503E-02  0.1005163E+04  0.7818609E-02  0.9302901E-01
        2   -1    0    0  501    0  0.00000000000E+00  0.00000000000E+00  0.99623490499E+03  0.99623490499E+03  0.25500000920E-02 0. -1.
       -2   -1    0    0    0  501  0.00000000000E+00  0.00000000000E+00 -0.25354252940E+03  0.25354252942E+03  0.25500000920E-02 0.  1.
    10030    2    1    2    0    0  0.00000000000E+00  0.00000000000E+00  0.74269237559E+03  0.12497774344E+04  0.10051625096E+04 0.  0.
        1    1    3    3  502    0  0.24275228536E+03 -0.34548810962E+03  0.32437536838E+02  0.42348896061E+03  0.50400001928E-02 0.  1.
       -1    1    3    3    0  502 -0.24275228536E+03  0.34548810962E+03  0.71025483875E+03  0.82628847380E+03  0.50400001928E-02 0. -1.
</event>
<event>
 5   0  0.1245850E-02  0.1066852E+04  0.7818609E-02  0.9238117E-01
        2   -1    0    0  501    0  0.00000000000E+00  0.00000000000E+00  0.58932614413E+03  0.58932614413E+03  0.25500000920E-02 0. -1.
       -2   -1    0    0    0  501  0.00000000000E+00  0.00000000000E+00 -0.48282783530E+03  0.48282783531E+03  0.25500000920E-02 0.  1.
    10030    2    1    2    0    0  0.00000000000E+00  0.00000000000E+00  0.10649830883E+03  0.10721539794E+04  0.10668515669E+04 0.  0.
        3    1    3    3  502    0 -0.23003289768E+03 -0.47714466398E+03  0.11649757084E+03  0.54235952890E+03  0.10100000352E+00 0. -1.
       -3    1    3    3    0  502  0.23003289768E+03  0.47714466398E+03 -0.99992620095E+01  0.52979445054E+03  0.10100000352E+00 0.  1.
</event>
<event>
 5   0  0.6967681E-03  0.9989076E+03  0.7818609E-02  0.9309744E-01
        1   -1    0    0  501    0  0.00000000000E+00  0.00000000000E+00  0.20443084917E+03  0.20443084924E+03  0.50400001928E-02 0.  1.
       -1   -1    0    0    0  501  0.00000000000E+00  0.00000000000E+00 -0.12202371648E+04  0.12202371648E+04  0.50400001928E-02 0. -1.
    10030    2    1    2    0    0  0.00000000000E+00  0.00000000000E+00 -0.10158063156E+04  0.14246680140E+04  0.99890764306E+03 0.  0.
        5    1    3    3  502    0 -0.98194470224E+02 -0.48115507839E+03 -0.63767926932E+03  0.80486601615E+03  0.46999998093E+01 0. -1.
       -5    1    3    3    0  502  0.98194470224E+02  0.48115507839E+03 -0.37812704630E+03  0.61980199789E+03  0.46999998093E+01 0.  1.
</event>
<event>
 5   0  0.1245850E-02  0.9927012E+03  0.7818609E-02  0.9316586E-01
       -2   -1    0    0    0  501  0.00000000000E+00  0.00000000000E+00  0.60921494960E+03  0.60921494960E+03  0.25500000920E-02 0.  1.
        2   -1    0    0  501    0  0.00000000000E+00  0.00000000000E+00 -0.40439569059E+03  0.40439569060E+03  0.25500000920E-02 0. -1.
    10030    2    1    2    0    0  0.00000000000E+00  0.00000000000E+00  0.20481925900E+03  0.10136106402E+04  0.99270116403E+03 0.  0.
        3    1    3    3  502    0  0.19681119315E+03 -0.32008988057E+03 -0.22872309531E+03  0.43989367115E+03  0.10100000352E+00 0. -1.
       -3    1    3    3    0  502 -0.19681119315E+03  0.32008988057E+03  0.43354235432E+03  0.57371696905E+03  0.10100000352E+00 0.  1.
</event>
<event>
 5   0  0.7461157E-03  0.7950710E+03  0.7818609E-02  0.9567179E-01
       -1   -1    0    0    0  501  0.00000000000E+00  0.00000000000E+00  0.25669264302E+03  0.25669264307E+03  0.50400001928E-02 0. -1.
        1   -1    0    0  501    0  0.00000000000E+00  0.00000000000E+00 -0.61565634778E+03  0.61565634780E+03  0.50400001928E-02 0.  1.
    10030    2    1    2    0    0  0.00000000000E+00  0.00000000000E+00 -0.35896370476E+03  0.87234899086E+03  0.79507095314E+03 0.  0.
        2    1    3    3  502    0 -0.28443562131E+03  0.26272292269E+03 -0.27827522464E+03  0.47682707288E+03  0.25500000920E-02 0. -1.
       -2    1    3    3    0  502  0.28443562131E+03 -0.26272292269E+03 -0.80688480121E+02  0.39552191799E+03  0.25500000920E-02 0.  1.
</event>
<event>
 5   0  0.7241200E-03  0.1051864E+04  0.7818609E-02  0.9253421E-01
        1   -1    0    0  501    0  0.00000000000E+00  0.00000000000E+00  0.90645031548E+03  0.90645031549E+03  0.50400001928E-02 0.  1.
       -1   -1    0    0    0  501  0.00000000000E+00  0.00000000000E+00 -0.30515145571E+03  0.30515145575E+03  0.50400001928E-02 0. -1.
    10030    2    1    2    0    0  0.00000000000E+00  0.00000000000E+00  0.60129885977E+03  0.12116017712E+04  0.10518643132E+04 0.  0.
        4    1    3    3  502    0 -0.30625019493E+03  0.36370338156E+03  0.55958438320E+03  0.73430622119E+03  0.12699999809E+01 0.  1.
       -4    1    3    3    0  502  0.30625019493E+03 -0.36370338156E+03  0.41714476563E+02  0.47729555006E+03  0.12699999809E+01 0. -1.
</event>
<event>
 5   0  0.1245850E-02  0.9944114E+03  0.7818609E-02  0.9314696E-01
       -2   -1    0    0    0  501  0.00000000000E+00  0.00000000000E+00  0.25558704460E+03  0.25558704461E+03  0.25500000920E-02 0. -1.
        2   -1    0    0  501    0  0.00000000000E+00  0.00000000000E+00 -0.96723800717E+03  0.96723800717E+03  0.25500000920E-02 0.  1.
    10030    2    1    2    0    0  0.00000000000E+00  0.00000000000E+00 -0.71165096257E+03  0.12228250518E+04  0.99441139110E+03 0.  0.
        3    1    3    3  502    0 -0.47459511852E+03 -0.14081433425E+03 -0.41276843886E+03  0.64455178037E+03  0.10100000352E+00 0. -1.
       -3    1    3    3    0  502  0.47459511852E+03  0.14081433425E+03 -0.29888252371E+03  0.57827327142E+03  0.10100000352E+00 0.  1.
</event>
<event>
 5   0  0.7224879E-03  0.1000261E+04  0.7818609E-02  0.9308259E-01
       -1   -1    0    0    0  501  0.00000000000E+00  0.00000000000E+00  0.31677755943E+03  0.31677755947E+03  0.50400001928E-02 0.  1.
        1   -1    0    0  501    0  0.00000000000E+00  0.00000000000E+00 -0.78960904792E+03  0.78960904794E+03  0.50400001928E-02 0. -1.
    10030    2    1    2    0    0  0.00000000000E+00  0.00000000000E+00 -0.47283148849E+03  0.11063866074E+04  0.10002608203E+04 0.  0.
        3    1    3    3  502    0  0.43765157015E+03 -0.58814864695E+02  0.23299135706E+02  0.44220011882E+03  0.10100000352E+00 0. -1.
       -3    1    3    3    0  502 -0.43765157015E+03  0.58814864695E+02 -0.49613062419E+03  0.66418648859E+03  0.10100000352E+00 0.  1.
</event>
<event>
 5   0  0.7073004E-03  0.9701150E+03  0.7818609E-02  0.9341943E-01
       -1   -1    0    0    0  501  0.00000000000E+00  0.00000000000E+00  0.37701887333E+03  0.37701887336E+03  0.50400001928E-02 0. -1.
        1   -1    0    0  501    0  0.00000000000E+00  0.00000000000E+00 -0.62405572432E+03  0.62405572434E+03  0.50400001928E-02 0.  1.
    10030    2    1    2    0    0  0.00000000000E+00  0.00000000000E+00 -0.24703685099E+03  0.10010745977E+04  0.97011501607E+03 0.  0.
        1    1    3    3  502    0  0.24503072215E+03 -0.22493167778E+02 -0.55487150600E+03  0.60698301920E+03  0.50400001928E-02 0.  1.
       -1    1    3    3    0  502 -0.24503072215E+03  0.22493167778E+02  0.30783465501E+03  0.39409157850E+03  0.50400001928E-02 0. -1.
</event>
<event>
 5   0  0.7241200E-03  0.9918192E+03  0.7818609E-02  0.9317563E-01
        1   -1    0    0  501    0  0.00000000000E+00  0.00000000000E+00  0.17377778829E+04  0.17377778829E+04  0.50400001928E-02 0. -1.
       -1   -1    0    0    0  501  0.00000000000E+00  0.00000000000E+00 -0.14151769076E+03  0.14151769085E+03  0.50400001928E-02 0.  1.
    10030    2    1    2    0    0  0.00000000000E+00  0.00000000000E+00  0.15962601921E+04  0.18792955737E+04  0.99181916321E+03 0.  0.
        4    1    3    3  502    0 -0.10642974789E+03 -0.45528897078E+03  0.48500464166E+03  0.67368126995E+03  0.12699999809E+01 0.  1.
       -4    1    3    3    0  502  0.10642974789E+03  0.45528897078E+03  0.11112555505E+04  0.12056143038E+04  0.12699999809E+01 0. -1.
</event>
<event>
 5   0  0.1216322E-02  0.1004702E+04  0.7818609E-02  0.9303403E-01
        2   -1    0    0  501    0  0.00000000000E+00  0.00000000000E+00  0.96645421667E+03  0.96645421668E+03  0.25500000920E-02 0. -1.
       -2   -1    0    0    0  501  0.00000000000E+00  0.00000000000E+00 -0.26111586138E+03  0.26111586140E+03  0.25500000920E-02 0.  1.
    10030    2    1    2    0    0  0.00000000000E+00  0.00000000000E+00  0.70533835529E+03  0.12275700781E+04  0.10047019962E+04 0.  0.
        2    1    3    3  502    0  0.15386805863E+03 -0.44887697140E+03  0.55414294488E+03  0.72954802329E+03  0.25500000920E-02 0.  1.
       -2    1    3    3    0  502 -0.15386805863E+03  0.44887697140E+03  0.15119541041E+03  0.49802205478E+03  0.25500000920E-02 0. -1.
</event>
<event>
 5   0  0.1216322E-02  0.1013480E+04  0.7818609E-02  0.9293883E-01
       -2   -1    0    0    0  501  0.00000000000E+00  0.00000000000E+00  0.30032890697E+03  0.30032890698E+03  0.25500000920E-02 0.  1.
        2   -1    0    0  501    0  0.00000000000E+00  0.00000000000E+00 -0.85501332935E+03  0.85501332936E+03  0.25500000920E-02 0. -1.
    10030    2    1    2    0    0  0.00000000000E+00  0.00000000000E+00 -0.55468442238E+03  0.11553422363E+04  0.10134795877E+04 0.  0.
        2    1    3    3  502    0  0.89613243018E+00 -0.15410462852E+03 -0.82765210347E+03  0.84187709552E+03  0.25500000920E-02 0. -1.
       -2    1    3    3    0  502 -0.89613243018E+00  0.15410462852E+03  0.27296768109E+03  0.31346514082E+03  0.25500000920E-02 0.  1.
</event>
<event>
 5   0  0.1216322E-02  0.9861788E+03  0.7818609E-02  0.9323835E-01
        2   -1    0    0  501    0  0.00000000000E+00  0.00000000000E+00  0.90869911310E+03  0.90869911310E+03  0.25500000920E-02 0. -1.
       -2   -1    0    0    0  501  0.00000000000E+00  0.00000000000E+00 -0.26756616663E+03  0.26756616664E+03  0.25500000920E-02 0.  1.
    10030    2    1    2    0    0  0.00000000000E+00  0.00000000000E+00  0.64113294647E+03  0.11762652797E+04  0.98617876334E+03 0.  0.
        2    1    3    3  502    0 -0.93313291622E+02 -0.54811300557E+02 -0.25322650220E+03  0.27538211722E+03  0.25500000920E-02 0.  1.
       -2    1    3    3    0  502  0.93313291622E+02  0.54811300557E+02  0.89435944867E+03  0.90088316251E+03  0.25500000920E-02 0. -1.
</event>
<event>
 5   0  0.7461157E-03  0.9938566E+03  0.7818609E-02  0.9315308E-01
       -1   -1    0    0    0  501  0.00000000000E+00  0.00000000000E+00  0.29219464825E+03  0.29219464829E+03  0.50400001928E-02 0.  1.
        1   -1    0    0  501    0  0.00000000000E+00  0.00000000000E+00 -0.84511388887E+03  0.84511388888E+03  0.50400001928E-02 0. -1.
    10030    2    1    2    0    0  0.00000000000E+00  0.00000000000E+00 -0.55291924062E+03  0.11373085372E+04  0.99385664061E+03 0.  0.
        2    1    3    3  502    0 -0.35835179121E+03 -0.18632819754E+03 -0.60773241285E+03  0.72970739965E+03  0.25500000920E-02 0. -1.
       -2    1    3    3    0  502  0.35835179121E+03  0.18632819754E+03  0.54813172234E+02  0.40760113753E+03  0.25500000920E-02 0.  1.
</event>
<event>
 5   0  0.7241200E-03  0.1011582E+04  0.7818609E-02  0.9295933E-01
        1   -1    0    0  501    0  0.00000000000E+00  0.00000000000E+00  0.27766565985E+04  0.27766565985E+04  0.50400001928E-02 0.  1.
       -1   -1    0    0    0  501  0.00000000000E+00  0.00000000000E+00 -0.92133940308E+02  0.92133940445E+02  0.50400001928E-02 0. -1.
    10030    2    1    2    0    0  0.00000000000E+00  0.00000000000E+00  0.26845226581E+04  0.28687905389E+04  0.10115815607E+04 0.  0.
        4    1    3    3  502    0 -0.38353466805E+03 -0.31958844047E+03  0.11120934800E+04  0.12190115397E+04  0.12699999809E+01 0.  1.
       -4    1    3    3    0  502  0.38353466805E+03  0.31958844047E+03  0.15724291781E+04  0.16497789992E+04  0.12699999809E+01 0. -1.
</event>
<event>
 5   0  0.7224879E-03  0.8488733E+03  0.7818609E-02  0.9491850E-01
        1   -1    0    0  501    0  0.00000000000E+00  0.00000000000E+00  0.15275857369E+04  0.15275857369E+04  0.50400001928E-02 0.  1.
       -1   -1    0    0    0  501  0.00000000000E+00  0.00000000000E+00 -0.11792888213E+03  0.11792888224E+03  0.50400001928E-02 0. -1.
    10030    2    1    2    0    0  0.00000000000E+00  0.00000000000E+00  0.14096568547E+04  0.16455146191E+04  0.84887332013E+03 0.  0.
        3    1    3    3  502    0  0.13703485074E+03 -0.22648308851E+03  0.13479601187E+04  0.13737065303E+04  0.10100000352E+00 0.  1.
       -3    1    3    3    0  502 -0.13703485074E+03  0.22648308851E+03  0.61696736067E+02  0.27180808881E+03  0.10100000352E+00 0. -1.
</event>
<event>
 5   0  0.1221315E-02  0.9534224E+03  0.7818609E-02  0.9361159E-01
       -2   -1    0    0    0  501  0.00000000000E+00  0.00000000000E+00  0.25679443438E+03  0.25679443439E+03  0.25500000920E-02 0.  1.
        2   -1    0    0  501    0  0.00000000000E+00  0.00000000000E+00 -0.88496300958E+03  0.88496300959E+03  0.25500000920E-02 0. -1.
    10030    2    1    2    0    0  0.00000000000E+00  0.00000000000E+00 -0.62816857521E+03  0.11417574440E+04  0.95342241530E+03 0.  0.
        5    1    3    3  502    0 -0.47112778520E+03 -0.52274157018E+02 -0.37440857570E+03  0.60406775202E+03  0.46999998093E+01 0. -1.
       -5    1    3    3    0  502  0.47112778520E+03  0.52274157018E+02 -0.25375999951E+03  0.53768969195E+03  0.46999998093E+01 0.  1.
</event>
<event>
 5   0  0.7241200E-03  0.1062231E+04  0.7818609E-02  0.9242806E-01
        1   -1    0    0  501    0  0.00000000000E+00  0.00000000000E+00  0.53845275708E+03  0.53845275711E+03  0.50400001928E-02 0. -1.
       -1   -1    0    0    0  501  0.00000000000E+00  0.00000000000E+00 -0.52387851029E+03  0.52387851031E+03  0.50400001928E-02 0.  1.
    10030    2    1    2    0    0  0.00000000000E+00  0.00000000000E+00  0.14574246799E+02  0.10623312674E+04  0.10622312898E+04 0.  0.
        4    1    3    3  502    0 -0.20900474521E+03 -0.38895072731E+03 -0.28789580841E+03  0.52711598457E+03  0.12699999809E+01 0.  1.
       -4    1    3    3    0  502  0.20900474521E+03  0.38895072731E+03  0.30247005520E+03  0.53521528284E+03  0.12699999809E+01 0. -1.
</event>
<event>
 5   0  0.1221315E-02  0.9830165E+03  0.7818609E-02  0.9327371E-01
       -2   -1    0    0    0  501  0.00000000000E+00  0.00000000000E+00  0.27039135054E+03  0.27039135055E+03  0.25500000920E-02 0. -1.
        2   -1    0    0  501    0  0.00000000000E+00  0.00000000000E+00 -0.89344703177E+03  0.89344703178E+03  0.25500000920E-02 0.  1.
    10030    2    1    2    0    0  0.00000000000E+00  0.00000000000E+00 -0.62305568123E+03  0.11638383823E+04  0.98301647915E+03 0.  0.
        5    1    3    3  502    0  0.26007439910E+03 -0.32007626137E+03 -0.62804412402E+03  0.75136477018E+03  0.46999998093E+01 0. -1.
       -5    1    3    3    0  502 -0.26007439910E+03  0.32007626137E+03  0.49884427913E+01  0.41247361215E+03  0.46999998093E+01 0.  1.
</event>
<event>
 5   0  0.7241200E-03  0.1010655E+04  0.7818609E-02  0.9296936E-01
        1   -1    0    0  501    0  0.00000000000E+00  0.00000000000E+00  0.10063893335E+04  0.10063893335E+04  0.50400001928E-02 0.  1.
       -1   -1    0    0    0  501  0.00000000000E+00  0.00000000000E+00 -0.25373444611E+03  0.25373444616E+03  0.50400001928E-02 0. -1.
    10030    2    1    2    0    0  0.00000000000E+00  0.00000000000E+00  0.75265488735E+03  0.12601237796E+04  0.10106545209E+04 0.  0.
        4    1    3    3  502    0  0.27014693123E+03 -0.37163449471E+02  0.90677447387E+03  0.94689072537E+03  0.12699999809E+01 0.  1.
       -4    1    3    3    0  502 -0.27014693123E+03  0.37163449471E+02 -0.15411958652E+03  0.31323305426E+03  0.12699999809E+01 0. -1.
</event>
<event>
 5   0  0.6967681E-03  0.9913535E+03  0.7818609E-02  0.9318079E-01
       -1   -1    0    0    0  501  0.00000000000E+00  0.00000000000E+00  0.62049773141E+03  0.62049773143E+03  0.50400001928E-02 0. -1.
        1   -1    0    0  501    0  0.00000000000E+00  0.00000000000E+00 -0.39596511038E+03  0.39596511042E+03  0.50400001928E-02 0.  1.
    10030    2    1    2    0    0  0.00000000000E+00  0.00000000000E+00  0.22453262103E+03  0.10164628418E+04  0.99135352471E+03 0.  0.
        5    1    3    3  502    0 -0.96597551258E+02  0.38384019576E+03 -0.19363396210E+03  0.44065926073E+03  0.46999998093E+01 0.  1.
       -5    1    3    3    0  502  0.96597551258E+02 -0.38384019576E+03  0.41816658313E+03  0.57580358112E+03  0.46999998093E+01 0. -1.
</event>
<event>
 5   0  0.7224879E-03  0.1029719E+04  0.7818609E-02  0.9276537E-01
        1   -1    0    0  501    0  0.00000000000E+00  0.00000000000E+00  0.86272276990E+03  0.86272276992E+03  0.50400001928E-02 0. -1.
       -1   -1    0    0    0  501  0.00000000000E+00  0.00000000000E+00 -0.30726015069E+03  0.30726015073E+03  0.50400001928E-02 0.  1.
    10030    2    1    2    0    0  0.00000000000E+00  0.00000000000E+00  0.55546261921E+03  0.11699829207E+04  0.10297190458E+04 0.  0.
        3    1    3    3  502    0 -0.24293126942E+03  0.36849385589E+03  0.57893990910E+03  0.72799364835E+03  0.10100000352E+00 0. -1.
       -3    1    3    3    0  502  0.24293126942E+03 -0.36849385589E+03 -0.23477289884E+02  0.44198927230E+03  0.10100000352E+00 0.  1.
</event>
<event>
 5   0  0.7073004E-03  0.9721582E+03  0.7818609E-02  0.9339620E-01
        1   -1    0    0  501    0  0.00000000000E+00  0.00000000000E+00  0.32505357051E+03  0.32505357055E+03  0.50400001928E-02 0. -1.
       -1   -1    0    0    0  501  0.00000000000E+00  0.00000000000E+00 -0.72687371628E+03  0.72687371630E+03  0.50400001928E-02 0.  1.
    10030    2    1    2    0    0  0.00000000000E+00  0.00000000000E+00 -0.40182014577E+03  0.10519272869E+04  0.97215821103E+03 0.  0.
        1    1    3    3  502    0  0.31041995052E+03 -0.22899101715E+03  0.11912081947E+03  0.40371673395E+03  0.50400001928E-02 0. -1.
       -1    1    3    3    0  502 -0.31041995052E+03  0.22899101715E+03 -0.52094096524E+03  0.64821055291E+03  0.50400001928E-02 0.  1.
</event>
<event>
 5   0  0.1191822E-02  0.1005384E+04  0.7818609E-02  0.9302660E-01
        2   -1    0    0  501    0  0.00000000000E+00  0.00000000000E+00  0.80776361283E+03  0.80776361284E+03  0.25500000920E-02 0. -1.
       -2   -1    0    0    0  501  0.00000000000E+00  0.00000000000E+00 -0.31283795623E+03  0.31283795624E+03  0.25500000920E-02 0.  1.
    10030    2    1    2    0    0  0.00000000000E+00  0.00000000000E+00  0.49492565660E+03  0.11206015691E+04  0.10053837432E+04 0.  0.
        4    1    3    3  502    0 -0.12337659657E+03  0.30354162615E+02  0.78956960036E+03  0.79972803283E+03  0.12699999809E+01 0. -1.
       -4    1    3    3    0  502  0.12337659657E+03 -0.30354162615E+02 -0.29464394377E+03  0.32087353625E+03  0.12699999809E+01 0.  1.
</event>
<event>
 5   0  0.1216322E-02  0.1027150E+04  0.7818609E-02  0.9279258E-01
       -2   -1    0    0    0  501  0.00000000000E+00  0.00000000000E+00  0.83762640250E+03  0.83762640251E+03  0.25500000920E-02 0.  1.
        2   -1    0    0  501    0  0.00000000000E+00  0.00000000000E+00 -0.31488893666E+03  0.31488893667E+03  0.25500000920E-02 0. -1.
    10030    2    1    2    0    0  0.00000000000E+00  0.00000000000E+00  0.52273746584E+03  0.11525153392E+04  0.10271500128E+04 0.  0.
        2    1    3    3  502    0 -0.45125869090E+03  0.16441392789E+03  0.46548636594E+03  0.66883772522E+03  0.25500000920E-02 0.  1.
       -2    1    3    3    0  502  0.45125869090E+03 -0.16441392789E+03  0.57251099899E+02  0.48367761396E+03  0.25500000920E-02 0. -1.
</event>
<event>
 5   0  0.7224879E-03  0.1004395E+04  0.7818609E-02  0.9303738E-01
       -1   -1    0    0    0  501  0.00000000000E+00  0.00000000000E+00  0.80405990118E+03  0.80405990120E+03  0.50400001928E-02 0.  1.
        1   -1    0    0  501    0  0.00000000000E+00  0.00000000000E+00 -0.31366105174E+03  0.31366105178E+03  0.50400001928E-02 0. -1.
    10030    2    1    2    0    0  0.00000000000E+00  0.00000000000E+00  0.49039884945E+03  0.11177209530E+04  0.10043948911E+04 0.  0.
        3    1    3    3  502    0  0.82151521158E+02  0.24299777547E+03  0.72566051984E+03  0.76966225811E+03  0.10100000352E+00 0.  1.
       -3    1    3    3    0  502 -0.82151521158E+02 -0.24299777547E+03 -0.23526167039E+03  0.34805869486E+03  0.10100000352E+00 0. -1.
</event>
<event>
 5   0  0.1245850E-02  0.1009462E+04  0.7818609E-02  0.9298227E-01
       -2   -1    0    0    0  501  0.00000000000E+00  0.00000000000E+00  0.21075771571E+03  0.21075771573E+03  0.25500000920E-02 0. -1.
        2   -1    0    0  501    0  0.00000000000E+00  0.00000000000E+00 -0.12087503307E+04  0.12087503307E+04  0.25500000920E-02 0.  1.
    10030    2    1    2    0    0  0.00000000000E+00  0.00000000000E+00 -0.99799261494E+03  0.14195080464E+04  0.10094621510E+04 0.  0.
        3    1    3    3  502    0 -0.30623349632E+03 -0.10491699501E+03  0.45563459953E+02  0.32689840806E+03  0.10100000352E+00 0. -1.
       -3    1    3    3    0  502  0.30623349632E+03  0.10491699501E+03 -0.10435560749E+04  0.10926096383E+04  0.10100000352E+00 0.  1.
</event>
<event>
 5   0  0.7073004E-03  0.1049789E+04  0.7818609E-02  0.9255562E-01
        1   -1    0    0  501    0  0.00000000000E+00  0.00000000000E+00  0.56389734193E+03  0.56389734196E+03  0.50400001928E-02 0. -1.
       -1   -1    0    0    0  501  0.00000000000E+00  0.00000000000E+00 -0.48858963188E+03  0.48858963190E+03  0.50400001928E-02 0.  1.
    10030    2    1    2    0    0  0.00000000000E+00  0.00000000000E+00  0.75307710055E+02  0.10524869739E+04  0.10497893022E+04 0.  0.
        1    1    3    3  502    0  0.43377267963E+03 -0.18910735171E+03 -0.19007311453E+03  0.50994913173E+03  0.50400001928E-02 0.  1.
       -1    1    3    3    0  502 -0.43377267963E+03  0.18910735171E+03  0.26538082458E+03  0.54253784213E+03  0.50400001928E-02 0. -1.
</event>
<event>
 5   0  0.7241200E-03  0.9886327E+03  0.7818609E-02  0.9321101E-01
        1   -1    0    0  501    0  0.00000000000E+00  0.00000000000E+00  0.47543807876E+03  0.47543807878E+03  0.50400001928E-02 0.  1.
       -1   -1    0    0    0  501  0.00000000000E+00  0.00000000000E+00 -0.51394424098E+03  0.51394424100E+03  0.50400001928E-02 0. -1.
    10030    2    1    2    0    0  0.00000000000E+00  0.00000000000E+00 -0.38506162219E+02  0.98938231979E+03  0.98863271753E+03 0.  0.
        4    1    3    3  502    0 -0.46011801495E+03 -0.61671672138E+02  0.15068458426E+03  0.48807728861E+03  0.12699999809E+01 0. -1.
       -4    1    3    3    0  502  0.46011801495E+03  0.61671672138E+02 -0.18919074648E+03  0.50130503117E+03  0.12699999809E+01 0.  1.
</event>
<event>
 5   0  0.6967681E-03  0.1004984E+04  0.7818609E-02  0.9303095E-01
        1   -1    0    0  501    0  0.00000000000E+00  0.00000000000E+00  0.29110816603E+03  0.29110816607E+03  0.50400001928E-02 0. -1.
       -1   -1    0    0    0  501  0.00000000000E+00  0.00000000000E+00 -0.86736972809E+03  0.86736972810E+03  0.50400001928E-02 0.  1.
    10030    2    1    2    0    0  0.00000000000E+00  0.00000000000E+00 -0.57626156206E+03  0.11584778942E+04  0.10049843996E+04 0.  0.
        5    1    3    3  502    0 -0.12769644234E+03  0.19806961462E+02  0.27160068762E+03  0.30081176942E+03  0.46999998093E+01 0. -1.
       -5    1    3    3    0  502  0.12769644234E+03 -0.19806961462E+02 -0.84786224968E+03  0.85766612475E+03  0.46999998093E+01 0.  1.
</event>
<event>
 5   0  0.1245850E-02  0.9998094E+03  0.7818609E-02  0.9308754E-01
        2   -1    0    0  501    0  0.00000000000E+00  0.00000000000E+00  0.78765035037E+03  0.78765035037E+03  0.25500000920E-02 0. -1.
       -2   -1    0    0    0  501  0.00000000000E+00  0.00000000000E+00 -0.31727871148E+03  0.31727871149E+03  0.25500000920E-02 0.  1.
    10030    2    1    2    0    0  0.00000000000E+00  0.00000000000E+00  0.47037163889E+03  0.11049290619E+04  0.99980935836E+03 0.  0.
        3    1    3    3  502    0  0.10784878761E+03 -0.68787236059E+02  0.76925726106E+03  0.77982035670E+03  0.10100000352E+00 0. -1.
       -3    1    3    3    0  502 -0.10784878761E+03  0.68787236059E+02 -0.29888562216E+03  0.32510870516E+03  0.10100000352E+00 0.  1.
</event>
<event>
 5   0  0.7073004E-03  0.1005453E+04  0.7818609E-02  0.9302584E-01
        1   -1    0    0  501    0  0.00000000000E+00  0.00000000000E+00  0.11187310008E+04  0.11187310008E+04  0.50400001928E-02 0. -1.
       -1   -1    0    0    0  501  0.00000000000E+00  0.00000000000E+00 -0.22591133220E+03  0.22591133226E+03  0.50400001928E-02 0.  1.
    10030    2    1    2    0    0  0.00000000000E+00  0.00000000000E+00  0.89281966861E+03  0.13446423331E+04  0.10054531532E+04 0.  0.
        1    1    3    3  502    0  0.47157438194E+03 -0.29956536098E+01  0.21345505999E+03  0.51764315344E+03  0.50400001928E-02 0.  1.
       -1    1    3    3    0  502 -0.47157438194E+03  0.29956536098E+01  0.67936460862E+03  0.82699917963E+03  0.50400001928E-02 0. -1.
</event>
<event>
 5   0  0.1240503E-02  0.6983186E+03  0.7818609E-02  0.9720112E-01
       -2   -1    0    0    0  501  0.00000000000E+00  0.00000000000E+00  0.76031195900E+03  0.76031195900E+03  0.25500000920E-02 0.  1.
        2   -1    0    0  501    0  0.00000000000E+00  0.00000000000E+00 -0.16034500021E+03  0.16034500023E+03  0.25500000920E-02 0. -1.
    10030    2    1    2    0    0  0.00000000000E+00  0.00000000000E+00  0.59996695879E+03  0.92065695923E+03  0.69831861277E+03 0.  0.
        1    1    3    3  502    0 -0.29948462531E+03  0.70973161891E+02  0.51735409187E+03  0.60198296231E+03  0.50400001928E-02 0.  1.
       -1    1    3    3    0  502  0.29948462531E+03 -0.70973161891E+02  0.82612866918E+02  0.31867399692E+03  0.50400001928E-02 0. -1.
</event>
<event>
 5   0  0.7241200E-03  0.1007314E+04  0.7818609E-02  0.9300559E-01
       -1   -1    0    0    0  501  0.00000000000E+00  0.00000000000E+00  0.15669276695E+03  0.15669276703E+03  0.50400001928E-02 0.  1.
        1   -1    0    0  501    0  0.00000000000E+00  0.00000000000E+00 -0.16189022079E+04  0.16189022079E+04  0.50400001928E-02 0. -1.
    10030    2    1    2    0    0  0.00000000000E+00  0.00000000000E+00 -0.14622094410E+04  0.17755949749E+04  0.10073137872E+04 0.  0.
        4    1    3    3  502    0  0.15249308717E+03  0.39953445038E+03 -0.12000855271E+04  0.12740050251E+04  0.12699999809E+01 0. -1.
       -4    1    3    3    0  502 -0.15249308717E+03 -0.39953445038E+03 -0.26212391383E+03  0.50158994983E+03  0.12699999809E+01 0.  1.
</event>
<event>
 5   0  0.6967681E-03  0.9940858E+03  0.7818609E-02  0.9315055E-01
        1   -1    0    0  501    0  0.00000000000E+00  0.00000000000E+00  0.50899290162E+03  0.50899290165E+03  0.50400001928E-02 0. -1.
       -1   -1    0    0    0  501  0.00000000000E+00  0.00000000000E+00 -0.48537341866E+03  0.48537341869E+03  0.50400001928E-02 0.  1.
    10030    2    1    2    0    0  0.00000000000E+00  0.00000000000E+00  0.23619482962E+02  0.99436632034E+03  0.99408576041E+03 0.  0.
        5    1    3    3  502    0  0.19439559400E+03  0.36365799573E+03  0.28936372770E+03  0.50377598367E+03  0.46999998093E+01 0. -1.
       -5    1    3    3    0  502 -0.19439559400E+03 -0.36365799573E+03 -0.26574424474E+03  0.49059033667E+03  0.46999998093E+01 0.  1.
</event>
<event>
 5   0  0.4782125E-03  0.1002614E+04  0.7818609E-02  0.9305683E-01
        3   -1    0    0  501    0  0.00000000000E+00  0.00000000000E+00  0.24108659925E+03  0.24108662041E+03  0.10100000352E+00 0. -1.
       -3   -1    0    0    0  501  0.00000000000E+00  0.00000000000E+00 -0.10423996270E+04  0.10423996319E+04  0.10100000352E+00 0.  1.
    10030    2    1    2    0    0  0.00000000000E+00  0.00000000000E+00 -0.80131302780E+03  0.12834862524E+04  0.10026137798E+04 0.  0.
        5    1    3    3  502    0 -0.30002450245E+03 -0.31026612614E+02 -0.91320707658E+03  0.96174144523E+03  0.46999998093E+01 0.  1.
       -5    1    3    3    0  502  0.30002450245E+03  0.31026612614E+02  0.11189404878E+03  0.32174480712E+03  0.46999998093E+01 0. -1.
</event>
<event>
 5   0  0.7461157E-03  0.1024899E+04  0.7818609E-02  0.9281650E-01
       -1   -1    0    0    0  501  0.00000000000E+00  0.00000000000E+00  0.18321481642E+03  0.18321481649E+03  0.50400001928E-02 0.  1.
        1   -1    0    0  501    0  0.00000000000E+00  0.00000000000E+00 -0.14333145879E+04  0.14333145879E+04  0.50400001928E-02 0. -1.
    10030    2    1    2    0    0  0.00000000000E+00  0.00000000000E+00 -0.12500997715E+04  0.16165294044E+04  0.10248989593E+04 0.  0.
        2    1    3    3  502    0  0.23423765998E+02  0.23228851929E+03 -0.13445590718E+04  0.13646778838E+04  0.25500000920E-02 0. -1.
       -2    1    3    3    0  502 -0.23423765998E+02 -0.23228851929E+03  0.94459300313E+02  0.25185152060E+03  0.25500000920E-02 0.  1.
</event>
<event>
 5   0  0.7461157E-03  0.9920547E+03  0.7818609E-02  0.9317302E-01
       -1   -1    0    0    0  501  0.00000000000E+00  0.00000000000E+00  0.15915459913E+03  0.15915459921E+03  0.50400001928E-02 0. -1.
        1   -1    0    0  501    0  0.00000000000E+00  0.00000000000E+00 -0.15459379383E+04  0.15459379383E+04  0.50400001928E-02 0.  1.
    10030    2    1    2    0    0  0.00000000000E+00  0.00000000000E+00 -0.13867833391E+04  0.17050925375E+04  0.99205470197E+03 0.  0.
        2    1    3    3  502    0 -0.47602629939E+03  0.10883254908E+03 -0.84320474894E+03  0.97439202074E+03  0.25500000920E-02 0.  1.
       -2    1    3    3    0  502  0.47602629939E+03 -0.10883254908E+03 -0.54357859019E+03  0.73070051674E+03  0.25500000920E-02 0. -1.
</event>
<event>
 5   0  0.4782125E-03  0.1002685E+04  0.7818609E-02  0.9305605E-01
       -3   -1    0    0    0  501  0.00000000000E+00  0.00000000000E+00  0.45881299984E+03  0.45881301096E+03  0.10100000352E+00 0. -1.
        3   -1    0    0  501    0  0.00000000000E+00  0.00000000000E+00 -0.54781450712E+03  0.54781451643E+03  0.10100000352E+00 0.  1.
    10030    2    1    2    0    0  0.00000000000E+00  0.00000000000E+00 -0.89001507278E+02  0.10066275274E+04  0.10026852500E+04 0.  0.
        5    1    3    3  502    0 -0.37028870194E+03 -0.17041995342E+03  0.24847819755E+03  0.47740987417E+03  0.46999998093E+01 0. -1.
       -5    1    3    3    0  502  0.37028870194E+03  0.17041995342E+03 -0.33747970483E+03  0.52921765321E+03  0.46999998093E+01 0.  1.
</event>
<event>
 5   0  0.6967681E-03  0.9890574E+03  0.7818609E-02  0.9320629E-01
        1   -1    0    0  501    0  0.00000000000E+00  0.00000000000E+00  0.12179948602E+04  0.12179948603E+04  0.50400001928E-02 0. -1.
       -1   -1    0    0    0  501  0.00000000000E+00  0.00000000000E+00 -0.20078789955E+03  0.20078789962E+03  0.50400001928E-02 0.  1.
    10030    2    1    2    0    0  0.00000000000E+00  0.00000000000E+00  0.10172069607E+04  0.14187827599E+04  0.98905738905E+03 0.  0.
        5    1    3    3  502    0 -0.19856159929E+03  0.40711354207E+03  0.22398161228E+03  0.50532959293E+03  0.46999998093E+01 0.  1.
       -5    1    3    3    0  502  0.19856159929E+03 -0.40711354207E+03  0.79322534841E+03  0.91345316694E+03  0.46999998093E+01 0. -1.
</event>
<event>
 5   0  0.1216322E-02  0.1011806E+04  0.7818609E-02  0.9295690E-01
        2   -1    0    0  501    0  0.00000000000E+00  0.00000000000E+00  0.13541713546E+04  0.13541713546E+04  0.25500000920E-02 0. -1.
       -2   -1    0    0    0  501  0.00000000000E+00  0.00000000000E+00 -0.18899950391E+03  0.18899950392E+03  0.25500000920E-02 0.  1.
    10030    2    1    2    0    0  0.00000000000E+00  0.00000000000E+00  0.11651718507E+04  0.15431708585E+04  0.10118057407E+04 0.  0.
        2    1    3    3  502    0 -0.44114185404E+02  0.14185114062E+03 -0.15498543617E+03  0.21468184106E+03  0.25500000920E-02 0.  1.
       -2    1    3    3    0  502  0.44114185404E+02 -0.14185114062E+03  0.13201572869E+04  0.13284890175E+04  0.25500000920E-02 0. -1.
</event>
<event>
 5   0  0.7241200E-03  0.1005235E+04  0.7818609E-02  0.9302822E-01
        1   -1    0    0  501    0  0.00000000000E+00  0.00000000000E+00  0.17089216241E+04  0.17089216241E+04  0.50400001928E-02 0. -1.
       -1   -1    0    0    0  501  0.00000000000E+00  0.00000000000E+00 -0.14782670187E+03  0.14782670196E+03  0.50400001928E-02 0.  1.
    10030    2    1    2    0    0  0.00000000000E+00  0.00000000000E+00  0.15610949222E+04  0.18567483260E+04  0.10052347935E+04 0.  0.
        4    1    3    3  502    0  0.44752749294E+02  0.12933623975E+03 -0.11274399146E+03  0.17732312876E+03  0.12699999809E+01 0.  1.
       -4    1    3    3    0  502 -0.44752749294E+02 -0.12933623975E+03  0.16738389137E+04  0.16794251973E+04  0.12699999809E+01 0. -1.
</event>
<event>
 5   0  0.7073004E-03  0.9877080E+03  0.7818609E-02  0.9322130E-01
        1   -1    0    0  501    0  0.00000000000E+00  0.00000000000E+00  0.75357375327E+03  0.75357375329E+03  0.50400001928E-02 0.  1.
       -1   -1    0    0    0  501  0.00000000000E+00  0.00000000000E+00 -0.32364682108E+03  0.32364682111E+03  0.50400001928E-02 0. -1.
    10030    2    1    2    0    0  0.00000000000E+00  0.00000000000E+00  0.42992693220E+03  0.10772205744E+04  0.98770795223E+03 0.  0.
        1    1    3    3  502    0 -0.76650870234E+02  0.20200148379E+03 -0.26936782858E+03  0.34530998025E+03  0.50400001928E-02 0. -1.
       -1    1    3    3    0  502  0.76650870234E+02 -0.20200148379E+03  0.69929476078E+03  0.73191059416E+03  0.50400001928E-02 0.  1.
</event>
<event>
 5   0  0.7073004E-03  0.1012393E+04  0.7818609E-02  0.9295056E-01
        1   -1    0    0  501    0  0.00000000000E+00  0.00000000000E+00  0.10010132989E+04  0.10010132989E+04  0.50400001928E-02 0. -1.
       -1   -1    0    0    0  501  0.00000000000E+00  0.00000000000E+00 -0.25597527132E+03  0.25597527137E+03  0.50400001928E-02 0.  1.
    10030    2    1    2    0    0  0.00000000000E+00  0.00000000000E+00  0.74503802756E+03  0.12569885703E+04  0.10123925144E+04 0.  0.
        1    1    3    3  502    0 -0.49691434881E+03 -0.89220979924E+02  0.32689292811E+03  0.60145094546E+03  0.50400001928E-02 0.  1.
       -1    1    3    3    0  502  0.49691434881E+03  0.89220979924E+02  0.41814509945E+03  0.65553762481E+03  0.50400001928E-02 0. -1.
</event>
<event>
 5   0  0.4782125E-03  0.9931637E+03  0.7818609E-02  0.9316075E-01
       -3   -1    0    0    0  501  0.00000000000E+00  0.00000000000E+00  0.56456103828E+03  0.56456104732E+03  0.10100000352E+00 0. -1.
        3   -1    0    0  501    0  0.00000000000E+00  0.00000000000E+00 -0.43678808798E+03  0.43678809966E+03  0.10100000352E+00 0.  1.
    10030    2    1    2    0    0  0.00000000000E+00  0.00000000000E+00  0.12777295030E+03  0.10013491470E+04  0.99316372634E+03 0.  0.
        1    1    3    3  502    0 -0.33910056458E+03 -0.14066196002E+02  0.42937445660E+03  0.54731113161E+03  0.50400001928E-02 0. -1.
       -1    1    3    3    0  502  0.33910056458E+03  0.14066196002E+02 -0.30160150631E+03  0.45403801537E+03  0.50400001928E-02 0.  1.
</event>
<event>
 5   0  0.1191822E-02  0.1027323E+04  0.7818609E-02  0.9279074E-01
       -2   -1    0    0    0  501  0.00000000000E+00  0.00000000000E+00  0.11927320329E+03  0.11927320332E+03  0.25500000920E-02 0. -1.
        2   -1    0    0  501    0  0.00000000000E+00  0.00000000000E+00 -0.22121340789E+04  0.22121340789E+04  0.25500000920E-02 0.  1.
    10030    2    1    2    0    0  0.00000000000E+00  0.00000000000E+00 -0.20928608756E+04  0.23314072823E+04  0.10273233527E+04 0.  0.
        4    1    3    3  502    0 -0.30104816620E+03  0.37509450159E+03 -0.14556833147E+04  0.15330823230E+04  0.12699999809E+01 0.  1.
       -4    1    3    3    0  502  0.30104816620E+03 -0.37509450159E+03 -0.63717756090E+03  0.79832495922E+03  0.12699999809E+01 0. -1.
</event>
<event>
 5   0  0.7073004E-03  0.9548503E+03  0.7818609E-02  0.9359499E-01
       -1   -1    0    0    0  501  0.00000000000E+00  0.00000000000E+00  0.77705182866E+03  0.77705182867E+03  0.50400001928E-02 0.  1.
        1   -1    0    0  501    0  0.00000000000E+00  0.00000000000E+00 -0.29333276999E+03  0.29333277003E+03  0.50400001928E-02 0. -1.
    10030    2    1    2    0    0  0.00000000000E+00  0.00000000000E+00  0.48371905867E+03  0.10703845987E+04  0.95485028221E+03 0.  0.
        1    1    3    3  502    0  0.10088363582E+03 -0.42689255960E+02  0.76277346436E+03  0.77059927233E+03  0.50400001928E-02 0.  1.
       -1    1    3    3    0  502 -0.10088363582E+03  0.42689255960E+02 -0.27905440569E+03  0.29978532638E+03  0.50400001928E-02 0. -1.
</event>
<event>
 5   0  0.1191822E-02  0.9702935E+03  0.7818609E-02  0.9341740E-01
        2   -1    0    0  501    0  0.00000000000E+00  0.00000000000E+00  0.23982059355E+03  0.23982059356E+03  0.25500000920E-02 0. -1.
       -2   -1    0    0    0  501  0.00000000000E+00  0.00000000000E+00 -0.98143097557E+03  0.98143097558E+03  0.25500000920E-02 0.  1.
    10030    2    1    2    0    0  0.00000000000E+00  0.00000000000E+00 -0.74161038203E+03  0.12212515691E+04  0.97029347952E+03 0.  0.
        4    1    3    3  502    0 -0.40813191021E+02  0.30422615228E+03  0.10205967236E+03  0.32347651833E+03  0.12699999809E+01 0. -1.
       -4    1    3    3    0  502  0.40813191021E+02 -0.30422615228E+03 -0.84367005438E+03  0.89777505081E+03  0.12699999809E+01 0.  1.
</event>
<event>
 5   0  0.1245850E-02  0.9827172E+03  0.7818609E-02  0.9327706E-01
        2   -1    0    0  501    0  0.00000000000E+00  0.00000000000E+00  0.49276902899E+03  0.49276902899E+03  0.25500000920E-02 0. -1.
       -2   -1    0    0    0  501  0.00000000000E+00  0.00000000000E+00 -0.48995224789E+03  0.48995224789E+03  0.25500000920E-02 0.  1.
    10030    2    1    2    0    0  0.00000000000E+00  0.00000000000E+00  0.28167811025E+01  0.98272127689E+03  0.98271724000E+03 0.  0.
        3    1    3    3  502    0  0.12074766062E+03  0.84364870052E+02  0.47017022742E+03  0.49270425389E+03  0.10100000352E+00 0. -1.
       -3    1    3    3    0  502 -0.12074766062E+03 -0.84364870052E+02 -0.46735344632E+03  0.49001702300E+03  0.10100000352E+00 0.  1.
</event>
<event>
 5   0  0.1240503E-02  0.9970936E+03  0.7818609E-02  0.9311738E-01
        2   -1    0    0  501    0  0.00000000000E+00  0.00000000000E+00  0.76310647951E+03  0.76310647952E+03  0.25500000920E-02 0. -1.
       -2   -1    0    0    0  501  0.00000000000E+00  0.00000000000E+00 -0.32570675585E+03  0.32570675586E+03  0.25500000920E-02 0.  1.
    10030    2    1    2    0    0  0.00000000000E+00  0.00000000000E+00  0.43739972366E+03  0.10888132354E+04  0.99709364820E+03 0.  0.
        1    1    3    3  502    0  0.48507006022E+02 -0.48706729494E+03  0.11532695257E+03  0.50287949396E+03  0.50400001928E-02 0.  1.
       -1    1    3    3    0  502 -0.48507006022E+02  0.48706729494E+03  0.32207277109E+03  0.58593374142E+03  0.50400001928E-02 0. -1.
</event>
<event>
 5   0  0.1191822E-02  0.1003291E+04  0.7818609E-02  0.9304943E-01
        2   -1    0    0  501    0  0.00000000000E+00  0.00000000000E+00  0.97396125392E+03  0.97396125393E+03  0.25500000920E-02 0.  1.
       -2   -1    0    0    0  501  0.00000000000E+00  0.00000000000E+00 -0.25837597363E+03  0.25837597365E+03  0.25500000920E-02 0. -1.
    10030    2    1    2    0    0  0.00000000000E+00  0.00000000000E+00  0.71558528029E+03  0.12323372276E+04  0.10032909593E+04 0.  0.
        4    1    3    3  502    0 -0.25840065859E+03  0.13394331613E+03  0.85964525430E+03  0.90758100930E+03  0.12699999809E+01 0.  1.
       -4    1    3    3    0  502  0.25840065859E+03 -0.13394331613E+03 -0.14405997401E+03  0.32475621828E+03  0.12699999809E+01 0. -1.
</event>
<event>
 5   0  0.7073004E-03  0.9899538E+03  0.7818609E-02  0.9319632E-01
        1   -1    0    0  501    0  0.00000000000E+00  0.00000000000E+00  0.93143414031E+03  0.93143414032E+03  0.50400001928E-02 0. -1.
       -1   -1    0    0    0  501  0.00000000000E+00  0.00000000000E+00 -0.26303750335E+03  0.26303750340E+03  0.50400001928E-02 0.  1.
    10030    2    1    2    0    0  0.00000000000E+00  0.00000000000E+00  0.66839663696E+03  0.11944716437E+04  0.98995375819E+03 0.  0.
        1    1    3    3  502    0  0.27939541084E+03  0.60188938123E+02  0.82181374789E+03  0.87009329391E+03  0.50400001928E-02 0. -1.
       -1    1    3    3    0  502 -0.27939541084E+03 -0.60188938123E+02 -0.15341711093E+03  0.32437834980E+03  0.50400001928E-02 0.  1.
</event>
<event>
 5   0  0.1245850E-02  0.1005181E+04  0.7818609E-02  0.9302881E-01
       -2   -1    0    0    0  501  0.00000000000E+00  0.00000000000E+00  0.17154343223E+03  0.17154343225E+03  0.25500000920E-02 0.  1.
        2   -1    0    0  501    0  0.00000000000E+00  0.00000000000E+00 -0.14724959065E+04  0.14724959065E+04  0.25500000920E-02 0. -1.
    10030    2    1    2    0    0  0.00000000000E+00  0.00000000000E+00 -0.13009524742E+04  0.16440393387E+04  0.10051805843E+04 0.  0.
        3    1    3    3  502    0  0.40894418757E+03  0.64293256234E+02 -0.18433121809E+03  0.45315226967E+03  0.10100000352E+00 0.  1.
       -3    1    3    3    0  502 -0.40894418757E+03 -0.64293256234E+02 -0.11166212561E+04  0.11908870690E+04  0.10100000352E+00 0. -1.
</event>
<event>
 5   0  0.7073004E-03  0.9133883E+03  0.7818609E-02  0.9408998E-01
       -1   -1    0    0    0  501  0.00000000000E+00  0.00000000000E+00  0.40067471019E+03  0.40067471022E+03  0.50400001928E-02 0. -1.
        1   -1    0    0  501    0  0.00000000000E+00  0.00000000000E+00 -0.52054587890E+03  0.52054587893E+03  0.50400001928E-02 0.  1.
    10030    2    1    2    0    0  0.00000000000E+00  0.00000000000E+00 -0.11987116872E+03  0.92122058915E+03  0.91338834938E+03 0.  0.
        1    1    3    3  502    0  0.20490949853E+03  0.32567878046E+02  0.35039578421E+03  0.40721711026E+03  0.50400001928E-02 0. -1.
       -1    1    3    3    0  502 -0.20490949853E+03 -0.32567878046E+02 -0.47026695293E+03  0.51400347889E+03  0.50400001928E-02 0.  1.
</event>
<event>
 5   0  0.1191822E-02  0.9901125E+03  0.7818609E-02  0.9319456E-01
       -2   -1    0    0    0  501  0.00000000000E+00  0.00000000000E+00  0.10733941012E+04  0.10733941013E+04  0.25500000920E-02 0.  1.
        2   -1    0    0  501    0  0.00000000000E+00  0.00000000000E+00 -0.22832311062E+03  0.22832311064E+03  0.25500000920E-02 0. -1.
    10030    2    1    2    0    0  0.00000000000E+00  0.00000000000E+00  0.84507099063E+03  0.13017172119E+04  0.99011247873E+03 0.  0.
        4    1    3    3  502    0  0.13796590549E+02 -0.35706961387E+03  0.87298663186E+03  0.94329016075E+03  0.12699999809E+01 0.  1.
       -4    1    3    3    0  502 -0.13796590549E+02  0.35706961387E+03 -0.27915641231E+02  0.35842705114E+03  0.12699999809E+01 0. -1.
</event>
<event>
 5   0  0.1216322E-02  0.9969885E+03  0.7818609E-02  0.9311854E-01
       -2   -1    0    0    0  501  0.00000000000E+00  0.00000000000E+00  0.21186947982E+03  0.21186947984E+03  0.25500000920E-02 0. -1.
        2   -1    0    0  501    0  0.00000000000E+00  0.00000000000E+00 -0.11728755423E+04  0.11728755423E+04  0.25500000920E-02 0.  1.
    10030    2    1    2    0    0  0.00000000000E+00  0.00000000000E+00 -0.96100606248E+03  0.13847450221E+04  0.99698852764E+03 0.  0.
        2    1    3    3  502    0 -0.87789687609E+02  0.42582571546E+02 -0.11594830615E+04  0.11635812281E+04  0.25500000920E-02 0.  1.
       -2    1    3    3    0  502  0.87789687609E+02 -0.42582571546E+02  0.19847699898E+03  0.22116379401E+03  0.25500000920E-02 0. -1.
</event>
<event>
 5   0  0.1240503E-02  0.9839673E+03  0.7818609E-02  0.9326306E-01
        2   -1    0    0  501    0  0.00000000000E+00  0.00000000000E+00  0.86531867197E+03  0.86531867197E+03  0.25500000920E-02 0.  1.
       -2   -1    0    0    0  501  0.00000000000E+00  0.00000000000E+00 -0.27972110718E+03  0.27972110719E+03  0.25500000920E-02 0. -1.
    10030    2    1    2    0    0  0.00000000000E+00  0.00000000000E+00  0.58559756479E+03  0.11450397792E+04  0.98396726976E+03 0.  0.
        1    1    3    3  502    0 -0.18559666702E+03 -0.42374906462E+03  0.48765638011E+03  0.67217418699E+03  0.50400001928E-02 0.  1.
       -1    1    3    3    0  502  0.18559666702E+03  0.42374906462E+03  0.97941184682E+02  0.47286559217E+03  0.50400001928E-02 0. -1.
</event>
<event>
 5   0  0.1245850E-02  0.9978427E+03  0.7818609E-02  0.9310914E-01
       -2   -1    0    0    0  501  0.00000000000E+00  0.00000000000E+00  0.30615754594E+03  0.30615754595E+03  0.25500000920E-02 0.  1.
        2   -1    0    0  501    0  0.00000000000E+00  0.00000000000E+00 -0.81305369739E+03  0.81305369739E+03  0.25500000920E-02 0. -1.
    10030    2    1    2    0    0  0.00000000000E+00  0.00000000000E+00 -0.50689615144E+03  0.11192112433E+04  0.99784272252E+03 0.  0.
        3    1    3    3  502    0 -0.27179673904E+03 -0.52526987752E+02  0.21211653287E+03  0.34874917277E+03  0.10100000352E+00 0.  1.
       -3    1    3    3    0  502  0.27179673904E+03  0.52526987752E+02 -0.71901268431E+03  0.77046207057E+03  0.10100000352E+00 0. -1.
</event>
<event>
 5   0  0.4782125E-03  0.9906086E+03  0.7818609E-02  0.9318905E-01
        3   -1    0    0  501    0  0.00000000000E+00  0.00000000000E+00  0.11072833336E+04  0.11072833382E+04  0.10100000352E+00 0.  1.
       -3   -1    0    0    0  501  0.00000000000E+00  0.00000000000E+00 -0.22155697854E+03  0.22155700156E+03  0.10100000352E+00 0. -1.
    10030    2    1    2    0    0  0.00000000000E+00  0.00000000000E+00  0.88572635510E+03  0.13288403398E+04  0.99060863744E+03 0.  0.
        1    1    3    3  502    0  0.48184094332E+03 -0.24935579252E+01  0.28903900769E+03  0.56189007865E+03  0.50400001928E-02 0.  1.
       -1    1    3    3    0  502 -0.48184094332E+03  0.24935579252E+01  0.59668734741E+03  0.76695026115E+03  0.50400001928E-02 0. -1.
</event>
<event>
 5   0  0.1216322E-02  0.8827136E+03  0.7818609E-02  0.9447452E-01
       -2   -1    0    0    0  501  0.00000000000E+00  0.00000000000E+00  0.13480052328E+03  0.13480052330E+03  0.25500000920E-02 0. -1.
        2   -1    0    0  501    0  0.00000000000E+00  0.00000000000E+00 -0.14450672616E+04  0.14450672616E+04  0.25500000920E-02 0.  1.
    10030    2    1    2    0    0  0.00000000000E+00  0.00000000000E+00 -0.13102667383E+04  0.15798677849E+04  0.88271359582E+03 0.  0.
        2    1    3    3  502    0  0.13142988054E+03  0.75978535746E+02 -0.13968676985E+04  0.14050928505E+04  0.25500000920E-02 0.  1.
       -2    1    3    3    0  502 -0.13142988054E+03 -0.75978535746E+02  0.86600960167E+02  0.17477493442E+03  0.25500000920E-02 0. -1.
</event>
<event>
 5   0  0.7461157E-03  0.9856845E+03  0.7818609E-02  0.9324387E-01
        1   -1    0    0  501    0  0.00000000000E+00  0.00000000000E+00  0.42601380883E+03  0.42601380886E+03  0.50400001928E-02 0. -1.
       -1   -1    0    0    0  501  0.00000000000E+00  0.00000000000E+00 -0.57015405759E+03  0.57015405761E+03  0.50400001928E-02 0.  1.
    10030    2    1    2    0    0  0.00000000000E+00  0.00000000000E+00 -0.14414024876E+03  0.99616786647E+03  0.98568453720E+03 0.  0.
        2    1    3    3  502    0 -0.30533863440E+03  0.34153743255E+03 -0.25570014076E+03  0.52465423040E+03  0.25500000920E-02 0.  1.
       -2    1    3    3    0  502  0.30533863440E+03 -0.34153743255E+03  0.11155989200E+03  0.47151363607E+03  0.25500000920E-02 0. -1.
</event>
<event>
 5   0  0.7461157E-03  0.9955319E+03  0.7818609E-02  0.9313459E-01
       -1   -1    0    0    0  501  0.00000000000E+00  0.00000000000E+00  0.25540351075E+03  0.25540351080E+03  0.50400001928E-02 0.  1.
        1   -1    0    0  501    0  0.00000000000E+00  0.00000000000E+00 -0.97011570731E+03  0.97011570733E+03  0.50400001928E-02 0. -1.
    10030    2    1    2    0    0  0.00000000000E+00  0.00000000000E+00 -0.71471219656E+03  0.12255192181E+04  0.99553193323E+03 0.  0.
        2    1    3    3  502    0  0.82842189039E+02  0.37116573945E+03 -0.75271104289E+03  0.84332718948E+03  0.25500000920E-02 0. -1.
       -2    1    3    3    0  502 -0.82842189039E+02 -0.37116573945E+03  0.37998846328E+02  0.38219202864E+03  0.25500000920E-02 0.  1.
</event>
<event>
 5   0  0.7241200E-03  0.9901065E+03  0.7818609E-02  0.9319463E-01
        1   -1    0    0  501    0  0.00000000000E+00  0.00000000000E+00  0.35123941757E+03  0.35123941761E+03  0.50400001928E-02 0.  1.
       -1   -1    0    0    0  501  0.00000000000E+00  0.00000000000E+00 -0.69775117520E+03  0.69775117522E+03  0.50400001928E-02 0. -1.
    10030    2    1    2    0    0  0.00000000000E+00  0.00000000000E+00 -0.34651175762E+03  0.10489905928E+04  0.99010649208E+03 0.  0.
        4    1    3    3  502    0 -0.13884842409E+03 -0.10699932054E+03 -0.66376803179E+03  0.68652556573E+03  0.12699999809E+01 0. -1.
       -4    1    3    3    0  502  0.13884842409E+03  0.10699932054E+03  0.31725627417E+03  0.36246502710E+03  0.12699999809E+01 0.  1.
</event>
<event>
 5   0  0.6967681E-03  0.9771369E+03  0.7818609E-02  0.9333982E-01
        1   -1    0    0  501    0  0.00000000000E+00  0.00000000000E+00  0.61784436019E+03  0.61784436021E+03  0.50400001928E-02 0. -1.
       -1   -1    0    0    0  501  0.00000000000E+00  0.00000000000E+00 -0.38634187311E+03  0.38634187314E+03  0.50400001928E-02 0.  1.
    10030    2    1    2    0    0  0.00000000000E+00  0.00000000000E+00  0.23150248708E+03  0.10041862333E+04  0.97713693499E+03 0.  0.
        5    1    3    3  502    0 -0.82493904049E+02  0.44070354458E+03 -0.83662004092E+02  0.45612090430E+03  0.46999998093E+01 0.  1.
       -5    1    3    3    0  502  0.82493904049E+02 -0.44070354458E+03  0.31516449117E+03  0.54806532905E+03  0.46999998093E+01 0. -1.
</event>
<event>
 5   0  0.6967681E-03  0.9954160E+03  0.7818609E-02  0.9313587E-01
       -1   -1    0    0    0  501  0.00000000000E+00  0.00000000000E+00  0.19646494547E+03  0.19646494553E+03  0.50400001928E-02 0. -1.
        1   -1    0    0  501    0  0.00000000000E+00  0.00000000000E+00 -0.12608522473E+04  0.12608522473E+04  0.50400001928E-02 0.  1.
    10030    2    1    2    0    0  0.00000000000E+00  0.00000000000E+00 -0.10643873019E+04  0.14573171929E+04  0.99541602974E+03 0.  0.
        5    1    3    3  502    0 -0.30185071578E+03  0.92177069744E+02 -0.10955701210E+04  0.11401343986E+04  0.46999998093E+01 0.  1.
       -5    1    3    3    0  502  0.30185071578E+03 -0.92177069744E+02  0.31182819109E+02  0.31718279432E+03  0.46999998093E+01 0. -1.
</event>
<event>
 5   0  0.1245850E-02  0.1007104E+04  0.7818609E-02  0.9300788E-01
       -2   -1    0    0    0  501  0.00000000000E+00  0.00000000000E+00  0.44474679703E+03  0.44474679704E+03  0.25500000920E-02 0. -1.
        2   -1    0    0  501    0  0.00000000000E+00  0.00000000000E+00 -0.57013204283E+03  0.57013204283E+03  0.25500000920E-02 0.  1.
    10030    2    1    2    0    0  0.00000000000E+00  0.00000000000E+00 -0.12538524580E+03  0.10148788399E+04  0.10071035695E+04 0.  0.
        3    1    3    3  502    0  0.16861720858E+02  0.23841018673E+03 -0.50933070410E+03  0.56262021925E+03  0.10100000352E+00 0.  1.
       -3    1    3    3    0  502 -0.16861720858E+02 -0.23841018673E+03  0.38394545831E+03  0.45225862062E+03  0.10100000352E+00 0. -1.
</event>
<event>
 5   0  0.1245850E-02  0.1002388E+04  0.7818609E-02  0.9305930E-01
        2   -1    0    0  501    0  0.00000000000E+00  0.00000000000E+00  0.81178326465E+03  0.81178326465E+03  0.25500000920E-02 0. -1.
       -2   -1    0    0    0  501  0.00000000000E+00  0.00000000000E+00 -0.30943630567E+03  0.30943630568E+03  0.25500000920E-02 0.  1.
    10030    2    1    2    0    0  0.00000000000E+00  0.00000000000E+00  0.50234695898E+03  0.11212195703E+04  0.10023875786E+04 0.  0.
        3    1    3    3  502    0  0.20276561632E+03 -0.31911111024E+03  0.61919037632E+03  0.72549467825E+03  0.10100000352E+00 0. -1.
       -3    1    3    3    0  502 -0.20276561632E+03  0.31911111024E+03 -0.11684341734E+03  0.39572489208E+03  0.10100000352E+00 0.  1.
</event>
<event>
 5   0  0.6967681E-03  0.1031559E+04  0.7818609E-02  0.9274593E-01
       -1   -1    0    0    0  501  0.00000000000E+00  0.00000000000E+00  0.28003767577E+03  0.28003767582E+03  0.50400001928E-02 0. -1.
        1   -1    0    0  501    0  0.00000000000E+00  0.00000000000E+00 -0.94997397382E+03  0.94997397383E+03  0.50400001928E-02 0.  1.
    10030    2    1    2    0    0  0.00000000000E+00  0.00000000000E+00 -0.66993629804E+03  0.12300116496E+04  0.10315590215E+04 0.  0.
        5    1    3    3  502    0 -0.17207470311E+03 -0.10688087808E+03 -0.90053054364E+03  0.92304418940E+03  0.46999998093E+01 0.  1.
       -5    1    3    3    0  502  0.17207470311E+03  0.10688087808E+03  0.23059424560E+03  0.30696746025E+03  0.46999998093E+01 0. -1.
</event>
<event>
 5   0  0.1240503E-02  0.1012008E+04  0.7818609E-02  0.9295472E-01
        2   -1    0    0  501    0  0.00000000000E+00  0.00000000000E+00  0.61542277099E+03  0.61542277100E+03  0.25500000920E-02 0.  1.
       -2   -1    0    0    0  501  0.00000000000E+00  0.00000000000E+00 -0.41603910986E+03  0.41603910987E+03  0.25500000920E-02 0. -1.
    10030    2    1    2    0    0  0.00000000000E+00  0.00000000000E+00  0.19938366113E+03  0.10314618809E+04  0.10120077902E+04 0.  0.
        1    1    3    3  502    0 -0.45456652543E+03  0.21599461013E+03  0.46189461198E+02  0.50538882457E+03  0.50400001928E-02 0. -1.
       -1    1    3    3    0  502  0.45456652543E+03 -0.21599461013E+03  0.15319419994E+03  0.52607305630E+03  0.50400001928E-02 0.  1.
</event>
<event>
 5   0  0.7461157E-03  0.9837050E+03  0.7818609E-02  0.9326600E-01
        1   -1    0    0  501    0  0.00000000000E+00  0.00000000000E+00  0.13202940858E+04  0.13202940858E+04  0.50400001928E-02 0. -1.
       -1   -1    0    0    0  501  0.00000000000E+00  0.00000000000E+00 -0.18323106453E+03  0.18323106460E+03  0.50400001928E-02 0.  1.
    10030    2    1    2    0    0  0.00000000000E+00  0.00000000000E+00  0.11370630213E+04  0.15035251504E+04  0.98370501858E+03 0.  0.
        2    1    3    3  502    0 -0.16462355218E+03 -0.32579086131E+03  0.64663007244E+02  0.37070460445E+03  0.25500000920E-02 0.  1.
       -2    1    3    3    0  502  0.16462355218E+03  0.32579086131E+03  0.10724000140E+04  0.11328205460E+04  0.25500000920E-02 0. -1.
</event>
<event>
 5   0  0.1245850E-02  0.1015069E+04  0.7818609E-02  0.9292170E-01
        2   -1    0    0  501    0  0.00000000000E+00  0.00000000000E+00  0.51148437256E+03  0.51148437256E+03  0.25500000920E-02 0. -1.
       -2   -1    0    0    0  501  0.00000000000E+00  0.00000000000E+00 -0.50361478951E+03  0.50361478952E+03  0.25500000920E-02 0.  1.
    10030    2    1    2    0    0  0.00000000000E+00  0.00000000000E+00  0.78695830414E+01  0.10150991621E+04  0.10150686571E+04 0.  0.
        3    1    3    3  502    0 -0.41435734722E+03 -0.29304181206E+03 -0.11220015364E+01  0.50751037812E+03  0.10100000352E+00 0. -1.
       -3    1    3    3    0  502  0.41435734722E+03  0.29304181206E+03  0.89915845779E+01  0.50758878396E+03  0.10100000352E+00 0.  1.
</event>
<event>
 5   0  0.1191822E-02  0.9856986E+03  0.7818609E-02  0.9324371E-01
        2   -1    0    0  501    0  0.00000000000E+00  0.00000000000E+00  0.41909937881E+03  0.41909937882E+03  0.25500000920E-02 0. -1.
       -2   -1    0    0    0  501  0.00000000000E+00  0.00000000000E+00 -0.57957722149E+03  0.57957722150E+03  0.25500000920E-02 0.  1.
    10030    2    1    2    0    0  0.00000000000E+00  0.00000000000E+00 -0.16047784268E+03  0.99867660032E+03  0.98569864261E+03 0.  0.
        4    1    3    3  502    0  0.68176516319E+01  0.48775022294E+03 -0.89413801467E+01  0.48788146259E+03  0.12699999809E+01 0.  1.
       -4    1    3    3    0  502 -0.68176516319E+01 -0.48775022294E+03 -0.15153646254E+03  0.51079513773E+03  0.12699999809E+01 0. -1.
</event>
<event>
 5   0  0.1221315E-02  0.9922171E+03  0.7818609E-02  0.9317122E-01
       -2   -1    0    0    0  501  0.00000000000E+00  0.00000000000E+00  0.90306674304E+03  0.90306674304E+03  0.25500000920E-02 0.  1.
        2   -1    0    0  501    0  0.00000000000E+00  0.00000000000E+00 -0.27254208163E+03  0.27254208164E+03  0.25500000920E-02 0. -1.
    10030    2    1    2    0    0  0.00000000000E+00  0.00000000000E+00  0.63052466141E+03  0.11756088247E+04  0.99221709319E+03 0.  0.
        5    1    3    3  502    0  0.36027638101E+03 -0.17612860971E+03  0.66126774255E+03  0.77338055005E+03  0.46999998093E+01 0.  1.
       -5    1    3    3    0  502 -0.36027638101E+03  0.17612860971E+03 -0.30743081133E+02  0.40222827462E+03  0.46999998093E+01 0. -1.
</event>
<event>
 5   0  0.7073004E-03  0.1010449E+04  0.7818609E-02  0.9297158E-01
        1   -1    0    0  501    0  0.00000000000E+00  0.00000000000E+00  0.10803996571E+04  0.10803996571E+04  0.50400001928E-02 0. -1.
       -1   -1    0    0    0  501  0.00000000000E+00  0.00000000000E+00 -0.23625680767E+03  0.23625680773E+03  0.50400001928E-02 0.  1.
    10030    2    1    2    0    0  0.00000000000E+00  0.00000000000E+00  0.84414284938E+03  0.13166564648E+04  0.10104489577E+04 0.  0.
        1    1    3    3  502    0  0.13004210880E+03 -0.25835559685E+03 -0.11769783110E+03  0.31226806426E+03  0.50400001928E-02 0.  1.
       -1    1    3    3    0  502 -0.13004210880E+03  0.25835559685E+03  0.96184068048E+03  0.10043884005E+04  0.50400001928E-02 0. -1.
</event>
<event>
 5   0  0.7224879E-03  0.1005247E+04  0.7818609E-02  0.9302808E-01
       -1   -1    0    0    0  501  0.00000000000E+00  0.00000000000E+00  0.32462865966E+03  0.32462865970E+03  0.50400001928E-02 0. -1.
        1   -1    0    0  501    0  0.00000000000E+00  0.00000000000E+00 -0.77821405933E+03  0.77821405935E+03  0.50400001928E-02 0.  1.
    10030    2    1    2    0    0  0.00000000000E+00  0.00000000000E+00 -0.45358539967E+03  0.11028427191E+04  0.10052474065E+04 0.  0.
        3    1    3    3  502    0 -0.13348714441E+03 -0.35850202385E+03 -0.58446298018E+03  0.69852666680E+03  0.10100000352E+00 0.  1.
       -3    1    3    3    0  502  0.13348714441E+03  0.35850202385E+03  0.13087758051E+03  0.40431605225E+03  0.10100000352E+00 0. -1.
</event>
<event>
 5   0  0.7241200E-03  0.9380442E+03  0.7818609E-02  0.9379235E-01
        1   -1    0    0  501    0  0.00000000000E+00  0.00000000000E+00  0.10061038292E+04  0.10061038292E+04  0.50400001928E-02 0. -1.
       -1   -1    0    0    0  501  0.00000000000E+00  0.00000000000E+00 -0.21864712608E+03  0.21864712614E+03  0.50400001928E-02 0.  1.
    10030    2    1    2    0    0  0.00000000000E+00  0.00000000000E+00  0.78745670311E+03  0.12247509553E+04  0.93804415852E+03 0.  0.
        4    1    3    3  502    0 -0.17378441526E+03 -0.53651552814E+02  0.95818401504E+03  0.97529366433E+03  0.12699999809E+01 0. -1.
       -4    1    3    3    0  502  0.17378441526E+03  0.53651552814E+02 -0.17072731192E+03  0.24945729102E+03  0.12699999809E+01 0.  1.
</event>
<event>
 5   0  0.6967681E-03  0.9977061E+03  0.7818609E-02  0.9311064E-01
       -1   -1    0    0    0  501  0.00000000000E+00  0.00000000000E+00  0.26162408352E+03  0.26162408357E+03  0.50400001928E-02 0. -1.
        1   -1    0    0  501    0  0.00000000000E+00  0.00000000000E+00 -0.95119067231E+03  0.95119067232E+03  0.50400001928E-02 0.  1.
    10030    2    1    2    0    0  0.00000000000E+00  0.00000000000E+00 -0.68956658878E+03  0.12128147559E+04  0.99770614499E+03 0.  0.
        5    1    3    3  502    0  0.26262904808E+03  0.15608581482E+03  0.13456450392E+03  0.33386598239E+03  0.46999998093E+01 0. -1.
       -5    1    3    3    0  502 -0.26262904808E+03 -0.15608581482E+03 -0.82413109270E+03  0.87894877350E+03  0.46999998093E+01 0.  1.
</event>
<event>
 5   0  0.1245850E-02  0.9871232E+03  0.7818609E-02  0.9322782E-01
       -2   -1    0    0    0  501  0.00000000000E+00  0.00000000000E+00  0.17179269954E+03  0.17179269956E+03  0.25500000920E-02 0. -1.
        2   -1    0    0  501    0  0.00000000000E+00  0.00000000000E+00 -0.14180057187E+04  0.14180057187E+04  0.25500000920E-02 0.  1.
    10030    2    1    2    0    0  0.00000000000E+00  0.00000000000E+00 -0.12462130192E+04  0.15897984183E+04  0.98712315422E+03 0.  0.
        3    1    3    3  502    0 -0.20406097430E+03 -0.30744133828E+03 -0.11510138342E+04  0.12087158121E+04  0.10100000352E+00 0.  1.
       -3    1    3    3    0  502  0.20406097430E+03  0.30744133828E+03 -0.95199184994E+02  0.38108260619E+03  0.10100000352E+00 0. -1.
</event>
<event>
 5   0  0.7461157E-03  0.9919645E+03  0.7818609E-02  0.9317402E-01
       -1   -1    0    0    0  501  0.00000000000E+00  0.00000000000E+00  0.37536738393E+03  0.37536738397E+03  0.50400001928E-02 0. -1.
        1   -1    0    0  501    0  0.00000000000E+00  0.00000000000E+00 -0.65535366497E+03  0.65535366499E+03  0.50400001928E-02 0.  1.
    10030    2    1    2    0    0  0.00000000000E+00  0.00000000000E+00 -0.27998628104E+03  0.10307210490E+04  0.99196449694E+03 0.  0.
        2    1    3    3  502    0 -0.29989393298E+03  0.18614895343E+03 -0.50204709520E+03  0.61370928762E+03  0.25500000920E-02 0.  1.
       -2    1    3    3    0  502  0.29989393298E+03 -0.18614895343E+03  0.22206081416E+03  0.41701176134E+03  0.25500000920E-02 0. -1.
</event>
<event>
 5   0  0.7241200E-03  0.1004256E+04  0.7818609E-02  0.9303889E-01
       -1   -1    0    0    0  501  0.00000000000E+00  0.00000000000E+00  0.17404627455E+03  0.17404627462E+03  0.50400001928E-02 0.  1.
        1   -1    0    0  501    0  0.00000000000E+00  0.00000000000E+00 -0.14486531043E+04  0.14486531043E+04  0.50400001928E-02 0. -1.
    10030    2    1    2    0    0  0.00000000000E+00  0.00000000000E+00 -0.12746068297E+04  0.16226993789E+04  0.10042562939E+04 0.  0.
        4    1    3    3  502    0 -0.80852268393E-02 -0.27391758379E+03  0.42687418773E+02  0.27722675086E+03  0.12699999809E+01 0.  1.
       -4    1    3    3    0  502  0.80852268393E-02  0.27391758379E+03 -0.13172942485E+04  0.13454726281E+04  0.12699999809E+01 0. -1.
</event>
<event>
 5   0  0.7224879E-03  0.8589700E+03  0.7818609E-02  0.9478376E-01
        1   -1    0    0  501    0  0.00000000000E+00  0.00000000000E+00  0.89144056050E+03  0.89144056052E+03  0.50400001928E-02 0. -1.
       -1   -1    0    0    0  501  0.00000000000E+00  0.00000000000E+00 -0.20692053234E+03  0.20692053241E+03  0.50400001928E-02 0.  1.
    10030    2    1    2    0    0  0.00000000000E+00  0.00000000000E+00  0.68452002816E+03  0.10983610929E+04  0.85896997706E+03 0.  0.
        3    1    3    3  502    0  0.41317943222E+03 -0.56862699607E+02  0.21119069213E+03  0.46749559191E+03  0.10100000352E+00 0. -1.
       -3    1    3    3    0  502 -0.41317943222E+03  0.56862699607E+02  0.47332933603E+03  0.63086550101E+03  0.10100000352E+00 0.  1.
</event>
<event>
 5   0  0.7241200E-03  0.1009315E+04  0.7818609E-02  0.9298387E-01
        1   -1    0    0  501    0  0.00000000000E+00  0.00000000000E+00  0.96019353283E+03  0.96019353284E+03  0.50400001928E-02 0. -1.
       -1   -1    0    0    0  501  0.00000000000E+00  0.00000000000E+00 -0.26523735717E+03  0.26523735722E+03  0.50400001928E-02 0.  1.
    10030    2    1    2    0    0  0.00000000000E+00  0.00000000000E+00  0.69495617566E+03  0.12254308901E+04  0.10093150054E+04 0.  0.
        4    1    3    3  502    0 -0.35482314378E+03  0.35712224761E+03  0.39026305999E+03  0.63697930264E+03  0.12699999809E+01 0.  1.
       -4    1    3    3    0  502  0.35482314378E+03 -0.35712224761E+03  0.30469311568E+03  0.58845158742E+03  0.12699999809E+01 0. -1.
</event>
<event>
 5   0  0.1216322E-02  0.9933253E+03  0.7818609E-02  0.9315896E-01
        2   -1    0    0  501    0  0.00000000000E+00  0.00000000000E+00  0.11160283982E+04  0.11160283982E+04  0.25500000920E-02 0.  1.
       -2   -1    0    0    0  501  0.00000000000E+00  0.00000000000E+00 -0.22102825238E+03  0.22102825239E+03  0.25500000920E-02 0. -1.
    10030    2    1    2    0    0  0.00000000000E+00  0.00000000000E+00  0.89500014578E+03  0.13370566505E+04  0.99332533736E+03 0.  0.
        2    1    3    3  502    0 -0.70738546204E+02 -0.38602781030E+03  0.85721955798E+03  0.94278671121E+03  0.25500000920E-02 0.  1.
       -2    1    3    3    0  502  0.70738546204E+02  0.38602781030E+03  0.37780587800E+02  0.39426993934E+03  0.25500000920E-02 0. -1.
</event>
<event>
 5   0  0.1221315E-02  0.1003825E+04  0.7818609E-02  0.9304359E-01
       -2   -1    0    0    0  501  0.00000000000E+00  0.00000000000E+00  0.96147976868E+02  0.96147976902E+02  0.25500000920E-02 0.  1.
        2   -1    0    0  501    0  0.00000000000E+00  0.00000000000E+00 -0.26200885107E+04  0.26200885107E+04  0.25500000920E-02 0. -1.
    10030    2    1    2    0    0  0.00000000000E+00  0.00000000000E+00 -0.25239405338E+04  0.27162364876E+04  0.10038251034E+04 0.  0.
        5    1    3    3  502    0 -0.24712620519E+03 -0.36778294412E+03 -0.62417007875E+03  0.76547111799E+03  0.46999998093E+01 0.  1.
       -5    1    3    3    0  502  0.24712620519E+03  0.36778294412E+03 -0.18997704551E+04  0.19507653696E+04  0.46999998093E+01 0. -1.
</event>
<event>
 5   0  0.1245850E-02  0.1005600E+04  0.7818609E-02  0.9302424E-01
        2   -1    0    0  501    0  0.00000000000E+00  0.00000000000E+00  0.19693204451E+04  0.19693204451E+04  0.25500000920E-02 0. -1.
       -2   -1    0    0    0  501  0.00000000000E+00  0.00000000000E+00 -0.12837305372E+03  0.12837305375E+03  0.25500000920E-02 0.  1.
    10030    2    1    2    0    0  0.00000000000E+00  0.00000000000E+00  0.18409473914E+04  0.20976934988E+04  0.10055996804E+04 0.  0.
        3    1    3    3  502    0  0.39919239002E+03  0.26194612116E+03  0.59172094255E+03  0.76033151894E+03  0.10100000352E+00 0. -1.
       -3    1    3    3    0  502 -0.39919239002E+03 -0.26194612116E+03  0.12492264488E+04  0.13373619799E+04  0.10100000352E+00 0.  1.
</event>
<event>
 5   0  0.1221315E-02  0.1003022E+04  0.7818609E-02  0.9305237E-01
       -2   -1    0    0    0  501  0.00000000000E+00  0.00000000000E+00  0.49681156048E+03  0.49681156048E+03  0.25500000920E-02 0.  1.
        2   -1    0    0  501    0  0.00000000000E+00  0.00000000000E+00 -0.50625473746E+03  0.50625473747E+03  0.25500000920E-02 0. -1.
    10030    2    1    2    0    0  0.00000000000E+00  0.00000000000E+00 -0.94431769850E+01  0.10030662980E+04  0.10030218465E+04 0.  0.
        5    1    3    3  502    0 -0.33001253747E+03  0.32882663565E+03  0.18090960230E+03  0.49978555942E+03  0.46999998093E+01 0.  1.
       -5    1    3    3    0  502  0.33001253747E+03 -0.32882663565E+03 -0.19035277928E+03  0.50328073853E+03  0.46999998093E+01 0. -1.
</event>
<event>
 5   0  0.7241200E-03  0.1014232E+04  0.7818609E-02  0.9293072E-01
       -1   -1    0    0    0  501  0.00000000000E+00  0.00000000000E+00  0.51539799903E+03  0.51539799906E+03  0.50400001928E-02 0. -1.
        1   -1    0    0  501    0  0.00000000000E+00  0.00000000000E+00 -0.49896716132E+03  0.49896716135E+03  0.50400001928E-02 0.  1.
    10030    2    1    2    0    0  0.00000000000E+00  0.00000000000E+00  0.16430837708E+02  0.10143651604E+04  0.10142320771E+04 0.  0.
        4    1    3    3  502    0  0.26842831243E+03 -0.29745392734E+03 -0.30268300014E+03  0.50214660138E+03  0.12699999809E+01 0.  1.
       -4    1    3    3    0  502 -0.26842831243E+03  0.29745392734E+03  0.31911383785E+03  0.51221855903E+03  0.12699999809E+01 0. -1.
</event>
<event>
 5   0  0.7224879E-03  0.1009370E+04  0.7818609E-02  0.9298327E-01
       -1   -1    0    0    0  501  0.00000000000E+00  0.00000000000E+00  0.44221197055E+03  0.44221197058E+03  0.50400001928E-02 0. -1.
        1   -1    0    0  501    0  0.00000000000E+00  0.00000000000E+00 -0.57598367879E+03  0.57598367881E+03  0.50400001928E-02 0.  1.
    10030    2    1    2    0    0  0.00000000000E+00  0.00000000000E+00 -0.13377170824E+03  0.10181956494E+04  0.10093698581E+04 0.  0.
        3    1    3    3  502    0 -0.14939063102E+03  0.43791514586E+03  0.13641953772E+03  0.48238732993E+03  0.10100000352E+00 0. -1.
       -3    1    3    3    0  502  0.14939063102E+03 -0.43791514586E+03 -0.27019124595E+03  0.53580831946E+03  0.10100000352E+00 0.  1.
</event>
<event>
 5   0  0.7224879E-03  0.9926512E+03  0.7818609E-02  0.9316642E-01
       -1   -1    0    0    0  501  0.00000000000E+00  0.00000000000E+00  0.45403655313E+03  0.45403655316E+03  0.50400001928E-02 0.  1.
        1   -1    0    0  501    0  0.00000000000E+00  0.00000000000E+00 -0.54255346677E+03  0.54255346679E+03  0.50400001928E-02 0. -1.
    10030    2    1    2    0    0  0.00000000000E+00  0.00000000000E+00 -0.88516913634E+02  0.99659001995E+03  0.99265120957E+03 0.  0.
        3    1    3    3  502    0  0.15779617520E+03  0.35548380489E+02 -0.51534925904E+03  0.54013719484E+03  0.10100000352E+00 0. -1.
       -3    1    3    3    0  502 -0.15779617520E+03 -0.35548380489E+02  0.42683234540E+03  0.45645282511E+03  0.10100000352E+00 0.  1.
</event>
<event>
 5   0  0.6967681E-03  0.1011038E+04  0.7818609E-02  0.9296520E-01
        1   -1    0    0  501    0  0.00000000000E+00  0.00000000000E+00  0.60639447658E+03  0.60639447660E+03  0.50400001928E-02 0.  1.
       -1   -1    0    0    0  501  0.00000000000E+00  0.00000000000E+00 -0.42142472817E+03  0.42142472820E+03  0.50400001928E-02 0. -1.
    10030    2    1    2    0    0  0.00000000000E+00  0.00000000000E+00  0.18496974841E+03  0.10278192048E+04  0.10110383326E+04 0.  0.
        5    1    3    3  502    0 -0.84878840271E+02  0.29061684786E+03  0.50400602824E+03  0.58796831231E+03  0.46999998093E+01 0.  1.
       -5    1    3    3    0  502  0.84878840271E+02 -0.29061684786E+03 -0.31903627983E+03  0.43985089250E+03  0.46999998093E+01 0. -1.
</event>
<event>
 5   0  0.1216322E-02  0.9945593E+03  0.7818609E-02  0.9314532E-01
        2   -1    0    0  501    0  0.00000000000E+00  0.00000000000E+00  0.21544467262E+04  0.21544467262E+04  0.25500000920E-02 0.  1.
       -2   -1    0    0    0  501  0.00000000000E+00  0.00000000000E+00 -0.11477983795E+03  0.11477983798E+03  0.25500000920E-02 0. -1.
    10030    2    1    2    0    0  0.00000000000E+00  0.00000000000E+00  0.20396668882E+04  0.22692265642E+04  0.99455929161E+03 0.  0.
        2    1    3    3  502    0  0.27985256721E+03  0.40958714534E+03  0.10991333989E+04  0.12058910886E+04  0.25500000920E-02 0. -1.
       -2    1    3    3    0  502 -0.27985256721E+03 -0.40958714534E+03  0.94053348932E+03  0.10633354755E+04  0.25500000920E-02 0.  1.
</event>
<event>
 5   0  0.1245850E-02  0.9598014E+03  0.7818609E-02  0.9353767E-01
       -2   -1    0    0    0  501  0.00000000000E+00  0.00000000000E+00  0.10440615800E+04  0.10440615800E+04  0.25500000920E-02 0. -1.
        2   -1    0    0  501    0  0.00000000000E+00  0.00000000000E+00 -0.22058533108E+03  0.22058533110E+03  0.25500000920E-02 0.  1.
    10030    2    1    2    0    0  0.00000000000E+00  0.00000000000E+00  0.82347624894E+03  0.12646469111E+04  0.95980137385E+03 0.  0.
        3    1    3    3  502    0  0.41365248200E+03 -0.23606851268E+03  0.33414491011E+03  0.58179854735E+03  0.10100000352E+00 0.  1.
       -3    1    3    3    0  502 -0.41365248200E+03  0.23606851268E+03  0.48933133883E+03  0.68284836377E+03  0.10100000352E+00 0. -1.
</event>
<event>
 5   0  0.1245850E-02  0.9495766E+03  0.7818609E-02  0.9365646E-01
       -2   -1    0    0    0  501  0.00000000000E+00  0.00000000000E+00  0.30789985283E+03  0.30789985285E+03  0.25500000920E-02 0. -1.
        2   -1    0    0  501    0  0.00000000000E+00  0.00000000000E+00 -0.73213388125E+03  0.73213388125E+03  0.25500000920E-02 0.  1.
    10030    2    1    2    0    0  0.00000000000E+00  0.00000000000E+00 -0.42423402841E+03  0.10400337341E+04  0.94957656732E+03 0.  0.
        3    1    3    3  502    0  0.31997422222E+03  0.32295854358E+03 -0.36204446073E+03  0.58117288778E+03  0.10100000352E+00 0.  1.
       -3    1    3    3    0  502 -0.31997422222E+03 -0.32295854358E+03 -0.62189567689E+02  0.45886084632E+03  0.10100000352E+00 0. -1.
</event>
<event>
 5   0  0.7461157E-03  0.1006215E+04  0.7818609E-02  0.9301754E-01
       -1   -1    0    0    0  501  0.00000000000E+00  0.00000000000E+00  0.20493128369E+03  0.20493128375E+03  0.50400001928E-02 0. -1.
        1   -1    0    0  501    0  0.00000000000E+00  0.00000000000E+00 -0.12351329107E+04  0.12351329107E+04  0.50400001928E-02 0.  1.
    10030    2    1    2    0    0  0.00000000000E+00  0.00000000000E+00 -0.10302016270E+04  0.14400641944E+04  0.10062154301E+04 0.  0.
        2    1    3    3  502    0  0.22756625774E+03  0.25155230121E+03 -0.10468573993E+04  0.11004432636E+04  0.25500000920E-02 0.  1.
       -2    1    3    3    0  502 -0.22756625774E+03 -0.25155230121E+03  0.16655772328E+02  0.33962093084E+03  0.25500000920E-02 0. -1.
</event>
<event>
 5   0  0.1191822E-02  0.9917982E+03  0.7818609E-02  0.9317586E-01
        2   -1    0    0  501    0  0.00000000000E+00  0.00000000000E+00  0.11150579763E+04  0.11150579763E+04  0.25500000920E-02 0. -1.
       -2   -1    0    0    0  501  0.00000000000E+00  0.00000000000E+00 -0.22054092642E+03  0.22054092644E+03  0.25500000920E-02 0.  1.
    10030    2    1    2    0    0  0.00000000000E+00  0.00000000000E+00  0.89451704983E+03  0.13355989027E+04  0.99179820348E+03 0.  0.
        4    1    3    3  502    0  0.21370551375E+03  0.90907199266E+01  0.10497392236E+04  0.10713107571E+04  0.12699999809E+01 0. -1.
       -4    1    3    3    0  502 -0.21370551375E+03 -0.90907199266E+01 -0.15522217374E+03  0.26428814562E+03  0.12699999809E+01 0.  1.
</event>
<event>
 5   0  0.1245850E-02  0.9865840E+03  0.7818609E-02  0.9323383E-01
        2   -1    0    0  501    0  0.00000000000E+00  0.00000000000E+00  0.51673329806E+03  0.51673329806E+03  0.25500000920E-02 0.  1.
       -2   -1    0    0    0  501  0.00000000000E+00  0.00000000000E+00 -0.47091410254E+03  0.47091410254E+03  0.25500000920E-02 0. -1.
    10030    2    1    2    0    0  0.00000000000E+00  0.00000000000E+00  0.45819195520E+02  0.98764740060E+03  0.98658400009E+03 0.  0.
        3    1    3    3  502    0  0.22313081083E+03  0.29736795208E+03 -0.30166499343E+03  0.47876595131E+03  0.10100000352E+00 0. -1.
       -3    1    3    3    0  502 -0.22313081083E+03 -0.29736795208E+03  0.34748418895E+03  0.50888144930E+03  0.10100000352E+00 0.  1.
</event>
<event>
 5   0  0.1245850E-02  0.8500649E+03  0.7818609E-02  0.9490250E-01
       -2   -1    0    0    0  501  0.00000000000E+00  0.00000000000E+00  0.13854289443E+03  0.13854289446E+03  0.25500000920E-02 0. -1.
        2   -1    0    0  501    0  0.00000000000E+00  0.00000000000E+00 -0.13039470319E+04  0.13039470319E+04  0.25500000920E-02 0.  1.
    10030    2    1    2    0    0  0.00000000000E+00  0.00000000000E+00 -0.11654041375E+04  0.14424899264E+04  0.85006492930E+03 0.  0.
        3    1    3    3  502    0  0.38828146737E+03  0.28260826098E+02 -0.29327236348E+03  0.48741138844E+03  0.10100000352E+00 0. -1.
       -3    1    3    3    0  502 -0.38828146737E+03 -0.28260826098E+02 -0.87213177398E+03  0.95507853792E+03  0.10100000352E+00 0.  1.
</event>
<event>
 5   0  0.4782125E-03  0.9638790E+03  0.7818609E-02  0.9349074E-01
       -3   -1    0    0    0  501  0.00000000000E+00  0.00000000000E+00  0.94663832226E+03  0.94663832765E+03  0.10100000352E+00 0.  1.
        3   -1    0    0  501    0  0.00000000000E+00  0.00000000000E+00 -0.24535842448E+03  0.24535844527E+03  0.10100000352E+00 0. -1.
    10030    2    1    2    0    0  0.00000000000E+00  0.00000000000E+00  0.70127989778E+03  0.11919967729E+04  0.96387904408E+03 0.  0.
        3    1    3    3  502    0 -0.17917954798E+03  0.25082800875E+03 -0.10750394481E+03  0.32646149656E+03  0.10100000352E+00 0. -1.
       -3    1    3    3    0  502  0.17917954798E+03 -0.25082800875E+03  0.80878384259E+03  0.86553527636E+03  0.10100000352E+00 0.  1.
</event>
<event>
 5   0  0.1245850E-02  0.1170837E+04  0.7818609E-02  0.9138773E-01
       -2   -1    0    0    0  501  0.00000000000E+00  0.00000000000E+00  0.38690667637E+03  0.38690667638E+03  0.25500000920E-02 0.  1.
        2   -1    0    0  501    0  0.00000000000E+00  0.00000000000E+00 -0.88578108292E+03  0.88578108292E+03  0.25500000920E-02 0. -1.
    10030    2    1    2    0    0  0.00000000000E+00  0.00000000000E+00 -0.49887440654E+03  0.12726877593E+04  0.11708366492E+04 0.  0.
        3    1    3    3  502    0  0.53592511936E+03 -0.10440186305E+03 -0.19881168908E+02  0.54636137642E+03  0.10100000352E+00 0. -1.
       -3    1    3    3    0  502 -0.53592511936E+03  0.10440186305E+03 -0.47899323764E+03  0.72632638288E+03  0.10100000352E+00 0.  1.
</event>
<event>
 5   0  0.1221315E-02  0.9988437E+03  0.7818609E-02  0.9309814E-01
        2   -1    0    0  501    0  0.00000000000E+00  0.00000000000E+00  0.89640236819E+03  0.89640236820E+03  0.25500000920E-02 0.  1.
       -2   -1    0    0    0  501  0.00000000000E+00  0.00000000000E+00 -0.27824799438E+03  0.27824799439E+03  0.25500000920E-02 0. -1.
    10030    2    1    2    0    0  0.00000000000E+00  0.00000000000E+00  0.61815437381E+03  0.11746503626E+04  0.99884365367E+03 0.  0.
        5    1    3    3  502    0  0.49822410203E+03  0.95930620232E+01  0.34773893154E+03  0.60767074735E+03  0.46999998093E+01 0.  1.
       -5    1    3    3    0  502 -0.49822410203E+03 -0.95930620232E+01  0.27041544227E+03  0.56697961524E+03  0.46999998093E+01 0. -1.
</event>
<event>
 5   0  0.7224879E-03  0.1006219E+04  0.7818609E-02  0.9301750E-01
        1   -1    0    0  501    0  0.00000000000E+00  0.00000000000E+00  0.21050440289E+04  0.21050440289E+04  0.50400001928E-02 0.  1.
       -1   -1    0    0    0  501  0.00000000000E+00  0.00000000000E+00 -0.12024422406E+03  0.12024422417E+03  0.50400001928E-02 0. -1.
    10030    2    1    2    0    0  0.00000000000E+00  0.00000000000E+00  0.19847998049E+04  0.22252882531E+04  0.10062194313E+04 0.  0.
        3    1    3    3  502    0 -0.34371816920E+03 -0.45154822842E+02  0.18605928933E+03  0.39344530397E+03  0.10100000352E+00 0. -1.
       -3    1    3    3    0  502  0.34371816920E+03  0.45154822842E+02  0.17987405155E+04  0.18318429491E+04  0.10100000352E+00 0.  1.
</event>
<event>
 5   0  0.4782125E-03  0.9893176E+03  0.7818609E-02  0.9320339E-01
        3   -1    0    0  501    0  0.00000000000E+00  0.00000000000E+00  0.53993495109E+03  0.53993496053E+03  0.10100000352E+00 0.  1.
       -3   -1    0    0    0  501  0.00000000000E+00  0.00000000000E+00 -0.45317921772E+03  0.45317922897E+03  0.10100000352E+00 0. -1.
    10030    2    1    2    0    0  0.00000000000E+00  0.00000000000E+00  0.86755733372E+02  0.99311418950E+03  0.98931756081E+03 0.  0.
        1    1    3    3  502    0 -0.28182934186E+03  0.32798023178E+03  0.28448390509E+03  0.51761945737E+03  0.50400001928E-02 0.  1.
       -1    1    3    3    0  502  0.28182934186E+03 -0.32798023178E+03 -0.19772817171E+03  0.47549473213E+03  0.50400001928E-02 0. -1.
</event>
<event>
 5   0  0.7461157E-03  0.9813122E+03  0.7818609E-02  0.9329282E-01
        1   -1    0    0  501    0  0.00000000000E+00  0.00000000000E+00  0.61825221816E+03  0.61825221818E+03  0.50400001928E-02 0. -1.
       -1   -1    0    0    0  501  0.00000000000E+00  0.00000000000E+00 -0.38939352927E+03  0.38939352930E+03  0.50400001928E-02 0.  1.
    10030    2    1    2    0    0  0.00000000000E+00  0.00000000000E+00  0.22885868889E+03  0.10076457475E+04  0.98131220971E+03 0.  0.
        2    1    3    3  502    0  0.34707824679E+03 -0.52789592718E+02  0.46640071623E+03  0.58376337552E+03  0.25500000920E-02 0. -1.
       -2    1    3    3    0  502 -0.34707824679E+03  0.52789592718E+02 -0.23754202734E+03  0.42388237195E+03  0.25500000920E-02 0.  1.
</event>
<event>
 5   0  0.7241200E-03  0.1001305E+04  0.7818609E-02  0.9307114E-01
        1   -1    0    0  501    0  0.00000000000E+00  0.00000000000E+00  0.13738071571E+04  0.13738071571E+04  0.50400001928E-02 0.  1.
       -1   -1    0    0    0  501  0.00000000000E+00  0.00000000000E+00 -0.18245149035E+03  0.18245149042E+03  0.50400001928E-02 0. -1.
    10030    2    1    2    0    0  0.00000000000E+00  0.00000000000E+00  0.11913556668E+04  0.15562586476E+04  0.10013054745E+04 0.  0.
        4    1    3    3  502    0 -0.26887346739E+03 -0.40951619896E+03  0.43524480399E+03  0.65531375002E+03  0.12699999809E+01 0. -1.
       -4    1    3    3    0  502  0.26887346739E+03  0.40951619896E+03  0.75611086279E+03  0.90094489754E+03  0.12699999809E+01 0.  1.
</event>
<event>
 5   0  0.1245850E-02  0.9933956E+03  0.7818609E-02  0.9315818E-01
        2   -1    0    0  501    0  0.00000000000E+00  0.00000000000E+00  0.75457299666E+03  0.75457299666E+03  0.25500000920E-02 0.  1.
       -2   -1    0    0    0  501  0.00000000000E+00  0.00000000000E+00 -0.32695143370E+03  0.32695143371E+03  0.25500000920E-02 0. -1.
    10030    2    1    2    0    0  0.00000000000E+00  0.00000000000E+00  0.42762156296E+03  0.10815244304E+04  0.99339563740E+03 0.  0.
        3    1    3    3  502    0 -0.22890873706E+03 -0.28723094784E+02 -0.26508075377E+03  0.35141434561E+03  0.10100000352E+00 0. -1.
       -3    1    3    3    0  502  0.22890873706E+03  0.28723094784E+02  0.69270231673E+03  0.73011008477E+03  0.10100000352E+00 0.  1.
</event>
<event>
 5   0  0.1245850E-02  0.9912797E+03  0.7818609E-02  0.9318161E-01
        2   -1    0    0  501    0  0.00000000000E+00  0.00000000000E+00  0.19134625968E+04  0.19134625968E+04  0.25500000920E-02 0. -1.
       -2   -1    0    0    0  501  0.00000000000E+00  0.00000000000E+00 -0.12838445432E+03  0.12838445434E+03  0.25500000920E-02 0.  1.
    10030    2    1    2    0    0  0.00000000000E+00  0.00000000000E+00  0.17850781424E+04  0.20418470511E+04  0.99127968076E+03 0.  0.
        3    1    3    3  502    0 -0.46032948957E+02 -0.33327247171E+03  0.14284414442E+03  0.36550517450E+03  0.10100000352E+00 0.  1.
       -3    1    3    3    0  502  0.46032948957E+02  0.33327247171E+03  0.16422339980E+04  0.16763418766E+04  0.10100000352E+00 0. -1.
</event>
<event>
 5   0  0.1240503E-02  0.9978744E+03  0.7818609E-02  0.9310879E-01
       -2   -1    0    0    0  501  0.00000000000E+00  0.00000000000E+00  0.54608174856E+03  0.54608174857E+03  0.25500000920E-02 0. -1.
        2   -1    0    0  501    0  0.00000000000E+00  0.00000000000E+00 -0.45586275467E+03  0.45586275468E+03  0.25500000920E-02 0.  1.
    10030    2    1    2    0    0  0.00000000000E+00  0.00000000000E+00  0.90218993886E+02  0.10019445032E+04  0.99787440128E+03 0.  0.
        1    1    3    3  502    0 -0.23942913774E+03 -0.42424873876E+03  0.15336868074E+03  0.51072033109E+03  0.50400001928E-02 0. -1.
       -1    1    3    3    0  502  0.23942913774E+03  0.42424873876E+03 -0.63149686850E+02  0.49122417216E+03  0.50400001928E-02 0.  1.
</event>
<event>
 5   0  0.7073004E-03  0.1006847E+04  0.7818609E-02  0.9301066E-01
        1   -1    0    0  501    0  0.00000000000E+00  0.00000000000E+00  0.85361043338E+03  0.85361043339E+03  0.50400001928E-02 0.  1.
       -1   -1    0    0    0  501  0.00000000000E+00  0.00000000000E+00 -0.29689818867E+03  0.29689818872E+03  0.50400001928E-02 0. -1.
    10030    2    1    2    0    0  0.00000000000E+00  0.00000000000E+00  0.55671224470E+03  0.11505086221E+04  0.10068473400E+04 0.  0.
        1    1    3    3  502    0  0.91733124079E+02 -0.11641488682E+03 -0.27140209531E+03  0.30923532995E+03  0.50400001928E-02 0. -1.
       -1    1    3    3    0  502 -0.91733124079E+02  0.11641488682E+03  0.82811434002E+03  0.84127329216E+03  0.50400001928E-02 0.  1.
</event>
<event>
 5   0  0.1216322E-02  0.9537154E+03  0.7818609E-02  0.9360818E-01
        2   -1    0    0  501    0  0.00000000000E+00  0.00000000000E+00  0.39019562680E+03  0.39019562681E+03  0.25500000920E-02 0. -1.
       -2   -1    0    0    0  501  0.00000000000E+00  0.00000000000E+00 -0.58276732738E+03  0.58276732738E+03  0.25500000920E-02 0.  1.
    10030    2    1    2    0    0  0.00000000000E+00  0.00000000000E+00 -0.19257170057E+03  0.97296295419E+03  0.95371539275E+03 0.  0.
        2    1    3    3  502    0 -0.25369117879E+03 -0.38534217177E+03  0.26752706587E+02  0.46212932265E+03  0.25500000920E-02 0. -1.
       -2    1    3    3    0  502  0.25369117879E+03  0.38534217177E+03 -0.21932440716E+03  0.51083363154E+03  0.25500000920E-02 0.  1.
</event>
<event>
 5   0  0.1245850E-02  0.9477323E+03  0.7818609E-02  0.9367805E-01
       -2   -1    0    0    0  501  0.00000000000E+00  0.00000000000E+00  0.34999083970E+03  0.34999083971E+03  0.25500000920E-02 0. -1.
        2   -1    0    0  501    0  0.00000000000E+00  0.00000000000E+00 -0.64158571972E+03  0.64158571972E+03  0.25500000920E-02 0.  1.
    10030    2    1    2    0    0  0.00000000000E+00  0.00000000000E+00 -0.29159488001E+03  0.99157655943E+03  0.94773229298E+03 0.  0.
        3    1    3    3  502    0 -0.60415461742E+02 -0.36786181191E+03  0.16027098436E+03  0.40578213281E+03  0.10100000352E+00 0. -1.
       -3    1    3    3    0  502  0.60415461742E+02  0.36786181191E+03 -0.45186586437E+03  0.58579442662E+03  0.10100000352E+00 0.  1.
</event>
<event>
 5   0  0.7073004E-03  0.9956257E+03  0.7818609E-02  0.9313356E-01
        1   -1    0    0  501    0  0.00000000000E+00  0.00000000000E+00  0.61374172107E+03  0.61374172109E+03  0.50400001928E-02 0.  1.
       -1   -1    0    0    0  501  0.00000000000E+00  0.00000000000E+00 -0.40378162840E+03  0.40378162843E+03  0.50400001928E-02 0. -1.
    10030    2    1    2    0    0  0.00000000000E+00  0.00000000000E+00  0.20996009267E+03  0.10175233495E+04  0.99562569588E+03 0.  0.
        1    1    3    3  502    0 -0.35485885547E+03  0.31995036722E+03  0.24778366498E+03  0.53822838038E+03  0.50400001928E-02 0. -1.
       -1    1    3    3    0  502  0.35485885547E+03 -0.31995036722E+03 -0.37823572307E+02  0.47929496914E+03  0.50400001928E-02 0.  1.
</event>
<event>
 5   0  0.1191822E-02  0.9769720E+03  0.7818609E-02  0.9334168E-01
       -2   -1    0    0    0  501  0.00000000000E+00  0.00000000000E+00  0.37159424815E+03  0.37159424815E+03  0.25500000920E-02 0. -1.
        2   -1    0    0  501    0  0.00000000000E+00  0.00000000000E+00 -0.64214815185E+03  0.64214815185E+03  0.25500000920E-02 0.  1.
    10030    2    1    2    0    0  0.00000000000E+00  0.00000000000E+00 -0.27055390370E+03  0.10137424000E+04  0.97697197440E+03 0.  0.
        4    1    3    3  502    0 -0.44812287111E+02 -0.46922099712E+03 -0.26832316226E+03  0.54237940366E+03  0.12699999809E+01 0.  1.
       -4    1    3    3    0  502  0.44812287111E+02  0.46922099712E+03 -0.22307414461E+01  0.47136299634E+03  0.12699999809E+01 0. -1.
</event>
<event>
 5   0  0.6967681E-03  0.1016303E+04  0.7818609E-02  0.9290842E-01
       -1   -1    0    0    0  501  0.00000000000E+00  0.00000000000E+00  0.14467777601E+03  0.14467777610E+03  0.50400001928E-02 0. -1.
        1   -1    0    0  501    0  0.00000000000E+00  0.00000000000E+00 -0.17847811808E+04  0.17847811808E+04  0.50400001928E-02 0.  1.
    10030    2    1    2    0    0  0.00000000000E+00  0.00000000000E+00 -0.16401034048E+04  0.19294589569E+04  0.10163034429E+04 0.  0.
        5    1    3    3  502    0 -0.95540482810E+02 -0.48020121989E+03 -0.56200219271E+03  0.74537893051E+03  0.46999998093E+01 0. -1.
       -5    1    3    3    0  502  0.95540482810E+02  0.48020121989E+03 -0.10781012121E+04  0.11840800264E+04  0.46999998093E+01 0.  1.
</event>
<event>
 5   0  0.1221315E-02  0.1000553E+04  0.7818609E-02  0.9307938E-01
        2   -1    0    0  501    0  0.00000000000E+00  0.00000000000E+00  0.10733349720E+04  0.10733349720E+04  0.25500000920E-02 0. -1.
       -2   -1    0    0    0  501  0.00000000000E+00  0.00000000000E+00 -0.23317676015E+03  0.23317676017E+03  0.25500000920E-02 0.  1.
    10030    2    1    2    0    0  0.00000000000E+00  0.00000000000E+00  0.84015821188E+03  0.13065117322E+04  0.10005533896E+04 0.  0.
        5    1    3    3  502    0 -0.33250784088E+03 -0.32763764200E+03  0.18523013655E+03  0.50223518613E+03  0.46999998093E+01 0.  1.
       -5    1    3    3    0  502  0.33250784088E+03  0.32763764200E+03  0.65492807533E+03  0.80427654607E+03  0.46999998093E+01 0. -1.
</event>
<event>
 5   0  0.1191822E-02  0.1008552E+04  0.7818609E-02  0.9299214E-01
       -2   -1    0    0    0  501  0.00000000000E+00  0.00000000000E+00  0.94853740536E+03  0.94853740537E+03  0.25500000920E-02 0.  1.
        2   -1    0    0  501    0  0.00000000000E+00  0.00000000000E+00 -0.26809099370E+03  0.26809099371E+03  0.25500000920E-02 0. -1.
    10030    2    1    2    0    0  0.00000000000E+00  0.00000000000E+00  0.68044641166E+03  0.12166283991E+04  0.10085521019E+04 0.  0.
        4    1    3    3  502    0  0.98723175270E+02 -0.43749460867E+02  0.93442511867E+03  0.94064456410E+03  0.12699999809E+01 0.  1.
       -4    1    3    3    0  502 -0.98723175270E+02  0.43749460867E+02 -0.25397870701E+03  0.27598383499E+03  0.12699999809E+01 0. -1.
</event>
<event>
 5   0  0.1245850E-02  0.1014551E+04  0.7818609E-02  0.9292728E-01
        2   -1    0    0  501    0  0.00000000000E+00  0.00000000000E+00  0.13401078166E+04  0.13401078166E+04  0.25500000920E-02 0. -1.
       -2   -1    0    0    0  501  0.00000000000E+00  0.00000000000E+00 -0.19202073777E+03  0.19202073779E+03  0.25500000920E-02 0.  1.
    10030    2    1    2    0    0  0.00000000000E+00  0.00000000000E+00  0.11480870789E+04  0.15321285544E+04  0.10145511158E+04 0.  0.
        3    1    3    3  502    0  0.28613351828E+03  0.30461420260E+03  0.10082391891E+04  0.10914249747E+04  0.10100000352E+00 0. -1.
       -3    1    3    3    0  502 -0.28613351828E+03 -0.30461420260E+03  0.13984788973E+03  0.44070357971E+03  0.10100000352E+00 0.  1.
</event>
<event>
 5   0  0.1245850E-02  0.9901696E+03  0.7818609E-02  0.9319393E-01
        2   -1    0    0  501    0  0.00000000000E+00  0.00000000000E+00  0.65242856666E+03  0.65242856666E+03  0.25500000920E-02 0.  1.
       -2   -1    0    0    0  501  0.00000000000E+00  0.00000000000E+00 -0.37568701525E+03  0.37568701526E+03  0.25500000920E-02 0. -1.
    10030    2    1    2    0    0  0.00000000000E+00  0.00000000000E+00  0.27674155141E+03  0.10281155819E+04  0.99016956301E+03 0.  0.
        3    1    3    3  502    0  0.35523782532E+03  0.21694831937E+03 -0.13994707063E+03  0.43914198000E+03  0.10100000352E+00 0. -1.
       -3    1    3    3    0  502 -0.35523782532E+03 -0.21694831937E+03  0.41668862204E+03  0.58897360192E+03  0.10100000352E+00 0.  1.
</event>
<event>
 5   0  0.1191822E-02  0.9719560E+03  0.7818609E-02  0.9339849E-01
        2   -1    0    0  501    0  0.00000000000E+00  0.00000000000E+00  0.36207551228E+03  0.36207551229E+03  0.25500000920E-02 0. -1.
       -2   -1    0    0    0  501  0.00000000000E+00  0.00000000000E+00 -0.65227995173E+03  0.65227995173E+03  0.25500000920E-02 0.  1.
    10030    2    1    2    0    0  0.00000000000E+00  0.00000000000E+00 -0.29020443945E+03  0.10143554640E+04  0.97195596131E+03 0.  0.
        4    1    3    3  502    0  0.32972639170E+03  0.35598785519E+03 -0.17322467747E+03  0.51522349346E+03  0.12699999809E+01 0.  1.
       -4    1    3    3    0  502 -0.32972639170E+03 -0.35598785519E+03 -0.11697976198E+03  0.49913197057E+03  0.12699999809E+01 0. -1.
</event>
<event>
 5   0  0.1245850E-02  0.1002914E+04  0.7818609E-02  0.9305354E-01
       -2   -1    0    0    0  501  0.00000000000E+00  0.00000000000E+00  0.61033751513E+03  0.61033751513E+03  0.25500000920E-02 0.  1.
        2   -1    0    0  501    0  0.00000000000E+00  0.00000000000E+00 -0.41200026009E+03  0.41200026009E+03  0.25500000920E-02 0. -1.
    10030    2    1    2    0    0  0.00000000000E+00  0.00000000000E+00  0.19833725504E+03  0.10223377752E+04  0.10029141837E+04 0.  0.
        3    1    3    3  502    0  0.39340926486E+03 -0.94857008934E+02 -0.20269230917E+03  0.45260676555E+03  0.10100000352E+00 0. -1.
       -3    1    3    3    0  502 -0.39340926486E+03  0.94857008934E+02  0.40102956421E+03  0.56973100968E+03  0.10100000352E+00 0.  1.
</event>
<event>
 5   0  0.4782125E-03  0.9872064E+03  0.7818609E-02  0.9322689E-01
       -3   -1    0    0    0  501  0.00000000000E+00  0.00000000000E+00  0.43418146372E+03  0.43418147547E+03  0.10100000352E+00 0.  1.
        3   -1    0    0  501    0  0.00000000000E+00  0.00000000000E+00 -0.56115728905E+03  0.56115729814E+03  0.10100000352E+00 0. -1.
    10030    2    1    2    0    0  0.00000000000E+00  0.00000000000E+00 -0.12697582533E+03  0.99533877361E+03  0.98720636851E+03 0.  0.
        1    1    3    3  502    0 -0.30557808791E+02 -0.35715118652E+03 -0.40562587899E+03  0.54131608460E+03  0.50400001928E-02 0. -1.
       -1    1    3    3    0  502  0.30557808791E+02  0.35715118652E+03  0.27865005366E+03  0.45402268901E+03  0.50400001928E-02 0.  1.
</event>
<event>
 5   0  0.6967681E-03  0.1037583E+04  0.7818609E-02  0.9268259E-01
        1   -1    0    0  501    0  0.00000000000E+00  0.00000000000E+00  0.12054451547E+04  0.12054451547E+04  0.50400001928E-02 0.  1.
       -1   -1    0    0    0  501  0.00000000000E+00  0.00000000000E+00 -0.22327402634E+03  0.22327402640E+03  0.50400001928E-02 0. -1.
    10030    2    1    2    0    0  0.00000000000E+00  0.00000000000E+00  0.98217112832E+03  0.14287191811E+04  0.10375829476E+04 0.  0.
        5    1    3    3  502    0  0.22941709407E+03  0.14767673305E+03 -0.11647114141E+03  0.29669552965E+03  0.46999998093E+01 0. -1.
       -5    1    3    3    0  502 -0.22941709407E+03 -0.14767673305E+03  0.10986422697E+04  0.11320236514E+04  0.46999998093E+01 0.  1.
</event>
<event>
 5   0  0.1240503E-02  0.9850099E+03  0.7818609E-02  0.9325140E-01
       -2   -1    0    0    0  501  0.00000000000E+00  0.00000000000E+00  0.14488923165E+03  0.14488923168E+03  0.25500000920E-02 0. -1.
        2   -1    0    0  501    0  0.00000000000E+00  0.00000000000E+00 -0.16741143289E+04  0.16741143289E+04  0.25500000920E-02 0.  1.
    10030    2    1    2    0    0  0.00000000000E+00  0.00000000000E+00 -0.15292250972E+04  0.18190035605E+04  0.98500992651E+03 0.  0.
        1    1    3    3  502    0 -0.43951431057E+03  0.61632665334E+02 -0.11589122283E+04  0.12409870941E+04  0.50400001928E-02 0.  1.
       -1    1    3    3    0  502  0.43951431057E+03 -0.61632665334E+02 -0.37031286888E+03  0.57801646648E+03  0.50400001928E-02 0. -1.
</event>
<event>
 5   0  0.7073004E-03  0.1005462E+04  0.7818609E-02  0.9302575E-01
        1   -1    0    0  501    0  0.00000000000E+00  0.00000000000E+00  0.10524578260E+03  0.10524578272E+03  0.50400001928E-02 0. -1.
       -1   -1    0    0    0  501  0.00000000000E+00  0.00000000000E+00 -0.24014112129E+04  0.24014112129E+04  0.50400001928E-02 0.  1.
    10030    2    1    2    0    0  0.00000000000E+00  0.00000000000E+00 -0.22961654303E+04  0.25066569957E+04  0.10054618891E+04 0.  0.
        1    1    3    3  502    0  0.18968419484E+03  0.40186943314E+03 -0.17341289208E+04  0.17901626320E+04  0.50400001928E-02 0. -1.
       -1    1    3    3    0  502 -0.18968419484E+03 -0.40186943314E+03 -0.56203650951E+03  0.71649436363E+03  0.50400001928E-02 0.  1.
</event>
<event>
 5   0  0.1191822E-02  0.9648939E+03  0.7818609E-02  0.9347909E-01
       -2   -1    0    0    0  501  0.00000000000E+00  0.00000000000E+00  0.12943989229E+03  0.12943989231E+03  0.25500000920E-02 0. -1.
        2   -1    0    0  501    0  0.00000000000E+00  0.00000000000E+00 -0.17981710788E+04  0.17981710788E+04  0.25500000920E-02 0.  1.
    10030    2    1    2    0    0  0.00000000000E+00  0.00000000000E+00 -0.16687311865E+04  0.19276109711E+04  0.96489392324E+03 0.  0.
        4    1    3    3  502    0 -0.26546880386E+02 -0.18784691801E+03 -0.17205226807E+04  0.17309509263E+04  0.12699999809E+01 0.  1.
       -4    1    3    3    0  502  0.26546880386E+02  0.18784691801E+03  0.51791494194E+02  0.19666004484E+03  0.12699999809E+01 0. -1.
</event>
<event>
 5   0  0.1191822E-02  0.9972321E+03  0.7818609E-02  0.9311586E-01
       -2   -1    0    0    0  501  0.00000000000E+00  0.00000000000E+00  0.70172281386E+03  0.70172281386E+03  0.25500000920E-02 0.  1.
        2   -1    0    0  501    0  0.00000000000E+00  0.00000000000E+00 -0.35429656701E+03  0.35429656702E+03  0.25500000920E-02 0. -1.
    10030    2    1    2    0    0  0.00000000000E+00  0.00000000000E+00  0.34742624685E+03  0.10560193809E+04  0.99723213737E+03 0.  0.
        4    1    3    3  502    0 -0.34121737536E+03 -0.35563410819E+03  0.25374241979E+03  0.55433901600E+03  0.12699999809E+01 0. -1.
       -4    1    3    3    0  502  0.34121737536E+03  0.35563410819E+03  0.93683827058E+02  0.50168036488E+03  0.12699999809E+01 0.  1.
</event>
<event>
 5   0  0.4782125E-03  0.1008343E+04  0.7818609E-02  0.9299442E-01
        3   -1    0    0  501    0  0.00000000000E+00  0.00000000000E+00  0.89779639802E+03  0.89779640370E+03  0.10100000352E+00 0.  1.
       -3   -1    0    0    0  501  0.00000000000E+00  0.00000000000E+00 -0.28312518886E+03  0.28312520688E+03  0.10100000352E+00 0. -1.
    10030    2    1    2    0    0  0.00000000000E+00  0.00000000000E+00  0.61467120916E+03  0.11809216106E+04  0.10083427765E+04 0.  0.
        2    1    3    3  502    0 -0.40601646964E+02 -0.43067657864E+03  0.61061165171E+03  0.74831637583E+03  0.25500000920E-02 0.  1.
       -2    1    3    3    0  502  0.40601646964E+02  0.43067657864E+03  0.40595574486E+01  0.43260523475E+03  0.25500000920E-02 0. -1.
</event>
<event>
 5   0  0.1191822E-02  0.1004803E+04  0.7818609E-02  0.9303292E-01
        2   -1    0    0  501    0  0.00000000000E+00  0.00000000000E+00  0.19802216191E+04  0.19802216191E+04  0.25500000920E-02 0.  1.
       -2   -1    0    0    0  501  0.00000000000E+00  0.00000000000E+00 -0.12746419620E+03  0.12746419623E+03  0.25500000920E-02 0. -1.
    10030    2    1    2    0    0  0.00000000000E+00  0.00000000000E+00  0.18527574229E+04  0.21076858154E+04  0.10048031788E+04 0.  0.
        4    1    3    3  502    0 -0.45589670749E+03 -0.48676721808E+02  0.49550215855E+03  0.67508164926E+03  0.12699999809E+01 0. -1.
       -4    1    3    3    0  502  0.45589670749E+03  0.48676721808E+02  0.13572552644E+04  0.14326041661E+04  0.12699999809E+01 0.  1.
</event>
<event>
 5   0  0.1240503E-02  0.1000258E+04  0.7818609E-02  0.9308262E-01
        2   -1    0    0  501    0  0.00000000000E+00  0.00000000000E+00  0.13399763149E+04  0.13399763149E+04  0.25500000920E-02 0.  1.
       -2   -1    0    0    0  501  0.00000000000E+00  0.00000000000E+00 -0.18666671189E+03  0.18666671191E+03  0.25500000920E-02 0. -1.
    10030    2    1    2    0    0  0.00000000000E+00  0.00000000000E+00  0.11533096030E+04  0.15266430268E+04  0.10002579122E+04 0.  0.
        1    1    3    3  502    0  0.80240359680E+02  0.35005012376E+03  0.45407381509E+02  0.36198816940E+03  0.50400001928E-02 0. -1.
       -1    1    3    3    0  502 -0.80240359680E+02 -0.35005012376E+03  0.11079022215E+04  0.11646548574E+04  0.50400001928E-02 0.  1.
</event>
<event>
 5   0  0.7241200E-03  0.9791193E+03  0.7818609E-02  0.9331748E-01
        1   -1    0    0  501    0  0.00000000000E+00  0.00000000000E+00  0.96597234985E+03  0.96597234986E+03  0.50400001928E-02 0.  1.
       -1   -1    0    0    0  501  0.00000000000E+00  0.00000000000E+00 -0.24811130691E+03  0.24811130696E+03  0.50400001928E-02 0. -1.
    10030    2    1    2    0    0  0.00000000000E+00  0.00000000000E+00  0.71786104294E+03  0.12140836568E+04  0.97911932306E+03 0.  0.
        4    1    3    3  502    0  0.44807926612E+03 -0.18600515758E+03  0.27767569524E+03  0.55899763148E+03  0.12699999809E+01 0. -1.
       -4    1    3    3    0  502 -0.44807926612E+03  0.18600515758E+03  0.44018534770E+03  0.65508602534E+03  0.12699999809E+01 0.  1.
</event>
<event>
 5   0  0.4782125E-03  0.9311490E+03  0.7818609E-02  0.9387460E-01
       -3   -1    0    0    0  501  0.00000000000E+00  0.00000000000E+00  0.23575879074E+04  0.23575879095E+04  0.10100000352E+00 0. -1.
        3   -1    0    0  501    0  0.00000000000E+00  0.00000000000E+00 -0.91941240094E+02  0.91941295570E+02  0.10100000352E+00 0.  1.
    10030    2    1    2    0    0  0.00000000000E+00  0.00000000000E+00  0.22656466673E+04  0.24495292051E+04  0.93114902444E+03 0.  0.
        2    1    3    3  502    0  0.62468487480E+02  0.97412649838E+02 -0.53504812315E+02  0.12749235751E+03  0.25500000920E-02 0.  1.
       -2    1    3    3    0  502 -0.62468487480E+02 -0.97412649838E+02  0.23191514796E+04  0.23220368476E+04  0.25500000920E-02 0. -1.
</event>
<event>
 5   0  0.6967681E-03  0.9971777E+03  0.7818609E-02  0.9311646E-01
        1   -1    0    0  501    0  0.00000000000E+00  0.00000000000E+00  0.43316252380E+03  0.43316252383E+03  0.50400001928E-02 0. -1.
       -1   -1    0    0    0  501  0.00000000000E+00  0.00000000000E+00 -0.57389741656E+03  0.57389741658E+03  0.50400001928E-02 0.  1.
    10030    2    1    2    0    0  0.00000000000E+00  0.00000000000E+00 -0.14073489275E+03  0.10070599404E+04  0.99717772415E+03 0.  0.
        5    1    3    3  502    0 -0.87319393154E+02 -0.48172778821E+03 -0.16554806597E+03  0.51683129791E+03  0.46999998093E+01 0. -1.
       -5    1    3    3    0  502  0.87319393154E+02  0.48172778821E+03  0.24813173214E+02  0.49022864249E+03  0.46999998093E+01 0.  1.
</event>
<event>
 5   0  0.1191822E-02  0.9959476E+03  0.7818609E-02  0.9313001E-01
       -2   -1    0    0    0  501  0.00000000000E+00  0.00000000000E+00  0.10416714670E+03  0.10416714673E+03  0.25500000920E-02 0. -1.
        2   -1    0    0  501    0  0.00000000000E+00  0.00000000000E+00 -0.23805768292E+04  0.23805768292E+04  0.25500000920E-02 0.  1.
    10030    2    1    2    0    0  0.00000000000E+00  0.00000000000E+00 -0.22764096825E+04  0.24847439760E+04  0.99594758062E+03 0.  0.
        4    1    3    3  502    0 -0.62987642729E+02  0.59487129500E+02  0.85215583197E+02  0.12152970926E+03  0.12699999809E+01 0. -1.
       -4    1    3    3    0  502  0.62987642729E+02 -0.59487129500E+02 -0.23616252657E+04  0.23632142667E+04  0.12699999809E+01 0.  1.
</event>
<event>
 5   0  0.1240503E-02  0.1036324E+04  0.7818609E-02  0.9269579E-01
       -2   -1    0    0    0  501  0.00000000000E+00  0.00000000000E+00  0.17087729558E+03  0.17087729559E+03  0.25500000920E-02 0. -1.
        2   -1    0    0  501    0  0.00000000000E+00  0.00000000000E+00 -0.15712538179E+04  0.15712538179E+04  0.25500000920E-02 0.  1.
    10030    2    1    2    0    0  0.00000000000E+00  0.00000000000E+00 -0.14003765223E+04  0.17421311135E+04  0.10363235076E+04 0.  0.
        1    1    3    3  502    0 -0.85942722818E+02  0.47761314143E+03 -0.39484795304E+03  0.62562398493E+03  0.50400001928E-02 0. -1.
       -1    1    3    3    0  502  0.85942722818E+02 -0.47761314143E+03 -0.10055285692E+04  0.11165071285E+04  0.50400001928E-02 0.  1.
</event>
<event>
 5   0  0.1216322E-02  0.1003861E+04  0.7818609E-02  0.9304320E-01
        2   -1    0    0  501    0  0.00000000000E+00  0.00000000000E+00  0.19569889636E+04  0.19569889636E+04  0.25500000920E-02 0.  1.
       -2   -1    0    0    0  501  0.00000000000E+00  0.00000000000E+00 -0.12873576318E+03  0.12873576321E+03  0.25500000920E-02 0. -1.
    10030    2    1    2    0    0  0.00000000000E+00  0.00000000000E+00  0.18282532004E+04  0.20857247268E+04  0.10038614801E+04 0.  0.
        2    1    3    3  502    0 -0.36314681587E+03 -0.88127208887E+02  0.16103658208E+04  0.16531545879E+04  0.25500000920E-02 0.  1.
       -2    1    3    3    0  502  0.36314681587E+03  0.88127208887E+02  0.21788737958E+03  0.43257013884E+03  0.25500000920E-02 0. -1.
</event>
<event>
 5   0  0.1221315E-02  0.9760838E+03  0.7818609E-02  0.9335172E-01
       -2   -1    0    0    0  501  0.00000000000E+00  0.00000000000E+00  0.43849698079E+03  0.43849698079E+03  0.25500000920E-02 0.  1.
        2   -1    0    0  501    0  0.00000000000E+00  0.00000000000E+00 -0.54318483787E+03  0.54318483787E+03  0.25500000920E-02 0. -1.
    10030    2    1    2    0    0  0.00000000000E+00  0.00000000000E+00 -0.10468785708E+03  0.98168181867E+03  0.97608383128E+03 0.  0.
        5    1    3    3  502    0 -0.70389414860E+02 -0.48268334039E+03 -0.67428098603E+02  0.49244950533E+03  0.46999998093E+01 0.  1.
       -5    1    3    3    0  502  0.70389414860E+02  0.48268334039E+03 -0.37259758479E+02  0.48923231334E+03  0.46999998093E+01 0. -1.
</event>
<event>
 5   0  0.1216322E-02  0.1003553E+04  0.7818609E-02  0.9304656E-01
        2   -1    0    0  501    0  0.00000000000E+00  0.00000000000E+00  0.12830192770E+04  0.12830192770E+04  0.25500000920E-02 0. -1.
       -2   -1    0    0    0  501  0.00000000000E+00  0.00000000000E+00 -0.19624002353E+03  0.19624002355E+03  0.25500000920E-02 0.  1.
    10030    2    1    2    0    0  0.00000000000E+00  0.00000000000E+00  0.10867792535E+04  0.14792593005E+04  0.10035531538E+04 0.  0.
        2    1    3    3  502    0  0.41639020139E+03  0.27891907523E+03  0.50719097537E+03  0.71303529775E+03  0.25500000920E-02 0.  1.
       -2    1    3    3    0  502 -0.41639020139E+03 -0.27891907523E+03  0.57958827810E+03  0.76622400280E+03  0.25500000920E-02 0. -1.
</event>
<event>
 5   0  0.7224879E-03  0.1003671E+04  0.7818609E-02  0.9304528E-01
        1   -1    0    0  501    0  0.00000000000E+00  0.00000000000E+00  0.69398756221E+03  0.69398756223E+03  0.50400001928E-02 0. -1.
       -1   -1    0    0    0  501  0.00000000000E+00  0.00000000000E+00 -0.36288673772E+03  0.36288673776E+03  0.50400001928E-02 0.  1.
    10030    2    1    2    0    0  0.00000000000E+00  0.00000000000E+00  0.33110082448E+03  0.10568743000E+04  0.10036710268E+04 0.  0.
        3    1    3    3  502    0  0.37292590110E+03 -0.11965299388E+03  0.49594739519E+03  0.63194493087E+03  0.10100000352E+00 0. -1.
       -3    1    3    3    0  502 -0.37292590110E+03  0.11965299388E+03 -0.16484657070E+03  0.42492936911E+03  0.10100000352E+00 0.  1.
</event>
<event>
 5   0  0.1240503E-02  0.1001870E+04  0.7818609E-02  0.9306496E-01
        2   -1    0    0  501    0  0.00000000000E+00  0.00000000000E+00  0.39813202464E+03  0.39813202465E+03  0.25500000920E-02 0. -1.
       -2   -1    0    0    0  501  0.00000000000E+00  0.00000000000E+00 -0.63028272683E+03  0.63028272684E+03  0.25500000920E-02 0.  1.
    10030    2    1    2    0    0  0.00000000000E+00  0.00000000000E+00 -0.23215070219E+03  0.10284147515E+04  0.10018697283E+04 0.  0.
        1    1    3    3  502    0 -0.15513345132E+03  0.39690917140E+03  0.15421176720E+03  0.45319371932E+03  0.50400001928E-02 0. -1.
       -1    1    3    3    0  502  0.15513345132E+03 -0.39690917140E+03 -0.38636246939E+03  0.57522103216E+03  0.50400001928E-02 0.  1.
</event>
<event>
 5   0  0.7461157E-03  0.9957546E+03  0.7818609E-02  0.9313213E-01
       -1   -1    0    0    0  501  0.00000000000E+00  0.00000000000E+00  0.24547933218E+03  0.24547933224E+03  0.50400001928E-02 0.  1.
        1   -1    0    0  501    0  0.00000000000E+00  0.00000000000E+00 -0.10097868584E+04  0.10097868585E+04  0.50400001928E-02 0. -1.
    10030    2    1    2    0    0  0.00000000000E+00  0.00000000000E+00 -0.76430752626E+03  0.12552661907E+04  0.99575459567E+03 0.  0.
        2    1    3    3  502    0  0.35079205076E+03  0.43639836452E+02  0.59822413650E+02  0.35852227181E+03  0.25500000920E-02 0.  1.
       -2    1    3    3    0  502 -0.35079205076E+03 -0.43639836452E+02 -0.82412993991E+03  0.89674391889E+03  0.25500000920E-02 0. -1.
</event>
<event>
 5   0  0.7241200E-03  0.9664921E+03  0.7818609E-02  0.9346079E-01
        1   -1    0    0  501    0  0.00000000000E+00  0.00000000000E+00  0.55063410259E+03  0.55063410261E+03  0.50400001928E-02 0.  1.
       -1   -1    0    0    0  501  0.00000000000E+00  0.00000000000E+00 -0.42410508311E+03  0.42410508314E+03  0.50400001928E-02 0. -1.
    10030    2    1    2    0    0  0.00000000000E+00  0.00000000000E+00  0.12652901947E+03  0.97473918576E+03  0.96649205246E+03 0.  0.
        4    1    3    3  502    0 -0.11849049861E+02 -0.10922335514E+03  0.53787010275E+03  0.54897723233E+03  0.12699999809E+01 0.  1.
       -4    1    3    3    0  502  0.11849049861E+02  0.10922335514E+03 -0.41134108327E+03  0.42576195342E+03  0.12699999809E+01 0. -1.
</event>
<event>
 5   0  0.1245850E-02  0.1032639E+04  0.7818609E-02  0.9273454E-01
        2   -1    0    0  501    0  0.00000000000E+00  0.00000000000E+00  0.23060562205E+03  0.23060562206E+03  0.25500000920E-02 0.  1.
       -2   -1    0    0    0  501  0.00000000000E+00  0.00000000000E+00 -0.11560256304E+04  0.11560256304E+04  0.25500000920E-02 0. -1.
    10030    2    1    2    0    0  0.00000000000E+00  0.00000000000E+00 -0.92542000833E+03  0.13866312524E+04  0.10326393555E+04 0.  0.
        3    1    3    3  502    0 -0.14151900675E+03  0.41727380648E+03 -0.82412348835E+03  0.93451837493E+03  0.10100000352E+00 0. -1.
       -3    1    3    3    0  502  0.14151900675E+03 -0.41727380648E+03 -0.10129651998E+03  0.45211287751E+03  0.10100000352E+00 0.  1.
</event>
<event>
 5   0  0.1221315E-02  0.1007762E+04  0.7818609E-02  0.9300073E-01
       -2   -1    0    0    0  501  0.00000000000E+00  0.00000000000E+00  0.38959810517E+03  0.38959810518E+03  0.25500000920E-02 0. -1.
        2   -1    0    0  501    0  0.00000000000E+00  0.00000000000E+00 -0.65168670376E+03  0.65168670376E+03  0.25500000920E-02 0.  1.
    10030    2    1    2    0    0  0.00000000000E+00  0.00000000000E+00 -0.26208859858E+03  0.10412848089E+04  0.10077616880E+04 0.  0.
        5    1    3    3  502    0 -0.63793271378E+02 -0.14172587385E+03  0.36418828491E+03  0.39599368891E+03  0.46999998093E+01 0. -1.
       -5    1    3    3    0  502  0.63793271378E+02  0.14172587385E+03 -0.62627688350E+03  0.64529112003E+03  0.46999998093E+01 0.  1.
</event>
<event>
 5   0  0.4782125E-03  0.1019556E+04  0.7818609E-02  0.9287352E-01
        3   -1    0    0  501    0  0.00000000000E+00  0.00000000000E+00  0.73884439428E+03  0.73884440119E+03  0.10100000352E+00 0.  1.
       -3   -1    0    0    0  501  0.00000000000E+00  0.00000000000E+00 -0.35173012439E+03  0.35173013889E+03  0.10100000352E+00 0. -1.
    10030    2    1    2    0    0  0.00000000000E+00  0.00000000000E+00  0.38711426989E+03  0.10905745401E+04  0.10195564572E+04 0.  0.
        3    1    3    3  502    0  0.37895181810E+03  0.10776612253E+01  0.55828969224E+03  0.67475405331E+03  0.10100000352E+00 0. -1.
       -3    1    3    3    0  502 -0.37895181810E+03 -0.10776612253E+01 -0.17117542235E+03  0.41582048677E+03  0.10100000352E+00 0.  1.
</event>
<event>
 5   0  0.4782125E-03  0.9976459E+03  0.7818609E-02  0.9311131E-01
       -3   -1    0    0    0  501  0.00000000000E+00  0.00000000000E+00  0.55294287847E+03  0.55294288769E+03  0.10100000352E+00 0.  1.
        3   -1    0    0  501    0  0.00000000000E+00  0.00000000000E+00 -0.45000004658E+03  0.45000005791E+03  0.10100000352E+00 0. -1.
    10030    2    1    2    0    0  0.00000000000E+00  0.00000000000E+00  0.10294283189E+03  0.10029429456E+04  0.99764589184E+03 0.  0.
        2    1    3    3  502    0  0.34402012395E+03 -0.26155242848E+03 -0.19897944822E+03  0.47576500433E+03  0.25500000920E-02 0. -1.
       -2    1    3    3    0  502 -0.34402012395E+03  0.26155242848E+03  0.30192228011E+03  0.52717794127E+03  0.25500000920E-02 0.  1.
</event>
<event>
 5   0  0.1221315E-02  0.1000452E+04  0.7818609E-02  0.9308050E-01
       -2   -1    0    0    0  501  0.00000000000E+00  0.00000000000E+00  0.18010732016E+03  0.18010732018E+03  0.25500000920E-02 0. -1.
        2   -1    0    0  501    0  0.00000000000E+00  0.00000000000E+00 -0.13893150398E+04  0.13893150398E+04  0.25500000920E-02 0.  1.
    10030    2    1    2    0    0  0.00000000000E+00  0.00000000000E+00 -0.12092077197E+04  0.15694223600E+04  0.10004515155E+04 0.  0.
        5    1    3    3  502    0 -0.25635442458E+03  0.27471738494E+02 -0.12770159577E+04  0.13027909017E+04  0.46999998093E+01 0.  1.
       -5    1    3    3    0  502  0.25635442458E+03 -0.27471738494E+02  0.67808238012E+02  0.26663145830E+03  0.46999998093E+01 0. -1.
</event>
<event>
 5   0  0.1240503E-02  0.1002538E+04  0.7818609E-02  0.9305765E-01
       -2   -1    0    0    0  501  0.00000000000E+00  0.00000000000E+00  0.21564245516E+03  0.21564245517E+03  0.25500000920E-02 0. -1.
        2   -1    0    0  501    0  0.00000000000E+00  0.00000000000E+00 -0.11652193217E+04  0.11652193217E+04  0.25500000920E-02 0.  1.
    10030    2    1    2    0    0  0.00000000000E+00  0.00000000000E+00 -0.94957686658E+03  0.13808617769E+04  0.10025382892E+04 0.  0.
        1    1    3    3  502    0  0.11277172647E+03 -0.58077451775E+02  0.19317042292E+03  0.23109579186E+03  0.50400001928E-02 0. -1.
       -1    1    3    3    0  502 -0.11277172647E+03  0.58077451775E+02 -0.11427472895E+04  0.11497659850E+04  0.50400001928E-02 0.  1.
</event>
<event>
 5   0  0.7241200E-03  0.1003165E+04  0.7818609E-02  0.9305080E-01
        1   -1    0    0  501    0  0.00000000000E+00  0.00000000000E+00  0.66899931183E+03  0.66899931184E+03  0.50400001928E-02 0. -1.
       -1   -1    0    0    0  501  0.00000000000E+00  0.00000000000E+00 -0.37606164966E+03  0.37606164969E+03  0.50400001928E-02 0.  1.
    10030    2    1    2    0    0  0.00000000000E+00  0.00000000000E+00  0.29293766217E+03  0.10450609615E+04  0.10031649612E+04 0.  0.
        4    1    3    3  502    0  0.11366833817E+03 -0.41274160376E+03 -0.12580297297E+03  0.44621085092E+03  0.12699999809E+01 0. -1.
       -4    1    3    3    0  502 -0.11366833817E+03  0.41274160376E+03  0.41874063513E+03  0.59885011062E+03  0.12699999809E+01 0.  1.
</event>
<event>
 5   0  0.6967681E-03  0.9948348E+03  0.7818609E-02  0.9314228E-01
        1   -1    0    0  501    0  0.00000000000E+00  0.00000000000E+00  0.10752257607E+04  0.10752257607E+04  0.50400001928E-02 0.  1.
       -1   -1    0    0    0  501  0.00000000000E+00  0.00000000000E+00 -0.23011358360E+03  0.23011358366E+03  0.50400001928E-02 0. -1.
    10030    2    1    2    0    0  0.00000000000E+00  0.00000000000E+00  0.84511217707E+03  0.13053393443E+04  0.99483476621E+03 0.  0.
        5    1    3    3  502    0 -0.37097860603E+03  0.27780467882E+03  0.65947001010E+03  0.80605418548E+03  0.46999998093E+01 0. -1.
       -5    1    3    3    0  502  0.37097860603E+03 -0.27780467882E+03  0.18564216697E+03  0.49928515886E+03  0.46999998093E+01 0.  1.
</event>
<event>
 5   0  0.1221315E-02  0.1002706E+04  0.7818609E-02  0.9305582E-01
       -2   -1    0    0    0  501  0.00000000000E+00  0.00000000000E+00  0.83446960830E+03  0.83446960830E+03  0.25500000920E-02 0.  1.
        2   -1    0    0  501    0  0.00000000000E+00  0.00000000000E+00 -0.30121510150E+03  0.30121510151E+03  0.25500000920E-02 0. -1.
    10030    2    1    2    0    0  0.00000000000E+00  0.00000000000E+00  0.53325450680E+03  0.11356847098E+04  0.10027060342E+04 0.  0.
        5    1    3    3  502    0 -0.38374138879E+03  0.24059897667E+03  0.51004154903E+03  0.68213619812E+03  0.46999998093E+01 0.  1.
       -5    1    3    3    0  502  0.38374138879E+03 -0.24059897667E+03  0.23212957770E+02  0.45354851169E+03  0.46999998093E+01 0. -1.
</event>
<event>
 5   0  0.1216322E-02  0.1005953E+04  0.7818609E-02  0.9302040E-01
        2   -1    0    0  501    0  0.00000000000E+00  0.00000000000E+00  0.11452062503E+04  0.11452062503E+04  0.25500000920E-02 0. -1.
       -2   -1    0    0    0  501  0.00000000000E+00  0.00000000000E+00 -0.22090798217E+03  0.22090798219E+03  0.25500000920E-02 0.  1.
    10030    2    1    2    0    0  0.00000000000E+00  0.00000000000E+00  0.92429826815E+03  0.13661142325E+04  0.10059526866E+04 0.  0.
        2    1    3    3  502    0  0.21510326931E+03 -0.43937804260E+03  0.30341217239E+03  0.57565738695E+03  0.25500000920E-02 0. -1.
       -2    1    3    3    0  502 -0.21510326931E+03  0.43937804260E+03  0.62088609576E+03  0.79045684557E+03  0.25500000920E-02 0.  1.
</event>
<event>
 5   0  0.1245850E-02  0.9564143E+03  0.7818609E-02  0.9357684E-01
        2   -1    0    0  501    0  0.00000000000E+00  0.00000000000E+00  0.13746131203E+03  0.13746131206E+03  0.25500000920E-02 0.  1.
       -2   -1    0    0    0  501  0.00000000000E+00  0.00000000000E+00 -0.16636106032E+04  0.16636106032E+04  0.25500000920E-02 0. -1.
    10030    2    1    2    0    0  0.00000000000E+00  0.00000000000E+00 -0.15261492911E+04  0.18010719152E+04  0.95641433750E+03 0.  0.
        3    1    3    3  502    0  0.37568645906E+03  0.88491366216E+02 -0.12947471943E+04  0.13510519401E+04  0.10100000352E+00 0. -1.
       -3    1    3    3    0  502 -0.37568645906E+03 -0.88491366216E+02 -0.23140209682E+03  0.45001997515E+03  0.10100000352E+00 0.  1.
</event>
<event>
 5   0  0.7073004E-03  0.9641606E+03  0.7818609E-02  0.9348750E-01
       -1   -1    0    0    0  501  0.00000000000E+00  0.00000000000E+00  0.51900744722E+03  0.51900744725E+03  0.50400001928E-02 0. -1.
        1   -1    0    0  501    0  0.00000000000E+00  0.00000000000E+00 -0.44778051085E+03  0.44778051088E+03  0.50400001928E-02 0.  1.
    10030    2    1    2    0    0  0.00000000000E+00  0.00000000000E+00  0.71226936372E+02  0.96678795812E+03  0.96416060877E+03 0.  0.
        1    1    3    3  502    0 -0.26559894247E+03 -0.39898853388E+03 -0.16168046040E+02  0.47957903848E+03  0.50400001928E-02 0. -1.
       -1    1    3    3    0  502  0.26559894247E+03  0.39898853388E+03  0.87394982412E+02  0.48720891965E+03  0.50400001928E-02 0.  1.
</event>
<event>
 5   0  0.1245850E-02  0.1018310E+04  0.7818609E-02  0.9288687E-01
       -2   -1    0    0    0  501  0.00000000000E+00  0.00000000000E+00  0.19671104689E+03  0.19671104691E+03  0.25500000920E-02 0. -1.
        2   -1    0    0  501    0  0.00000000000E+00  0.00000000000E+00 -0.13178670726E+04  0.13178670726E+04  0.25500000920E-02 0.  1.
    10030    2    1    2    0    0  0.00000000000E+00  0.00000000000E+00 -0.11211560257E+04  0.15145781195E+04  0.10183103879E+04 0.  0.
        3    1    3    3  502    0 -0.15776918021E+03  0.47544819008E+03 -0.69605626351E+03  0.85757590210E+03  0.10100000352E+00 0. -1.
       -3    1    3    3    0  502  0.15776918021E+03 -0.47544819008E+03 -0.42509976221E+03  0.65700221743E+03  0.10100000352E+00 0.  1.
</event>
<event>
 5   0  0.1221315E-02  0.1005324E+04  0.7818609E-02  0.9302724E-01
        2   -1    0    0  501    0  0.00000000000E+00  0.00000000000E+00  0.53846016169E+03  0.53846016170E+03  0.25500000920E-02 0.  1.
       -2   -1    0    0    0  501  0.00000000000E+00  0.00000000000E+00 -0.46924422186E+03  0.46924422187E+03  0.25500000920E-02 0. -1.
    10030    2    1    2    0    0  0.00000000000E+00  0.00000000000E+00  0.69215939833E+02  0.10077043836E+04  0.10053244642E+04 0.  0.
        5    1    3    3  502    0  0.43565479127E+03 -0.24903602219E+03  0.63541369347E+02  0.50583953298E+03  0.46999998093E+01 0.  1.
       -5    1    3    3    0  502 -0.43565479127E+03  0.24903602219E+03  0.56745704862E+01  0.50186485059E+03  0.46999998093E+01 0. -1.
</event>
<event>
 5   0  0.7073004E-03  0.1000965E+04  0.7818609E-02  0.9307487E-01
        1   -1    0    0  501    0  0.00000000000E+00  0.00000000000E+00  0.10843488387E+04  0.10843488387E+04  0.50400001928E-02 0.  1.
       -1   -1    0    0    0  501  0.00000000000E+00  0.00000000000E+00 -0.23099847590E+03  0.23099847596E+03  0.50400001928E-02 0. -1.
    10030    2    1    2    0    0  0.00000000000E+00  0.00000000000E+00  0.85335036283E+03  0.13153473147E+04  0.10009653923E+04 0.  0.
        1    1    3    3  502    0  0.97157848245E+02 -0.20826909710E+03 -0.15756141377E+03  0.27864181922E+03  0.50400001928E-02 0. -1.
       -1    1    3    3    0  502 -0.97157848245E+02  0.20826909710E+03  0.10109117766E+04  0.10367054955E+04  0.50400001928E-02 0.  1.
</event>
<event>
 5   0  0.7461157E-03  0.9814709E+03  0.7818609E-02  0.9329104E-01
       -1   -1    0    0    0  501  0.00000000000E+00  0.00000000000E+00  0.15233829472E+03  0.15233829481E+03  0.50400001928E-02 0.  1.
        1   -1    0    0  501    0  0.00000000000E+00  0.00000000000E+00 -0.15808321476E+04  0.15808321476E+04  0.50400001928E-02 0. -1.
    10030    2    1    2    0    0  0.00000000000E+00  0.00000000000E+00 -0.14284938528E+04  0.17331704424E+04  0.98147088329E+03 0.  0.
        2    1    3    3  502    0 -0.14034232703E+03 -0.11737409145E+03  0.89861172535E+02  0.20383247150E+03  0.25500000920E-02 0.  1.
       -2    1    3    3    0  502  0.14034232703E+03  0.11737409145E+03 -0.15183550254E+04  0.15293379709E+04  0.25500000920E-02 0. -1.
</event>
<event>
 5   0  0.1191822E-02  0.1032453E+04  0.7818609E-02  0.9273650E-01
        2   -1    0    0  501    0  0.00000000000E+00  0.00000000000E+00  0.17869307426E+04  0.17869307426E+04  0.25500000920E-02 0. -1.
       -2   -1    0    0    0  501  0.00000000000E+00  0.00000000000E+00 -0.14913280197E+03  0.14913280199E+03  0.25500000920E-02 0.  1.
    10030    2    1    2    0    0  0.00000000000E+00  0.00000000000E+00  0.16377979406E+04  0.19360635445E+04  0.10324533667E+04 0.  0.
        4    1    3    3  502    0 -0.23775005281E+03  0.15511276428E+03  0.10375309520E+02  0.28406745186E+03  0.12699999809E+01 0.  1.
       -4    1    3    3    0  502  0.23775005281E+03 -0.15511276428E+03  0.16274226311E+04  0.16519960927E+04  0.12699999809E+01 0. -1.
</event>
<event>
 5   0  0.1191822E-02  0.1062355E+04  0.7818609E-02  0.9242680E-01
        2   -1    0    0  501    0  0.00000000000E+00  0.00000000000E+00  0.63647279015E+03  0.63647279016E+03  0.25500000920E-02 0. -1.
       -2   -1    0    0    0  501  0.00000000000E+00  0.00000000000E+00 -0.44330213848E+03  0.44330213849E+03  0.25500000920E-02 0.  1.
    10030    2    1    2    0    0  0.00000000000E+00  0.00000000000E+00  0.19317065167E+03  0.10797749286E+04  0.10623554000E+04 0.  0.
        4    1    3    3  502    0 -0.52985013436E+03 -0.33649585464E+02  0.79740201289E+02  0.53687388844E+03  0.12699999809E+01 0. -1.
       -4    1    3    3    0  502  0.52985013436E+03  0.33649585464E+02  0.11343045039E+03  0.54290104021E+03  0.12699999809E+01 0.  1.
</event>
<event>
 5   0  0.1216322E-02  0.9885348E+03  0.7818609E-02  0.9321210E-01
        2   -1    0    0  501    0  0.00000000000E+00  0.00000000000E+00  0.11519963314E+04  0.11519963314E+04  0.25500000920E-02 0. -1.
       -2   -1    0    0    0  501  0.00000000000E+00  0.00000000000E+00 -0.21206685425E+03  0.21206685427E+03  0.25500000920E-02 0.  1.
    10030    2    1    2    0    0  0.00000000000E+00  0.00000000000E+00  0.93992947716E+03  0.13640631857E+04  0.98853475028E+03 0.  0.
        2    1    3    3  502    0  0.34623037472E+03 -0.77204560499E+02 -0.49724201125E+01  0.35476857458E+03  0.25500000920E-02 0.  1.
       -2    1    3    3    0  502 -0.34623037472E+03  0.77204560499E+02  0.94490189727E+03  0.10092946111E+04  0.25500000920E-02 0. -1.
</event>
<event>
 5   0  0.1240503E-02  0.1005321E+04  0.7818609E-02  0.9302728E-01
        2   -1    0    0  501    0  0.00000000000E+00  0.00000000000E+00  0.72883771761E+03  0.72883771762E+03  0.25500000920E-02 0. -1.
       -2   -1    0    0    0  501  0.00000000000E+00  0.00000000000E+00 -0.34667181076E+03  0.34667181077E+03  0.25500000920E-02 0.  1.
    10030    2    1    2    0    0  0.00000000000E+00  0.00000000000E+00  0.38216590685E+03  0.10755095284E+04  0.10053208270E+04 0.  0.
        1    1    3    3  502    0 -0.30566955127E+02 -0.49258479059E+03  0.29309986510E+03  0.57400491776E+03  0.50400001928E-02 0. -1.
       -1    1    3    3    0  502  0.30566955127E+02  0.49258479059E+03  0.89066041752E+02  0.50150461063E+03  0.50400001928E-02 0.  1.
</event>
<event>
 5   0  0.1191822E-02  0.7188920E+03  0.7818609E-02  0.9685459E-01
        2   -1    0    0  501    0  0.00000000000E+00  0.00000000000E+00  0.15509755871E+04  0.15509755871E+04  0.25500000920E-02 0.  1.
       -2   -1    0    0    0  501  0.00000000000E+00  0.00000000000E+00 -0.83303316201E+02  0.83303316240E+02  0.25500000920E-02 0. -1.
    10030    2    1    2    0    0  0.00000000000E+00  0.00000000000E+00  0.14676722709E+04  0.16342789033E+04  0.71889195235E+03 0.  0.
        4    1    3    3  502    0 -0.25323012778E+03 -0.13109297701E+03  0.23635098457E+03  0.37037044570E+03  0.12699999809E+01 0. -1.
       -4    1    3    3    0  502  0.25323012778E+03  0.13109297701E+03  0.12313212863E+04  0.12639084576E+04  0.12699999809E+01 0.  1.
</event>
<event>
 5   0  0.1245850E-02  0.1088071E+04  0.7818609E-02  0.9216897E-01
       -2   -1    0    0    0  501  0.00000000000E+00  0.00000000000E+00  0.10383345269E+04  0.10383345269E+04  0.25500000920E-02 0.  1.
        2   -1    0    0  501    0  0.00000000000E+00  0.00000000000E+00 -0.28504757543E+03  0.28504757544E+03  0.25500000920E-02 0. -1.
    10030    2    1    2    0    0  0.00000000000E+00  0.00000000000E+00  0.75328695150E+03  0.13233821024E+04  0.10880712098E+04 0.  0.
        3    1    3    3  502    0 -0.37625644908E+03 -0.39090865154E+03  0.32805010615E+03  0.63403104945E+03  0.10100000352E+00 0. -1.
       -3    1    3    3    0  502  0.37625644908E+03  0.39090865154E+03  0.42523684535E+03  0.68935105293E+03  0.10100000352E+00 0.  1.
</event>
<event>
 5   0  0.7073004E-03  0.1038975E+04  0.7818609E-02  0.9266801E-01
        1   -1    0    0  501    0  0.00000000000E+00  0.00000000000E+00  0.49780221772E+03  0.49780221774E+03  0.50400001928E-02 0.  1.
       -1   -1    0    0    0  501  0.00000000000E+00  0.00000000000E+00 -0.54211740394E+03  0.54211740397E+03  0.50400001928E-02 0. -1.
    10030    2    1    2    0    0  0.00000000000E+00  0.00000000000E+00 -0.44315186229E+02  0.10399196217E+04  0.10389749679E+04 0.  0.
        1    1    3    3  502    0 -0.28225803062E+03 -0.27689947776E+03 -0.35939765551E+03  0.53433097556E+03  0.50400001928E-02 0. -1.
       -1    1    3    3    0  502  0.28225803062E+03  0.27689947776E+03  0.31508246928E+03  0.50558864614E+03  0.50400001928E-02 0.  1.
</event>
<event>
 5   0  0.7073004E-03  0.1002208E+04  0.7818609E-02  0.9306126E-01
       -1   -1    0    0    0  501  0.00000000000E+00  0.00000000000E+00  0.48024778553E+03  0.48024778556E+03  0.50400001928E-02 0.  1.
        1   -1    0    0  501    0  0.00000000000E+00  0.00000000000E+00 -0.52286597391E+03  0.52286597393E+03  0.50400001928E-02 0. -1.
    10030    2    1    2    0    0  0.00000000000E+00  0.00000000000E+00 -0.42618188378E+02  0.10031137595E+04  0.10022080146E+04 0.  0.
        1    1    3    3  502    0  0.21327109926E+03  0.44471353271E+03  0.67374243573E+02  0.49778908854E+03  0.50400001928E-02 0.  1.
       -1    1    3    3    0  502 -0.21327109926E+03 -0.44471353271E+03 -0.10999243195E+03  0.50532467094E+03  0.50400001928E-02 0. -1.
</event>
<event>
 5   0  0.7241200E-03  0.1062397E+04  0.7818609E-02  0.9242638E-01
       -1   -1    0    0    0  501  0.00000000000E+00  0.00000000000E+00  0.77205038366E+03  0.77205038368E+03  0.50400001928E-02 0.  1.
        1   -1    0    0  501    0  0.00000000000E+00  0.00000000000E+00 -0.36548356241E+03  0.36548356245E+03  0.50400001928E-02 0. -1.
    10030    2    1    2    0    0  0.00000000000E+00  0.00000000000E+00  0.40656682125E+03  0.11375339461E+04  0.10623967707E+04 0.  0.
        4    1    3    3  502    0 -0.19858104521E+03  0.37532990827E+03 -0.13844898712E+03  0.44662815238E+03  0.12699999809E+01 0. -1.
       -4    1    3    3    0  502  0.19858104521E+03 -0.37532990827E+03  0.54501580837E+03  0.69090579375E+03  0.12699999809E+01 0.  1.
</event>
<event>
 5   0  0.7073004E-03  0.1008366E+04  0.7818609E-02  0.9299417E-01
       -1   -1    0    0    0  501  0.00000000000E+00  0.00000000000E+00  0.20950765072E+03  0.20950765078E+03  0.50400001928E-02 0.  1.
        1   -1    0    0  501    0  0.00000000000E+00  0.00000000000E+00 -0.12133221364E+04  0.12133221364E+04  0.50400001928E-02 0. -1.
    10030    2    1    2    0    0  0.00000000000E+00  0.00000000000E+00 -0.10038144856E+04  0.14228297872E+04  0.10083655496E+04 0.  0.
        1    1    3    3  502    0  0.88347449043E+02 -0.48554463563E+03 -0.64746469463E+03  0.81410650149E+03  0.50400001928E-02 0.  1.
       -1    1    3    3    0  502 -0.88347449043E+02  0.48554463563E+03 -0.35634979101E+03  0.60872328567E+03  0.50400001928E-02 0. -1.
</event>
<event>
 5   0  0.1240503E-02  0.9646454E+03  0.7818609E-02  0.9348194E-01
        2   -1    0    0  501    0  0.00000000000E+00  0.00000000000E+00  0.23522766685E+03  0.23522766686E+03  0.25500000920E-02 0. -1.
       -2   -1    0    0    0  501  0.00000000000E+00  0.00000000000E+00 -0.98897888503E+03  0.98897888503E+03  0.25500000920E-02 0.  1.
    10030    2    1    2    0    0  0.00000000000E+00  0.00000000000E+00 -0.75375121817E+03  0.12242065519E+04  0.96464541817E+03 0.  0.
        1    1    3    3  502    0  0.36692055283E+03 -0.31190583735E+03 -0.41091075349E+03  0.63305891576E+03  0.50400001928E-02 0.  1.
       -1    1    3    3    0  502 -0.36692055283E+03  0.31190583735E+03 -0.34284046469E+03  0.59114763614E+03  0.50400001928E-02 0. -1.
</event>
<event>
 5   0  0.1191822E-02  0.1007194E+04  0.7818609E-02  0.9300689E-01
       -2   -1    0    0    0  501  0.00000000000E+00  0.00000000000E+00  0.13769748780E+03  0.13769748782E+03  0.25500000920E-02 0.  1.
        2   -1    0    0  501    0  0.00000000000E+00  0.00000000000E+00 -0.18417920119E+04  0.18417920119E+04  0.25500000920E-02 0. -1.
    10030    2    1    2    0    0  0.00000000000E+00  0.00000000000E+00 -0.17040945241E+04  0.19794894997E+04  0.10071943866E+04 0.  0.
        4    1    3    3  502    0  0.64103078317E+00  0.35566565819E+03 -0.15527436013E+04  0.15929572422E+04  0.12699999809E+01 0. -1.
       -4    1    3    3    0  502 -0.64103078317E+00 -0.35566565819E+03 -0.15135092280E+03  0.38653225748E+03  0.12699999809E+01 0.  1.
</event>
<event>
 5   0  0.1216322E-02  0.1016092E+04  0.7818609E-02  0.9291070E-01
        2   -1    0    0  501    0  0.00000000000E+00  0.00000000000E+00  0.92259589203E+03  0.92259589204E+03  0.25500000920E-02 0. -1.
       -2   -1    0    0    0  501  0.00000000000E+00  0.00000000000E+00 -0.27976553679E+03  0.27976553680E+03  0.25500000920E-02 0.  1.
    10030    2    1    2    0    0  0.00000000000E+00  0.00000000000E+00  0.64283035525E+03  0.12023614288E+04  0.10160916002E+04 0.  0.
        2    1    3    3  502    0 -0.37431122099E+03  0.21561759834E+03  0.63785248291E+03  0.77036071345E+03  0.25500000920E-02 0.  1.
       -2    1    3    3    0  502  0.37431122099E+03 -0.21561759834E+03  0.49778723404E+01  0.43200071539E+03  0.25500000920E-02 0. -1.
</event>
<event>
 5   0  0.6967681E-03  0.9760902E+03  0.7818609E-02  0.9335165E-01
        1   -1    0    0  501    0  0.00000000000E+00  0.00000000000E+00  0.11081528634E+04  0.11081528635E+04  0.50400001928E-02 0.  1.
       -1   -1    0    0    0  501  0.00000000000E+00  0.00000000000E+00 -0.21494146577E+03  0.21494146583E+03  0.50400001928E-02 0. -1.
    10030    2    1    2    0    0  0.00000000000E+00  0.00000000000E+00  0.89321139767E+03  0.13230943293E+04  0.97609016144E+03 0.  0.
        5    1    3    3  502    0 -0.78866841097E+02 -0.29152365863E+02 -0.20501842564E+03  0.22164043835E+03  0.46999998093E+01 0. -1.
       -5    1    3    3    0  502  0.78866841097E+02  0.29152365863E+02  0.10982298233E+04  0.11014538909E+04  0.46999998093E+01 0.  1.
</event>
<event>
 5   0  0.7224879E-03  0.9870249E+03  0.7818609E-02  0.9322891E-01
        1   -1    0    0  501    0  0.00000000000E+00  0.00000000000E+00  0.37567566130E+03  0.37567566134E+03  0.50400001928E-02 0. -1.
       -1   -1    0    0    0  501  0.00000000000E+00  0.00000000000E+00 -0.64831066038E+03  0.64831066040E+03  0.50400001928E-02 0.  1.
    10030    2    1    2    0    0  0.00000000000E+00  0.00000000000E+00 -0.27263499908E+03  0.10239863217E+04  0.98702489552E+03 0.  0.
        3    1    3    3  502    0  0.19949050900E+03 -0.42306832259E+03 -0.29960016161E+03  0.55546695293E+03  0.10100000352E+00 0.  1.
       -3    1    3    3    0  502 -0.19949050900E+03  0.42306832259E+03  0.26965162533E+02  0.46851936881E+03  0.10100000352E+00 0. -1.
</event>
<event>
 5   0  0.1240503E-02  0.9980471E+03  0.7818609E-02  0.9310689E-01
        2   -1    0    0  501    0  0.00000000000E+00  0.00000000000E+00  0.71714741632E+03  0.71714741633E+03  0.25500000920E-02 0. -1.
       -2   -1    0    0    0  501  0.00000000000E+00  0.00000000000E+00 -0.34724311252E+03  0.34724311253E+03  0.25500000920E-02 0.  1.
    10030    2    1    2    0    0  0.00000000000E+00  0.00000000000E+00  0.36990430381E+03  0.10643905289E+04  0.99804709505E+03 0.  0.
        1    1    3    3  502    0  0.25562700577E+03 -0.51042853979E+02 -0.26886193069E+03  0.37448267893E+03  0.50400001928E-02 0.  1.
       -1    1    3    3    0  502 -0.25562700577E+03  0.51042853979E+02  0.63876623450E+03  0.68990784992E+03  0.50400001928E-02 0. -1.
</event>
<event>
 5   0  0.7241200E-03  0.9689657E+03  0.7818609E-02  0.9343253E-01
        1   -1    0    0  501    0  0.00000000000E+00  0.00000000000E+00  0.31553637921E+03  0.31553637925E+03  0.50400001928E-02 0.  1.
       -1   -1    0    0    0  501  0.00000000000E+00  0.00000000000E+00 -0.74388771632E+03  0.74388771634E+03  0.50400001928E-02 0. -1.
    10030    2    1    2    0    0  0.00000000000E+00  0.00000000000E+00 -0.42835133711E+03  0.10594240956E+04  0.96896570957E+03 0.  0.
        4    1    3    3  502    0  0.45608254586E+03 -0.16236876963E+03 -0.19380525672E+03  0.52147578700E+03  0.12699999809E+01 0. -1.
       -4    1    3    3    0  502 -0.45608254586E+03  0.16236876963E+03 -0.23454608038E+03  0.53794830859E+03  0.12699999809E+01 0.  1.
</event>
<event>
 5   0  0.7224879E-03  0.1003215E+04  0.7818609E-02  0.9305025E-01
       -1   -1    0    0    0  501  0.00000000000E+00  0.00000000000E+00  0.71473550747E+03  0.71473550749E+03  0.50400001928E-02 0.  1.
        1   -1    0    0  501    0  0.00000000000E+00  0.00000000000E+00 -0.35203259436E+03  0.35203259440E+03  0.50400001928E-02 0. -1.
    10030    2    1    2    0    0  0.00000000000E+00  0.00000000000E+00  0.36270291311E+03  0.10667681019E+04  0.10032152212E+04 0.  0.
        3    1    3    3  502    0 -0.24435481095E+03 -0.36062920611E+03 -0.83094503575E+02  0.44347198858E+03  0.10100000352E+00 0. -1.
       -3    1    3    3    0  502  0.24435481095E+03  0.36062920611E+03  0.44579741668E+03  0.62329611330E+03  0.10100000352E+00 0.  1.
</event>
<event>
 5   0  0.7073004E-03  0.9977273E+03  0.7818609E-02  0.9311041E-01
        1   -1    0    0  501    0  0.00000000000E+00  0.00000000000E+00  0.14741980354E+04  0.14741980354E+04  0.50400001928E-02 0. -1.
       -1   -1    0    0    0  501  0.00000000000E+00  0.00000000000E+00 -0.16881378973E+03  0.16881378981E+03  0.50400001928E-02 0.  1.
    10030    2    1    2    0    0  0.00000000000E+00  0.00000000000E+00  0.13053842456E+04  0.16430118252E+04  0.99772733196E+03 0.  0.
        1    1    3    3  502    0  0.84447429065E+02 -0.45863405928E+03  0.94444377894E+03  0.10533046189E+04  0.50400001928E-02 0. -1.
       -1    1    3    3    0  502 -0.84447429065E+02  0.45863405928E+03  0.36094046670E+03  0.58970720628E+03  0.50400001928E-02 0.  1.
</event>
<event>
 5   0  0.4782125E-03  0.1011954E+04  0.7818609E-02  0.9295530E-01
       -3   -1    0    0    0  501  0.00000000000E+00  0.00000000000E+00  0.34337572036E+03  0.34337573521E+03  0.10100000352E+00 0. -1.
        3   -1    0    0  501    0  0.00000000000E+00  0.00000000000E+00 -0.74557592395E+03  0.74557593080E+03  0.10100000352E+00 0.  1.
    10030    2    1    2    0    0  0.00000000000E+00  0.00000000000E+00 -0.40220020360E+03  0.10889516660E+04  0.10119539155E+04 0.  0.
        3    1    3    3  502    0 -0.34034985424E+03  0.17521896966E+03  0.15494195478E+03  0.41297303805E+03  0.10100000352E+00 0. -1.
       -3    1    3    3    0  502  0.34034985424E+03 -0.17521896966E+03 -0.55714215838E+03  0.67597862795E+03  0.10100000352E+00 0.  1.
</event>
<event>
 5   0  0.6967681E-03  0.9937595E+03  0.7818609E-02  0.9315416E-01
        1   -1    0    0  501    0  0.00000000000E+00  0.00000000000E+00  0.32280256847E+03  0.32280256851E+03  0.50400001928E-02 0.  1.
       -1   -1    0    0    0  501  0.00000000000E+00  0.00000000000E+00 -0.76483129794E+03  0.76483129796E+03  0.50400001928E-02 0. -1.
    10030    2    1    2    0    0  0.00000000000E+00  0.00000000000E+00 -0.44202872947E+03  0.10876338665E+04  0.99375954326E+03 0.  0.
        5    1    3    3  502    0 -0.25903168036E+03 -0.31650847090E+03  0.87757125116E+02  0.41832813267E+03  0.46999998093E+01 0.  1.
       -5    1    3    3    0  502  0.25903168036E+03  0.31650847090E+03 -0.52978585459E+03  0.66930573380E+03  0.46999998093E+01 0. -1.
</event>
<event>
 5   0  0.7224879E-03  0.9839898E+03  0.7818609E-02  0.9326281E-01
       -1   -1    0    0    0  501  0.00000000000E+00  0.00000000000E+00  0.20643969218E+03  0.20643969225E+03  0.50400001928E-02 0.  1.
        1   -1    0    0  501    0  0.00000000000E+00  0.00000000000E+00 -0.11725408292E+04  0.11725408292E+04  0.50400001928E-02 0. -1.
    10030    2    1    2    0    0  0.00000000000E+00  0.00000000000E+00 -0.96610113705E+03  0.13789805215E+04  0.98398977212E+03 0.  0.
        3    1    3    3  502    0 -0.19343209678E+03 -0.32960049257E+03 -0.91727860340E+03  0.99370644922E+03  0.10100000352E+00 0. -1.
       -3    1    3    3    0  502  0.19343209678E+03  0.32960049257E+03 -0.48822533649E+02  0.38527407227E+03  0.10100000352E+00 0.  1.
</event>
<event>
 5   0  0.1191822E-02  0.1003388E+04  0.7818609E-02  0.9304837E-01
        2   -1    0    0  501    0  0.00000000000E+00  0.00000000000E+00  0.18505918018E+04  0.18505918018E+04  0.25500000920E-02 0.  1.
       -2   -1    0    0    0  501  0.00000000000E+00  0.00000000000E+00 -0.13600885134E+03  0.13600885137E+03  0.25500000920E-02 0. -1.
    10030    2    1    2    0    0  0.00000000000E+00  0.00000000000E+00  0.17145829504E+04  0.19866006532E+04  0.10033879913E+04 0.  0.
        4    1    3    3  502    0 -0.29002928972E+03 -0.27769737749E+03  0.26179965578E+03  0.47934694640E+03  0.12699999809E+01 0. -1.
       -4    1    3    3    0  502  0.29002928972E+03  0.27769737749E+03  0.14527832947E+04  0.15072537068E+04  0.12699999809E+01 0.  1.
</event>
<event>
 5   0  0.1240503E-02  0.9920287E+03  0.7818609E-02  0.9317331E-01
       -2   -1    0    0    0  501  0.00000000000E+00  0.00000000000E+00  0.40646993515E+03  0.40646993515E+03  0.25500000920E-02 0.  1.
        2   -1    0    0  501    0  0.00000000000E+00  0.00000000000E+00 -0.60528520880E+03  0.60528520881E+03  0.25500000920E-02 0. -1.
    10030    2    1    2    0    0  0.00000000000E+00  0.00000000000E+00 -0.19881527366E+03  0.10117551440E+04  0.99202870840E+03 0.  0.
        1    1    3    3  502    0  0.22915680616E+03 -0.43932374170E+03 -0.76329199475E+02  0.50134253614E+03  0.50400001928E-02 0. -1.
       -1    1    3    3    0  502 -0.22915680616E+03  0.43932374170E+03 -0.12248607418E+03  0.51041260782E+03  0.50400001928E-02 0.  1.
</event>
<event>
 5   0  0.7241200E-03  0.9965418E+03  0.7818609E-02  0.9312346E-01
        1   -1    0    0  501    0  0.00000000000E+00  0.00000000000E+00  0.39500429220E+03  0.39500429223E+03  0.50400001928E-02 0. -1.
       -1   -1    0    0    0  501  0.00000000000E+00  0.00000000000E+00 -0.62853471249E+03  0.62853471251E+03  0.50400001928E-02 0.  1.
    10030    2    1    2    0    0  0.00000000000E+00  0.00000000000E+00 -0.23353042029E+03  0.10235390047E+04  0.99654183908E+03 0.  0.
        4    1    3    3  502    0 -0.48004778590E+03 -0.87767489469E+02 -0.22010549249E+03  0.53534759706E+03  0.12699999809E+01 0.  1.
       -4    1    3    3    0  502  0.48004778590E+03  0.87767489469E+02 -0.13424927800E+02  0.48819140769E+03  0.12699999809E+01 0. -1.
</event>
<event>
 5   0  0.1221315E-02  0.9978042E+03  0.7818609E-02  0.9310956E-01
        2   -1    0    0  501    0  0.00000000000E+00  0.00000000000E+00  0.99451595595E+03  0.99451595596E+03  0.25500000920E-02 0.  1.
       -2   -1    0    0    0  501  0.00000000000E+00  0.00000000000E+00 -0.25027583145E+03  0.25027583146E+03  0.25500000920E-02 0. -1.
    10030    2    1    2    0    0  0.00000000000E+00  0.00000000000E+00  0.74424012451E+03  0.12447917874E+04  0.99780420479E+03 0.  0.
        5    1    3    3  502    0 -0.14608712825E+03  0.94178198039E+02  0.95549292285E+03  0.97118473920E+03  0.46999998093E+01 0.  1.
       -5    1    3    3    0  502  0.14608712825E+03 -0.94178198039E+02 -0.21125279835E+03  0.27360704822E+03  0.46999998093E+01 0. -1.
</event>
<event>
 5   0  0.7241200E-03  0.1010538E+04  0.7818609E-02  0.9297061E-01
        1   -1    0    0  501    0  0.00000000000E+00  0.00000000000E+00  0.21587215273E+03  0.21587215279E+03  0.50400001928E-02 0.  1.
       -1   -1    0    0    0  501  0.00000000000E+00  0.00000000000E+00 -0.11826304930E+04  0.11826304930E+04  0.50400001928E-02 0. -1.
    10030    2    1    2    0    0  0.00000000000E+00  0.00000000000E+00 -0.96675834028E+03  0.13985026458E+04  0.10105384514E+04 0.  0.
        4    1    3    3  502    0 -0.24429279907E+03  0.40054357054E+03 -0.22380223122E+03  0.51981071091E+03  0.12699999809E+01 0.  1.
       -4    1    3    3    0  502  0.24429279907E+03 -0.40054357054E+03 -0.74295610905E+03  0.87869193490E+03  0.12699999809E+01 0. -1.
</event>
<event>
 5   0  0.7073004E-03  0.9441452E+03  0.7818609E-02  0.9372020E-01
        1   -1    0    0  501    0  0.00000000000E+00  0.00000000000E+00  0.84599381652E+03  0.84599381653E+03  0.50400001928E-02 0. -1.
       -1   -1    0    0    0  501  0.00000000000E+00  0.00000000000E+00 -0.26342101989E+03  0.26342101994E+03  0.50400001928E-02 0.  1.
    10030    2    1    2    0    0  0.00000000000E+00  0.00000000000E+00  0.58257279663E+03  0.11094148365E+04  0.94414523036E+03 0.  0.
        1    1    3    3  502    0  0.42631526340E+03 -0.12022085378E+03  0.99444770220E+02  0.45396808240E+03  0.50400001928E-02 0. -1.
       -1    1    3    3    0  502 -0.42631526340E+03  0.12022085378E+03  0.48312802641E+03  0.65544675407E+03  0.50400001928E-02 0.  1.
</event>
<event>
 5   0  0.7073004E-03  0.9986174E+03  0.7818609E-02  0.9310062E-01
       -1   -1    0    0    0  501  0.00000000000E+00  0.00000000000E+00  0.32212186961E+03  0.32212186965E+03  0.50400001928E-02 0. -1.
        1   -1    0    0  501    0  0.00000000000E+00  0.00000000000E+00 -0.77395923160E+03  0.77395923162E+03  0.50400001928E-02 0.  1.
    10030    2    1    2    0    0  0.00000000000E+00  0.00000000000E+00 -0.45183736199E+03  0.10960811013E+04  0.99861743368E+03 0.  0.
        1    1    3    3  502    0  0.12490225757E+03  0.16120564219E+03 -0.72616525900E+03  0.75425712885E+03  0.50400001928E-02 0.  1.
       -1    1    3    3    0  502 -0.12490225757E+03 -0.16120564219E+03  0.27432789700E+03  0.34182397242E+03  0.50400001928E-02 0. -1.
</event>
<event>
 5   0  0.7224879E-03  0.9953630E+03  0.7818609E-02  0.9313645E-01
        1   -1    0    0  501    0  0.00000000000E+00  0.00000000000E+00  0.14045148176E+04  0.14045148177E+04  0.50400001928E-02 0.  1.
       -1   -1    0    0    0  501  0.00000000000E+00  0.00000000000E+00 -0.17635050332E+03  0.17635050339E+03  0.50400001928E-02 0. -1.
    10030    2    1    2    0    0  0.00000000000E+00  0.00000000000E+00  0.12281643143E+04  0.15808653211E+04  0.99536303946E+03 0.  0.
        3    1    3    3  502    0 -0.73418128886E+02  0.27447396101E+03  0.12630460008E+04  0.12946085846E+04  0.10100000352E+00 0.  1.
       -3    1    3    3    0  502  0.73418128886E+02 -0.27447396101E+03 -0.34881686479E+02  0.28625673647E+03  0.10100000352E+00 0. -1.
</event>
<event>
 5   0  0.1221315E-02  0.1013174E+04  0.7818609E-02  0.9294213E-01
       -2   -1    0    0    0  501  0.00000000000E+00  0.00000000000E+00  0.11785101002E+04  0.11785101002E+04  0.25500000920E-02 0.  1.
        2   -1    0    0  501    0  0.00000000000E+00  0.00000000000E+00 -0.21775827748E+03  0.21775827750E+03  0.25500000920E-02 0. -1.
    10030    2    1    2    0    0  0.00000000000E+00  0.00000000000E+00  0.96075182274E+03  0.13962683777E+04  0.10131738833E+04 0.  0.
        5    1    3    3  502    0  0.20465762281E+02  0.39850309875E+03  0.50314753797E+02  0.40221540446E+03  0.46999998093E+01 0. -1.
       -5    1    3    3    0  502 -0.20465762281E+02 -0.39850309875E+03  0.91043706894E+03  0.99405297326E+03  0.46999998093E+01 0.  1.
</event>
<event>
 5   0  0.1240503E-02  0.1004301E+04  0.7818609E-02  0.9303840E-01
        2   -1    0    0  501    0  0.00000000000E+00  0.00000000000E+00  0.17487094350E+04  0.17487094350E+04  0.25500000920E-02 0. -1.
       -2   -1    0    0    0  501  0.00000000000E+00  0.00000000000E+00 -0.14419490125E+03  0.14419490127E+03  0.25500000920E-02 0.  1.
    10030    2    1    2    0    0  0.00000000000E+00  0.00000000000E+00  0.16045145338E+04  0.18929043363E+04  0.10043007206E+04 0.  0.
        1    1    3    3  502    0 -0.23107841386E+03  0.35725345679E+03  0.13049288462E+04  0.13725401850E+04  0.50400001928E-02 0. -1.
       -1    1    3    3    0  502  0.23107841386E+03 -0.35725345679E+03  0.29958568757E+03  0.52036415131E+03  0.50400001928E-02 0.  1.
</event>
<event>
 5   0  0.7241200E-03  0.1022302E+04  0.7818609E-02  0.9284417E-01
        1   -1    0    0  501    0  0.00000000000E+00  0.00000000000E+00  0.10282249005E+04  0.10282249005E+04  0.50400001928E-02 0. -1.
       -1   -1    0    0    0  501  0.00000000000E+00  0.00000000000E+00 -0.25410349789E+03  0.25410349794E+03  0.50400001928E-02 0.  1.
    10030    2    1    2    0    0  0.00000000000E+00  0.00000000000E+00  0.77412140262E+03  0.12823283985E+04  0.10223023895E+04 0.  0.
        4    1    3    3  502    0 -0.30351479864E+03  0.12289943857E+02 -0.12860157751E+03  0.32986702525E+03  0.12699999809E+01 0.  1.
       -4    1    3    3    0  502  0.30351479864E+03 -0.12289943857E+02  0.90272298014E+03  0.95246137322E+03  0.12699999809E+01 0. -1.
</event>
<event>
 5   0  0.7224879E-03  0.9400509E+03  0.7818609E-02  0.9376856E-01
       -1   -1    0    0    0  501  0.00000000000E+00  0.00000000000E+00  0.40415579513E+03  0.40415579516E+03  0.50400001928E-02 0. -1.
        1   -1    0    0  501    0  0.00000000000E+00  0.00000000000E+00 -0.54663062021E+03  0.54663062023E+03  0.50400001928E-02 0.  1.
    10030    2    1    2    0    0  0.00000000000E+00  0.00000000000E+00 -0.14247482508E+03  0.95078641539E+03  0.94005091985E+03 0.  0.
        3    1    3    3  502    0  0.14182234202E+03  0.39037663388E+03 -0.29378760291E+03  0.50874223218E+03  0.10100000352E+00 0.  1.
       -3    1    3    3    0  502 -0.14182234202E+03 -0.39037663388E+03  0.15131277782E+03  0.44204418321E+03  0.10100000352E+00 0. -1.
</event>
<event>
 5   0  0.1221315E-02  0.9959711E+03  0.7818609E-02  0.9312975E-01
        2   -1    0    0  501    0  0.00000000000E+00  0.00000000000E+00  0.34515287595E+03  0.34515287596E+03  0.25500000920E-02 0. -1.
       -2   -1    0    0    0  501  0.00000000000E+00  0.00000000000E+00 -0.71849206802E+03  0.71849206803E+03  0.25500000920E-02 0.  1.
    10030    2    1    2    0    0  0.00000000000E+00  0.00000000000E+00 -0.37333919207E+03  0.10636449440E+04  0.99597109122E+03 0.  0.
        5    1    3    3  502    0 -0.78139888580E+02  0.47345356630E+03 -0.32876439770E+03  0.58169772289E+03  0.46999998093E+01 0.  1.
       -5    1    3    3    0  502  0.78139888580E+02 -0.47345356630E+03 -0.44574794375E+02  0.48194722109E+03  0.46999998093E+01 0. -1.
</event>
<event>
 5   0  0.7224879E-03  0.9933501E+03  0.7818609E-02  0.9315869E-01
       -1   -1    0    0    0  501  0.00000000000E+00  0.00000000000E+00  0.62660533877E+03  0.62660533879E+03  0.50400001928E-02 0. -1.
        1   -1    0    0  501    0  0.00000000000E+00  0.00000000000E+00 -0.39368653213E+03  0.39368653216E+03  0.50400001928E-02 0.  1.
    10030    2    1    2    0    0  0.00000000000E+00  0.00000000000E+00  0.23291880664E+03  0.10202918710E+04  0.99335005484E+03 0.  0.
        3    1    3    3  502    0 -0.48553380975E+03 -0.40012838241E+02  0.21573470719E+03  0.53280914193E+03  0.10100000352E+00 0. -1.
       -3    1    3    3    0  502  0.48553380975E+03  0.40012838241E+02  0.17184099444E+02  0.48748272903E+03  0.10100000352E+00 0.  1.
</event>
<event>
 5   0  0.7073004E-03  0.1002604E+04  0.7818609E-02  0.9305693E-01
       -1   -1    0    0    0  501  0.00000000000E+00  0.00000000000E+00  0.60826954031E+03  0.60826954034E+03  0.50400001928E-02 0. -1.
        1   -1    0    0  501    0  0.00000000000E+00  0.00000000000E+00 -0.41314541684E+03  0.41314541687E+03  0.50400001928E-02 0.  1.
    10030    2    1    2    0    0  0.00000000000E+00  0.00000000000E+00  0.19512412348E+03  0.10214149572E+04  0.10026041548E+04 0.  0.
        1    1    3    3  502    0  0.12635105029E+03 -0.92600922545E+02 -0.38757003740E+03  0.41803116233E+03  0.50400001928E-02 0.  1.
       -1    1    3    3    0  502 -0.12635105029E+03  0.92600922545E+02  0.58269416088E+03  0.60338379487E+03  0.50400001928E-02 0. -1.
</event>
<event>
 5   0  0.1191822E-02  0.9917563E+03  0.7818609E-02  0.9317633E-01
        2   -1    0    0  501    0  0.00000000000E+00  0.00000000000E+00  0.87780416966E+03  0.87780416967E+03  0.25500000920E-02 0. -1.
       -2   -1    0    0    0  501  0.00000000000E+00  0.00000000000E+00 -0.28012529756E+03  0.28012529757E+03  0.25500000920E-02 0.  1.
    10030    2    1    2    0    0  0.00000000000E+00  0.00000000000E+00  0.59767887210E+03  0.11579294672E+04  0.99175632942E+03 0.  0.
        4    1    3    3  502    0 -0.21910866503E+03 -0.16975963496E+03 -0.18123218677E+03  0.33117013630E+03  0.12699999809E+01 0.  1.
       -4    1    3    3    0  502  0.21910866503E+03  0.16975963496E+03  0.77891105888E+03  0.82675933094E+03  0.12699999809E+01 0. -1.
</event>
<event>
 5   0  0.1216322E-02  0.1012892E+04  0.7818609E-02  0.9294517E-01
       -2   -1    0    0    0  501  0.00000000000E+00  0.00000000000E+00  0.13088276116E+03  0.13088276118E+03  0.25500000920E-02 0.  1.
        2   -1    0    0  501    0  0.00000000000E+00  0.00000000000E+00 -0.19596749729E+04  0.19596749729E+04  0.25500000920E-02 0. -1.
    10030    2    1    2    0    0  0.00000000000E+00  0.00000000000E+00 -0.18287922117E+04  0.20905577341E+04  0.10128922380E+04 0.  0.
        2    1    3    3  502    0 -0.44652550366E+03  0.23508385010E+03 -0.82590517126E+03  0.96786816970E+03  0.25500000920E-02 0. -1.
       -2    1    3    3    0  502  0.44652550366E+03 -0.23508385010E+03 -0.10028870405E+04  0.11226895644E+04  0.25500000920E-02 0.  1.
</event>
<event>
 5   0  0.7461157E-03  0.9974412E+03  0.7818609E-02  0.9311356E-01
       -1   -1    0    0    0  501  0.00000000000E+00  0.00000000000E+00  0.68479512415E+03  0.68479512416E+03  0.50400001928E-02 0. -1.
        1   -1    0    0  501    0  0.00000000000E+00  0.00000000000E+00 -0.36320680551E+03  0.36320680555E+03  0.50400001928E-02 0.  1.
    10030    2    1    2    0    0  0.00000000000E+00  0.00000000000E+00  0.32158831863E+03  0.10480019297E+04  0.99744122533E+03 0.  0.
        2    1    3    3  502    0  0.11302589450E+03  0.34254097594E+03  0.52265455470E+03  0.63504090937E+03  0.25500000920E-02 0. -1.
       -2    1    3    3    0  502 -0.11302589450E+03 -0.34254097594E+03 -0.20106623606E+03  0.41296102034E+03  0.25500000920E-02 0.  1.
</event>
<event>
 5   0  0.1216322E-02  0.9938642E+03  0.7818609E-02  0.9315300E-01
        2   -1    0    0  501    0  0.00000000000E+00  0.00000000000E+00  0.74412222914E+03  0.74412222915E+03  0.25500000920E-02 0.  1.
       -2   -1    0    0    0  501  0.00000000000E+00  0.00000000000E+00 -0.33185611560E+03  0.33185611561E+03  0.25500000920E-02 0. -1.
    10030    2    1    2    0    0  0.00000000000E+00  0.00000000000E+00  0.41226611355E+03  0.10759783448E+04  0.99386420099E+03 0.  0.
        2    1    3    3  502    0  0.47147559715E+03  0.15061237694E+03  0.25416271750E+03  0.55639196056E+03  0.25500000920E-02 0. -1.
       -2    1    3    3    0  502 -0.47147559715E+03 -0.15061237694E+03  0.15810339605E+03  0.51958638420E+03  0.25500000920E-02 0.  1.
</event>
<event>
 5   0  0.7461157E-03  0.1004771E+04  0.7818609E-02  0.9303328E-01
       -1   -1    0    0    0  501  0.00000000000E+00  0.00000000000E+00  0.26111078999E+03  0.26111079004E+03  0.50400001928E-02 0.  1.
        1   -1    0    0  501    0  0.00000000000E+00  0.00000000000E+00 -0.96660559520E+03  0.96660559521E+03  0.50400001928E-02 0. -1.
    10030    2    1    2    0    0  0.00000000000E+00  0.00000000000E+00 -0.70549480521E+03  0.12277163852E+04  0.10047709204E+04 0.  0.
        2    1    3    3  502    0 -0.38129508938E+03 -0.31479182854E+03 -0.46142879622E+03  0.67631085640E+03  0.25500000920E-02 0.  1.
       -2    1    3    3    0  502  0.38129508938E+03  0.31479182854E+03 -0.24406600898E+03  0.55140552885E+03  0.25500000920E-02 0. -1.
</event>
<event>
 5   0  0.4782125E-03  0.1001604E+04  0.7818609E-02  0.9306788E-01
        3   -1    0    0  501    0  0.00000000000E+00  0.00000000000E+00  0.40929436886E+03  0.40929438132E+03  0.10100000352E+00 0. -1.
       -3   -1    0    0    0  501  0.00000000000E+00  0.00000000000E+00 -0.61276791821E+03  0.61276792653E+03  0.10100000352E+00 0.  1.
    10030    2    1    2    0    0  0.00000000000E+00  0.00000000000E+00 -0.20347354935E+03  0.10220623079E+04  0.10016036521E+04 0.  0.
        2    1    3    3  502    0 -0.12737634231E+03  0.29089777876E+02  0.39159616695E+03  0.41281776334E+03  0.25500000920E-02 0. -1.
       -2    1    3    3    0  502  0.12737634231E+03 -0.29089777876E+02 -0.59506971630E+03  0.60924454451E+03  0.25500000920E-02 0.  1.
</event>
<event>
 5   0  0.7073004E-03  0.9966870E+03  0.7818609E-02  0.9312186E-01
        1   -1    0    0  501    0  0.00000000000E+00  0.00000000000E+00  0.95536349942E+03  0.95536349943E+03  0.50400001928E-02 0.  1.
       -1   -1    0    0    0  501  0.00000000000E+00  0.00000000000E+00 -0.25994948277E+03  0.25994948282E+03  0.50400001928E-02 0. -1.
    10030    2    1    2    0    0  0.00000000000E+00  0.00000000000E+00  0.69541401665E+03  0.12153129823E+04  0.99668700718E+03 0.  0.
        1    1    3    3  502    0 -0.11395918220E+02  0.43269781980E+03  0.46576320665E+02  0.43534655608E+03  0.50400001928E-02 0. -1.
       -1    1    3    3    0  502  0.11395918220E+02 -0.43269781980E+03  0.64883769598E+03  0.77996642618E+03  0.50400001928E-02 0.  1.
</event>
<event>
 5   0  0.1216322E-02  0.1015227E+04  0.7818609E-02  0.9292000E-01
        2   -1    0    0  501    0  0.00000000000E+00  0.00000000000E+00  0.20146092441E+04  0.20146092441E+04  0.25500000920E-02 0. -1.
       -2   -1    0    0    0  501  0.00000000000E+00  0.00000000000E+00 -0.12790148107E+03  0.12790148109E+03  0.25500000920E-02 0.  1.
    10030    2    1    2    0    0  0.00000000000E+00  0.00000000000E+00  0.18867077630E+04  0.21425107252E+04  0.10152270803E+04 0.  0.
        2    1    3    3  502    0 -0.77326027948E+02 -0.61228520125E+02  0.19941923538E+04  0.19966300084E+04  0.25500000920E-02 0. -1.
       -2    1    3    3    0  502  0.77326027948E+02  0.61228520125E+02 -0.10748459080E+03  0.14588071682E+03  0.25500000920E-02 0.  1.
</event>
<event>
 5   0  0.1191822E-02  0.1052301E+04  0.7818609E-02  0.9252971E-01
        2   -1    0    0  501    0  0.00000000000E+00  0.00000000000E+00  0.90133007820E+03  0.90133007820E+03  0.25500000920E-02 0. -1.
       -2   -1    0    0    0  501  0.00000000000E+00  0.00000000000E+00 -0.30714008345E+03  0.30714008346E+03  0.25500000920E-02 0.  1.
    10030    2    1    2    0    0  0.00000000000E+00  0.00000000000E+00  0.59418999475E+03  0.12084701617E+04  0.10523014691E+04 0.  0.
        4    1    3    3  502    0  0.20518544368E+03  0.29012799667E+03  0.74269705310E+03  0.82333216039E+03  0.12699999809E+01 0. -1.
       -4    1    3    3    0  502 -0.20518544368E+03 -0.29012799667E+03 -0.14850705835E+03  0.38513800128E+03  0.12699999809E+01 0.  1.
</event>
<event>
 5   0  0.1240503E-02  0.9975525E+03  0.7818609E-02  0.9311233E-01
       -2   -1    0    0    0  501  0.00000000000E+00  0.00000000000E+00  0.47790435966E+03  0.47790435966E+03  0.25500000920E-02 0. -1.
        2   -1    0    0  501    0  0.00000000000E+00  0.00000000000E+00 -0.52055965383E+03  0.52055965384E+03  0.25500000920E-02 0.  1.
    10030    2    1    2    0    0  0.00000000000E+00  0.00000000000E+00 -0.42655294178E+02  0.99846401350E+03  0.99755246085E+03 0.  0.
        1    1    3    3  502    0 -0.51230157776E+02 -0.22924543786E+03 -0.46172940514E+03  0.51804637191E+03  0.50400001928E-02 0.  1.
       -1    1    3    3    0  502  0.51230157776E+02  0.22924543786E+03  0.41907411097E+03  0.48041764159E+03  0.50400001928E-02 0. -1.
</event>
<event>
 5   0  0.1240503E-02  0.1045850E+04  0.7818609E-02  0.9259639E-01
        2   -1    0    0  501    0  0.00000000000E+00  0.00000000000E+00  0.10738330331E+04  0.10738330331E+04  0.25500000920E-02 0.  1.
       -2   -1    0    0    0  501  0.00000000000E+00  0.00000000000E+00 -0.25464904894E+03  0.25464904896E+03  0.25500000920E-02 0. -1.
    10030    2    1    2    0    0  0.00000000000E+00  0.00000000000E+00  0.81918398417E+03  0.13284820821E+04  0.10458500095E+04 0.  0.
        1    1    3    3  502    0  0.34972170769E+03  0.14117268211E+03 -0.50536332377E+02  0.38051139263E+03  0.50400001928E-02 0. -1.
       -1    1    3    3    0  502 -0.34972170769E+03 -0.14117268211E+03  0.86972031655E+03  0.94797068945E+03  0.50400001928E-02 0.  1.
</event>
<event>
 5   0  0.7461157E-03  0.9872003E+03  0.7818609E-02  0.9322696E-01
       -1   -1    0    0    0  501  0.00000000000E+00  0.00000000000E+00  0.95389934300E+02  0.95389934433E+02  0.50400001928E-02 0.  1.
        1   -1    0    0  501    0  0.00000000000E+00  0.00000000000E+00 -0.25541597071E+04  0.25541597071E+04  0.50400001928E-02 0. -1.
    10030    2    1    2    0    0  0.00000000000E+00  0.00000000000E+00 -0.24587697728E+04  0.26495496415E+04  0.98720033799E+03 0.  0.
        2    1    3    3  502    0 -0.44118017734E+03  0.21971946694E+03 -0.11571418339E+04  0.12577336033E+04  0.25500000920E-02 0. -1.
       -2    1    3    3    0  502  0.44118017734E+03 -0.21971946694E+03 -0.13016279388E+04  0.13918160382E+04  0.25500000920E-02 0.  1.
</event>
<event>
 5   0  0.4782125E-03  0.9879122E+03  0.7818609E-02  0.9321903E-01
        4   -1    0    0  501    0  0.00000000000E+00  0.00000000000E+00  0.37963915138E+03  0.37964127563E+03  0.12699999809E+01 0.  1.
       -4   -1    0    0    0  501  0.00000000000E+00  0.00000000000E+00 -0.64269161762E+03  0.64269287242E+03  0.12699999809E+01 0. -1.
    10030    2    1    2    0    0  0.00000000000E+00  0.00000000000E+00 -0.26305246624E+03  0.10223341481E+04  0.98791219765E+03 0.  0.
        4    1    3    3  502    0  0.62661774437E+02 -0.29797634603E+03  0.27096603898E+03  0.40760349354E+03  0.12699999809E+01 0.  1.
       -4    1    3    3    0  502 -0.62661774437E+02  0.29797634603E+03 -0.53401850522E+03  0.61473065451E+03  0.12699999809E+01 0. -1.
</event>
<event>
 5   0  0.1240503E-02  0.1034299E+04  0.7818609E-02  0.9271706E-01
        2   -1    0    0  501    0  0.00000000000E+00  0.00000000000E+00  0.15016995722E+04  0.15016995722E+04  0.25500000920E-02 0. -1.
       -2   -1    0    0    0  501  0.00000000000E+00  0.00000000000E+00 -0.17809397157E+03  0.17809397159E+03  0.25500000920E-02 0.  1.
    10030    2    1    2    0    0  0.00000000000E+00  0.00000000000E+00  0.13236056007E+04  0.16797935438E+04  0.10342990688E+04 0.  0.
        1    1    3    3  502    0 -0.71184639148E+02  0.41170491301E+03  0.16685403433E+03  0.44989827411E+03  0.50400001928E-02 0. -1.
       -1    1    3    3    0  502  0.71184639148E+02 -0.41170491301E+03  0.11567515663E+04  0.12298952697E+04  0.50400001928E-02 0.  1.
</event>
<event>
 5   0  0.1221315E-02  0.8969884E+03  0.7818609E-02  0.9429354E-01
       -2   -1    0    0    0  501  0.00000000000E+00  0.00000000000E+00  0.41783982241E+03  0.41783982242E+03  0.25500000920E-02 0. -1.
        2   -1    0    0  501    0  0.00000000000E+00  0.00000000000E+00 -0.48139745194E+03  0.48139745194E+03  0.25500000920E-02 0.  1.
    10030    2    1    2    0    0  0.00000000000E+00  0.00000000000E+00 -0.63557629523E+02  0.89923727437E+03  0.89698835184E+03 0.  0.
        5    1    3    3  502    0  0.13822195193E+03 -0.31813499117E+01  0.39591654029E+03  0.41938934876E+03  0.46999998093E+01 0. -1.
       -5    1    3    3    0  502 -0.13822195193E+03  0.31813499117E+01 -0.45947416981E+03  0.47984792560E+03  0.46999998093E+01 0.  1.
</event>
<event>
 5   0  0.1191822E-02  0.1021662E+04  0.7818609E-02  0.9285100E-01
        2   -1    0    0  501    0  0.00000000000E+00  0.00000000000E+00  0.14628811764E+04  0.14628811764E+04  0.25500000920E-02 0. -1.
       -2   -1    0    0    0  501  0.00000000000E+00  0.00000000000E+00 -0.17837963341E+03  0.17837963343E+03  0.25500000920E-02 0.  1.
    10030    2    1    2    0    0  0.00000000000E+00  0.00000000000E+00  0.12845015430E+04  0.16412608098E+04  0.10216617992E+04 0.  0.
        4    1    3    3  502    0  0.19357108167E+03  0.64314631907E+02 -0.11011636799E+03  0.23180457920E+03  0.12699999809E+01 0.  1.
       -4    1    3    3    0  502 -0.19357108167E+03 -0.64314631907E+02  0.13946179110E+04  0.14094562306E+04  0.12699999809E+01 0. -1.
</event>
<event>
 5   0  0.7073004E-03  0.9597902E+03  0.7818609E-02  0.9353780E-01
       -1   -1    0    0    0  501  0.00000000000E+00  0.00000000000E+00  0.19852074745E+03  0.19852074751E+03  0.50400001928E-02 0. -1.
        1   -1    0    0  501    0  0.00000000000E+00  0.00000000000E+00 -0.11600767112E+04  0.11600767112E+04  0.50400001928E-02 0.  1.
    10030    2    1    2    0    0  0.00000000000E+00  0.00000000000E+00 -0.96155596379E+03  0.13585974588E+04  0.95979017679E+03 0.  0.
        1    1    3    3  502    0  0.17788698841E+03  0.44310713203E+03 -0.54883444997E+03  0.72746612608E+03  0.50400001928E-02 0.  1.
       -1    1    3    3    0  502 -0.17788698841E+03 -0.44310713203E+03 -0.41272151381E+03  0.63113133268E+03  0.50400001928E-02 0. -1.
</event>
<event>
 5   0  0.1245850E-02  0.9953993E+03  0.7818609E-02  0.9313605E-01
        2   -1    0    0  501    0  0.00000000000E+00  0.00000000000E+00  0.51004319000E+03  0.51004319001E+03  0.25500000920E-02 0.  1.
       -2   -1    0    0    0  501  0.00000000000E+00  0.00000000000E+00 -0.48565480984E+03  0.48565480985E+03  0.25500000920E-02 0. -1.
    10030    2    1    2    0    0  0.00000000000E+00  0.00000000000E+00  0.24388380159E+02  0.99569799985E+03  0.99539927357E+03 0.  0.
        3    1    3    3  502    0 -0.22491380824E+02  0.48381912014E+03  0.12676290259E+03  0.50065521759E+03  0.10100000352E+00 0.  1.
       -3    1    3    3    0  502  0.22491380824E+02 -0.48381912014E+03 -0.10237452243E+03  0.49504278226E+03  0.10100000352E+00 0. -1.
</event>
<event>
 5   0  0.1240503E-02  0.1002928E+04  0.7818609E-02  0.9305339E-01
       -2   -1    0    0    0  501  0.00000000000E+00  0.00000000000E+00  0.25907054082E+03  0.25907054084E+03  0.25500000920E-02 0. -1.
        2   -1    0    0  501    0  0.00000000000E+00  0.00000000000E+00 -0.97064705597E+03  0.97064705598E+03  0.25500000920E-02 0.  1.
    10030    2    1    2    0    0  0.00000000000E+00  0.00000000000E+00 -0.71157651515E+03  0.12297175968E+04  0.10029278294E+04 0.  0.
        1    1    3    3  502    0 -0.35625790420E+03 -0.16667464556E+03 -0.73720252427E+03  0.83556429650E+03  0.50400001928E-02 0.  1.
       -1    1    3    3    0  502  0.35625790420E+03  0.16667464556E+03  0.25626009123E+02  0.39415330031E+03  0.50400001928E-02 0. -1.
</event>
<event>
 5   0  0.7241200E-03  0.1000852E+04  0.7818609E-02  0.9307610E-01
        1   -1    0    0  501    0  0.00000000000E+00  0.00000000000E+00  0.81568326723E+03  0.81568326725E+03  0.50400001928E-02 0. -1.
       -1   -1    0    0    0  501  0.00000000000E+00  0.00000000000E+00 -0.30701421624E+03  0.30701421629E+03  0.50400001928E-02 0.  1.
    10030    2    1    2    0    0  0.00000000000E+00  0.00000000000E+00  0.50866905099E+03  0.11226974835E+04  0.10008523548E+04 0.  0.
        4    1    3    3  502    0 -0.36407140867E+03 -0.34110172897E+03  0.29815954083E+03  0.58120487335E+03  0.12699999809E+01 0. -1.
       -4    1    3    3    0  502  0.36407140867E+03  0.34110172897E+03  0.21050951016E+03  0.54149261019E+03  0.12699999809E+01 0.  1.
</event>
<event>
 5   0  0.1245850E-02  0.1009380E+04  0.7818609E-02  0.9298316E-01
        2   -1    0    0  501    0  0.00000000000E+00  0.00000000000E+00  0.13122585842E+04  0.13122585842E+04  0.25500000920E-02 0.  1.
       -2   -1    0    0    0  501  0.00000000000E+00  0.00000000000E+00 -0.19410213292E+03  0.19410213293E+03  0.25500000920E-02 0. -1.
    10030    2    1    2    0    0  0.00000000000E+00  0.00000000000E+00  0.11181564513E+04  0.15063607171E+04  0.10093803845E+04 0.  0.
        3    1    3    3  502    0 -0.42491377508E+03 -0.98642769461E+01  0.15293871704E+03  0.45170707498E+03  0.10100000352E+00 0. -1.
       -3    1    3    3    0  502  0.42491377508E+03  0.98642769461E+01  0.96521773422E+03  0.10546536421E+04  0.10100000352E+00 0.  1.
</event>
<event>
 5   0  0.1240503E-02  0.9763932E+03  0.7818609E-02  0.9334822E-01
        2   -1    0    0  501    0  0.00000000000E+00  0.00000000000E+00  0.64775772779E+03  0.64775772780E+03  0.25500000920E-02 0. -1.
       -2   -1    0    0    0  501  0.00000000000E+00  0.00000000000E+00 -0.36793989234E+03  0.36793989235E+03  0.25500000920E-02 0.  1.
    10030    2    1    2    0    0  0.00000000000E+00  0.00000000000E+00  0.27981783545E+03  0.10156976202E+04  0.97639317621E+03 0.  0.
        1    1    3    3  502    0  0.14161583032E+03 -0.31774532487E+03  0.49621518114E+03  0.60600877955E+03  0.50400001928E-02 0. -1.
       -1    1    3    3    0  502 -0.14161583032E+03  0.31774532487E+03 -0.21639734569E+03  0.40968884061E+03  0.50400001928E-02 0.  1.
</event>
<event>
 5   0  0.7461157E-03  0.1017470E+04  0.7818609E-02  0.9289589E-01
        1   -1    0    0  501    0  0.00000000000E+00  0.00000000000E+00  0.55048354879E+03  0.55048354882E+03  0.50400001928E-02 0.  1.
       -1   -1    0    0    0  501  0.00000000000E+00  0.00000000000E+00 -0.47015222798E+03  0.47015222801E+03  0.50400001928E-02 0. -1.
    10030    2    1    2    0    0  0.00000000000E+00  0.00000000000E+00  0.80331320810E+02  0.10206357768E+04  0.10174695415E+04 0.  0.
        2    1    3    3  502    0  0.50454801819E+03  0.48198238685E+02 -0.37804186631E+01  0.50685901831E+03  0.25500000920E-02 0. -1.
       -2    1    3    3    0  502 -0.50454801819E+03 -0.48198238685E+02  0.84111739473E+02  0.51377675852E+03  0.25500000920E-02 0.  1.
</event>
<event>
 5   0  0.1221315E-02  0.9914458E+03  0.7818609E-02  0.9317977E-01
       -2   -1    0    0    0  501  0.00000000000E+00  0.00000000000E+00  0.18167993676E+03  0.18167993678E+03  0.25500000920E-02 0. -1.
        2   -1    0    0  501    0  0.00000000000E+00  0.00000000000E+00 -0.13526049184E+04  0.13526049184E+04  0.25500000920E-02 0.  1.
    10030    2    1    2    0    0  0.00000000000E+00  0.00000000000E+00 -0.11709249817E+04  0.15342848552E+04  0.99144576465E+03 0.  0.
        5    1    3    3  502    0  0.34820725333E+03 -0.27834417270E+03 -0.92094070683E+03  0.10231703892E+04  0.46999998093E+01 0.  1.
       -5    1    3    3    0  502 -0.34820725333E+03  0.27834417270E+03 -0.24998427482E+03  0.51111446605E+03  0.46999998093E+01 0. -1.
</event>
<event>
 5   0  0.7073004E-03  0.9860779E+03  0.7818609E-02  0.9323947E-01
        1   -1    0    0  501    0  0.00000000000E+00  0.00000000000E+00  0.14849815994E+03  0.14849816003E+03  0.50400001928E-02 0. -1.
       -1   -1    0    0    0  501  0.00000000000E+00  0.00000000000E+00 -0.16369725235E+04  0.16369725235E+04  0.50400001928E-02 0.  1.
    10030    2    1    2    0    0  0.00000000000E+00  0.00000000000E+00 -0.14884743636E+04  0.17854706835E+04  0.98607790300E+03 0.  0.
        1    1    3    3  502    0  0.26540376495E+03  0.27102307237E+02  0.65152688814E+01  0.26686352741E+03  0.50400001928E-02 0. -1.
       -1    1    3    3    0  502 -0.26540376495E+03 -0.27102307237E+02 -0.14949896324E+04  0.15186071561E+04  0.50400001928E-02 0.  1.
</event>
<event>
 5   0  0.1240503E-02  0.1014766E+04  0.7818609E-02  0.9292496E-01
       -2   -1    0    0    0  501  0.00000000000E+00  0.00000000000E+00  0.71471037646E+03  0.71471037646E+03  0.25500000920E-02 0.  1.
        2   -1    0    0  501    0  0.00000000000E+00  0.00000000000E+00 -0.36019861018E+03  0.36019861019E+03  0.25500000920E-02 0. -1.
    10030    2    1    2    0    0  0.00000000000E+00  0.00000000000E+00  0.35451176628E+03  0.10749089867E+04  0.10147663461E+04 0.  0.
        1    1    3    3  502    0 -0.48754468074E+03 -0.12998040538E+03  0.23373543263E+03  0.55608180513E+03  0.50400001928E-02 0.  1.
       -1    1    3    3    0  502  0.48754468074E+03  0.12998040538E+03  0.12077633364E+03  0.51882718153E+03  0.50400001928E-02 0. -1.
</event>
<event>
 5   0  0.1216322E-02  0.1004169E+04  0.7818609E-02  0.9303984E-01
        2   -1    0    0  501    0  0.00000000000E+00  0.00000000000E+00  0.60026601340E+03  0.60026601341E+03  0.25500000920E-02 0. -1.
       -2   -1    0    0    0  501  0.00000000000E+00  0.00000000000E+00 -0.41996229716E+03  0.41996229717E+03  0.25500000920E-02 0.  1.
    10030    2    1    2    0    0  0.00000000000E+00  0.00000000000E+00  0.18030371624E+03  0.10202283106E+04  0.10041694955E+04 0.  0.
        2    1    3    3  502    0  0.16915166792E+03  0.22296404703E+03 -0.33336436429E+03  0.43526664518E+03  0.25500000920E-02 0.  1.
       -2    1    3    3    0  502 -0.16915166792E+03 -0.22296404703E+03  0.51366808052E+03  0.58496166539E+03  0.25500000920E-02 0. -1.
</event>
<event>
 5   0  0.6967681E-03  0.9860464E+03  0.7818609E-02  0.9323983E-01
       -1   -1    0    0    0  501  0.00000000000E+00  0.00000000000E+00  0.67753032306E+03  0.67753032308E+03  0.50400001928E-02 0. -1.
        1   -1    0    0  501    0  0.00000000000E+00  0.00000000000E+00 -0.35876159922E+03  0.35876159925E+03  0.50400001928E-02 0.  1.
    10030    2    1    2    0    0  0.00000000000E+00  0.00000000000E+00  0.31876872384E+03  0.10362919223E+04  0.98604637264E+03 0.  0.
        5    1    3    3  502    0 -0.30698706092E+03  0.31908250320E+03 -0.68445651966E+02  0.44806427741E+03  0.46999998093E+01 0.  1.
       -5    1    3    3    0  502  0.30698706092E+03 -0.31908250320E+03  0.38721437581E+03  0.58822764492E+03  0.46999998093E+01 0. -1.
</event>
<event>
 5   0  0.7224879E-03  0.9675004E+03  0.7818609E-02  0.9344926E-01
        1   -1    0    0  501    0  0.00000000000E+00  0.00000000000E+00  0.99905458099E+03  0.99905458100E+03  0.50400001928E-02 0. -1.
       -1   -1    0    0    0  501  0.00000000000E+00  0.00000000000E+00 -0.23423572235E+03  0.23423572240E+03  0.50400001928E-02 0.  1.
    10030    2    1    2    0    0  0.00000000000E+00  0.00000000000E+00  0.76481885864E+03  0.12332903034E+04  0.96750043201E+03 0.  0.
        3    1    3    3  502    0  0.30852659934E+03 -0.15620808246E+02  0.85694297384E+03  0.91092477338E+03  0.10100000352E+00 0. -1.
       -3    1    3    3    0  502 -0.30852659934E+03  0.15620808246E+02 -0.92124115194E+02  0.32236553003E+03  0.10100000352E+00 0.  1.
</event>
<event>
 5   0  0.1245850E-02  0.1026431E+04  0.7818609E-02  0.9280021E-01
       -2   -1    0    0    0  501  0.00000000000E+00  0.00000000000E+00  0.29402026861E+03  0.29402026862E+03  0.25500000920E-02 0. -1.
        2   -1    0    0  501    0  0.00000000000E+00  0.00000000000E+00 -0.89582349750E+03  0.89582349750E+03  0.25500000920E-02 0.  1.
    10030    2    1    2    0    0  0.00000000000E+00  0.00000000000E+00 -0.60180322889E+03  0.11898437661E+04  0.10264312259E+04 0.  0.
        3    1    3    3  502    0 -0.86590020894E+02  0.44619752762E+03 -0.24630819447E+02  0.45518870026E+03  0.10100000352E+00 0. -1.
       -3    1    3    3    0  502  0.86590020894E+02 -0.44619752762E+03 -0.57717240945E+03  0.73465506586E+03  0.10100000352E+00 0.  1.
</event>
<event>
 5   0  0.1221315E-02  0.9987344E+03  0.7818609E-02  0.9309934E-01
       -2   -1    0    0    0  501  0.00000000000E+00  0.00000000000E+00  0.50058253526E+03  0.50058253526E+03  0.25500000920E-02 0.  1.
        2   -1    0    0  501    0  0.00000000000E+00  0.00000000000E+00 -0.49815480769E+03  0.49815480769E+03  0.25500000920E-02 0. -1.
    10030    2    1    2    0    0  0.00000000000E+00  0.00000000000E+00  0.24277275711E+01  0.99873734295E+03  0.99873439229E+03 0.  0.
        5    1    3    3  502    0  0.46657101278E+03 -0.13668053603E+03  0.11512393517E+03  0.49964556372E+03  0.46999998093E+01 0.  1.
       -5    1    3    3    0  502 -0.46657101278E+03  0.13668053603E+03 -0.11269620760E+03  0.49909177924E+03  0.46999998093E+01 0. -1.
</event>
<event>
 5   0  0.6967681E-03  0.9879906E+03  0.7818609E-02  0.9321815E-01
        1   -1    0    0  501    0  0.00000000000E+00  0.00000000000E+00  0.42030200647E+03  0.42030200650E+03  0.50400001928E-02 0.  1.
       -1   -1    0    0    0  501  0.00000000000E+00  0.00000000000E+00 -0.58060958992E+03  0.58060958995E+03  0.50400001928E-02 0. -1.
    10030    2    1    2    0    0  0.00000000000E+00  0.00000000000E+00 -0.16030758345E+03  0.10009115964E+04  0.98799063892E+03 0.  0.
        5    1    3    3  502    0  0.66609779400E+02  0.42504264613E+03  0.16573669257E+03  0.46107358957E+03  0.46999998093E+01 0.  1.
       -5    1    3    3    0  502 -0.66609779400E+02 -0.42504264613E+03 -0.32604427603E+03  0.53983800687E+03  0.46999998093E+01 0. -1.
</event>
<event>
 5   0  0.1240503E-02  0.1032867E+04  0.7818609E-02  0.9273214E-01
       -2   -1    0    0    0  501  0.00000000000E+00  0.00000000000E+00  0.25669672248E+03  0.25669672250E+03  0.25500000920E-02 0. -1.
        2   -1    0    0  501    0  0.00000000000E+00  0.00000000000E+00 -0.10389822186E+04  0.10389822186E+04  0.25500000920E-02 0.  1.
    10030    2    1    2    0    0  0.00000000000E+00  0.00000000000E+00 -0.78228549614E+03  0.12956789411E+04  0.10328665553E+04 0.  0.
        1    1    3    3  502    0 -0.42405718798E+03  0.43124798200E+02 -0.75691553745E+03  0.86868025058E+03  0.50400001928E-02 0.  1.
       -1    1    3    3    0  502  0.42405718798E+03 -0.43124798200E+02 -0.25369958692E+02  0.42699869054E+03  0.50400001928E-02 0. -1.
</event>
<event>
 5   0  0.7073004E-03  0.9927588E+03  0.7818609E-02  0.9316523E-01
       -1   -1    0    0    0  501  0.00000000000E+00  0.00000000000E+00  0.55711260225E+03  0.55711260227E+03  0.50400001928E-02 0. -1.
        1   -1    0    0  501    0  0.00000000000E+00  0.00000000000E+00 -0.44226698770E+03  0.44226698773E+03  0.50400001928E-02 0.  1.
    10030    2    1    2    0    0  0.00000000000E+00  0.00000000000E+00  0.11484561455E+03  0.99937959000E+03  0.99275880743E+03 0.  0.
        1    1    3    3  502    0 -0.40160373483E+03  0.25181513194E+03 -0.90855453386E+02  0.48265011544E+03  0.50400001928E-02 0.  1.
       -1    1    3    3    0  502  0.40160373483E+03 -0.25181513194E+03  0.20570106794E+03  0.51672947456E+03  0.50400001928E-02 0. -1.
</event>
<event>
 5   0  0.1245850E-02  0.9839314E+03  0.7818609E-02  0.9326346E-01
        2   -1    0    0  501    0  0.00000000000E+00  0.00000000000E+00  0.49508603408E+03  0.49508603409E+03  0.25500000920E-02 0. -1.
       -2   -1    0    0    0  501  0.00000000000E+00  0.00000000000E+00 -0.48886500927E+03  0.48886500927E+03  0.25500000920E-02 0.  1.
    10030    2    1    2    0    0  0.00000000000E+00  0.00000000000E+00  0.62210248143E+01  0.98395104336E+03  0.98393137697E+03 0.  0.
        3    1    3    3  502    0 -0.48300735343E+03 -0.27568509741E+02  0.92410126139E+02  0.49254011797E+03  0.10100000352E+00 0. -1.
       -3    1    3    3    0  502  0.48300735343E+03  0.27568509741E+02 -0.86189101324E+02  0.49141092538E+03  0.10100000352E+00 0.  1.
</event>
<event>
 5   0  0.1191822E-02  0.1004912E+04  0.7818609E-02  0.9303174E-01
        2   -1    0    0  501    0  0.00000000000E+00  0.00000000000E+00  0.77443853343E+03  0.77443853344E+03  0.25500000920E-02 0.  1.
       -2   -1    0    0    0  501  0.00000000000E+00  0.00000000000E+00 -0.32599370370E+03  0.32599370371E+03  0.25500000920E-02 0. -1.
    10030    2    1    2    0    0  0.00000000000E+00  0.00000000000E+00  0.44844482973E+03  0.11004322371E+04  0.10049121072E+04 0.  0.
        4    1    3    3  502    0 -0.49548017416E+03  0.34548739102E+02  0.30737622068E+03  0.58410270698E+03  0.12699999809E+01 0.  1.
       -4    1    3    3    0  502  0.49548017416E+03 -0.34548739102E+02  0.14106860906E+03  0.51632953017E+03  0.12699999809E+01 0. -1.
</event>
<event>
 5   0  0.1216322E-02  0.1010247E+04  0.7818609E-02  0.9297377E-01
        2   -1    0    0  501    0  0.00000000000E+00  0.00000000000E+00  0.67213074778E+03  0.67213074779E+03  0.25500000920E-02 0.  1.
       -2   -1    0    0    0  501  0.00000000000E+00  0.00000000000E+00 -0.37961292785E+03  0.37961292786E+03  0.25500000920E-02 0. -1.
    10030    2    1    2    0    0  0.00000000000E+00  0.00000000000E+00  0.29251781993E+03  0.10517436756E+04  0.10102465463E+04 0.  0.
        2    1    3    3  502    0 -0.42914754494E+03  0.20211245757E+03  0.32697625216E+03  0.57613412529E+03  0.25500000920E-02 0.  1.
       -2    1    3    3    0  502  0.42914754494E+03 -0.20211245757E+03 -0.34458432237E+02  0.47560955036E+03  0.25500000920E-02 0. -1.
</event>
<event>
 5   0  0.1216322E-02  0.9837810E+03  0.7818609E-02  0.9326515E-01
        2   -1    0    0  501    0  0.00000000000E+00  0.00000000000E+00  0.14974808815E+04  0.14974808815E+04  0.25500000920E-02 0. -1.
       -2   -1    0    0    0  501  0.00000000000E+00  0.00000000000E+00 -0.16157554368E+03  0.16157554370E+03  0.25500000920E-02 0.  1.
    10030    2    1    2    0    0  0.00000000000E+00  0.00000000000E+00  0.13359053378E+04  0.16590564252E+04  0.98378104797E+03 0.  0.
        2    1    3    3  502    0  0.25325015368E+03  0.40270870993E+03  0.87889761122E+03  0.99938528927E+03  0.25500000920E-02 0. -1.
       -2    1    3    3    0  502 -0.25325015368E+03 -0.40270870993E+03  0.45700772658E+03  0.65967113590E+03  0.25500000920E-02 0.  1.
</event>
<event>
 5   0  0.1240503E-02  0.1058688E+04  0.7818609E-02  0.9246420E-01
       -2   -1    0    0    0  501  0.00000000000E+00  0.00000000000E+00  0.14077886203E+03  0.14077886206E+03  0.25500000920E-02 0. -1.
        2   -1    0    0  501    0  0.00000000000E+00  0.00000000000E+00 -0.19903928627E+04  0.19903928627E+04  0.25500000920E-02 0.  1.
    10030    2    1    2    0    0  0.00000000000E+00  0.00000000000E+00 -0.18496140007E+04  0.21311717247E+04  0.10586883247E+04 0.  0.
        1    1    3    3  502    0 -0.38633264097E+03  0.12527829615E+03 -0.16082231872E+04  0.16587131701E+04  0.50400001928E-02 0. -1.
       -1    1    3    3    0  502  0.38633264097E+03 -0.12527829615E+03 -0.24139081347E+03  0.47245855460E+03  0.50400001928E-02 0.  1.
</event>
<event>
 5   0  0.6967681E-03  0.1033027E+04  0.7818609E-02  0.9273045E-01
        1   -1    0    0  501    0  0.00000000000E+00  0.00000000000E+00  0.67189062279E+03  0.67189062281E+03  0.50400001928E-02 0.  1.
       -1   -1    0    0    0  501  0.00000000000E+00  0.00000000000E+00 -0.39706819130E+03  0.39706819133E+03  0.50400001928E-02 0. -1.
    10030    2    1    2    0    0  0.00000000000E+00  0.00000000000E+00  0.27482243149E+03  0.10689588141E+04  0.10330273847E+04 0.  0.
        5    1    3    3  502    0  0.27523425179E+03 -0.38361262085E+03 -0.79280691816E+02  0.47876931223E+03  0.46999998093E+01 0.  1.
       -5    1    3    3    0  502 -0.27523425179E+03  0.38361262085E+03  0.35410312331E+03  0.59018950191E+03  0.46999998093E+01 0. -1.
</event>
<event>
 5   0  0.7073004E-03  0.1010919E+04  0.7818609E-02  0.9296650E-01
       -1   -1    0    0    0  501  0.00000000000E+00  0.00000000000E+00  0.40157196145E+03  0.40157196148E+03  0.50400001928E-02 0.  1.
        1   -1    0    0  501    0  0.00000000000E+00  0.00000000000E+00 -0.63622272039E+03  0.63622272041E+03  0.50400001928E-02 0. -1.
    10030    2    1    2    0    0  0.00000000000E+00  0.00000000000E+00 -0.23465075894E+03  0.10377946819E+04  0.10109188014E+04 0.  0.
        1    1    3    3  502    0 -0.15288773106E+02 -0.23361214280E+03 -0.57720917487E+03  0.62287945176E+03  0.50400001928E-02 0. -1.
       -1    1    3    3    0  502  0.15288773106E+02  0.23361214280E+03  0.34255841593E+03  0.41491523013E+03  0.50400001928E-02 0.  1.
</event>
<event>
 5   0  0.1240503E-02  0.1017219E+04  0.7818609E-02  0.9289858E-01
       -2   -1    0    0    0  501  0.00000000000E+00  0.00000000000E+00  0.27678596563E+03  0.27678596564E+03  0.25500000920E-02 0. -1.
        2   -1    0    0  501    0  0.00000000000E+00  0.00000000000E+00 -0.93459826184E+03  0.93459826184E+03  0.25500000920E-02 0.  1.
    10030    2    1    2    0    0  0.00000000000E+00  0.00000000000E+00 -0.65781229621E+03  0.12113842275E+04  0.10172191158E+04 0.  0.
        1    1    3    3  502    0 -0.38820248781E+03 -0.29968608237E+03 -0.16837697006E+03  0.51852070699E+03  0.50400001928E-02 0.  1.
       -1    1    3    3    0  502  0.38820248781E+03  0.29968608237E+03 -0.48943532615E+03  0.69286352049E+03  0.50400001928E-02 0. -1.
</event>
<event>
 5   0  0.7461157E-03  0.1000007E+04  0.7818609E-02  0.9308537E-01
        1   -1    0    0  501    0  0.00000000000E+00  0.00000000000E+00  0.44149833200E+03  0.44149833203E+03  0.50400001928E-02 0. -1.
       -1   -1    0    0    0  501  0.00000000000E+00  0.00000000000E+00 -0.56626146143E+03  0.56626146146E+03  0.50400001928E-02 0.  1.
    10030    2    1    2    0    0  0.00000000000E+00  0.00000000000E+00 -0.12476312944E+03  0.10077597935E+04  0.10000069814E+04 0.  0.
        2    1    3    3  502    0  0.34597172376E+03 -0.38766960615E+02 -0.42405696740E+03  0.54865619698E+03  0.25500000920E-02 0.  1.
       -2    1    3    3    0  502 -0.34597172376E+03  0.38766960615E+02  0.29929383796E+03  0.45910359651E+03  0.25500000920E-02 0. -1.
</event>
<event>
 5   0  0.7224879E-03  0.1004127E+04  0.7818609E-02  0.9304030E-01
       -1   -1    0    0    0  501  0.00000000000E+00  0.00000000000E+00  0.10684295961E+04  0.10684295961E+04  0.50400001928E-02 0.  1.
        1   -1    0    0  501    0  0.00000000000E+00  0.00000000000E+00 -0.23592357178E+03  0.23592357184E+03  0.50400001928E-02 0. -1.
    10030    2    1    2    0    0  0.00000000000E+00  0.00000000000E+00  0.83250602430E+03  0.13043531679E+04  0.10041269373E+04 0.  0.
        3    1    3    3  502    0  0.34915635551E+03  0.10482913992E+03 -0.32169230884E+02  0.36597018839E+03  0.10100000352E+00 0. -1.
       -3    1    3    3    0  502 -0.34915635551E+03 -0.10482913992E+03  0.86467525518E+03  0.93838297955E+03  0.10100000352E+00 0.  1.
</event>
<event>
 5   0  0.7241200E-03  0.9968698E+03  0.7818609E-02  0.9311985E-01
        1   -1    0    0  501    0  0.00000000000E+00  0.00000000000E+00  0.54769920907E+03  0.54769920909E+03  0.50400001928E-02 0. -1.
       -1   -1    0    0    0  501  0.00000000000E+00  0.00000000000E+00 -0.45360184552E+03  0.45360184555E+03  0.50400001928E-02 0.  1.
    10030    2    1    2    0    0  0.00000000000E+00  0.00000000000E+00  0.94097363544E+02  0.10013010546E+04  0.99686984517E+03 0.  0.
        4    1    3    3  502    0 -0.19373954827E+03  0.25099562087E+03  0.43333840736E+03  0.53695214168E+03  0.12699999809E+01 0. -1.
       -4    1    3    3    0  502  0.19373954827E+03 -0.25099562087E+03 -0.33924104382E+03  0.46434891296E+03  0.12699999809E+01 0.  1.
</event>
<event>
 5   0  0.1240503E-02  0.1013429E+04  0.7818609E-02  0.9293937E-01
        2   -1    0    0  501    0  0.00000000000E+00  0.00000000000E+00  0.11461696517E+04  0.11461696517E+04  0.25500000920E-02 0. -1.
       -2   -1    0    0    0  501  0.00000000000E+00  0.00000000000E+00 -0.22401545280E+03  0.22401545282E+03  0.25500000920E-02 0.  1.
    10030    2    1    2    0    0  0.00000000000E+00  0.00000000000E+00  0.92215419893E+03  0.13701851046E+04  0.10134292546E+04 0.  0.
        1    1    3    3  502    0  0.11653135783E+03  0.18781545530E+03  0.10775568354E+04  0.10999922437E+04  0.50400001928E-02 0. -1.
       -1    1    3    3    0  502 -0.11653135783E+03 -0.18781545530E+03 -0.15540263649E+03  0.27019286086E+03  0.50400001928E-02 0.  1.
</event>
<event>
 5   0  0.7461157E-03  0.9895639E+03  0.7818609E-02  0.9320066E-01
       -1   -1    0    0    0  501  0.00000000000E+00  0.00000000000E+00  0.24902756256E+03  0.24902756261E+03  0.50400001928E-02 0.  1.
        1   -1    0    0  501    0  0.00000000000E+00  0.00000000000E+00 -0.98306057648E+03  0.98306057650E+03  0.50400001928E-02 0. -1.
    10030    2    1    2    0    0  0.00000000000E+00  0.00000000000E+00 -0.73403301392E+03  0.12320881391E+04  0.98956390243E+03 0.  0.
        2    1    3    3  502    0  0.27008622285E+03 -0.28328759101E+03 -0.74386879538E+03  0.84055886869E+03  0.25500000920E-02 0. -1.
       -2    1    3    3    0  502 -0.27008622285E+03  0.28328759101E+03  0.98357814523E+01  0.39152927042E+03  0.25500000920E-02 0.  1.
</event>
<event>
 5   0  0.7224879E-03  0.7735020E+03  0.7818609E-02  0.9599184E-01
        1   -1    0    0  501    0  0.00000000000E+00  0.00000000000E+00  0.14431567228E+03  0.14431567236E+03  0.50400001928E-02 0.  1.
       -1   -1    0    0    0  501  0.00000000000E+00  0.00000000000E+00 -0.10364525255E+04  0.10364525256E+04  0.50400001928E-02 0. -1.
    10030    2    1    2    0    0  0.00000000000E+00  0.00000000000E+00 -0.89213685327E+03  0.11807681979E+04  0.77350201827E+03 0.  0.
        3    1    3    3  502    0 -0.69713080763E+02 -0.35821438742E+03 -0.64155196112E+03  0.73808291540E+03  0.10100000352E+00 0. -1.
       -3    1    3    3    0  502  0.69713080763E+02  0.35821438742E+03 -0.25058489215E+03  0.44268528252E+03  0.10100000352E+00 0.  1.
</event>
<event>
 5   0  0.6967681E-03  0.9974222E+03  0.7818609E-02  0.9311377E-01
        1   -1    0    0  501    0  0.00000000000E+00  0.00000000000E+00  0.47618372261E+03  0.47618372264E+03  0.50400001928E-02 0. -1.
       -1   -1    0    0    0  501  0.00000000000E+00  0.00000000000E+00 -0.52230419404E+03  0.52230419407E+03  0.50400001928E-02 0.  1.
    10030    2    1    2    0    0  0.00000000000E+00  0.00000000000E+00 -0.46120471430E+02  0.99848791671E+03  0.99742218841E+03 0.  0.
        5    1    3    3  502    0  0.29309077394E+03  0.29001526297E+03 -0.30385880477E+03  0.51221413272E+03  0.46999998093E+01 0.  1.
       -5    1    3    3    0  502 -0.29309077394E+03 -0.29001526297E+03  0.25773833334E+03  0.48627378399E+03  0.46999998093E+01 0. -1.
</event>
<event>
 5   0  0.1240503E-02  0.1000972E+04  0.7818609E-02  0.9307479E-01
        2   -1    0    0  501    0  0.00000000000E+00  0.00000000000E+00  0.59956779415E+03  0.59956779415E+03  0.25500000920E-02 0. -1.
       -2   -1    0    0    0  501  0.00000000000E+00  0.00000000000E+00 -0.41777821650E+03  0.41777821651E+03  0.25500000920E-02 0.  1.
    10030    2    1    2    0    0  0.00000000000E+00  0.00000000000E+00  0.18178957765E+03  0.10173460107E+04  0.10009722548E+04 0.  0.
        1    1    3    3  502    0  0.56989797541E+02 -0.23459317368E+03  0.53647767365E+03  0.58829421934E+03  0.50400001928E-02 0. -1.
       -1    1    3    3    0  502 -0.56989797541E+02  0.23459317368E+03 -0.35468809600E+03  0.42905179131E+03  0.50400001928E-02 0.  1.
</event>
<event>
 5   0  0.4782125E-03  0.9593173E+03  0.7818609E-02  0.9354326E-01
       -3   -1    0    0    0  501  0.00000000000E+00  0.00000000000E+00  0.10791149297E+04  0.10791149344E+04  0.10100000352E+00 0. -1.
        3   -1    0    0  501    0  0.00000000000E+00  0.00000000000E+00 -0.21320473427E+03  0.21320475819E+03  0.10100000352E+00 0.  1.
    10030    2    1    2    0    0  0.00000000000E+00  0.00000000000E+00  0.86591019538E+03  0.12923196926E+04  0.95931732046E+03 0.  0.
        4    1    3    3  502    0 -0.18599256757E+03  0.28473524970E+02  0.10273206989E+04  0.10444105553E+04  0.12699999809E+01 0. -1.
       -4    1    3    3    0  502  0.18599256757E+03 -0.28473524970E+02 -0.16141050347E+03  0.24790913728E+03  0.12699999809E+01 0.  1.
</event>
<event>
 5   0  0.6967681E-03  0.9276654E+03  0.7818609E-02  0.9391644E-01
        1   -1    0    0  501    0  0.00000000000E+00  0.00000000000E+00  0.11953125800E+04  0.11953125800E+04  0.50400001928E-02 0.  1.
       -1   -1    0    0    0  501  0.00000000000E+00  0.00000000000E+00 -0.17998702453E+03  0.17998702460E+03  0.50400001928E-02 0. -1.
    10030    2    1    2    0    0  0.00000000000E+00  0.00000000000E+00  0.10153255554E+04  0.13752996046E+04  0.92766535930E+03 0.  0.
        5    1    3    3  502    0 -0.17814761033E+03 -0.44717014355E+02  0.11390614279E+04  0.11537847325E+04  0.46999998093E+01 0.  1.
       -5    1    3    3    0  502  0.17814761033E+03  0.44717014355E+02 -0.12373587243E+03  0.22151487211E+03  0.46999998093E+01 0. -1.
</event>
<event>
 5   0  0.1216322E-02  0.1009686E+04  0.7818609E-02  0.9297984E-01
       -2   -1    0    0    0  501  0.00000000000E+00  0.00000000000E+00  0.20429798473E+03  0.20429798475E+03  0.25500000920E-02 0. -1.
        2   -1    0    0  501    0  0.00000000000E+00  0.00000000000E+00 -0.12475240729E+04  0.12475240729E+04  0.25500000920E-02 0.  1.
    10030    2    1    2    0    0  0.00000000000E+00  0.00000000000E+00 -0.10432260881E+04  0.14518220576E+04  0.10096863949E+04 0.  0.
        2    1    3    3  502    0 -0.13998654085E+03  0.29847106582E+03  0.28154317804E+02  0.33086836411E+03  0.25500000920E-02 0. -1.
       -2    1    3    3    0  502  0.13998654085E+03 -0.29847106582E+03 -0.10713804059E+04  0.11209536935E+04  0.25500000920E-02 0.  1.
</event>
<event>
 5   0  0.7461157E-03  0.1013469E+04  0.7818609E-02  0.9293894E-01
        1   -1    0    0  501    0  0.00000000000E+00  0.00000000000E+00  0.55204078097E+03  0.55204078100E+03  0.50400001928E-02 0. -1.
       -1   -1    0    0    0  501  0.00000000000E+00  0.00000000000E+00 -0.46514656672E+03  0.46514656675E+03  0.50400001928E-02 0.  1.
    10030    2    1    2    0    0  0.00000000000E+00  0.00000000000E+00  0.86894214253E+02  0.10171873477E+04  0.10134690404E+04 0.  0.
        2    1    3    3  502    0 -0.30425950379E+03 -0.79960222565E+02 -0.35526645960E+03  0.47453318131E+03  0.25500000920E-02 0.  1.
       -2    1    3    3    0  502  0.30425950379E+03  0.79960222565E+02  0.44216067385E+03  0.54265416643E+03  0.25500000920E-02 0. -1.
</event>
<event>
 5   0  0.1221315E-02  0.9839626E+03  0.7818609E-02  0.9326311E-01
        2   -1    0    0  501    0  0.00000000000E+00  0.00000000000E+00  0.20116567278E+03  0.20116567280E+03  0.25500000920E-02 0. -1.
       -2   -1    0    0    0  501  0.00000000000E+00  0.00000000000E+00 -0.12032152408E+04  0.12032152408E+04  0.25500000920E-02 0.  1.
    10030    2    1    2    0    0  0.00000000000E+00  0.00000000000E+00 -0.10020495680E+04  0.14043809136E+04  0.98396260787E+03 0.  0.
        5    1    3    3  502    0 -0.29566820723E+02  0.27883800131E+03  0.75915153185E+02  0.29053403991E+03  0.46999998093E+01 0. -1.
       -5    1    3    3    0  502  0.29566820723E+02 -0.27883800131E+03 -0.10779647212E+04  0.11138468737E+04  0.46999998093E+01 0.  1.
</event>
<event>
 5   0  0.1191822E-02  0.8666345E+03  0.7818609E-02  0.9468279E-01
        2   -1    0    0  501    0  0.00000000000E+00  0.00000000000E+00  0.32217057080E+03  0.32217057081E+03  0.25500000920E-02 0.  1.
       -2   -1    0    0    0  501  0.00000000000E+00  0.00000000000E+00 -0.58280876642E+03  0.58280876643E+03  0.25500000920E-02 0. -1.
    10030    2    1    2    0    0  0.00000000000E+00  0.00000000000E+00 -0.26063819562E+03  0.90497933724E+03  0.86663448571E+03 0.  0.
        4    1    3    3  502    0 -0.28072401223E+03  0.11558431325E+03 -0.45318614953E+03  0.54547685885E+03  0.12699999809E+01 0. -1.
       -4    1    3    3    0  502  0.28072401223E+03 -0.11558431325E+03  0.19254795391E+03  0.35950247839E+03  0.12699999809E+01 0.  1.
</event>
<event>
 5   0  0.1191822E-02  0.9622495E+03  0.7818609E-02  0.9350946E-01
       -2   -1    0    0    0  501  0.00000000000E+00  0.00000000000E+00  0.13420536245E+03  0.13420536248E+03  0.25500000920E-02 0.  1.
        2   -1    0    0  501    0  0.00000000000E+00  0.00000000000E+00 -0.17248269056E+04  0.17248269056E+04  0.25500000920E-02 0. -1.
    10030    2    1    2    0    0  0.00000000000E+00  0.00000000000E+00 -0.15906215432E+04  0.18590322681E+04  0.96224948960E+03 0.  0.
        4    1    3    3  502    0  0.10655228813E+03 -0.10574558585E+03  0.87797748293E+02  0.17391255429E+03  0.12699999809E+01 0.  1.
       -4    1    3    3    0  502 -0.10655228813E+03  0.10574558585E+03 -0.16784192914E+04  0.16851197138E+04  0.12699999809E+01 0. -1.
</event>
<event>
 5   0  0.6967681E-03  0.9739905E+03  0.7818609E-02  0.9337541E-01
        1   -1    0    0  501    0  0.00000000000E+00  0.00000000000E+00  0.16530466188E+04  0.16530466188E+04  0.50400001928E-02 0. -1.
       -1   -1    0    0    0  501  0.00000000000E+00  0.00000000000E+00 -0.14347108324E+03  0.14347108333E+03  0.50400001928E-02 0.  1.
    10030    2    1    2    0    0  0.00000000000E+00  0.00000000000E+00  0.15095755356E+04  0.17965177021E+04  0.97399053205E+03 0.  0.
        5    1    3    3  502    0 -0.19487203445E+03 -0.58421191912E+02  0.15708668736E+04  0.15839927304E+04  0.46999998093E+01 0. -1.
       -5    1    3    3    0  502  0.19487203445E+03  0.58421191912E+02 -0.61291338053E+02  0.21252497169E+03  0.46999998093E+01 0.  1.
</event>
<event>
 5   0  0.6967681E-03  0.9942610E+03  0.7818609E-02  0.9314862E-01
       -1   -1    0    0    0  501  0.00000000000E+00  0.00000000000E+00  0.38161903882E+03  0.38161903885E+03  0.50400001928E-02 0. -1.
        1   -1    0    0  501    0  0.00000000000E+00  0.00000000000E+00 -0.64760582323E+03  0.64760582325E+03  0.50400001928E-02 0.  1.
    10030    2    1    2    0    0  0.00000000000E+00  0.00000000000E+00 -0.26598678441E+03  0.10292248621E+04  0.99426095532E+03 0.  0.
        5    1    3    3  502    0  0.19817248718E+03 -0.12152932904E+03  0.32186143004E+03  0.39706244173E+03  0.46999998093E+01 0. -1.
       -5    1    3    3    0  502 -0.19817248718E+03  0.12152932904E+03 -0.58784821445E+03  0.63216242036E+03  0.46999998093E+01 0.  1.
</event>
<event>
 5   0  0.6967681E-03  0.1010806E+04  0.7818609E-02  0.9296772E-01
        1   -1    0    0  501    0  0.00000000000E+00  0.00000000000E+00  0.27333449177E+03  0.27333449182E+03  0.50400001928E-02 0. -1.
       -1   -1    0    0    0  501  0.00000000000E+00  0.00000000000E+00 -0.93450319130E+03  0.93450319131E+03  0.50400001928E-02 0.  1.
    10030    2    1    2    0    0  0.00000000000E+00  0.00000000000E+00 -0.66116869952E+03  0.12078376831E+04  0.10108055300E+04 0.  0.
        5    1    3    3  502    0 -0.23342654828E+03  0.28643443605E+03 -0.74257778460E+03  0.82944348559E+03  0.46999998093E+01 0.  1.
       -5    1    3    3    0  502  0.23342654828E+03 -0.28643443605E+03  0.81409085081E+02  0.37839419754E+03  0.46999998093E+01 0. -1.
</event>
<event>
 5   0  0.1191822E-02  0.9652250E+03  0.7818609E-02  0.9347530E-01
        2   -1    0    0  501    0  0.00000000000E+00  0.00000000000E+00  0.43046953011E+03  0.43046953011E+03  0.25500000920E-02 0.  1.
       -2   -1    0    0    0  501  0.00000000000E+00  0.00000000000E+00 -0.54107159757E+03  0.54107159758E+03  0.25500000920E-02 0. -1.
    10030    2    1    2    0    0  0.00000000000E+00  0.00000000000E+00 -0.11060206747E+03  0.97154112769E+03  0.96522502323E+03 0.  0.
        4    1    3    3  502    0 -0.43321054027E+03  0.13647239047E+02 -0.26895306511E+03  0.51009311254E+03  0.12699999809E+01 0. -1.
       -4    1    3    3    0  502  0.43321054027E+03 -0.13647239047E+02  0.15835099764E+03  0.46144801515E+03  0.12699999809E+01 0.  1.
</event>
<event>
 5   0  0.1221315E-02  0.9388262E+03  0.7818609E-02  0.9378307E-01
       -2   -1    0    0    0  501  0.00000000000E+00  0.00000000000E+00  0.47035619664E+03  0.47035619665E+03  0.25500000920E-02 0.  1.
        2   -1    0    0  501    0  0.00000000000E+00  0.00000000000E+00 -0.46847188142E+03  0.46847188142E+03  0.25500000920E-02 0. -1.
    10030    2    1    2    0    0  0.00000000000E+00  0.00000000000E+00  0.18843152279E+01  0.93882807807E+03  0.93882618707E+03 0.  0.
        5    1    3    3  502    0  0.22970773337E+03 -0.35524063322E+03 -0.20244215536E+03  0.46900582781E+03  0.46999998093E+01 0. -1.
       -5    1    3    3    0  502 -0.22970773337E+03  0.35524063322E+03  0.20432647059E+03  0.46982225026E+03  0.46999998093E+01 0.  1.
</event>
<event>
 5   0  0.7224879E-03  0.9893771E+03  0.7818609E-02  0.9320273E-01
        1   -1    0    0  501    0  0.00000000000E+00  0.00000000000E+00  0.74871900928E+03  0.74871900929E+03  0.50400001928E-02 0.  1.
       -1   -1    0    0    0  501  0.00000000000E+00  0.00000000000E+00 -0.32684729213E+03  0.32684729217E+03  0.50400001928E-02 0. -1.
    10030    2    1    2    0    0  0.00000000000E+00  0.00000000000E+00  0.42187171714E+03  0.10755663015E+04  0.98937713897E+03 0.  0.
        3    1    3    3  502    0  0.30279419176E+03 -0.16354020697E+03  0.59726255720E+03  0.68931291464E+03  0.10100000352E+00 0.  1.
       -3    1    3    3    0  502 -0.30279419176E+03  0.16354020697E+03 -0.17539084006E+03  0.38625338683E+03  0.10100000352E+00 0. -1.
</event>
<event>
 5   0  0.1191822E-02  0.9914421E+03  0.7818609E-02  0.9317981E-01
       -2   -1    0    0    0  501  0.00000000000E+00  0.00000000000E+00  0.17080784244E+03  0.17080784246E+03  0.25500000920E-02 0.  1.
        2   -1    0    0  501    0  0.00000000000E+00  0.00000000000E+00 -0.14386891018E+04  0.14386891018E+04  0.25500000920E-02 0. -1.
    10030    2    1    2    0    0  0.00000000000E+00  0.00000000000E+00 -0.12678812594E+04  0.16094969443E+04  0.99144214443E+03 0.  0.
        4    1    3    3  502    0 -0.31106552866E+03 -0.88112188338E+02 -0.23899715351E+02  0.32418872613E+03  0.12699999809E+01 0.  1.
       -4    1    3    3    0  502  0.31106552866E+03  0.88112188338E+02 -0.12439815440E+04  0.12853082181E+04  0.12699999809E+01 0. -1.
</event>
<event>
 5   0  0.1240503E-02  0.9753769E+03  0.7818609E-02  0.9335971E-01
       -2   -1    0    0    0  501  0.00000000000E+00  0.00000000000E+00  0.15703278233E+03  0.15703278236E+03  0.25500000920E-02 0. -1.
        2   -1    0    0  501    0  0.00000000000E+00  0.00000000000E+00 -0.15145884963E+04  0.15145884963E+04  0.25500000920E-02 0.  1.
    10030    2    1    2    0    0  0.00000000000E+00  0.00000000000E+00 -0.13575557140E+04  0.16716212787E+04  0.97537694394E+03 0.  0.
        1    1    3    3  502    0 -0.42815345907E+03  0.14645147132E+03 -0.36708559707E+03  0.58267937459E+03  0.50400001928E-02 0. -1.
       -1    1    3    3    0  502  0.42815345907E+03 -0.14645147132E+03 -0.99047011694E+03  0.10889419041E+04  0.50400001928E-02 0.  1.
</event>
<event>
 5   0  0.7073004E-03  0.1020207E+04  0.7818609E-02  0.9286656E-01
        1   -1    0    0  501    0  0.00000000000E+00  0.00000000000E+00  0.33751789711E+03  0.33751789715E+03  0.50400001928E-02 0.  1.
       -1   -1    0    0    0  501  0.00000000000E+00  0.00000000000E+00 -0.77093858918E+03  0.77093858920E+03  0.50400001928E-02 0. -1.
    10030    2    1    2    0    0  0.00000000000E+00  0.00000000000E+00 -0.43342069207E+03  0.11084564863E+04  0.10202069818E+04 0.  0.
        1    1    3    3  502    0  0.53060533737E+02  0.43656505585E+03  0.64105864922E+02  0.44442550577E+03  0.50400001928E-02 0.  1.
       -1    1    3    3    0  502 -0.53060533737E+02 -0.43656505585E+03 -0.49752655699E+03  0.66403098058E+03  0.50400001928E-02 0. -1.
</event>
<event>
 5   0  0.1245850E-02  0.9626930E+03  0.7818609E-02  0.9350436E-01
       -2   -1    0    0    0  501  0.00000000000E+00  0.00000000000E+00  0.20847240837E+03  0.20847240838E+03  0.25500000920E-02 0. -1.
        2   -1    0    0  501    0  0.00000000000E+00  0.00000000000E+00 -0.11113915249E+04  0.11113915249E+04  0.25500000920E-02 0.  1.
    10030    2    1    2    0    0  0.00000000000E+00  0.00000000000E+00 -0.90291911656E+03  0.13198639333E+04  0.96269303073E+03 0.  0.
        3    1    3    3  502    0 -0.31783061230E+03 -0.20339771948E+02  0.43368473326E+02  0.32142003534E+03  0.10100000352E+00 0. -1.
       -3    1    3    3    0  502  0.31783061230E+03  0.20339771948E+02 -0.94628758989E+03  0.99844389798E+03  0.10100000352E+00 0.  1.
</event>
<event>
 5   0  0.7224879E-03  0.9947496E+03  0.7818609E-02  0.9314322E-01
        1   -1    0    0  501    0  0.00000000000E+00  0.00000000000E+00  0.11007353381E+04  0.11007353381E+04  0.50400001928E-02 0. -1.
       -1   -1    0    0    0  501  0.00000000000E+00  0.00000000000E+00 -0.22474219289E+03  0.22474219295E+03  0.50400001928E-02 0.  1.
    10030    2    1    2    0    0  0.00000000000E+00  0.00000000000E+00  0.87599314521E+03  0.13254775311E+04  0.99474956390E+03 0.  0.
        3    1    3    3  502    0  0.26347667494E+03  0.25789495643E+03 -0.68419038638E+01  0.36875003545E+03  0.10100000352E+00 0.  1.
       -3    1    3    3    0  502 -0.26347667494E+03 -0.25789495643E+03  0.88283504907E+03  0.95672749561E+03  0.10100000352E+00 0. -1.
</event>
<event>
 5   0  0.6967681E-03  0.1013677E+04  0.7818609E-02  0.9293670E-01
        1   -1    0    0  501    0  0.00000000000E+00  0.00000000000E+00  0.52668122018E+03  0.52668122020E+03  0.50400001928E-02 0.  1.
       -1   -1    0    0    0  501  0.00000000000E+00  0.00000000000E+00 -0.48774303178E+03  0.48774303181E+03  0.50400001928E-02 0. -1.
    10030    2    1    2    0    0  0.00000000000E+00  0.00000000000E+00  0.38938188391E+02  0.10144242520E+04  0.10136766647E+04 0.  0.
        5    1    3    3  502    0 -0.16317984443E+03 -0.15649224034E+02  0.49939597055E+03  0.52563388898E+03  0.46999998093E+01 0.  1.
       -5    1    3    3    0  502  0.16317984443E+03  0.15649224034E+02 -0.46045778216E+03  0.48879036303E+03  0.46999998093E+01 0. -1.
</event>
<event>
 5   0  0.4782125E-03  0.9980438E+03  0.7818609E-02  0.9310693E-01
        3   -1    0    0  501    0  0.00000000000E+00  0.00000000000E+00  0.82765881954E+03  0.82765882570E+03  0.10100000352E+00 0. -1.
       -3   -1    0    0    0  501  0.00000000000E+00  0.00000000000E+00 -0.30087619920E+03  0.30087621616E+03  0.10100000352E+00 0.  1.
    10030    2    1    2    0    0  0.00000000000E+00  0.00000000000E+00  0.52678262034E+03  0.11285350419E+04  0.99804379243E+03 0.  0.
        5    1    3    3  502    0  0.38317042592E+03  0.17184369435E+03  0.56817101699E+03  0.70653395186E+03  0.46999998093E+01 0. -1.
       -5    1    3    3    0  502 -0.38317042592E+03 -0.17184369435E+03 -0.41388396651E+02  0.42200109000E+03  0.46999998093E+01 0.  1.
</event>
<event>
 5   0  0.7073004E-03  0.9908172E+03  0.7818609E-02  0.9318674E-01
        1   -1    0    0  501    0  0.00000000000E+00  0.00000000000E+00  0.75732441398E+03  0.75732441399E+03  0.50400001928E-02 0. -1.
       -1   -1    0    0    0  501  0.00000000000E+00  0.00000000000E+00 -0.32407471036E+03  0.32407471040E+03  0.50400001928E-02 0.  1.
    10030    2    1    2    0    0  0.00000000000E+00  0.00000000000E+00  0.43324970362E+03  0.10813991244E+04  0.99081721853E+03 0.  0.
        1    1    3    3  502    0  0.43312876172E+03  0.18595075196E+03  0.38304955998E+03  0.60737564308E+03  0.50400001928E-02 0.  1.
       -1    1    3    3    0  502 -0.43312876172E+03 -0.18595075196E+03  0.50200143635E+02  0.47402348131E+03  0.50400001928E-02 0. -1.
</event>
<event>
 5   0  0.7073004E-03  0.7225466E+03  0.7818609E-02  0.9679433E-01
       -1   -1    0    0    0  501  0.00000000000E+00  0.00000000000E+00  0.13758772172E+04  0.13758772172E+04  0.50400001928E-02 0.  1.
        1   -1    0    0  501    0  0.00000000000E+00  0.00000000000E+00 -0.94861955509E+02  0.94861955643E+02  0.50400001928E-02 0. -1.
    10030    2    1    2    0    0  0.00000000000E+00  0.00000000000E+00  0.12810152617E+04  0.14707391729E+04  0.72254661710E+03 0.  0.
        1    1    3    3  502    0  0.16207146141E+03 -0.11354759229E+03  0.12557461656E+04  0.12712429534E+04  0.50400001928E-02 0.  1.
       -1    1    3    3    0  502 -0.16207146141E+03  0.11354759229E+03  0.25269096138E+02  0.19949621942E+03  0.50400001928E-02 0. -1.
</event>
<event>
 5   0  0.4782125E-03  0.1001377E+04  0.7818609E-02  0.9307035E-01
       -3   -1    0    0    0  501  0.00000000000E+00  0.00000000000E+00  0.46303051137E+03  0.46303052238E+03  0.10100000352E+00 0. -1.
        3   -1    0    0  501    0  0.00000000000E+00  0.00000000000E+00 -0.54140961796E+03  0.54140962738E+03  0.10100000352E+00 0.  1.
    10030    2    1    2    0    0  0.00000000000E+00  0.00000000000E+00 -0.78379106590E+02  0.10044401498E+04  0.10013774164E+04 0.  0.
        5    1    3    3  502    0  0.11826669090E+03  0.46600779794E+03  0.10094032336E+03  0.49128537206E+03  0.46999998093E+01 0. -1.
       -5    1    3    3    0  502 -0.11826669090E+03 -0.46600779794E+03 -0.17931942995E+03  0.51315477770E+03  0.46999998093E+01 0.  1.
</event>
<event>
 5   0  0.1245850E-02  0.1012065E+04  0.7818609E-02  0.9295410E-01
       -2   -1    0    0    0  501  0.00000000000E+00  0.00000000000E+00  0.16295399123E+03  0.16295399125E+03  0.25500000920E-02 0. -1.
        2   -1    0    0  501    0  0.00000000000E+00  0.00000000000E+00 -0.15714190586E+04  0.15714190587E+04  0.25500000920E-02 0.  1.
    10030    2    1    2    0    0  0.00000000000E+00  0.00000000000E+00 -0.14084650674E+04  0.17343730499E+04  0.10120652301E+04 0.  0.
        3    1    3    3  502    0 -0.21062891680E+02  0.72675949709E+02  0.15320447004E+03  0.17087146899E+03  0.10100000352E+00 0. -1.
       -3    1    3    3    0  502  0.21062891680E+02 -0.72675949709E+02 -0.15616695375E+04  0.15635015809E+04  0.10100000352E+00 0.  1.
</event>
<event>
 5   0  0.7073004E-03  0.9954226E+03  0.7818609E-02  0.9313579E-01
       -1   -1    0    0    0  501  0.00000000000E+00  0.00000000000E+00  0.80169853840E+03  0.80169853842E+03  0.50400001928E-02 0.  1.
        1   -1    0    0  501    0  0.00000000000E+00  0.00000000000E+00 -0.30898965954E+03  0.30898965958E+03  0.50400001928E-02 0. -1.
    10030    2    1    2    0    0  0.00000000000E+00  0.00000000000E+00  0.49270887886E+03  0.11106881980E+04  0.99542264083E+03 0.  0.
        1    1    3    3  502    0 -0.35506273439E+03 -0.23000280546E+03  0.53890941129E+03  0.68512348484E+03  0.50400001928E-02 0.  1.
       -1    1    3    3    0  502  0.35506273439E+03  0.23000280546E+03 -0.46200532428E+02  0.42556471317E+03  0.50400001928E-02 0. -1.
</event>
<event>
 5   0  0.7461157E-03  0.1000332E+04  0.7818609E-02  0.9308181E-01
       -1   -1    0    0    0  501  0.00000000000E+00  0.00000000000E+00  0.13444452425E+03  0.13444452435E+03  0.50400001928E-02 0. -1.
        1   -1    0    0  501    0  0.00000000000E+00  0.00000000000E+00 -0.18607386265E+04  0.18607386265E+04  0.50400001928E-02 0.  1.
    10030    2    1    2    0    0  0.00000000000E+00  0.00000000000E+00 -0.17262941023E+04  0.19951831509E+04  0.10003321838E+04 0.  0.
        2    1    3    3  502    0 -0.68213592257E+02 -0.32422400367E+03 -0.11582218984E+03  0.35098301724E+03  0.25500000920E-02 0. -1.
       -2    1    3    3    0  502  0.68213592257E+02  0.32422400367E+03 -0.16104719124E+04  0.16442001336E+04  0.25500000920E-02 0.  1.
</event>
<event>
 5   0  0.6967681E-03  0.9987847E+03  0.7818609E-02  0.9309879E-01
        1   -1    0    0  501    0  0.00000000000E+00  0.00000000000E+00  0.89341756528E+03  0.89341756530E+03  0.50400001928E-02 0.  1.
       -1   -1    0    0    0  501  0.00000000000E+00  0.00000000000E+00 -0.27914464631E+03  0.27914464636E+03  0.50400001928E-02 0. -1.
    10030    2    1    2    0    0  0.00000000000E+00  0.00000000000E+00  0.61427291897E+03  0.11725622117E+04  0.99878472216E+03 0.  0.
        5    1    3    3  502    0  0.20303351315E+03 -0.27487360543E+03 -0.12035115696E+03  0.36233216447E+03  0.46999998093E+01 0. -1.
       -5    1    3    3    0  502 -0.20303351315E+03  0.27487360543E+03  0.73462407594E+03  0.81023004719E+03  0.46999998093E+01 0.  1.
</event>
<event>
 5   0  0.1191822E-02  0.7921744E+03  0.7818609E-02  0.9571414E-01
       -2   -1    0    0    0  501  0.00000000000E+00  0.00000000000E+00  0.68506243103E+03  0.68506243103E+03  0.25500000920E-02 0. -1.
        2   -1    0    0  501    0  0.00000000000E+00  0.00000000000E+00 -0.22900842249E+03  0.22900842250E+03  0.25500000920E-02 0.  1.
    10030    2    1    2    0    0  0.00000000000E+00  0.00000000000E+00  0.45605400854E+03  0.91407085353E+03  0.79217439152E+03 0.  0.
        4    1    3    3  502    0 -0.69350389387E+02 -0.22912822283E+03 -0.13608294892E+03  0.27537138721E+03  0.12699999809E+01 0.  1.
       -4    1    3    3    0  502  0.69350389387E+02  0.22912822283E+03  0.59213695745E+03  0.63869946633E+03  0.12699999809E+01 0. -1.
</event>
<event>
 5   0  0.1245850E-02  0.1002549E+04  0.7818609E-02  0.9305754E-01
        2   -1    0    0  501    0  0.00000000000E+00  0.00000000000E+00  0.46877561712E+03  0.46877561713E+03  0.25500000920E-02 0. -1.
       -2   -1    0    0    0  501  0.00000000000E+00  0.00000000000E+00 -0.53602642655E+03  0.53602642656E+03  0.25500000920E-02 0.  1.
    10030    2    1    2    0    0  0.00000000000E+00  0.00000000000E+00 -0.67250809431E+02  0.10048020437E+04  0.10025489891E+04 0.  0.
        3    1    3    3  502    0 -0.10169369042E+02 -0.41281316248E+03 -0.31844354398E+03  0.52146373228E+03  0.10100000352E+00 0.  1.
       -3    1    3    3    0  502  0.10169369042E+02  0.41281316248E+03  0.25119273455E+03  0.48333831140E+03  0.10100000352E+00 0. -1.
</event>
<event>
 5   0  0.7241200E-03  0.9853666E+03  0.7818609E-02  0.9324742E-01
        1   -1    0    0  501    0  0.00000000000E+00  0.00000000000E+00  0.56948262487E+03  0.56948262489E+03  0.50400001928E-02 0.  1.
       -1   -1    0    0    0  501  0.00000000000E+00  0.00000000000E+00 -0.42624096607E+03  0.42624096610E+03  0.50400001928E-02 0. -1.
    10030    2    1    2    0    0  0.00000000000E+00  0.00000000000E+00  0.14324165880E+03  0.99572359099E+03  0.98536657992E+03 0.  0.
        4    1    3    3  502    0  0.30820475621E+03  0.35469897129E+03  0.22127771838E+03  0.51939096405E+03  0.12699999809E+01 0. -1.
       -4    1    3    3    0  502 -0.30820475621E+03 -0.35469897129E+03 -0.78036059580E+02  0.47633262693E+03  0.12699999809E+01 0.  1.
</event>
<event>
 5   0  0.7461157E-03  0.1016335E+04  0.7818609E-02  0.9290809E-01
       -1   -1    0    0    0  501  0.00000000000E+00  0.00000000000E+00  0.13736021891E+04  0.13736021891E+04  0.50400001928E-02 0. -1.
        1   -1    0    0  501    0  0.00000000000E+00  0.00000000000E+00 -0.18799763702E+03  0.18799763709E+03  0.50400001928E-02 0.  1.
    10030    2    1    2    0    0  0.00000000000E+00  0.00000000000E+00  0.11856045521E+04  0.15615998262E+04  0.10163345233E+04 0.  0.
        2    1    3    3  502    0 -0.15839992139E+03  0.46193170789E+03  0.37680199184E+03  0.61680724616E+03  0.25500000920E-02 0. -1.
       -2    1    3    3    0  502  0.15839992139E+03 -0.46193170789E+03  0.80880256025E+03  0.94479258005E+03  0.25500000920E-02 0.  1.
</event>
<event>
 5   0  0.7241200E-03  0.9801608E+03  0.7818609E-02  0.9330576E-01
       -1   -1    0    0    0  501  0.00000000000E+00  0.00000000000E+00  0.18636984286E+03  0.18636984293E+03  0.50400001928E-02 0.  1.
        1   -1    0    0  501    0  0.00000000000E+00  0.00000000000E+00 -0.12887212829E+04  0.12887212829E+04  0.50400001928E-02 0. -1.
    10030    2    1    2    0    0  0.00000000000E+00  0.00000000000E+00 -0.11023514401E+04  0.14750911259E+04  0.98016076854E+03 0.  0.
        4    1    3    3  502    0 -0.23096564369E+03  0.22748871797E+03  0.19432420389E+01  0.32419382236E+03  0.12699999809E+01 0.  1.
       -4    1    3    3    0  502  0.23096564369E+03 -0.22748871797E+03 -0.11042946821E+04  0.11508973035E+04  0.12699999809E+01 0. -1.
</event>
<event>
 5   0  0.7073004E-03  0.9802732E+03  0.7818609E-02  0.9330449E-01
        1   -1    0    0  501    0  0.00000000000E+00  0.00000000000E+00  0.39466987426E+03  0.39466987429E+03  0.50400001928E-02 0.  1.
       -1   -1    0    0    0  501  0.00000000000E+00  0.00000000000E+00 -0.60869583821E+03  0.60869583823E+03  0.50400001928E-02 0. -1.
    10030    2    1    2    0    0  0.00000000000E+00  0.00000000000E+00 -0.21402596395E+03  0.10033657125E+04  0.98027324752E+03 0.  0.
        1    1    3    3  502    0 -0.47258174449E+03  0.10058021082E+03 -0.22707492549E+02  0.48369981835E+03  0.50400001928E-02 0.  1.
       -1    1    3    3    0  502  0.47258174449E+03 -0.10058021082E+03 -0.19131847140E+03  0.51966589416E+03  0.50400001928E-02 0. -1.
</event>
<event>
 5   0  0.4782125E-03  0.7016119E+03  0.7818609E-02  0.9714480E-01
        3   -1    0    0  501    0  0.00000000000E+00  0.00000000000E+00  0.16824311909E+03  0.16824314940E+03  0.10100000352E+00 0. -1.
       -3   -1    0    0    0  501  0.00000000000E+00  0.00000000000E+00 -0.73147004047E+03  0.73147004744E+03  0.10100000352E+00 0.  1.
    10030    2    1    2    0    0  0.00000000000E+00  0.00000000000E+00 -0.56322692138E+03  0.89971319685E+03  0.70161190954E+03 0.  0.
        2    1    3    3  502    0  0.71205138333E+02  0.22713960248E+03  0.48831038518E+02  0.24299596925E+03  0.25500000920E-02 0. -1.
       -2    1    3    3    0  502 -0.71205138333E+02 -0.22713960248E+03 -0.61205795990E+03  0.65671722760E+03  0.25500000920E-02 0.  1.
</event>
<event>
 5   0  0.7241200E-03  0.1016338E+04  0.7818609E-02  0.9290805E-01
        1   -1    0    0  501    0  0.00000000000E+00  0.00000000000E+00  0.92049449068E+03  0.92049449070E+03  0.50400001928E-02 0. -1.
       -1   -1    0    0    0  501  0.00000000000E+00  0.00000000000E+00 -0.28054006911E+03  0.28054006916E+03  0.50400001928E-02 0.  1.
    10030    2    1    2    0    0  0.00000000000E+00  0.00000000000E+00  0.63995442157E+03  0.12010345599E+04  0.10163377157E+04 0.  0.
        4    1    3    3  502    0 -0.24519340804E+03 -0.44507814575E+03  0.31474387826E+03  0.59772877208E+03  0.12699999809E+01 0.  1.
       -4    1    3    3    0  502  0.24519340804E+03  0.44507814575E+03  0.32521054331E+03  0.60330578777E+03  0.12699999809E+01 0. -1.
</event>
<event>
 5   0  0.1191822E-02  0.9297799E+03  0.7818609E-02  0.9389102E-01
       -2   -1    0    0    0  501  0.00000000000E+00  0.00000000000E+00  0.39443163952E+03  0.39443163953E+03  0.25500000920E-02 0. -1.
        2   -1    0    0  501    0  0.00000000000E+00  0.00000000000E+00 -0.54793442440E+03  0.54793442441E+03  0.25500000920E-02 0.  1.
    10030    2    1    2    0    0  0.00000000000E+00  0.00000000000E+00 -0.15350278488E+03  0.94236606394E+03  0.92977991670E+03 0.  0.
        4    1    3    3  502    0 -0.18762428922E+03  0.41515940912E+03 -0.17052874349E+03  0.48645850198E+03  0.12699999809E+01 0. -1.
       -4    1    3    3    0  502  0.18762428922E+03 -0.41515940912E+03  0.17025958615E+02  0.45590756196E+03  0.12699999809E+01 0.  1.
</event>
<event>
 5   0  0.4782125E-03  0.1013061E+04  0.7818609E-02  0.9294335E-01
       -3   -1    0    0    0  501  0.00000000000E+00  0.00000000000E+00  0.81793208700E+03  0.81793209323E+03  0.10100000352E+00 0.  1.
        3   -1    0    0  501    0  0.00000000000E+00  0.00000000000E+00 -0.31368515685E+03  0.31368517311E+03  0.10100000352E+00 0. -1.
    10030    2    1    2    0    0  0.00000000000E+00  0.00000000000E+00  0.50424693014E+03  0.11316172663E+04  0.10130610401E+04 0.  0.
        1    1    3    3  502    0  0.32158028323E+03  0.34930307528E+03  0.54985791046E+02  0.47796438592E+03  0.50400001928E-02 0. -1.
       -1    1    3    3    0  502 -0.32158028323E+03 -0.34930307528E+03  0.44926113910E+03  0.65365288043E+03  0.50400001928E-02 0.  1.
</event>
<event>
 5   0  0.1191822E-02  0.1004242E+04  0.7818609E-02  0.9303905E-01
       -2   -1    0    0    0  501  0.00000000000E+00  0.00000000000E+00  0.14089519485E+03  0.14089519488E+03  0.25500000920E-02 0.  1.
        2   -1    0    0  501    0  0.00000000000E+00  0.00000000000E+00 -0.17894538612E+04  0.17894538612E+04  0.25500000920E-02 0. -1.
    10030    2    1    2    0    0  0.00000000000E+00  0.00000000000E+00 -0.16485586663E+04  0.19303490560E+04  0.10042419041E+04 0.  0.
        4    1    3    3  502    0  0.43003545703E+03 -0.23985371982E+03 -0.63532121692E+03  0.80380032520E+03  0.12699999809E+01 0.  1.
       -4    1    3    3    0  502 -0.43003545703E+03  0.23985371982E+03 -0.10132374494E+04  0.11265487308E+04  0.12699999809E+01 0. -1.
</event>
<event>
 5   0  0.7073004E-03  0.9979188E+03  0.7818609E-02  0.9310830E-01
       -1   -1    0    0    0  501  0.00000000000E+00  0.00000000000E+00  0.54623166777E+03  0.54623166780E+03  0.50400001928E-02 0.  1.
        1   -1    0    0  501    0  0.00000000000E+00  0.00000000000E+00 -0.45577816075E+03  0.45577816078E+03  0.50400001928E-02 0. -1.
    10030    2    1    2    0    0  0.00000000000E+00  0.00000000000E+00  0.90453507019E+02  0.10020098286E+04  0.99791876405E+03 0.  0.
        1    1    3    3  502    0  0.48935779900E+03  0.40408118805E+02  0.13422755770E+03  0.50903920162E+03  0.50400001928E-02 0.  1.
       -1    1    3    3    0  502 -0.48935779900E+03 -0.40408118805E+02 -0.43774050678E+02  0.49297062696E+03  0.50400001928E-02 0. -1.
</event>
<event>
 5   0  0.7241200E-03  0.9881337E+03  0.7818609E-02  0.9321656E-01
        1   -1    0    0  501    0  0.00000000000E+00  0.00000000000E+00  0.75547728148E+03  0.75547728150E+03  0.50400001928E-02 0. -1.
       -1   -1    0    0    0  501  0.00000000000E+00  0.00000000000E+00 -0.32310969984E+03  0.32310969988E+03  0.50400001928E-02 0.  1.
    10030    2    1    2    0    0  0.00000000000E+00  0.00000000000E+00  0.43236758164E+03  0.10785869814E+04  0.98813367048E+03 0.  0.
        4    1    3    3  502    0  0.87521235571E+02  0.48584258063E+03  0.19442283492E+03  0.53057028891E+03  0.12699999809E+01 0.  1.
       -4    1    3    3    0  502 -0.87521235571E+02 -0.48584258063E+03  0.23794474672E+03  0.54801669247E+03  0.12699999809E+01 0. -1.
</event>
<event>
 5   0  0.1191822E-02  0.9858674E+03  0.7818609E-02  0.9324182E-01
        2   -1    0    0  501    0  0.00000000000E+00  0.00000000000E+00  0.92865143470E+03  0.92865143470E+03  0.25500000920E-02 0.  1.
       -2   -1    0    0    0  501  0.00000000000E+00  0.00000000000E+00 -0.26165215124E+03  0.26165215125E+03  0.25500000920E-02 0. -1.
    10030    2    1    2    0    0  0.00000000000E+00  0.00000000000E+00  0.66699928346E+03  0.11903035860E+04  0.98586742649E+03 0.  0.
        4    1    3    3  502    0 -0.48233222522E+03 -0.10021981579E+03  0.35418919495E+03  0.60674540434E+03  0.12699999809E+01 0. -1.
       -4    1    3    3    0  502  0.48233222522E+03  0.10021981579E+03  0.31281008850E+03  0.58355818162E+03  0.12699999809E+01 0.  1.
</event>
<event>
 5   0  0.1191822E-02  0.9899997E+03  0.7818609E-02  0.9319581E-01
        2   -1    0    0  501    0  0.00000000000E+00  0.00000000000E+00  0.72375509717E+03  0.72375509718E+03  0.25500000920E-02 0. -1.
       -2   -1    0    0    0  501  0.00000000000E+00  0.00000000000E+00 -0.33854660874E+03  0.33854660875E+03  0.25500000920E-02 0.  1.
    10030    2    1    2    0    0  0.00000000000E+00  0.00000000000E+00  0.38520848843E+03  0.10623017059E+04  0.98999966407E+03 0.  0.
        4    1    3    3  502    0 -0.39460556486E+03 -0.17387235089E+03 -0.68206812096E+02  0.43657637172E+03  0.12699999809E+01 0.  1.
       -4    1    3    3    0  502  0.39460556486E+03  0.17387235089E+03  0.45341530052E+03  0.62572533421E+03  0.12699999809E+01 0. -1.
</event>
<event>
 5   0  0.1221315E-02  0.9484494E+03  0.7818609E-02  0.9366965E-01
       -2   -1    0    0    0  501  0.00000000000E+00  0.00000000000E+00  0.11078001873E+03  0.11078001876E+03  0.25500000920E-02 0.  1.
        2   -1    0    0  501    0  0.00000000000E+00  0.00000000000E+00 -0.20300506202E+04  0.20300506202E+04  0.25500000920E-02 0. -1.
    10030    2    1    2    0    0  0.00000000000E+00  0.00000000000E+00 -0.19192706015E+04  0.21408306390E+04  0.94844935715E+03 0.  0.
        5    1    3    3  502    0 -0.21809138981E+03 -0.34449825311E+03 -0.15061553426E+04  0.15603746046E+04  0.46999998093E+01 0. -1.
       -5    1    3    3    0  502  0.21809138981E+03  0.34449825311E+03 -0.41311525890E+03  0.58045603437E+03  0.46999998093E+01 0.  1.
</event>
<event>
 5   0  0.1240503E-02  0.1006094E+04  0.7818609E-02  0.9301886E-01
       -2   -1    0    0    0  501  0.00000000000E+00  0.00000000000E+00  0.14372791584E+03  0.14372791586E+03  0.25500000920E-02 0.  1.
        2   -1    0    0  501    0  0.00000000000E+00  0.00000000000E+00 -0.17606625003E+04  0.17606625003E+04  0.25500000920E-02 0. -1.
    10030    2    1    2    0    0  0.00000000000E+00  0.00000000000E+00 -0.16169345845E+04  0.19043904162E+04  0.10060941341E+04 0.  0.
        1    1    3    3  502    0 -0.17568575997E+03  0.60580518912E+02  0.76370832987E+02  0.20091786800E+03  0.50400001928E-02 0.  1.
       -1    1    3    3    0  502  0.17568575997E+03 -0.60580518912E+02 -0.16933054175E+04  0.17034725482E+04  0.50400001928E-02 0. -1.
</event>
<event>
 5   0  0.6967681E-03  0.9802368E+03  0.7818609E-02  0.9330490E-01
        1   -1    0    0  501    0  0.00000000000E+00  0.00000000000E+00  0.79392117796E+03  0.79392117798E+03  0.50400001928E-02 0.  1.
       -1   -1    0    0    0  501  0.00000000000E+00  0.00000000000E+00 -0.30256911489E+03  0.30256911493E+03  0.50400001928E-02 0. -1.
    10030    2    1    2    0    0  0.00000000000E+00  0.00000000000E+00  0.49135206307E+03  0.10964902929E+04  0.98023676352E+03 0.  0.
        5    1    3    3  502    0 -0.20854968356E+03  0.53339028878E+02 -0.24683201897E+03  0.32754565804E+03  0.46999998093E+01 0. -1.
       -5    1    3    3    0  502  0.20854968356E+03 -0.53339028878E+02  0.73818408204E+03  0.76894463487E+03  0.46999998093E+01 0.  1.
</event>
<event>
 5   0  0.1221315E-02  0.1000618E+04  0.7818609E-02  0.9307867E-01
       -2   -1    0    0    0  501  0.00000000000E+00  0.00000000000E+00  0.40746451745E+03  0.40746451746E+03  0.25500000920E-02 0.  1.
        2   -1    0    0  501    0  0.00000000000E+00  0.00000000000E+00 -0.61430934183E+03  0.61430934184E+03  0.25500000920E-02 0. -1.
    10030    2    1    2    0    0  0.00000000000E+00  0.00000000000E+00 -0.20684482438E+03  0.10217738593E+04  0.10006183279E+04 0.  0.
        5    1    3    3  502    0  0.63478379287E+02 -0.16672653241E+03 -0.58070130399E+03  0.60750583182E+03  0.46999998093E+01 0. -1.
       -5    1    3    3    0  502 -0.63478379287E+02  0.16672653241E+03  0.37385647961E+03  0.41426802748E+03  0.46999998093E+01 0.  1.
</event>
<event>
 5   0  0.4782125E-03  0.9972883E+03  0.7818609E-02  0.9311524E-01
       -4   -1    0    0    0  501  0.00000000000E+00  0.00000000000E+00  0.14408433494E+04  0.14408439091E+04  0.12699999809E+01 0. -1.
        4   -1    0    0  501    0  0.00000000000E+00  0.00000000000E+00 -0.17256681268E+03  0.17257148588E+03  0.12699999809E+01 0.  1.
    10030    2    1    2    0    0  0.00000000000E+00  0.00000000000E+00  0.12682765367E+04  0.16134153950E+04  0.99728825483E+03 0.  0.
        5    1    3    3  502    0 -0.34727729085E+03 -0.33614763851E+03  0.83245686026E+03  0.96260234043E+03  0.46999998093E+01 0.  1.
       -5    1    3    3    0  502  0.34727729085E+03  0.33614763851E+03  0.43581967649E+03  0.65081305459E+03  0.46999998093E+01 0. -1.
</event>
<event>
 5   0  0.1221315E-02  0.8473962E+03  0.7818609E-02  0.9493838E-01
        2   -1    0    0  501    0  0.00000000000E+00  0.00000000000E+00  0.23712308847E+04  0.23712308847E+04  0.25500000920E-02 0. -1.
       -2   -1    0    0    0  501  0.00000000000E+00  0.00000000000E+00 -0.75707552192E+02  0.75707552235E+02  0.25500000920E-02 0.  1.
    10030    2    1    2    0    0  0.00000000000E+00  0.00000000000E+00  0.22955233325E+04  0.24469384369E+04  0.84739621434E+03 0.  0.
        5    1    3    3  502    0  0.30365927886E+03 -0.54745507732E+02  0.30940346020E+03  0.43698812276E+03  0.46999998093E+01 0.  1.
       -5    1    3    3    0  502 -0.30365927886E+03  0.54745507732E+02  0.19861198723E+04  0.20099503142E+04  0.46999998093E+01 0. -1.
</event>
<event>
 5   0  0.7224879E-03  0.9888834E+03  0.7818609E-02  0.9320822E-01
       -1   -1    0    0    0  501  0.00000000000E+00  0.00000000000E+00  0.16401040888E+04  0.16401040888E+04  0.50400001928E-02 0. -1.
        1   -1    0    0  501    0  0.00000000000E+00  0.00000000000E+00 -0.14905919300E+03  0.14905919309E+03  0.50400001928E-02 0.  1.
    10030    2    1    2    0    0  0.00000000000E+00  0.00000000000E+00  0.14910448958E+04  0.17891632819E+04  0.98888339454E+03 0.  0.
        3    1    3    3  502    0 -0.48061579237E+02 -0.27852009512E+03  0.14795385550E+04  0.15062927022E+04  0.10100000352E+00 0. -1.
       -3    1    3    3    0  502  0.48061579237E+02  0.27852009512E+03  0.11506340813E+02  0.28287057971E+03  0.10100000352E+00 0.  1.
</event>
<event>
 5   0  0.7241200E-03  0.9930765E+03  0.7818609E-02  0.9316171E-01
        1   -1    0    0  501    0  0.00000000000E+00  0.00000000000E+00  0.38336199711E+03  0.38336199715E+03  0.50400001928E-02 0.  1.
       -1   -1    0    0    0  501  0.00000000000E+00  0.00000000000E+00 -0.64312645354E+03  0.64312645356E+03  0.50400001928E-02 0. -1.
    10030    2    1    2    0    0  0.00000000000E+00  0.00000000000E+00 -0.25976445643E+03  0.10264884507E+04  0.99307651599E+03 0.  0.
        4    1    3    3  502    0  0.36358047571E+02  0.40042578765E+03 -0.43103659098E+03  0.58945472659E+03  0.12699999809E+01 0. -1.
       -4    1    3    3    0  502 -0.36358047571E+02 -0.40042578765E+03  0.17127213456E+03  0.43703372411E+03  0.12699999809E+01 0.  1.
</event>
<event>
 5   0  0.7224879E-03  0.9931962E+03  0.7818609E-02  0.9316039E-01
       -1   -1    0    0    0  501  0.00000000000E+00  0.00000000000E+00  0.58179256900E+03  0.58179256902E+03  0.50400001928E-02 0.  1.
        1   -1    0    0  501    0  0.00000000000E+00  0.00000000000E+00 -0.42387907533E+03  0.42387907536E+03  0.50400001928E-02 0. -1.
    10030    2    1    2    0    0  0.00000000000E+00  0.00000000000E+00  0.15791349366E+03  0.10056716444E+04  0.99319624689E+03 0.  0.
        3    1    3    3  502    0 -0.37583395775E+03  0.24437884614E+03 -0.13735597735E+03  0.46886976758E+03  0.10100000352E+00 0. -1.
       -3    1    3    3    0  502  0.37583395775E+03 -0.24437884614E+03  0.29526947101E+03  0.53680187681E+03  0.10100000352E+00 0.  1.
</event>
<event>
 5   0  0.7224879E-03  0.1000909E+04  0.7818609E-02  0.9307549E-01
       -1   -1    0    0    0  501  0.00000000000E+00  0.00000000000E+00  0.27969283473E+03  0.27969283478E+03  0.50400001928E-02 0. -1.
        1   -1    0    0  501    0  0.00000000000E+00  0.00000000000E+00 -0.89546274261E+03  0.89546274263E+03  0.50400001928E-02 0.  1.
    10030    2    1    2    0    0  0.00000000000E+00  0.00000000000E+00 -0.61576990788E+03  0.11751555774E+04  0.10009086130E+04 0.  0.
        3    1    3    3  502    0 -0.47582651898E+03 -0.14905444005E+03 -0.25770861825E+03  0.56128588472E+03  0.10100000352E+00 0. -1.
       -3    1    3    3    0  502  0.47582651898E+03  0.14905444005E+03 -0.35806128963E+03  0.61386969268E+03  0.10100000352E+00 0.  1.
</event>
<event>
 5   0  0.1216322E-02  0.9814230E+03  0.7818609E-02  0.9329158E-01
       -2   -1    0    0    0  501  0.00000000000E+00  0.00000000000E+00  0.11583883331E+04  0.11583883332E+04  0.25500000920E-02 0.  1.
        2   -1    0    0  501    0  0.00000000000E+00  0.00000000000E+00 -0.20787309750E+03  0.20787309751E+03  0.25500000920E-02 0. -1.
    10030    2    1    2    0    0  0.00000000000E+00  0.00000000000E+00  0.95051523565E+03  0.13662614307E+04  0.98142298919E+03 0.  0.
        2    1    3    3  502    0 -0.12770224677E+03  0.45585009716E+03  0.65510888591E+03  0.80825418484E+03  0.25500000920E-02 0.  1.
       -2    1    3    3    0  502  0.12770224677E+03 -0.45585009716E+03  0.29540634975E+03  0.55800724582E+03  0.25500000920E-02 0. -1.
</event>
<event>
 5   0  0.6967681E-03  0.1000874E+04  0.7818609E-02  0.9307587E-01
        1   -1    0    0  501    0  0.00000000000E+00  0.00000000000E+00  0.82740790653E+03  0.82740790655E+03  0.50400001928E-02 0. -1.
       -1   -1    0    0    0  501  0.00000000000E+00  0.00000000000E+00 -0.30267688978E+03  0.30267688982E+03  0.50400001928E-02 0.  1.
    10030    2    1    2    0    0  0.00000000000E+00  0.00000000000E+00  0.52473101676E+03  0.11300847964E+04  0.10008741215E+04 0.  0.
        5    1    3    3  502    0 -0.23125872373E+03  0.41330112061E+03  0.79895655236E+02  0.48031637419E+03  0.46999998093E+01 0. -1.
       -5    1    3    3    0  502  0.23125872373E+03 -0.41330112061E+03  0.44483536152E+03  0.64976842217E+03  0.46999998093E+01 0.  1.
</event>
<event>
 5   0  0.7461157E-03  0.1008600E+04  0.7818609E-02  0.9299162E-01
       -1   -1    0    0    0  501  0.00000000000E+00  0.00000000000E+00  0.46972705142E+03  0.46972705145E+03  0.50400001928E-02 0.  1.
        1   -1    0    0  501    0  0.00000000000E+00  0.00000000000E+00 -0.54141788881E+03  0.54141788884E+03  0.50400001928E-02 0. -1.
    10030    2    1    2    0    0  0.00000000000E+00  0.00000000000E+00 -0.71690837394E+02  0.10111449403E+04  0.10086002747E+04 0.  0.
        2    1    3    3  502    0  0.59741850033E+02 -0.27756905426E+03  0.38198537191E+03  0.47594799389E+03  0.25500000920E-02 0.  1.
       -2    1    3    3    0  502 -0.59741850033E+02  0.27756905426E+03 -0.45367620931E+03  0.53519694639E+03  0.25500000920E-02 0. -1.
</event>
<event>
 5   0  0.7224879E-03  0.6211109E+03  0.7818609E-02  0.9862550E-01
       -1   -1    0    0    0  501  0.00000000000E+00  0.00000000000E+00  0.24384726480E+03  0.24384726485E+03  0.50400001928E-02 0.  1.
        1   -1    0    0  501    0  0.00000000000E+00  0.00000000000E+00 -0.39551271103E+03  0.39551271106E+03  0.50400001928E-02 0. -1.
    10030    2    1    2    0    0  0.00000000000E+00  0.00000000000E+00 -0.15166544623E+03  0.63935997591E+03  0.62111091700E+03 0.  0.
        3    1    3    3  502    0  0.60693131531E+02  0.26295491547E+03 -0.23402200394E+03  0.35720477645E+03  0.10100000352E+00 0. -1.
       -3    1    3    3    0  502 -0.60693131531E+02 -0.26295491547E+03  0.82356557708E+02  0.28215519946E+03  0.10100000352E+00 0.  1.
</event>
<event>
 5   0  0.1240503E-02  0.9654675E+03  0.7818609E-02  0.9347252E-01
       -2   -1    0    0    0  501  0.00000000000E+00  0.00000000000E+00  0.30015122671E+03  0.30015122672E+03  0.25500000920E-02 0. -1.
        2   -1    0    0  501    0  0.00000000000E+00  0.00000000000E+00 -0.77638162597E+03  0.77638162597E+03  0.25500000920E-02 0.  1.
    10030    2    1    2    0    0  0.00000000000E+00  0.00000000000E+00 -0.47623039926E+03  0.10765328527E+04  0.96546754981E+03 0.  0.
        1    1    3    3  502    0 -0.16696192974E+03  0.40970287537E+03 -0.45346236683E+03  0.63353046511E+03  0.50400001928E-02 0.  1.
       -1    1    3    3    0  502  0.16696192974E+03 -0.40970287537E+03 -0.22768032434E+02  0.44300238758E+03  0.50400001928E-02 0. -1.
</event>
<event>
 5   0  0.1216322E-02  0.1010050E+04  0.7818609E-02  0.9297591E-01
        2   -1    0    0  501    0  0.00000000000E+00  0.00000000000E+00  0.15497155254E+04  0.15497155254E+04  0.25500000920E-02 0. -1.
       -2   -1    0    0    0  501  0.00000000000E+00  0.00000000000E+00 -0.16457861410E+03  0.16457861412E+03  0.25500000920E-02 0.  1.
    10030    2    1    2    0    0  0.00000000000E+00  0.00000000000E+00  0.13851369113E+04  0.17142941396E+04  0.10100495699E+04 0.  0.
        2    1    3    3  502    0 -0.10726957340E+03 -0.21895883171E+03  0.14432010402E+04  0.14636526138E+04  0.25500000920E-02 0. -1.
       -2    1    3    3    0  502  0.10726957340E+03  0.21895883171E+03 -0.58064128892E+02  0.25064152575E+03  0.25500000920E-02 0.  1.
</event>
<event>
 5   0  0.7224879E-03  0.1000312E+04  0.7818609E-02  0.9308203E-01
        1   -1    0    0  501    0  0.00000000000E+00  0.00000000000E+00  0.18294590733E+04  0.18294590733E+04  0.50400001928E-02 0.  1.
       -1   -1    0    0    0  501  0.00000000000E+00  0.00000000000E+00 -0.13673762850E+03  0.13673762859E+03  0.50400001928E-02 0. -1.
    10030    2    1    2    0    0  0.00000000000E+00  0.00000000000E+00  0.16927214448E+04  0.19661967019E+04  0.10003117419E+04 0.  0.
        3    1    3    3  502    0 -0.83760902442E+02 -0.43229800584E+03  0.38014662435E+03  0.58172925046E+03  0.10100000352E+00 0. -1.
       -3    1    3    3    0  502  0.83760902442E+02  0.43229800584E+03  0.13125748205E+04  0.13844674515E+04  0.10100000352E+00 0.  1.
</event>
<event>
 5   0  0.1240503E-02  0.9333942E+03  0.7818609E-02  0.9384774E-01
       -2   -1    0    0    0  501  0.00000000000E+00  0.00000000000E+00  0.31749981818E+03  0.31749981819E+03  0.25500000920E-02 0.  1.
        2   -1    0    0  501    0  0.00000000000E+00  0.00000000000E+00 -0.68600404974E+03  0.68600404975E+03  0.25500000920E-02 0. -1.
    10030    2    1    2    0    0  0.00000000000E+00  0.00000000000E+00 -0.36850423156E+03  0.10035038679E+04  0.93339415270E+03 0.  0.
        1    1    3    3  502    0 -0.17215354525E+03 -0.29576478520E+03  0.15690352602E+03  0.37647359510E+03  0.50400001928E-02 0.  1.
       -1    1    3    3    0  502  0.17215354525E+03  0.29576478520E+03 -0.52540775758E+03  0.62703027284E+03  0.50400001928E-02 0. -1.
</event>
<event>
 5   0  0.7073004E-03  0.9952497E+03  0.7818609E-02  0.9313770E-01
        1   -1    0    0  501    0  0.00000000000E+00  0.00000000000E+00  0.98507819080E+03  0.98507819081E+03  0.50400001928E-02 0. -1.
       -1   -1    0    0    0  501  0.00000000000E+00  0.00000000000E+00 -0.25138155933E+03  0.25138155938E+03  0.50400001928E-02 0.  1.
    10030    2    1    2    0    0  0.00000000000E+00  0.00000000000E+00  0.73369663147E+03  0.12364597502E+04  0.99524970073E+03 0.  0.
        1    1    3    3  502    0  0.34315118398E+03  0.18151620630E+01 -0.80875099937E+02  0.35255752963E+03  0.50400001928E-02 0.  1.
       -1    1    3    3    0  502 -0.34315118398E+03 -0.18151620630E+01  0.81457173141E+03  0.88390222056E+03  0.50400001928E-02 0. -1.
</event>
<event>
 5   0  0.7224879E-03  0.9917816E+03  0.7818609E-02  0.9317605E-01
        1   -1    0    0  501    0  0.00000000000E+00  0.00000000000E+00  0.54781437682E+03  0.54781437684E+03  0.50400001928E-02 0.  1.
       -1   -1    0    0    0  501  0.00000000000E+00  0.00000000000E+00 -0.44888869099E+03  0.44888869102E+03  0.50400001928E-02 0. -1.
    10030    2    1    2    0    0  0.00000000000E+00  0.00000000000E+00  0.98925685831E+02  0.99670306786E+03  0.99178158592E+03 0.  0.
        3    1    3    3  502    0  0.10869745386E+03  0.35406330925E+03  0.38084403301E+03  0.53124208334E+03  0.10100000352E+00 0.  1.
       -3    1    3    3    0  502 -0.10869745386E+03 -0.35406330925E+03 -0.28191834718E+03  0.46546098452E+03  0.10100000352E+00 0. -1.
</event>
<event>
 5   0  0.1191822E-02  0.9925521E+03  0.7818609E-02  0.9316751E-01
       -2   -1    0    0    0  501  0.00000000000E+00  0.00000000000E+00  0.35468038278E+03  0.35468038279E+03  0.25500000920E-02 0.  1.
        2   -1    0    0  501    0  0.00000000000E+00  0.00000000000E+00 -0.69439954824E+03  0.69439954824E+03  0.25500000920E-02 0. -1.
    10030    2    1    2    0    0  0.00000000000E+00  0.00000000000E+00 -0.33971916546E+03  0.10490799310E+04  0.99255205925E+03 0.  0.
        4    1    3    3  502    0 -0.22837761256E+03 -0.65483333228E+02 -0.63038498369E+03  0.67366997959E+03  0.12699999809E+01 0. -1.
       -4    1    3    3    0  502  0.22837761256E+03  0.65483333228E+02  0.29066581823E+03  0.37540995144E+03  0.12699999809E+01 0.  1.
</event>
<event>
 5   0  0.4782125E-03  0.9807253E+03  0.7818609E-02  0.9329941E-01
        4   -1    0    0  501    0  0.00000000000E+00  0.00000000000E+00  0.25912804351E+03  0.25913115566E+03  0.12699999809E+01 0. -1.
       -4   -1    0    0    0  501  0.00000000000E+00  0.00000000000E+00 -0.92793188272E+03  0.92793275180E+03  0.12699999809E+01 0.  1.
    10030    2    1    2    0    0  0.00000000000E+00  0.00000000000E+00 -0.66880383921E+03  0.11870639075E+04  0.98072531580E+03 0.  0.
        2    1    3    3  502    0  0.35669550677E+03 -0.45166240243E+01 -0.74164765887E+03  0.82297833165E+03  0.25500000920E-02 0.  1.
       -2    1    3    3    0  502 -0.35669550677E+03  0.45166240243E+01  0.72843819661E+02  0.36408557581E+03  0.25500000920E-02 0. -1.
</event>
<event>
 5   0  0.4782125E-03  0.9982947E+03  0.7818609E-02  0.9310417E-01
        3   -1    0    0  501    0  0.00000000000E+00  0.00000000000E+00  0.29143828274E+03  0.29143830024E+03  0.10100000352E+00 0.  1.
       -3   -1    0    0    0  501  0.00000000000E+00  0.00000000000E+00 -0.85489140746E+03  0.85489141343E+03  0.10100000352E+00 0. -1.
    10030    2    1    2    0    0  0.00000000000E+00  0.00000000000E+00 -0.56345312472E+03  0.11463297137E+04  0.99829474039E+03 0.  0.
        4    1    3    3  502    0  0.22591199161E+03 -0.32342652934E+03  0.69404645009E+02  0.40057404494E+03  0.12699999809E+01 0.  1.
       -4    1    3    3    0  502 -0.22591199161E+03  0.32342652934E+03 -0.63285776973E+03  0.74575566873E+03  0.12699999809E+01 0. -1.
</event>
<event>
 5   0  0.1240503E-02  0.9905601E+03  0.7818609E-02  0.9318959E-01
       -2   -1    0    0    0  501  0.00000000000E+00  0.00000000000E+00  0.30871538810E+03  0.30871538811E+03  0.25500000920E-02 0. -1.
        2   -1    0    0  501    0  0.00000000000E+00  0.00000000000E+00 -0.79459061374E+03  0.79459061374E+03  0.25500000920E-02 0.  1.
    10030    2    1    2    0    0  0.00000000000E+00  0.00000000000E+00 -0.48587522564E+03  0.11033060018E+04  0.99056014397E+03 0.  0.
        1    1    3    3  502    0 -0.20844261548E+03 -0.39583891008E+03 -0.47964888589E+03  0.65589619639E+03  0.50400001928E-02 0.  1.
       -1    1    3    3    0  502  0.20844261548E+03  0.39583891008E+03 -0.62263397469E+01  0.44740980545E+03  0.50400001928E-02 0. -1.
</event>
<event>
 5   0  0.1221315E-02  0.9946548E+03  0.7818609E-02  0.9314427E-01
       -2   -1    0    0    0  501  0.00000000000E+00  0.00000000000E+00  0.16552449498E+03  0.16552449500E+03  0.25500000920E-02 0. -1.
        2   -1    0    0  501    0  0.00000000000E+00  0.00000000000E+00 -0.14942475034E+04  0.14942475034E+04  0.25500000920E-02 0.  1.
    10030    2    1    2    0    0  0.00000000000E+00  0.00000000000E+00 -0.13287230084E+04  0.16597719984E+04  0.99465484142E+03 0.  0.
        5    1    3    3  502    0  0.11780275625E+03 -0.76751814503E+02  0.13163078943E+03  0.19265794854E+03  0.46999998093E+01 0. -1.
       -5    1    3    3    0  502 -0.11780275625E+03  0.76751814503E+02 -0.14603537978E+04  0.14671140498E+04  0.46999998093E+01 0.  1.
</event>
<event>
 5   0  0.1191822E-02  0.1006472E+04  0.7818609E-02  0.9301475E-01
        2   -1    0    0  501    0  0.00000000000E+00  0.00000000000E+00  0.83298840919E+03  0.83298840919E+03  0.25500000920E-02 0. -1.
       -2   -1    0    0    0  501  0.00000000000E+00  0.00000000000E+00 -0.30402140091E+03  0.30402140093E+03  0.25500000920E-02 0.  1.
    10030    2    1    2    0    0  0.00000000000E+00  0.00000000000E+00  0.52896700827E+03  0.11370098101E+04  0.10064716650E+04 0.  0.
        4    1    3    3  502    0 -0.47395021407E+03  0.13319629363E+03  0.38229019223E+03  0.62331168931E+03  0.12699999809E+01 0. -1.
       -4    1    3    3    0  502  0.47395021407E+03 -0.13319629363E+03  0.14667681604E+03  0.51369812080E+03  0.12699999809E+01 0.  1.
</event>
<event>
 5   0  0.7224879E-03  0.1001190E+04  0.7818609E-02  0.9307240E-01
       -1   -1    0    0    0  501  0.00000000000E+00  0.00000000000E+00  0.65929497349E+03  0.65929497351E+03  0.50400001928E-02 0. -1.
        1   -1    0    0  501    0  0.00000000000E+00  0.00000000000E+00 -0.38009615059E+03  0.38009615062E+03  0.50400001928E-02 0.  1.
    10030    2    1    2    0    0  0.00000000000E+00  0.00000000000E+00  0.27919882290E+03  0.10393911241E+04  0.10011902548E+04 0.  0.
        3    1    3    3  502    0  0.37744294493E+03  0.26352256156E+03  0.34379736974E+03  0.57454674202E+03  0.10100000352E+00 0. -1.
       -3    1    3    3    0  502 -0.37744294493E+03 -0.26352256156E+03 -0.64598546837E+02  0.46484438211E+03  0.10100000352E+00 0.  1.
</event>
<event>
 5   0  0.7224879E-03  0.9995513E+03  0.7818609E-02  0.9309037E-01
       -1   -1    0    0    0  501  0.00000000000E+00  0.00000000000E+00  0.20191912985E+03  0.20191912991E+03  0.50400001928E-02 0. -1.
        1   -1    0    0  501    0  0.00000000000E+00  0.00000000000E+00 -0.12370086066E+04  0.12370086066E+04  0.50400001928E-02 0.  1.
    10030    2    1    2    0    0  0.00000000000E+00  0.00000000000E+00 -0.10350894767E+04  0.14389277365E+04  0.99955130235E+03 0.  0.
        3    1    3    3  502    0 -0.44683246844E+02 -0.44169499027E+03 -0.84797200645E+03  0.95715599089E+03  0.10100000352E+00 0.  1.
       -3    1    3    3    0  502  0.44683246844E+02  0.44169499027E+03 -0.18711747026E+03  0.48177174560E+03  0.10100000352E+00 0. -1.
</event>
<event>
 5   0  0.1245850E-02  0.1013426E+04  0.7818609E-02  0.9293941E-01
        2   -1    0    0  501    0  0.00000000000E+00  0.00000000000E+00  0.86248875205E+03  0.86248875206E+03  0.25500000920E-02 0. -1.
       -2   -1    0    0    0  501  0.00000000000E+00  0.00000000000E+00 -0.29769438417E+03  0.29769438418E+03  0.25500000920E-02 0.  1.
    10030    2    1    2    0    0  0.00000000000E+00  0.00000000000E+00  0.56479436789E+03  0.11601831362E+04  0.10134259872E+04 0.  0.
        3    1    3    3  502    0  0.26629111660E+03  0.34043750336E+03  0.58517670232E+03  0.72748913093E+03  0.10100000352E+00 0. -1.
       -3    1    3    3    0  502 -0.26629111660E+03 -0.34043750336E+03 -0.20382334438E+02  0.43269400531E+03  0.10100000352E+00 0.  1.
</event>
<event>
 5   0  0.1191822E-02  0.7627684E+03  0.7818609E-02  0.9615529E-01
       -2   -1    0    0    0  501  0.00000000000E+00  0.00000000000E+00  0.75723137295E+03  0.75723137295E+03  0.25500000920E-02 0. -1.
        2   -1    0    0  501    0  0.00000000000E+00  0.00000000000E+00 -0.19208648276E+03  0.19208648277E+03  0.25500000920E-02 0.  1.
    10030    2    1    2    0    0  0.00000000000E+00  0.00000000000E+00  0.56514489019E+03  0.94931785572E+03  0.76276840803E+03 0.  0.
        4    1    3    3  502    0 -0.29166959707E+03  0.24541848658E+03  0.26728344599E+03  0.46555712948E+03  0.12699999809E+01 0.  1.
       -4    1    3    3    0  502  0.29166959707E+03 -0.24541848658E+03  0.29786144420E+03  0.48376072624E+03  0.12699999809E+01 0. -1.
</event>
<event>
 5   0  0.7461157E-03  0.9828420E+03  0.7818609E-02  0.9327566E-01
       -1   -1    0    0    0  501  0.00000000000E+00  0.00000000000E+00  0.38715543006E+03  0.38715543009E+03  0.50400001928E-02 0.  1.
        1   -1    0    0  501    0  0.00000000000E+00  0.00000000000E+00 -0.62376650270E+03  0.62376650272E+03  0.50400001928E-02 0. -1.
    10030    2    1    2    0    0  0.00000000000E+00  0.00000000000E+00 -0.23661107264E+03  0.10109219328E+04  0.98284197842E+03 0.  0.
        2    1    3    3  502    0 -0.12328188155E+03 -0.22436908060E+03 -0.54975937302E+03  0.60644478304E+03  0.25500000920E-02 0. -1.
       -2    1    3    3    0  502  0.12328188155E+03  0.22436908060E+03  0.31314830038E+03  0.40447714977E+03  0.25500000920E-02 0.  1.
</event>
<event>
 5   0  0.7073004E-03  0.1098539E+04  0.7818609E-02  0.9206617E-01
       -1   -1    0    0    0  501  0.00000000000E+00  0.00000000000E+00  0.23256484715E+03  0.23256484721E+03  0.50400001928E-02 0. -1.
        1   -1    0    0  501    0  0.00000000000E+00  0.00000000000E+00 -0.12972592372E+04  0.12972592372E+04  0.50400001928E-02 0.  1.
    10030    2    1    2    0    0  0.00000000000E+00  0.00000000000E+00 -0.10646943900E+04  0.15298240844E+04  0.10985388409E+04 0.  0.
        1    1    3    3  502    0  0.90969105017E+02 -0.40718222706E+03 -0.10298465385E+04  0.11111510414E+04  0.50400001928E-02 0.  1.
       -1    1    3    3    0  502 -0.90969105017E+02  0.40718222706E+03 -0.34847851551E+02  0.41867304294E+03  0.50400001928E-02 0. -1.
</event>
<event>
 5   0  0.7461157E-03  0.1006399E+04  0.7818609E-02  0.9301554E-01
        1   -1    0    0  501    0  0.00000000000E+00  0.00000000000E+00  0.63376840153E+03  0.63376840155E+03  0.50400001928E-02 0. -1.
       -1   -1    0    0    0  501  0.00000000000E+00  0.00000000000E+00 -0.39953048655E+03  0.39953048658E+03  0.50400001928E-02 0.  1.
    10030    2    1    2    0    0  0.00000000000E+00  0.00000000000E+00  0.23423791497E+03  0.10332988881E+04  0.10063991213E+04 0.  0.
        2    1    3    3  502    0 -0.11193898734E+03  0.44882963800E+03 -0.86244403356E+02  0.47054912384E+03  0.25500000920E-02 0.  1.
       -2    1    3    3    0  502  0.11193898734E+03 -0.44882963800E+03  0.32048231833E+03  0.56274976428E+03  0.25500000920E-02 0. -1.
</event>
<event>
 5   0  0.4782125E-03  0.9873621E+03  0.7818609E-02  0.9322515E-01
        3   -1    0    0  501    0  0.00000000000E+00  0.00000000000E+00  0.11871205018E+04  0.11871205061E+04  0.10100000352E+00 0.  1.
       -3   -1    0    0    0  501  0.00000000000E+00  0.00000000000E+00 -0.20530431350E+03  0.20530433835E+03  0.10100000352E+00 0. -1.
    10030    2    1    2    0    0  0.00000000000E+00  0.00000000000E+00  0.98181618828E+03  0.13924248444E+04  0.98736210167E+03 0.  0.
        1    1    3    3  502    0 -0.28900877094E+03  0.12163228978E+03  0.10286554141E+04  0.10753847891E+04  0.50400001928E-02 0.  1.
       -1    1    3    3    0  502  0.28900877094E+03 -0.12163228978E+03 -0.46839225815E+02  0.31704005535E+03  0.50400001928E-02 0. -1.
</event>
<event>
 5   0  0.1191822E-02  0.8983458E+03  0.7818609E-02  0.9427652E-01
        2   -1    0    0  501    0  0.00000000000E+00  0.00000000000E+00  0.27073449425E+03  0.27073449426E+03  0.25500000920E-02 0.  1.
       -2   -1    0    0    0  501  0.00000000000E+00  0.00000000000E+00 -0.74521826461E+03  0.74521826461E+03  0.25500000920E-02 0. -1.
    10030    2    1    2    0    0  0.00000000000E+00  0.00000000000E+00 -0.47448377036E+03  0.10159527589E+04  0.89834579084E+03 0.  0.
        4    1    3    3  502    0 -0.22727261791E+03  0.49789927268E+02  0.19727503446E+03  0.30504250823E+03  0.12699999809E+01 0.  1.
       -4    1    3    3    0  502  0.22727261791E+03 -0.49789927268E+02 -0.67175880482E+03  0.71091025064E+03  0.12699999809E+01 0. -1.
</event>
<event>
 5   0  0.1191822E-02  0.1004209E+04  0.7818609E-02  0.9303941E-01
        2   -1    0    0  501    0  0.00000000000E+00  0.00000000000E+00  0.27867661563E+03  0.27867661564E+03  0.25500000920E-02 0. -1.
       -2   -1    0    0    0  501  0.00000000000E+00  0.00000000000E+00 -0.90466402586E+03  0.90466402587E+03  0.25500000920E-02 0.  1.
    10030    2    1    2    0    0  0.00000000000E+00  0.00000000000E+00 -0.62598741023E+03  0.11833406415E+04  0.10042085620E+04 0.  0.
        4    1    3    3  502    0 -0.41513508497E+03  0.22633266058E+03 -0.11390833254E+03  0.48635412319E+03  0.12699999809E+01 0. -1.
       -4    1    3    3    0  502  0.41513508497E+03 -0.22633266058E+03 -0.51207907769E+03  0.69698651832E+03  0.12699999809E+01 0.  1.
</event>
<event>
 5   0  0.1221315E-02  0.9994255E+03  0.7818609E-02  0.9309175E-01
        2   -1    0    0  501    0  0.00000000000E+00  0.00000000000E+00  0.18720527296E+04  0.18720527296E+04  0.25500000920E-02 0.  1.
       -2   -1    0    0    0  501  0.00000000000E+00  0.00000000000E+00 -0.13338985586E+03  0.13338985589E+03  0.25500000920E-02 0. -1.
    10030    2    1    2    0    0  0.00000000000E+00  0.00000000000E+00  0.17386628737E+04  0.20054425855E+04  0.99942552257E+03 0.  0.
        5    1    3    3  502    0  0.23319940412E+02 -0.55692415313E+02  0.18646619636E+04  0.18656451413E+04  0.46999998093E+01 0.  1.
       -5    1    3    3    0  502 -0.23319940412E+02  0.55692415313E+02 -0.12599908989E+03  0.13979744416E+03  0.46999998093E+01 0. -1.
</event>
<event>
 5   0  0.4782125E-03  0.1017958E+04  0.7818609E-02  0.9289066E-01
        3   -1    0    0  501    0  0.00000000000E+00  0.00000000000E+00  0.39815100476E+03  0.39815101757E+03  0.10100000352E+00 0. -1.
       -3   -1    0    0    0  501  0.00000000000E+00  0.00000000000E+00 -0.65065615515E+03  0.65065616299E+03  0.10100000352E+00 0.  1.
    10030    2    1    2    0    0  0.00000000000E+00  0.00000000000E+00 -0.25250515039E+03  0.10488071806E+04  0.10179575880E+04 0.  0.
        5    1    3    3  502    0  0.20511124531E+03 -0.28750934429E+03 -0.50383535783E+03  0.61530838106E+03  0.46999998093E+01 0. -1.
       -5    1    3    3    0  502 -0.20511124531E+03  0.28750934429E+03  0.25133020743E+03  0.43349879951E+03  0.46999998093E+01 0.  1.
</event>
<event>
 5   0  0.7224879E-03  0.1002448E+04  0.7818609E-02  0.9305864E-01
       -1   -1    0    0    0  501  0.00000000000E+00  0.00000000000E+00  0.23396201580E+03  0.23396201585E+03  0.50400001928E-02 0. -1.
        1   -1    0    0  501    0  0.00000000000E+00  0.00000000000E+00 -0.10737868527E+04  0.10737868527E+04  0.50400001928E-02 0.  1.
    10030    2    1    2    0    0  0.00000000000E+00  0.00000000000E+00 -0.83982483689E+03  0.13077488685E+04  0.10024476777E+04 0.  0.
        3    1    3    3  502    0  0.38531830908E+03  0.23251470111E+03 -0.70777925010E+03  0.83873998511E+03  0.10100000352E+00 0.  1.
       -3    1    3    3    0  502 -0.38531830908E+03 -0.23251470111E+03 -0.13204558679E+03  0.46900888343E+03  0.10100000352E+00 0. -1.
</event>
<event>
 5   0  0.7461157E-03  0.9517221E+03  0.7818609E-02  0.9363140E-01
        1   -1    0    0  501    0  0.00000000000E+00  0.00000000000E+00  0.55768501313E+03  0.55768501316E+03  0.50400001928E-02 0. -1.
       -1   -1    0    0    0  501  0.00000000000E+00  0.00000000000E+00 -0.40604232802E+03  0.40604232805E+03  0.50400001928E-02 0.  1.
    10030    2    1    2    0    0  0.00000000000E+00  0.00000000000E+00  0.15164268512E+03  0.96372734121E+03  0.95172206249E+03 0.  0.
        2    1    3    3  502    0 -0.24157968309E+03  0.20338323256E+03 -0.28464407592E+03  0.42514436670E+03  0.25500000920E-02 0.  1.
       -2    1    3    3    0  502  0.24157968309E+03 -0.20338323256E+03  0.43628676103E+03  0.53858297451E+03  0.25500000920E-02 0. -1.
</event>
<event>
 5   0  0.1240503E-02  0.9666223E+03  0.7818609E-02  0.9345930E-01
       -2   -1    0    0    0  501  0.00000000000E+00  0.00000000000E+00  0.59688769635E+03  0.59688769636E+03  0.25500000920E-02 0. -1.
        2   -1    0    0  501    0  0.00000000000E+00  0.00000000000E+00 -0.39134613299E+03  0.39134613300E+03  0.25500000920E-02 0.  1.
    10030    2    1    2    0    0  0.00000000000E+00  0.00000000000E+00  0.20554156337E+03  0.98823382935E+03  0.96662234984E+03 0.  0.
        1    1    3    3  502    0  0.57135800023E+02 -0.47038310833E+03  0.54322128274E+01  0.47387158303E+03  0.50400001928E-02 0.  1.
       -1    1    3    3    0  502 -0.57135800023E+02  0.47038310833E+03  0.20010935054E+03  0.51436224632E+03  0.50400001928E-02 0. -1.
</event>
<event>
 5   0  0.7241200E-03  0.1003217E+04  0.7818609E-02  0.9305024E-01
       -1   -1    0    0    0  501  0.00000000000E+00  0.00000000000E+00  0.10306102877E+04  0.10306102877E+04  0.50400001928E-02 0.  1.
        1   -1    0    0  501    0  0.00000000000E+00  0.00000000000E+00 -0.24413782556E+03  0.24413782561E+03  0.50400001928E-02 0. -1.
    10030    2    1    2    0    0  0.00000000000E+00  0.00000000000E+00  0.78647246212E+03  0.12747481133E+04  0.10032167357E+04 0.  0.
        4    1    3    3  502    0  0.44295759499E+03  0.23029793972E+03  0.45497478143E+03  0.67546445994E+03  0.12699999809E+01 0.  1.
       -4    1    3    3    0  502 -0.44295759499E+03 -0.23029793972E+03  0.33149768069E+03  0.59928365337E+03  0.12699999809E+01 0. -1.
</event>
<event>
 5   0  0.1191822E-02  0.1009501E+04  0.7818609E-02  0.9298185E-01
        2   -1    0    0  501    0  0.00000000000E+00  0.00000000000E+00  0.11980049161E+04  0.11980049161E+04  0.25500000920E-02 0. -1.
       -2   -1    0    0    0  501  0.00000000000E+00  0.00000000000E+00 -0.21266455165E+03  0.21266455167E+03  0.25500000920E-02 0.  1.
    10030    2    1    2    0    0  0.00000000000E+00  0.00000000000E+00  0.98534036444E+03  0.14106694678E+04  0.10095012202E+04 0.  0.
        4    1    3    3  502    0  0.26745239320E+02  0.30537197745E+02  0.11957179852E+04  0.11964075148E+04  0.12699999809E+01 0. -1.
       -4    1    3    3    0  502 -0.26745239320E+02 -0.30537197745E+02 -0.21037762080E+03  0.21426195300E+03  0.12699999809E+01 0.  1.
</event>
<event>
 5   0  0.4782125E-03  0.1078390E+04  0.7818609E-02  0.9226514E-01
       -3   -1    0    0    0  501  0.00000000000E+00  0.00000000000E+00  0.17784963263E+04  0.17784963291E+04  0.10100000352E+00 0.  1.
        3   -1    0    0  501    0  0.00000000000E+00  0.00000000000E+00 -0.16347031581E+03  0.16347034701E+03  0.10100000352E+00 0. -1.
    10030    2    1    2    0    0  0.00000000000E+00  0.00000000000E+00  0.16150260105E+04  0.19419666761E+04  0.10783902618E+04 0.  0.
        2    1    3    3  502    0  0.50454352393E+03 -0.40206337431E+02  0.11422425645E+04  0.12493593531E+04  0.25500000920E-02 0.  1.
       -2    1    3    3    0  502 -0.50454352393E+03  0.40206337431E+02  0.47278344599E+03  0.69260732303E+03  0.25500000920E-02 0. -1.
</event>
<event>
 5   0  0.1216322E-02  0.1014592E+04  0.7818609E-02  0.9292684E-01
        2   -1    0    0  501    0  0.00000000000E+00  0.00000000000E+00  0.74768436789E+03  0.74768436790E+03  0.25500000920E-02 0. -1.
       -2   -1    0    0    0  501  0.00000000000E+00  0.00000000000E+00 -0.34419474312E+03  0.34419474313E+03  0.25500000920E-02 0.  1.
    10030    2    1    2    0    0  0.00000000000E+00  0.00000000000E+00  0.40348962478E+03  0.10918791110E+04  0.10145916005E+04 0.  0.
        2    1    3    3  502    0  0.20324026634E+03 -0.13454741801E+03 -0.27705000023E+03  0.36900720344E+03  0.25500000920E-02 0.  1.
       -2    1    3    3    0  502 -0.20324026634E+03  0.13454741801E+03  0.68053962501E+03  0.72287190758E+03  0.25500000920E-02 0. -1.
</event>
<event>
 5   0  0.7241200E-03  0.9764885E+03  0.7818609E-02  0.9334714E-01
       -1   -1    0    0    0  501  0.00000000000E+00  0.00000000000E+00  0.58377599391E+03  0.58377599393E+03  0.50400001928E-02 0.  1.
        1   -1    0    0  501    0  0.00000000000E+00  0.00000000000E+00 -0.40834574557E+03  0.40834574560E+03  0.50400001928E-02 0. -1.
    10030    2    1    2    0    0  0.00000000000E+00  0.00000000000E+00  0.17543024834E+03  0.99212173953E+03  0.97648849149E+03 0.  0.
        4    1    3    3  502    0 -0.78400502975E+02  0.43154648954E+01  0.57731748502E+03  0.58263397902E+03  0.12699999809E+01 0.  1.
       -4    1    3    3    0  502  0.78400502975E+02 -0.43154648954E+01 -0.40188723668E+03  0.40948776051E+03  0.12699999809E+01 0. -1.
</event>
<event>
 5   0  0.1191822E-02  0.9398124E+03  0.7818609E-02  0.9377138E-01
       -2   -1    0    0    0  501  0.00000000000E+00  0.00000000000E+00  0.33853062407E+03  0.33853062408E+03  0.25500000920E-02 0.  1.
        2   -1    0    0  501    0  0.00000000000E+00  0.00000000000E+00 -0.65226542777E+03  0.65226542777E+03  0.25500000920E-02 0. -1.
    10030    2    1    2    0    0  0.00000000000E+00  0.00000000000E+00 -0.31373480370E+03  0.99079605185E+03  0.93981236920E+03 0.  0.
        4    1    3    3  502    0  0.66983406704E+02  0.45662113949E+03 -0.25009881105E+03  0.52491967956E+03  0.12699999809E+01 0. -1.
       -4    1    3    3    0  502 -0.66983406704E+02 -0.45662113949E+03 -0.63635992649E+02  0.46587637229E+03  0.12699999809E+01 0.  1.
</event>
<event>
 5   0  0.7224879E-03  0.9316770E+03  0.7818609E-02  0.9386828E-01
       -1   -1    0    0    0  501  0.00000000000E+00  0.00000000000E+00  0.15343515454E+03  0.15343515462E+03  0.50400001928E-02 0.  1.
        1   -1    0    0  501    0  0.00000000000E+00  0.00000000000E+00 -0.14143140904E+04  0.14143140904E+04  0.50400001928E-02 0. -1.
    10030    2    1    2    0    0  0.00000000000E+00  0.00000000000E+00 -0.12608789359E+04  0.15677492450E+04  0.93167698500E+03 0.  0.
        3    1    3    3  502    0  0.20401411096E+03  0.14412803190E+03  0.31214937107E+02  0.25173205904E+03  0.10100000352E+00 0.  1.
       -3    1    3    3    0  502 -0.20401411096E+03 -0.14412803190E+03 -0.12920938730E+04  0.13160171860E+04  0.10100000352E+00 0. -1.
</event>
<event>
 5   0  0.1221315E-02  0.1014073E+04  0.7818609E-02  0.9293243E-01
       -2   -1    0    0    0  501  0.00000000000E+00  0.00000000000E+00  0.28083799700E+03  0.28083799701E+03  0.25500000920E-02 0. -1.
        2   -1    0    0  501    0  0.00000000000E+00  0.00000000000E+00 -0.91542392299E+03  0.91542392300E+03  0.25500000920E-02 0.  1.
    10030    2    1    2    0    0  0.00000000000E+00  0.00000000000E+00 -0.63458592600E+03  0.11962619200E+04  0.10140726225E+04 0.  0.
        5    1    3    3  502    0  0.15531442558E+03 -0.36840907224E+03  0.50519046864E+02  0.40301622721E+03  0.46999998093E+01 0. -1.
       -5    1    3    3    0  502 -0.15531442558E+03  0.36840907224E+03 -0.68510497286E+03  0.79324569280E+03  0.46999998093E+01 0.  1.
</event>
<event>
 5   0  0.1221315E-02  0.1001357E+04  0.7818609E-02  0.9307057E-01
        2   -1    0    0  501    0  0.00000000000E+00  0.00000000000E+00  0.15049159747E+04  0.15049159747E+04  0.25500000920E-02 0.  1.
       -2   -1    0    0    0  501  0.00000000000E+00  0.00000000000E+00 -0.16657351301E+03  0.16657351303E+03  0.25500000920E-02 0. -1.
    10030    2    1    2    0    0  0.00000000000E+00  0.00000000000E+00  0.13383424617E+04  0.16714894877E+04  0.10013573602E+04 0.  0.
        5    1    3    3  502    0 -0.42404722356E+03  0.25892214798E+03  0.56626897920E+03  0.75335209121E+03  0.46999998093E+01 0. -1.
       -5    1    3    3    0  502  0.42404722356E+03 -0.25892214798E+03  0.77207348248E+03  0.91813739651E+03  0.46999998093E+01 0.  1.
</event>
<event>
 5   0  0.1240503E-02  0.1002758E+04  0.7818609E-02  0.9305525E-01
       -2   -1    0    0    0  501  0.00000000000E+00  0.00000000000E+00  0.47523662865E+03  0.47523662866E+03  0.25500000920E-02 0. -1.
        2   -1    0    0  501    0  0.00000000000E+00  0.00000000000E+00 -0.52895943413E+03  0.52895943414E+03  0.25500000920E-02 0.  1.
    10030    2    1    2    0    0  0.00000000000E+00  0.00000000000E+00 -0.53722805479E+02  0.10041960628E+04  0.10027579931E+04 0.  0.
        1    1    3    3  502    0  0.16151620060E+03 -0.28130577168E+03  0.35599627345E+03  0.48161578772E+03  0.50400001928E-02 0. -1.
       -1    1    3    3    0  502 -0.16151620060E+03  0.28130577168E+03 -0.40971907893E+03  0.52258027508E+03  0.50400001928E-02 0.  1.
</event>
<event>
 5   0  0.7461157E-03  0.1031727E+04  0.7818609E-02  0.9274416E-01
        1   -1    0    0  501    0  0.00000000000E+00  0.00000000000E+00  0.50192628881E+03  0.50192628883E+03  0.50400001928E-02 0. -1.
       -1   -1    0    0    0  501  0.00000000000E+00  0.00000000000E+00 -0.53018788163E+03  0.53018788165E+03  0.50400001928E-02 0.  1.
    10030    2    1    2    0    0  0.00000000000E+00  0.00000000000E+00 -0.28261592817E+02  0.10321141705E+04  0.10317271651E+04 0.  0.
        2    1    3    3  502    0 -0.42488636215E+03 -0.43514079993E+02  0.27527573282E+03  0.50813248763E+03  0.25500000920E-02 0. -1.
       -2    1    3    3    0  502  0.42488636215E+03  0.43514079993E+02 -0.30353732563E+03  0.52398168285E+03  0.25500000920E-02 0.  1.
</event>
<event>
 5   0  0.7224879E-03  0.1019108E+04  0.7818609E-02  0.9287832E-01
        1   -1    0    0  501    0  0.00000000000E+00  0.00000000000E+00  0.58122522657E+03  0.58122522659E+03  0.50400001928E-02 0. -1.
       -1   -1    0    0    0  501  0.00000000000E+00  0.00000000000E+00 -0.44672066437E+03  0.44672066439E+03  0.50400001928E-02 0.  1.
    10030    2    1    2    0    0  0.00000000000E+00  0.00000000000E+00  0.13450456220E+03  0.10279458910E+04  0.10191080794E+04 0.  0.
        3    1    3    3  502    0 -0.20825040787E+03 -0.46136801848E+03  0.12621111413E+03  0.52168758504E+03  0.10100000352E+00 0.  1.
       -3    1    3    3    0  502  0.20825040787E+03  0.46136801848E+03  0.82934480715E+01  0.50625830594E+03  0.10100000352E+00 0. -1.
</event>
<event>
 5   0  0.7073004E-03  0.8004589E+03  0.7818609E-02  0.9559353E-01
       -1   -1    0    0    0  501  0.00000000000E+00  0.00000000000E+00  0.15681795419E+04  0.15681795419E+04  0.50400001928E-02 0. -1.
        1   -1    0    0  501    0  0.00000000000E+00  0.00000000000E+00 -0.10214623194E+03  0.10214623206E+03  0.50400001928E-02 0.  1.
    10030    2    1    2    0    0  0.00000000000E+00  0.00000000000E+00  0.14660333100E+04  0.16703257740E+04  0.80045894666E+03 0.  0.
        1    1    3    3  502    0 -0.48828876001E+02  0.35330621266E+03  0.35409576920E+03  0.50258666201E+03  0.50400001928E-02 0.  1.
       -1    1    3    3    0  502  0.48828876001E+02 -0.35330621266E+03  0.11119375408E+04  0.11677391120E+04  0.50400001928E-02 0. -1.
</event>
<event>
 5   0  0.1191822E-02  0.1002456E+04  0.7818609E-02  0.9305855E-01
        2   -1    0    0  501    0  0.00000000000E+00  0.00000000000E+00  0.54539907717E+03  0.54539907718E+03  0.25500000920E-02 0. -1.
       -2   -1    0    0    0  501  0.00000000000E+00  0.00000000000E+00 -0.46063444094E+03  0.46063444095E+03  0.25500000920E-02 0.  1.
    10030    2    1    2    0    0  0.00000000000E+00  0.00000000000E+00  0.84764636227E+02  0.10060335181E+04  0.10024561816E+04 0.  0.
        4    1    3    3  502    0  0.98877617848E+02 -0.30088063659E+03  0.43225552760E+03  0.53586602321E+03  0.12699999809E+01 0. -1.
       -4    1    3    3    0  502 -0.98877617848E+02  0.30088063659E+03 -0.34749089138E+03  0.47016749492E+03  0.12699999809E+01 0.  1.
</event>
<event>
 5   0  0.6967681E-03  0.1012029E+04  0.7818609E-02  0.9295449E-01
       -1   -1    0    0    0  501  0.00000000000E+00  0.00000000000E+00  0.18647628828E+03  0.18647628835E+03  0.50400001928E-02 0. -1.
        1   -1    0    0  501    0  0.00000000000E+00  0.00000000000E+00 -0.13731014741E+04  0.13731014741E+04  0.50400001928E-02 0.  1.
    10030    2    1    2    0    0  0.00000000000E+00  0.00000000000E+00 -0.11866251858E+04  0.15595777625E+04  0.10120293798E+04 0.  0.
        5    1    3    3  502    0  0.44186279276E+03  0.61011435908E+02 -0.22518895912E+03  0.49969718855E+03  0.46999998093E+01 0. -1.
       -5    1    3    3    0  502 -0.44186279276E+03 -0.61011435908E+02 -0.96143622671E+03  0.10598805739E+04  0.46999998093E+01 0.  1.
</event>
<event>
 5   0  0.7241200E-03  0.9819680E+03  0.7818609E-02  0.9328546E-01
       -1   -1    0    0    0  501  0.00000000000E+00  0.00000000000E+00  0.53099851742E+03  0.53099851745E+03  0.50400001928E-02 0.  1.
        1   -1    0    0  501    0  0.00000000000E+00  0.00000000000E+00 -0.45398484740E+03  0.45398484743E+03  0.50400001928E-02 0. -1.
    10030    2    1    2    0    0  0.00000000000E+00  0.00000000000E+00  0.77013670023E+02  0.98498336488E+03  0.98196798508E+03 0.  0.
        4    1    3    3  502    0 -0.42573794757E+03 -0.17150345008E+03 -0.13637714715E+03  0.47881789080E+03  0.12699999809E+01 0.  1.
       -4    1    3    3    0  502  0.42573794757E+03  0.17150345008E+03  0.21339081717E+03  0.50616547407E+03  0.12699999809E+01 0. -1.
</event>
<event>
 5   0  0.7461157E-03  0.9973469E+03  0.7818609E-02  0.9311459E-01
       -1   -1    0    0    0  501  0.00000000000E+00  0.00000000000E+00  0.38992393682E+03  0.38992393685E+03  0.50400001928E-02 0. -1.
        1   -1    0    0  501    0  0.00000000000E+00  0.00000000000E+00 -0.63775314787E+03  0.63775314789E+03  0.50400001928E-02 0.  1.
    10030    2    1    2    0    0  0.00000000000E+00  0.00000000000E+00 -0.24782921105E+03  0.10276770847E+04  0.99734691690E+03 0.  0.
        2    1    3    3  502    0  0.34548771480E+03  0.30355821259E+03  0.74732648966E+02  0.46593381326E+03  0.25500000920E-02 0. -1.
       -2    1    3    3    0  502 -0.34548771480E+03 -0.30355821259E+03 -0.32256186002E+03  0.56174327148E+03  0.25500000920E-02 0.  1.
</event>
<event>
 5   0  0.1245850E-02  0.9954151E+03  0.7818609E-02  0.9313588E-01
        2   -1    0    0  501    0  0.00000000000E+00  0.00000000000E+00  0.84163216530E+03  0.84163216531E+03  0.25500000920E-02 0.  1.
       -2   -1    0    0    0  501  0.00000000000E+00  0.00000000000E+00 -0.29432429504E+03  0.29432429506E+03  0.25500000920E-02 0. -1.
    10030    2    1    2    0    0  0.00000000000E+00  0.00000000000E+00  0.54730787026E+03  0.11359564604E+04  0.99541507674E+03 0.  0.
        3    1    3    3  502    0  0.60117871705E+02 -0.43086705778E+03 -0.22500131808E+01  0.43504672478E+03  0.10100000352E+00 0. -1.
       -3    1    3    3    0  502 -0.60117871705E+02  0.43086705778E+03  0.54955788344E+03  0.70090973558E+03  0.10100000352E+00 0.  1.
</event>
<event>
 5   0  0.1191822E-02  0.9717394E+03  0.7818609E-02  0.9340095E-01
        2   -1    0    0  501    0  0.00000000000E+00  0.00000000000E+00  0.86360769443E+03  0.86360769443E+03  0.25500000920E-02 0. -1.
       -2   -1    0    0    0  501  0.00000000000E+00  0.00000000000E+00 -0.27335255741E+03  0.27335255742E+03  0.25500000920E-02 0.  1.
    10030    2    1    2    0    0  0.00000000000E+00  0.00000000000E+00  0.59025513702E+03  0.11369602519E+04  0.97173941339E+03 0.  0.
        4    1    3    3  502    0  0.22389620451E+03  0.40395435632E+01  0.79962710830E+03  0.83039204809E+03  0.12699999809E+01 0. -1.
       -4    1    3    3    0  502 -0.22389620451E+03 -0.40395435632E+01 -0.20937197128E+03  0.30656820377E+03  0.12699999809E+01 0.  1.
</event>
<event>
 5   0  0.1240503E-02  0.9899321E+03  0.7818609E-02  0.9319656E-01
        2   -1    0    0  501    0  0.00000000000E+00  0.00000000000E+00  0.12697412683E+04  0.12697412683E+04  0.25500000920E-02 0.  1.
       -2   -1    0    0    0  501  0.00000000000E+00  0.00000000000E+00 -0.19294593212E+03  0.19294593213E+03  0.25500000920E-02 0. -1.
    10030    2    1    2    0    0  0.00000000000E+00  0.00000000000E+00  0.10767953362E+04  0.14626872004E+04  0.98993214428E+03 0.  0.
        1    1    3    3  502    0 -0.42842611412E+03 -0.69923693395E+02  0.18701976130E+03  0.47266758858E+03  0.50400001928E-02 0. -1.
       -1    1    3    3    0  502  0.42842611412E+03  0.69923693395E+02  0.88977557485E+03  0.99001961182E+03  0.50400001928E-02 0.  1.
</event>
<event>
 5   0  0.1245850E-02  0.1005102E+04  0.7818609E-02  0.9302966E-01
        2   -1    0    0  501    0  0.00000000000E+00  0.00000000000E+00  0.79262354363E+03  0.79262354364E+03  0.25500000920E-02 0.  1.
       -2   -1    0    0    0  501  0.00000000000E+00  0.00000000000E+00 -0.31863515099E+03  0.31863515100E+03  0.25500000920E-02 0. -1.
    10030    2    1    2    0    0  0.00000000000E+00  0.00000000000E+00  0.47398839264E+03  0.11112586946E+04  0.10051024276E+04 0.  0.
        3    1    3    3  502    0  0.48997847303E+03 -0.10393116293E+03  0.19171620695E+03  0.53631679525E+03  0.10100000352E+00 0.  1.
       -3    1    3    3    0  502 -0.48997847303E+03  0.10393116293E+03  0.28227218569E+03  0.57494189939E+03  0.10100000352E+00 0. -1.
</event>
<event>
 5   0  0.6967681E-03  0.9850009E+03  0.7818609E-02  0.9325150E-01
       -1   -1    0    0    0  501  0.00000000000E+00  0.00000000000E+00  0.34799926042E+03  0.34799926045E+03  0.50400001928E-02 0. -1.
        1   -1    0    0  501    0  0.00000000000E+00  0.00000000000E+00 -0.69700350613E+03  0.69700350615E+03  0.50400001928E-02 0.  1.
    10030    2    1    2    0    0  0.00000000000E+00  0.00000000000E+00 -0.34900424571E+03  0.10450027666E+04  0.98500092319E+03 0.  0.
        5    1    3    3  502    0 -0.15201457656E+03 -0.15205782645E+03  0.29555002514E+03  0.36551596604E+03  0.46999998093E+01 0. -1.
       -5    1    3    3    0  502  0.15201457656E+03  0.15205782645E+03 -0.64455427085E+03  0.67948680056E+03  0.46999998093E+01 0.  1.
</event>
<event>
 5   0  0.7241200E-03  0.1002285E+04  0.7818609E-02  0.9306042E-01
       -1   -1    0    0    0  501  0.00000000000E+00  0.00000000000E+00  0.32114293308E+03  0.32114293312E+03  0.50400001928E-02 0. -1.
        1   -1    0    0  501    0  0.00000000000E+00  0.00000000000E+00 -0.78203143462E+03  0.78203143464E+03  0.50400001928E-02 0.  1.
    10030    2    1    2    0    0  0.00000000000E+00  0.00000000000E+00 -0.46088850154E+03  0.11031743678E+04  0.10022851265E+04 0.  0.
        4    1    3    3  502    0  0.20086190131E+03 -0.36285807969E+03 -0.54006179583E+03  0.68094041267E+03  0.12699999809E+01 0.  1.
       -4    1    3    3    0  502 -0.20086190131E+03  0.36285807969E+03  0.79173294288E+02  0.42223395508E+03  0.12699999809E+01 0. -1.
</event>
<event>
 5   0  0.6967681E-03  0.9660983E+03  0.7818609E-02  0.9346530E-01
       -1   -1    0    0    0  501  0.00000000000E+00  0.00000000000E+00  0.24240122894E+03  0.24240122899E+03  0.50400001928E-02 0. -1.
        1   -1    0    0  501    0  0.00000000000E+00  0.00000000000E+00 -0.96260433767E+03  0.96260433768E+03  0.50400001928E-02 0.  1.
    10030    2    1    2    0    0  0.00000000000E+00  0.00000000000E+00 -0.72020310874E+03  0.12050055667E+04  0.96609828583E+03 0.  0.
        5    1    3    3  502    0  0.42439997407E+02 -0.15306559828E+03  0.20886566549E+03  0.26244463602E+03  0.46999998093E+01 0. -1.
       -5    1    3    3    0  502 -0.42439997407E+02  0.15306559828E+03 -0.92906877422E+03  0.94256093065E+03  0.46999998093E+01 0.  1.
</event>
<event>
 5   0  0.7073004E-03  0.9865319E+03  0.7818609E-02  0.9323441E-01
       -1   -1    0    0    0  501  0.00000000000E+00  0.00000000000E+00  0.30343578883E+03  0.30343578887E+03  0.50400001928E-02 0. -1.
        1   -1    0    0  501    0  0.00000000000E+00  0.00000000000E+00 -0.80185434408E+03  0.80185434410E+03  0.50400001928E-02 0.  1.
    10030    2    1    2    0    0  0.00000000000E+00  0.00000000000E+00 -0.49841855525E+03  0.11052901330E+04  0.98653191626E+03 0.  0.
        1    1    3    3  502    0 -0.89065445951E+02  0.40649479496E+03 -0.54593144649E+03  0.68644869894E+03  0.50400001928E-02 0.  1.
       -1    1    3    3    0  502  0.89065445951E+02 -0.40649479496E+03  0.47512891235E+02  0.41884143402E+03  0.50400001928E-02 0. -1.
</event>
<event>
 5   0  0.1191822E-02  0.9946851E+03  0.7818609E-02  0.9314393E-01
        2   -1    0    0  501    0  0.00000000000E+00  0.00000000000E+00  0.17580082811E+04  0.17580082811E+04  0.25500000920E-02 0. -1.
       -2   -1    0    0    0  501  0.00000000000E+00  0.00000000000E+00 -0.14069878309E+03  0.14069878311E+03  0.25500000920E-02 0.  1.
    10030    2    1    2    0    0  0.00000000000E+00  0.00000000000E+00  0.16173094980E+04  0.18987070642E+04  0.99468512774E+03 0.  0.
        4    1    3    3  502    0  0.33804344177E+03 -0.33522227861E+03  0.53401428430E+03  0.71541611202E+03  0.12699999809E+01 0.  1.
       -4    1    3    3    0  502 -0.33804344177E+03  0.33522227861E+03  0.10832952137E+04  0.11832909522E+04  0.12699999809E+01 0. -1.
</event>
<event>
 5   0  0.1240503E-02  0.1005796E+04  0.7818609E-02  0.9302211E-01
       -2   -1    0    0    0  501  0.00000000000E+00  0.00000000000E+00  0.23539522599E+03  0.23539522600E+03  0.25500000920E-02 0.  1.
        2   -1    0    0  501    0  0.00000000000E+00  0.00000000000E+00 -0.10743904798E+04  0.10743904798E+04  0.25500000920E-02 0. -1.
    10030    2    1    2    0    0  0.00000000000E+00  0.00000000000E+00 -0.83899525384E+03  0.13097857058E+04  0.10057959829E+04 0.  0.
        1    1    3    3  502    0  0.21014032529E+03 -0.25089367474E+03 -0.91674077814E+03  0.97340651666E+03  0.50400001928E-02 0. -1.
       -1    1    3    3    0  502 -0.21014032529E+03  0.25089367474E+03  0.77745524296E+02  0.33637918918E+03  0.50400001928E-02 0.  1.
</event>
<event>
 5   0  0.1216322E-02  0.9665426E+03  0.7818609E-02  0.9346021E-01
       -2   -1    0    0    0  501  0.00000000000E+00  0.00000000000E+00  0.26666887545E+03  0.26666887546E+03  0.25500000920E-02 0. -1.
        2   -1    0    0  501    0  0.00000000000E+00  0.00000000000E+00 -0.87580964028E+03  0.87580964029E+03  0.25500000920E-02 0.  1.
    10030    2    1    2    0    0  0.00000000000E+00  0.00000000000E+00 -0.60914076484E+03  0.11424785157E+04  0.96654264653E+03 0.  0.
        2    1    3    3  502    0  0.22080005311E+03 -0.32286695369E+03 -0.64005642315E+03  0.75011196369E+03  0.25500000920E-02 0.  1.
       -2    1    3    3    0  502 -0.22080005311E+03  0.32286695369E+03  0.30915658316E+02  0.39236655206E+03  0.25500000920E-02 0. -1.
</event>
<event>
 5   0  0.7224879E-03  0.1021604E+04  0.7818609E-02  0.9285163E-01
        1   -1    0    0  501    0  0.00000000000E+00  0.00000000000E+00  0.70761324107E+03  0.70761324109E+03  0.50400001928E-02 0.  1.
       -1   -1    0    0    0  501  0.00000000000E+00  0.00000000000E+00 -0.36873035023E+03  0.36873035027E+03  0.50400001928E-02 0. -1.
    10030    2    1    2    0    0  0.00000000000E+00  0.00000000000E+00  0.33888289083E+03  0.10763435914E+04  0.10216035987E+04 0.  0.
        3    1    3    3  502    0 -0.12632672569E+03  0.88827435944E+02 -0.34354578227E+03  0.37665962050E+03  0.10100000352E+00 0. -1.
       -3    1    3    3    0  502  0.12632672569E+03 -0.88827435944E+02  0.68242867310E+03  0.69968397085E+03  0.10100000352E+00 0.  1.
</event>
<event>
 5   0  0.1245850E-02  0.1011176E+04  0.7818609E-02  0.9296372E-01
       -2   -1    0    0    0  501  0.00000000000E+00  0.00000000000E+00  0.19323130916E+03  0.19323130918E+03  0.25500000920E-02 0. -1.
        2   -1    0    0  501    0  0.00000000000E+00  0.00000000000E+00 -0.13228656628E+04  0.13228656628E+04  0.25500000920E-02 0.  1.
    10030    2    1    2    0    0  0.00000000000E+00  0.00000000000E+00 -0.11296343536E+04  0.15160969720E+04  0.10111756799E+04 0.  0.
        3    1    3    3  502    0 -0.49314944447E+03 -0.19739557572E+01 -0.73190310551E+03  0.88254316446E+03  0.10100000352E+00 0.  1.
       -3    1    3    3    0  502  0.49314944447E+03  0.19739557572E+01 -0.39773124812E+03  0.63355380751E+03  0.10100000352E+00 0. -1.
</event>
<event>
 5   0  0.1221315E-02  0.1030502E+04  0.7818609E-02  0.9275710E-01
        2   -1    0    0  501    0  0.00000000000E+00  0.00000000000E+00  0.71638018380E+03  0.71638018380E+03  0.25500000920E-02 0.  1.
       -2   -1    0    0    0  501  0.00000000000E+00  0.00000000000E+00 -0.37059012031E+03  0.37059012032E+03  0.25500000920E-02 0. -1.
    10030    2    1    2    0    0  0.00000000000E+00  0.00000000000E+00  0.34579006349E+03  0.10869703041E+04  0.10305016613E+04 0.  0.
        5    1    3    3  502    0  0.27776763520E+03 -0.37413028766E+03 -0.58999680985E+02  0.46971415102E+03  0.46999998093E+01 0. -1.
       -5    1    3    3    0  502 -0.27776763520E+03  0.37413028766E+03  0.40478974447E+03  0.61725615310E+03  0.46999998093E+01 0.  1.
</event>
<event>
 5   0  0.1240503E-02  0.1003963E+04  0.7818609E-02  0.9304209E-01
        2   -1    0    0  501    0  0.00000000000E+00  0.00000000000E+00  0.67035833273E+03  0.67035833273E+03  0.25500000920E-02 0.  1.
       -2   -1    0    0    0  501  0.00000000000E+00  0.00000000000E+00 -0.37589631400E+03  0.37589631400E+03  0.25500000920E-02 0. -1.
    10030    2    1    2    0    0  0.00000000000E+00  0.00000000000E+00  0.29446201873E+03  0.10462546467E+04  0.10039626016E+04 0.  0.
        1    1    3    3  502    0  0.80457821693E+02  0.45269450687E+03 -0.62698231719E+02  0.46404401290E+03  0.50400001928E-02 0. -1.
       -1    1    3    3    0  502 -0.80457821693E+02 -0.45269450687E+03  0.35716025045E+03  0.58221063384E+03  0.50400001928E-02 0.  1.
</event>
<event>
 5   0  0.7224879E-03  0.1019763E+04  0.7818609E-02  0.9287131E-01
        1   -1    0    0  501    0  0.00000000000E+00  0.00000000000E+00  0.29591190096E+03  0.29591190101E+03  0.50400001928E-02 0. -1.
       -1   -1    0    0    0  501  0.00000000000E+00  0.00000000000E+00 -0.87856874934E+03  0.87856874935E+03  0.50400001928E-02 0.  1.
    10030    2    1    2    0    0  0.00000000000E+00  0.00000000000E+00 -0.58265684837E+03  0.11744806504E+04  0.10197626170E+04 0.  0.
        3    1    3    3  502    0 -0.10742601015E+03 -0.44791004030E+03 -0.39485526998E+02  0.46230170766E+03  0.10100000352E+00 0. -1.
       -3    1    3    3    0  502  0.10742601015E+03  0.44791004030E+03 -0.54317132137E+03  0.71217894270E+03  0.10100000352E+00 0.  1.
</event>
<event>
 5   0  0.7241200E-03  0.9919651E+03  0.7818609E-02  0.9317401E-01
        1   -1    0    0  501    0  0.00000000000E+00  0.00000000000E+00  0.39757174102E+03  0.39757174105E+03  0.50400001928E-02 0. -1.
       -1   -1    0    0    0  501  0.00000000000E+00  0.00000000000E+00 -0.61875295154E+03  0.61875295156E+03  0.50400001928E-02 0.  1.
    10030    2    1    2    0    0  0.00000000000E+00  0.00000000000E+00 -0.22118121052E+03  0.10163246926E+04  0.99196509662E+03 0.  0.
        4    1    3    3  502    0 -0.19535774322E+03 -0.34302113577E+03 -0.41824600297E+03  0.57511692665E+03  0.12699999809E+01 0.  1.
       -4    1    3    3    0  502  0.19535774322E+03  0.34302113577E+03  0.19706479245E+03  0.44120776596E+03  0.12699999809E+01 0. -1.
</event>
<event>
 5   0  0.7224879E-03  0.7655011E+03  0.7818609E-02  0.9611341E-01
       -1   -1    0    0    0  501  0.00000000000E+00  0.00000000000E+00  0.22964524246E+03  0.22964524252E+03  0.50400001928E-02 0. -1.
        1   -1    0    0  501    0  0.00000000000E+00  0.00000000000E+00 -0.63793164492E+03  0.63793164494E+03  0.50400001928E-02 0.  1.
    10030    2    1    2    0    0  0.00000000000E+00  0.00000000000E+00 -0.40828640246E+03  0.86757688746E+03  0.76550105762E+03 0.  0.
        3    1    3    3  502    0 -0.11231581605E+03  0.35034935812E+03 -0.32375510408E+03  0.49007845585E+03  0.10100000352E+00 0.  1.
       -3    1    3    3    0  502  0.11231581605E+03 -0.35034935812E+03 -0.84531298380E+02  0.37749843162E+03  0.10100000352E+00 0. -1.
</event>
<event>
 5   0  0.1191822E-02  0.9936355E+03  0.7818609E-02  0.9315553E-01
        2   -1    0    0  501    0  0.00000000000E+00  0.00000000000E+00  0.34304488112E+03  0.34304488113E+03  0.25500000920E-02 0.  1.
       -2   -1    0    0    0  501  0.00000000000E+00  0.00000000000E+00 -0.71952059424E+03  0.71952059425E+03  0.25500000920E-02 0. -1.
    10030    2    1    2    0    0  0.00000000000E+00  0.00000000000E+00 -0.37647571312E+03  0.10625654754E+04  0.99363545976E+03 0.  0.
        4    1    3    3  502    0 -0.31349993808E+03  0.37728252985E+03 -0.10402238493E+03  0.50144450139E+03  0.12699999809E+01 0.  1.
       -4    1    3    3    0  502  0.31349993808E+03 -0.37728252985E+03 -0.27245332819E+03  0.56112097399E+03  0.12699999809E+01 0. -1.
</event>
<event>
 5   0  0.1221315E-02  0.9893678E+03  0.7818609E-02  0.9320283E-01
       -2   -1    0    0    0  501  0.00000000000E+00  0.00000000000E+00  0.33042364442E+03  0.33042364443E+03  0.25500000920E-02 0.  1.
        2   -1    0    0  501    0  0.00000000000E+00  0.00000000000E+00 -0.74060124503E+03  0.74060124503E+03  0.25500000920E-02 0. -1.
    10030    2    1    2    0    0  0.00000000000E+00  0.00000000000E+00 -0.41017760061E+03  0.10710248895E+04  0.98936780310E+03 0.  0.
        5    1    3    3  502    0 -0.32087597129E+03  0.78951303931E+02 -0.60356650419E+03  0.68812012928E+03  0.46999998093E+01 0. -1.
       -5    1    3    3    0  502  0.32087597129E+03 -0.78951303931E+02  0.19338890358E+03  0.38290476018E+03  0.46999998093E+01 0.  1.
</event>
<event>
 5   0  0.1216322E-02  0.9932222E+03  0.7818609E-02  0.9316010E-01
        2   -1    0    0  501    0  0.00000000000E+00  0.00000000000E+00  0.16825767935E+04  0.16825767935E+04  0.25500000920E-02 0. -1.
       -2   -1    0    0    0  501  0.00000000000E+00  0.00000000000E+00 -0.14657434460E+03  0.14657434462E+03  0.25500000920E-02 0.  1.
    10030    2    1    2    0    0  0.00000000000E+00  0.00000000000E+00  0.15360024489E+04  0.18291511381E+04  0.99322221232E+03 0.  0.
        2    1    3    3  502    0 -0.41244199164E+03 -0.17865455703E+03  0.11569162676E+04  0.12411611892E+04  0.25500000920E-02 0. -1.
       -2    1    3    3    0  502  0.41244199164E+03  0.17865455703E+03  0.37908618130E+03  0.58798994896E+03  0.25500000920E-02 0.  1.
</event>
<event>
 5   0  0.1245850E-02  0.1049239E+04  0.7818609E-02  0.9256130E-01
       -2   -1    0    0    0  501  0.00000000000E+00  0.00000000000E+00  0.72805290124E+03  0.72805290125E+03  0.25500000920E-02 0. -1.
        2   -1    0    0  501    0  0.00000000000E+00  0.00000000000E+00 -0.37802974537E+03  0.37802974538E+03  0.25500000920E-02 0.  1.
    10030    2    1    2    0    0  0.00000000000E+00  0.00000000000E+00  0.35002315587E+03  0.11060826466E+04  0.10492390631E+04 0.  0.
        3    1    3    3  502    0  0.45436746491E+03  0.76897403828E+02  0.43931904423E+03  0.63668221014E+03  0.10100000352E+00 0. -1.
       -3    1    3    3    0  502 -0.45436746491E+03 -0.76897403828E+02 -0.89295888357E+02  0.46940043648E+03  0.10100000352E+00 0.  1.
</event>
<event>
 5   0  0.1216322E-02  0.9775496E+03  0.7818609E-02  0.9333517E-01
        2   -1    0    0  501    0  0.00000000000E+00  0.00000000000E+00  0.70901888064E+03  0.70901888065E+03  0.25500000920E-02 0. -1.
       -2   -1    0    0    0  501  0.00000000000E+00  0.00000000000E+00 -0.33694565204E+03  0.33694565205E+03  0.25500000920E-02 0.  1.
    10030    2    1    2    0    0  0.00000000000E+00  0.00000000000E+00  0.37207322861E+03  0.10459645327E+04  0.97754964897E+03 0.  0.
        2    1    3    3  502    0 -0.87558349497E+02 -0.31684412187E+03 -0.20100291024E+03  0.38530355833E+03  0.25500000920E-02 0.  1.
       -2    1    3    3    0  502  0.87558349497E+02  0.31684412187E+03  0.57307613884E+03  0.66066097437E+03  0.25500000920E-02 0. -1.
</event>
<event>
 5   0  0.1245850E-02  0.1008873E+04  0.7818609E-02  0.9298866E-01
       -2   -1    0    0    0  501  0.00000000000E+00  0.00000000000E+00  0.15142105952E+03  0.15142105954E+03  0.25500000920E-02 0. -1.
        2   -1    0    0  501    0  0.00000000000E+00  0.00000000000E+00 -0.16804540009E+04  0.16804540009E+04  0.25500000920E-02 0.  1.
    10030    2    1    2    0    0  0.00000000000E+00  0.00000000000E+00 -0.15290329414E+04  0.18318750604E+04  0.10088728866E+04 0.  0.
        3    1    3    3  502    0  0.68006582459E+02  0.48748345896E+03 -0.56403197400E+03  0.74859675120E+03  0.10100000352E+00 0. -1.
       -3    1    3    3    0  502 -0.68006582459E+02 -0.48748345896E+03 -0.96500096739E+03  0.10832783092E+04  0.10100000352E+00 0.  1.
</event>
<event>
 5   0  0.1245850E-02  0.1042288E+04  0.7818609E-02  0.9263342E-01
       -2   -1    0    0    0  501  0.00000000000E+00  0.00000000000E+00  0.11557653341E+03  0.11557653344E+03  0.25500000920E-02 0.  1.
        2   -1    0    0  501    0  0.00000000000E+00  0.00000000000E+00 -0.23498819926E+04  0.23498819926E+04  0.25500000920E-02 0. -1.
    10030    2    1    2    0    0  0.00000000000E+00  0.00000000000E+00 -0.22343054592E+04  0.24654585260E+04  0.10422882800E+04 0.  0.
        3    1    3    3  502    0 -0.23369181399E+03 -0.43883877200E+03 -0.14866435279E+04  0.15675778516E+04  0.10100000352E+00 0.  1.
       -3    1    3    3    0  502  0.23369181399E+03  0.43883877200E+03 -0.74766193131E+03  0.89788067441E+03  0.10100000352E+00 0. -1.
</event>
<event>
 5   0  0.1191822E-02  0.1010633E+04  0.7818609E-02  0.9296959E-01
        2   -1    0    0  501    0  0.00000000000E+00  0.00000000000E+00  0.32582250334E+03  0.32582250335E+03  0.25500000920E-02 0. -1.
       -2   -1    0    0    0  501  0.00000000000E+00  0.00000000000E+00 -0.78369331622E+03  0.78369331622E+03  0.25500000920E-02 0.  1.
    10030    2    1    2    0    0  0.00000000000E+00  0.00000000000E+00 -0.45787081288E+03  0.11095158196E+04  0.10106333027E+04 0.  0.
        4    1    3    3  502    0 -0.48872948088E+03  0.48091334706E+02 -0.98232132974E+02  0.50081977478E+03  0.12699999809E+01 0.  1.
       -4    1    3    3    0  502  0.48872948088E+03 -0.48091334706E+02 -0.35963867990E+03  0.60869604479E+03  0.12699999809E+01 0. -1.
</event>
<event>
 5   0  0.7224879E-03  0.9980745E+03  0.7818609E-02  0.9310659E-01
        1   -1    0    0  501    0  0.00000000000E+00  0.00000000000E+00  0.54524911244E+03  0.54524911246E+03  0.50400001928E-02 0.  1.
       -1   -1    0    0    0  501  0.00000000000E+00  0.00000000000E+00 -0.45674204114E+03  0.45674204117E+03  0.50400001928E-02 0. -1.
    10030    2    1    2    0    0  0.00000000000E+00  0.00000000000E+00  0.88507071296E+02  0.10019911536E+04  0.99807453143E+03 0.  0.
        3    1    3    3  502    0  0.40223058985E+03  0.17038866904E+03 -0.19797411809E+03  0.47959931983E+03  0.10100000352E+00 0. -1.
       -3    1    3    3    0  502 -0.40223058985E+03 -0.17038866904E+03  0.28648118938E+03  0.52239183380E+03  0.10100000352E+00 0.  1.
</event>
<event>
 5   0  0.7461157E-03  0.9903535E+03  0.7818609E-02  0.9319189E-01
        1   -1    0    0  501    0  0.00000000000E+00  0.00000000000E+00  0.19144614566E+04  0.19144614566E+04  0.50400001928E-02 0.  1.
       -1   -1    0    0    0  501  0.00000000000E+00  0.00000000000E+00 -0.12807780980E+03  0.12807780989E+03  0.50400001928E-02 0. -1.
    10030    2    1    2    0    0  0.00000000000E+00  0.00000000000E+00  0.17863836468E+04  0.20425392665E+04  0.99035353366E+03 0.  0.
        2    1    3    3  502    0 -0.15981006523E+03 -0.45274542136E+03  0.64328503862E+03  0.80270375260E+03  0.25500000920E-02 0. -1.
       -2    1    3    3    0  502  0.15981006523E+03  0.45274542136E+03  0.11430986082E+04  0.12398355139E+04  0.25500000920E-02 0.  1.
</event>
<event>
 5   0  0.7461157E-03  0.1112369E+04  0.7818609E-02  0.9193219E-01
       -1   -1    0    0    0  501  0.00000000000E+00  0.00000000000E+00  0.18574454765E+03  0.18574454772E+03  0.50400001928E-02 0. -1.
        1   -1    0    0  501    0  0.00000000000E+00  0.00000000000E+00 -0.16654125281E+04  0.16654125282E+04  0.50400001928E-02 0.  1.
    10030    2    1    2    0    0  0.00000000000E+00  0.00000000000E+00 -0.14796679805E+04  0.18511570759E+04  0.11123691775E+04 0.  0.
        2    1    3    3  502    0 -0.51759910174E+03 -0.14929938252E+03 -0.50958920254E+03  0.74153913659E+03  0.25500000920E-02 0. -1.
       -2    1    3    3    0  502  0.51759910174E+03  0.14929938252E+03 -0.97007877796E+03  0.11096179393E+04  0.25500000920E-02 0.  1.
</event>
<event>
 5   0  0.7224879E-03  0.9947026E+03  0.7818609E-02  0.9314374E-01
       -1   -1    0    0    0  501  0.00000000000E+00  0.00000000000E+00  0.16865064696E+03  0.16865064704E+03  0.50400001928E-02 0.  1.
        1   -1    0    0  501    0  0.00000000000E+00  0.00000000000E+00 -0.14666907153E+04  0.14666907153E+04  0.50400001928E-02 0. -1.
    10030    2    1    2    0    0  0.00000000000E+00  0.00000000000E+00 -0.12980400683E+04  0.16353413623E+04  0.99470264521E+03 0.  0.
        3    1    3    3  502    0 -0.30951372054E+03  0.37569754901E+03 -0.81676907454E+03  0.95082023688E+03  0.10100000352E+00 0. -1.
       -3    1    3    3    0  502  0.30951372054E+03 -0.37569754901E+03 -0.48127099380E+03  0.68452112546E+03  0.10100000352E+00 0.  1.
</event>
<event>
 5   0  0.1240503E-02  0.8694967E+03  0.7818609E-02  0.9464536E-01
       -2   -1    0    0    0  501  0.00000000000E+00  0.00000000000E+00  0.65235048790E+03  0.65235048790E+03  0.25500000920E-02 0.  1.
        2   -1    0    0  501    0  0.00000000000E+00  0.00000000000E+00 -0.28973092572E+03  0.28973092574E+03  0.25500000920E-02 0. -1.
    10030    2    1    2    0    0  0.00000000000E+00  0.00000000000E+00  0.36261956217E+03  0.94208141364E+03  0.86949666075E+03 0.  0.
        1    1    3    3  502    0  0.42173697646E+03 -0.53042131556E+02  0.82418554361E+02  0.43297616928E+03  0.50400001928E-02 0. -1.
       -1    1    3    3    0  502 -0.42173697646E+03  0.53042131556E+02  0.28020100781E+03  0.50910524436E+03  0.50400001928E-02 0.  1.
</event>
<event>
 5   0  0.7224879E-03  0.9934064E+03  0.7818609E-02  0.9315806E-01
       -1   -1    0    0    0  501  0.00000000000E+00  0.00000000000E+00  0.33970525340E+03  0.33970525344E+03  0.50400001928E-02 0. -1.
        1   -1    0    0  501    0  0.00000000000E+00  0.00000000000E+00 -0.72625927482E+03  0.72625927484E+03  0.50400001928E-02 0.  1.
    10030    2    1    2    0    0  0.00000000000E+00  0.00000000000E+00 -0.38655402142E+03  0.10659645283E+04  0.99340644455E+03 0.  0.
        3    1    3    3  502    0  0.35154928157E+03  0.25073377934E+03 -0.45668531471E+03  0.62850283399E+03  0.10100000352E+00 0.  1.
       -3    1    3    3    0  502 -0.35154928157E+03 -0.25073377934E+03  0.70131293285E+02  0.43746169429E+03  0.10100000352E+00 0. -1.
</event>
<event>
 5   0  0.1245850E-02  0.1060624E+04  0.7818609E-02  0.9244443E-01
       -2   -1    0    0    0  501  0.00000000000E+00  0.00000000000E+00  0.17578169043E+03  0.17578169045E+03  0.25500000920E-02 0. -1.
        2   -1    0    0  501    0  0.00000000000E+00  0.00000000000E+00 -0.15998882049E+04  0.15998882049E+04  0.25500000920E-02 0.  1.
    10030    2    1    2    0    0  0.00000000000E+00  0.00000000000E+00 -0.14241065145E+04  0.17756698954E+04  0.10606244447E+04 0.  0.
        3    1    3    3  502    0  0.52479966530E+03 -0.60927358627E+02 -0.63525607802E+03  0.82624277702E+03  0.10100000352E+00 0.  1.
       -3    1    3    3    0  502 -0.52479966530E+03  0.60927358627E+02 -0.78885043645E+03  0.94942711833E+03  0.10100000352E+00 0. -1.
</event>
<event>
 5   0  0.7073004E-03  0.9928958E+03  0.7818609E-02  0.9316371E-01
       -1   -1    0    0    0  501  0.00000000000E+00  0.00000000000E+00  0.21159869157E+03  0.21159869163E+03  0.50400001928E-02 0.  1.
        1   -1    0    0  501    0  0.00000000000E+00  0.00000000000E+00 -0.11647544185E+04  0.11647544185E+04  0.50400001928E-02 0. -1.
    10030    2    1    2    0    0  0.00000000000E+00  0.00000000000E+00 -0.95315572694E+03  0.13763531101E+04  0.99289578708E+03 0.  0.
        1    1    3    3  502    0 -0.20281639283E+03 -0.25670824202E+01 -0.11046958467E+04  0.11231624961E+04  0.50400001928E-02 0. -1.
       -1    1    3    3    0  502  0.20281639283E+03  0.25670824202E+01  0.15154011971E+03  0.25319061400E+03  0.50400001928E-02 0.  1.
</event>
<event>
 5   0  0.1191822E-02  0.9860375E+03  0.7818609E-02  0.9323993E-01
       -2   -1    0    0    0  501  0.00000000000E+00  0.00000000000E+00  0.69096382100E+03  0.69096382100E+03  0.25500000920E-02 0.  1.
        2   -1    0    0  501    0  0.00000000000E+00  0.00000000000E+00 -0.35178031940E+03  0.35178031941E+03  0.25500000920E-02 0. -1.
    10030    2    1    2    0    0  0.00000000000E+00  0.00000000000E+00  0.33918350160E+03  0.10427441404E+04  0.98603747120E+03 0.  0.
        4    1    3    3  502    0 -0.92999263303E+02 -0.96234609140E+02  0.67138637293E+03  0.68459567456E+03  0.12699999809E+01 0.  1.
       -4    1    3    3    0  502  0.92999263303E+02  0.96234609140E+02 -0.33220287133E+03  0.35814846585E+03  0.12699999809E+01 0. -1.
</event>
<event>
 5   0  0.1191822E-02  0.9814508E+03  0.7818609E-02  0.9329127E-01
       -2   -1    0    0    0  501  0.00000000000E+00  0.00000000000E+00  0.21230206851E+03  0.21230206852E+03  0.25500000920E-02 0. -1.
        2   -1    0    0  501    0  0.00000000000E+00  0.00000000000E+00 -0.11342866322E+04  0.11342866322E+04  0.25500000920E-02 0.  1.
    10030    2    1    2    0    0  0.00000000000E+00  0.00000000000E+00 -0.92198456370E+03  0.13465887007E+04  0.98145075945E+03 0.  0.
        4    1    3    3  502    0  0.12044509314E+03  0.25142959617E+03 -0.10150751071E+04  0.10526646894E+04  0.12699999809E+01 0.  1.
       -4    1    3    3    0  502 -0.12044509314E+03 -0.25142959617E+03  0.93090543390E+02  0.29392401137E+03  0.12699999809E+01 0. -1.
</event>
<event>
 5   0  0.6967681E-03  0.9754801E+03  0.7818609E-02  0.9335854E-01
       -1   -1    0    0    0  501  0.00000000000E+00  0.00000000000E+00  0.13173941210E+04  0.13173941210E+04  0.50400001928E-02 0.  1.
        1   -1    0    0  501    0  0.00000000000E+00  0.00000000000E+00 -0.18057643725E+03  0.18057643732E+03  0.50400001928E-02 0. -1.
    10030    2    1    2    0    0  0.00000000000E+00  0.00000000000E+00  0.11368176837E+04  0.14979705583E+04  0.97548006002E+03 0.  0.
        5    1    3    3  502    0 -0.32073427740E+03 -0.89673590948E+02  0.21251526079E+02  0.33374473325E+03  0.46999998093E+01 0. -1.
       -5    1    3    3    0  502  0.32073427740E+03  0.89673590948E+02  0.11155661577E+04  0.11642258251E+04  0.46999998093E+01 0.  1.
</event>
<event>
 5   0  0.7224879E-03  0.9946642E+03  0.7818609E-02  0.9314416E-01
       -1   -1    0    0    0  501  0.00000000000E+00  0.00000000000E+00  0.37990499782E+03  0.37990499785E+03  0.50400001928E-02 0. -1.
        1   -1    0    0  501    0  0.00000000000E+00  0.00000000000E+00 -0.65105542900E+03  0.65105542902E+03  0.50400001928E-02 0.  1.
    10030    2    1    2    0    0  0.00000000000E+00  0.00000000000E+00 -0.27115043118E+03  0.10309604269E+04  0.99466418727E+03 0.  0.
        3    1    3    3  502    0 -0.13417982869E+03  0.24489120950E+03  0.29097987499E+03  0.40329298130E+03  0.10100000352E+00 0. -1.
       -3    1    3    3    0  502  0.13417982869E+03 -0.24489120950E+03 -0.56213030617E+03  0.62766744557E+03  0.10100000352E+00 0.  1.
</event>
<event>
 5   0  0.7461157E-03  0.1010940E+04  0.7818609E-02  0.9296627E-01
       -1   -1    0    0    0  501  0.00000000000E+00  0.00000000000E+00  0.68967203740E+03  0.68967203741E+03  0.50400001928E-02 0.  1.
        1   -1    0    0  501    0  0.00000000000E+00  0.00000000000E+00 -0.37046555688E+03  0.37046555691E+03  0.50400001928E-02 0. -1.
    10030    2    1    2    0    0  0.00000000000E+00  0.00000000000E+00  0.31920648052E+03  0.10601375943E+04  0.10109396331E+04 0.  0.
        2    1    3    3  502    0 -0.10447455715E+03  0.40286526110E+03 -0.14120915167E+03  0.43949445527E+03  0.25500000920E-02 0. -1.
       -2    1    3    3    0  502  0.10447455715E+03 -0.40286526110E+03  0.46041563219E+03  0.62064313906E+03  0.25500000920E-02 0.  1.
</event>
<event>
 5   0  0.1191822E-02  0.9818637E+03  0.7818609E-02  0.9328663E-01
        2   -1    0    0  501    0  0.00000000000E+00  0.00000000000E+00  0.57989811468E+03  0.57989811469E+03  0.25500000920E-02 0.  1.
       -2   -1    0    0    0  501  0.00000000000E+00  0.00000000000E+00 -0.41561455364E+03  0.41561455364E+03  0.25500000920E-02 0. -1.
    10030    2    1    2    0    0  0.00000000000E+00  0.00000000000E+00  0.16428356105E+03  0.99551266833E+03  0.98186373004E+03 0.  0.
        4    1    3    3  502    0 -0.62582754856E+01  0.36497111992E+03 -0.25070418987E+03  0.44282873451E+03  0.12699999809E+01 0. -1.
       -4    1    3    3    0  502  0.62582754856E+01 -0.36497111992E+03  0.41498775092E+03  0.55268393382E+03  0.12699999809E+01 0.  1.
</event>
<event>
 5   0  0.7224879E-03  0.1001575E+04  0.7818609E-02  0.9306819E-01
        1   -1    0    0  501    0  0.00000000000E+00  0.00000000000E+00  0.12883903869E+04  0.12883903869E+04  0.50400001928E-02 0.  1.
       -1   -1    0    0    0  501  0.00000000000E+00  0.00000000000E+00 -0.19465241051E+03  0.19465241057E+03  0.50400001928E-02 0. -1.
    10030    2    1    2    0    0  0.00000000000E+00  0.00000000000E+00  0.10937379764E+04  0.14830427975E+04  0.10015753482E+04 0.  0.
        3    1    3    3  502    0 -0.13477089505E+03  0.47856038663E+03  0.45796412963E+03  0.67595443044E+03  0.10100000352E+00 0. -1.
       -3    1    3    3    0  502  0.13477089505E+03 -0.47856038663E+03  0.63577384678E+03  0.80708836707E+03  0.10100000352E+00 0.  1.
</event>
<event>
 5   0  0.1216322E-02  0.9877975E+03  0.7818609E-02  0.9322030E-01
        2   -1    0    0  501    0  0.00000000000E+00  0.00000000000E+00  0.10691766168E+04  0.10691766168E+04  0.25500000920E-02 0. -1.
       -2   -1    0    0    0  501  0.00000000000E+00  0.00000000000E+00 -0.22815312562E+03  0.22815312563E+03  0.25500000920E-02 0.  1.
    10030    2    1    2    0    0  0.00000000000E+00  0.00000000000E+00  0.84102349116E+03  0.12973297424E+04  0.98779752373E+03 0.  0.
        2    1    3    3  502    0  0.22881491492E+03  0.43606378092E+02 -0.15148183890E+03  0.27785702983E+03  0.25500000920E-02 0.  1.
       -2    1    3    3    0  502 -0.22881491492E+03 -0.43606378092E+02  0.99250533006E+03  0.10194727126E+04  0.25500000920E-02 0. -1.
</event>
<event>
 5   0  0.1191822E-02  0.1236076E+04  0.7818609E-02  0.9081853E-01
        2   -1    0    0  501    0  0.00000000000E+00  0.00000000000E+00  0.19899722294E+04  0.19899722294E+04  0.25500000920E-02 0.  1.
       -2   -1    0    0    0  501  0.00000000000E+00  0.00000000000E+00 -0.19194781129E+03  0.19194781130E+03  0.25500000920E-02 0. -1.
    10030    2    1    2    0    0  0.00000000000E+00  0.00000000000E+00  0.17980244181E+04  0.21819200407E+04  0.12360757484E+04 0.  0.
        4    1    3    3  502    0 -0.28410056408E+03  0.52364555988E+03  0.60868442187E+03  0.85171364978E+03  0.12699999809E+01 0. -1.
       -4    1    3    3    0  502  0.28410056408E+03 -0.52364555988E+03  0.11893399962E+04  0.13302063909E+04  0.12699999809E+01 0.  1.
</event>
<event>
 5   0  0.6967681E-03  0.9820451E+03  0.7818609E-02  0.9328460E-01
        1   -1    0    0  501    0  0.00000000000E+00  0.00000000000E+00  0.46624350101E+03  0.46624350104E+03  0.50400001928E-02 0. -1.
       -1   -1    0    0    0  501  0.00000000000E+00  0.00000000000E+00 -0.51711853986E+03  0.51711853988E+03  0.50400001928E-02 0.  1.
    10030    2    1    2    0    0  0.00000000000E+00  0.00000000000E+00 -0.50875038849E+02  0.98336204092E+03  0.98204512826E+03 0.  0.
        5    1    3    3  502    0 -0.17659037355E+03  0.44084544998E+03 -0.15031320296E+03  0.49814156600E+03  0.46999998093E+01 0.  1.
       -5    1    3    3    0  502  0.17659037355E+03 -0.44084544998E+03  0.99438164113E+02  0.48522047492E+03  0.46999998093E+01 0. -1.
</event>
<event>
 5   0  0.4782125E-03  0.9895602E+03  0.7818609E-02  0.9320070E-01
        4   -1    0    0  501    0  0.00000000000E+00  0.00000000000E+00  0.41554782947E+03  0.41554977015E+03  0.12699999809E+01 0. -1.
       -4   -1    0    0    0  501  0.00000000000E+00  0.00000000000E+00 -0.58911552045E+03  0.58911688937E+03  0.12699999809E+01 0.  1.
    10030    2    1    2    0    0  0.00000000000E+00  0.00000000000E+00 -0.17356769099E+03  0.10046666595E+04  0.98956018180E+03 0.  0.
        1    1    3    3  502    0 -0.27524035278E+03 -0.39987311290E+03  0.10340436516E+02  0.48555399583E+03  0.50400001928E-02 0. -1.
       -1    1    3    3    0  502  0.27524035278E+03  0.39987311290E+03 -0.18390812750E+03  0.51911266369E+03  0.50400001928E-02 0.  1.
</event>
<event>
 5   0  0.1216322E-02  0.9833709E+03  0.7818609E-02  0.9326974E-01
        2   -1    0    0  501    0  0.00000000000E+00  0.00000000000E+00  0.55384797021E+03  0.55384797022E+03  0.25500000920E-02 0. -1.
       -2   -1    0    0    0  501  0.00000000000E+00  0.00000000000E+00 -0.43649992446E+03  0.43649992446E+03  0.25500000920E-02 0.  1.
    10030    2    1    2    0    0  0.00000000000E+00  0.00000000000E+00  0.11734804576E+03  0.99034789468E+03  0.98337093137E+03 0.  0.
        2    1    3    3  502    0  0.39344529757E+03 -0.26917440585E+03  0.17994654717E+03  0.50954373982E+03  0.25500000920E-02 0. -1.
       -2    1    3    3    0  502 -0.39344529757E+03  0.26917440585E+03 -0.62598501409E+02  0.48080415486E+03  0.25500000920E-02 0.  1.
</event>
<event>
 5   0  0.1245850E-02  0.9927751E+03  0.7818609E-02  0.9316505E-01
       -2   -1    0    0    0  501  0.00000000000E+00  0.00000000000E+00  0.26128653082E+03  0.26128653083E+03  0.25500000920E-02 0. -1.
        2   -1    0    0  501    0  0.00000000000E+00  0.00000000000E+00 -0.94302837320E+03  0.94302837321E+03  0.25500000920E-02 0.  1.
    10030    2    1    2    0    0  0.00000000000E+00  0.00000000000E+00 -0.68174184238E+03  0.12043149040E+04  0.99277512481E+03 0.  0.
        3    1    3    3  502    0  0.54829810277E+02 -0.16652955847E+03 -0.90421818558E+03  0.92105859709E+03  0.10100000352E+00 0.  1.
       -3    1    3    3    0  502 -0.54829810277E+02  0.16652955847E+03  0.22247634320E+03  0.28325630695E+03  0.10100000352E+00 0. -1.
</event>
<event>
 5   0  0.1221315E-02  0.1005282E+04  0.7818609E-02  0.9302771E-01
        2   -1    0    0  501    0  0.00000000000E+00  0.00000000000E+00  0.12779941333E+04  0.12779941333E+04  0.25500000920E-02 0. -1.
       -2   -1    0    0    0  501  0.00000000000E+00  0.00000000000E+00 -0.19769090113E+03  0.19769090114E+03  0.25500000920E-02 0.  1.
    10030    2    1    2    0    0  0.00000000000E+00  0.00000000000E+00  0.10803032321E+04  0.14756850344E+04  0.10052816757E+04 0.  0.
        5    1    3    3  502    0  0.13320852676E+03  0.23015803191E+03 -0.85932076223E+02  0.27950606966E+03  0.46999998093E+01 0.  1.
       -5    1    3    3    0  502 -0.13320852676E+03 -0.23015803191E+03  0.11662353084E+04  0.11961789647E+04  0.46999998093E+01 0. -1.
</event>
<event>
 5   0  0.7461157E-03  0.1011502E+04  0.7818609E-02  0.9296019E-01
        1   -1    0    0  501    0  0.00000000000E+00  0.00000000000E+00  0.51739792228E+03  0.51739792230E+03  0.50400001928E-02 0. -1.
       -1   -1    0    0    0  501  0.00000000000E+00  0.00000000000E+00 -0.49436629270E+03  0.49436629273E+03  0.50400001928E-02 0.  1.
    10030    2    1    2    0    0  0.00000000000E+00  0.00000000000E+00  0.23031629578E+02  0.10117642150E+04  0.10115020370E+04 0.  0.
        2    1    3    3  502    0  0.49496480828E+03  0.89815384947E+01 -0.92015908104E+02  0.50352532887E+03  0.25500000920E-02 0. -1.
       -2    1    3    3    0  502 -0.49496480828E+03 -0.89815384947E+01  0.11504753768E+03  0.50823888615E+03  0.25500000920E-02 0.  1.
</event>
<event>
 5   0  0.1216322E-02  0.1028315E+04  0.7818609E-02  0.9278023E-01
       -2   -1    0    0    0  501  0.00000000000E+00  0.00000000000E+00  0.11915656705E+04  0.11915656705E+04  0.25500000920E-02 0.  1.
        2   -1    0    0  501    0  0.00000000000E+00  0.00000000000E+00 -0.22185771314E+03  0.22185771315E+03  0.25500000920E-02 0. -1.
    10030    2    1    2    0    0  0.00000000000E+00  0.00000000000E+00  0.96970795734E+03  0.14134233836E+04  0.10283151943E+04 0.  0.
        2    1    3    3  502    0 -0.47903333279E+03 -0.18616284259E+03  0.50563113502E+03  0.72096628395E+03  0.25500000920E-02 0. -1.
       -2    1    3    3    0  502  0.47903333279E+03  0.18616284259E+03  0.46407682231E+03  0.69245709968E+03  0.25500000920E-02 0.  1.
</event>
<event>
 5   0  0.7461157E-03  0.9990666E+03  0.7818609E-02  0.9309569E-01
        1   -1    0    0  501    0  0.00000000000E+00  0.00000000000E+00  0.17617633791E+04  0.17617633791E+04  0.50400001928E-02 0. -1.
       -1   -1    0    0    0  501  0.00000000000E+00  0.00000000000E+00 -0.14163848976E+03  0.14163848985E+03  0.50400001928E-02 0.  1.
    10030    2    1    2    0    0  0.00000000000E+00  0.00000000000E+00  0.16201248893E+04  0.19034018689E+04  0.99906657318E+03 0.  0.
        2    1    3    3  502    0 -0.22048936238E+03 -0.38923143591E+03  0.12335820558E+04  0.13121895283E+04  0.25500000920E-02 0. -1.
       -2    1    3    3    0  502  0.22048936238E+03  0.38923143591E+03  0.38654283349E+03  0.59121234066E+03  0.25500000920E-02 0.  1.
</event>
<event>
 5   0  0.1221315E-02  0.1000538E+04  0.7818609E-02  0.9307955E-01
       -2   -1    0    0    0  501  0.00000000000E+00  0.00000000000E+00  0.30178882096E+03  0.30178882097E+03  0.25500000920E-02 0. -1.
        2   -1    0    0  501    0  0.00000000000E+00  0.00000000000E+00 -0.82928603342E+03  0.82928603343E+03  0.25500000920E-02 0.  1.
    10030    2    1    2    0    0  0.00000000000E+00  0.00000000000E+00 -0.52749721246E+03  0.11310748544E+04  0.10005383636E+04 0.  0.
        5    1    3    3  502    0 -0.36489824329E+03 -0.27101177386E+03 -0.27567570083E+02  0.45539012994E+03  0.46999998093E+01 0. -1.
       -5    1    3    3    0  502  0.36489824329E+03  0.27101177386E+03 -0.49992964238E+03  0.67568472445E+03  0.46999998093E+01 0.  1.
</event>
<event>
 5   0  0.7241200E-03  0.9720540E+03  0.7818609E-02  0.9339738E-01
        1   -1    0    0  501    0  0.00000000000E+00  0.00000000000E+00  0.17416705752E+04  0.17416705752E+04  0.50400001928E-02 0. -1.
       -1   -1    0    0    0  501  0.00000000000E+00  0.00000000000E+00 -0.13562969604E+03  0.13562969613E+03  0.50400001928E-02 0.  1.
    10030    2    1    2    0    0  0.00000000000E+00  0.00000000000E+00  0.16060408791E+04  0.18773002713E+04  0.97205401251E+03 0.  0.
        4    1    3    3  502    0 -0.61641231257E+02  0.47901851763E+03  0.90813301101E+03  0.10285745283E+04  0.12699999809E+01 0.  1.
       -4    1    3    3    0  502  0.61641231257E+02 -0.47901851763E+03  0.69790786813E+03  0.84872574305E+03  0.12699999809E+01 0. -1.
</event>
<event>
 5   0  0.7461157E-03  0.9834951E+03  0.7818609E-02  0.9326835E-01
       -1   -1    0    0    0  501  0.00000000000E+00  0.00000000000E+00  0.23689533051E+03  0.23689533056E+03  0.50400001928E-02 0.  1.
        1   -1    0    0  501    0  0.00000000000E+00  0.00000000000E+00 -0.10207700818E+04  0.10207700818E+04  0.50400001928E-02 0. -1.
    10030    2    1    2    0    0  0.00000000000E+00  0.00000000000E+00 -0.78387475125E+03  0.12576654123E+04  0.98349512644E+03 0.  0.
        2    1    3    3  502    0  0.67824126801E+02 -0.90947324015E+02 -0.10038052749E+04  0.10101962967E+04  0.25500000920E-02 0. -1.
       -2    1    3    3    0  502 -0.67824126801E+02  0.90947324015E+02  0.21993052369E+03  0.24746911560E+03  0.25500000920E-02 0.  1.
</event>
<event>
 5   0  0.7073004E-03  0.8290082E+03  0.7818609E-02  0.9518953E-01
        1   -1    0    0  501    0  0.00000000000E+00  0.00000000000E+00  0.46912826301E+03  0.46912826303E+03  0.50400001928E-02 0.  1.
       -1   -1    0    0    0  501  0.00000000000E+00  0.00000000000E+00 -0.36624024025E+03  0.36624024029E+03  0.50400001928E-02 0. -1.
    10030    2    1    2    0    0  0.00000000000E+00  0.00000000000E+00  0.10288802275E+03  0.83536850332E+03  0.82900819725E+03 0.  0.
        1    1    3    3  502    0 -0.28102171223E+03 -0.12782914467E+03 -0.22726462642E+03  0.38335714865E+03  0.50400001928E-02 0. -1.
       -1    1    3    3    0  502  0.28102171223E+03  0.12782914467E+03  0.33015264917E+03  0.45201135467E+03  0.50400001928E-02 0.  1.
</event>
<event>
 5   0  0.1221315E-02  0.9893032E+03  0.7818609E-02  0.9320355E-01
       -2   -1    0    0    0  501  0.00000000000E+00  0.00000000000E+00  0.51447096727E+03  0.51447096727E+03  0.25500000920E-02 0.  1.
        2   -1    0    0  501    0  0.00000000000E+00  0.00000000000E+00 -0.47559576826E+03  0.47559576827E+03  0.25500000920E-02 0. -1.
    10030    2    1    2    0    0  0.00000000000E+00  0.00000000000E+00  0.38875199001E+02  0.99006673554E+03  0.98930321931E+03 0.  0.
        5    1    3    3  502    0 -0.38152967056E+03 -0.53846481430E+02 -0.29095300675E+03  0.48284580894E+03  0.46999998093E+01 0. -1.
       -5    1    3    3    0  502  0.38152967056E+03  0.53846481430E+02  0.32982820575E+03  0.50722092660E+03  0.46999998093E+01 0.  1.
</event>
<event>
 5   0  0.6967681E-03  0.9305140E+03  0.7818609E-02  0.9388221E-01
        1   -1    0    0  501    0  0.00000000000E+00  0.00000000000E+00  0.58822937268E+03  0.58822937270E+03  0.50400001928E-02 0.  1.
       -1   -1    0    0    0  501  0.00000000000E+00  0.00000000000E+00 -0.36799265296E+03  0.36799265299E+03  0.50400001928E-02 0. -1.
    10030    2    1    2    0    0  0.00000000000E+00  0.00000000000E+00  0.22023671972E+03  0.95622202569E+03  0.93051402445E+03 0.  0.
        5    1    3    3  502    0 -0.26887236784E+02  0.45390920167E+03  0.89843843328E+01  0.45481787127E+03  0.46999998093E+01 0. -1.
       -5    1    3    3    0  502  0.26887236784E+02 -0.45390920167E+03  0.21125233539E+03  0.50140415442E+03  0.46999998093E+01 0.  1.
</event>
<event>
 5   0  0.7224879E-03  0.1009394E+04  0.7818609E-02  0.9298301E-01
       -1   -1    0    0    0  501  0.00000000000E+00  0.00000000000E+00  0.24403242869E+03  0.24403242874E+03  0.50400001928E-02 0. -1.
        1   -1    0    0  501    0  0.00000000000E+00  0.00000000000E+00 -0.10437926327E+04  0.10437926327E+04  0.50400001928E-02 0.  1.
    10030    2    1    2    0    0  0.00000000000E+00  0.00000000000E+00 -0.79976020400E+03  0.12878250614E+04  0.10093943753E+04 0.  0.
        3    1    3    3  502    0  0.22044357471E+02 -0.20238442340E+03 -0.98908287019E+03  0.10098169848E+04  0.10100000352E+00 0.  1.
       -3    1    3    3    0  502 -0.22044357471E+02  0.20238442340E+03  0.18932266618E+03  0.27800807662E+03  0.10100000352E+00 0. -1.
</event>
<event>
 5   0  0.1240503E-02  0.9924811E+03  0.7818609E-02  0.9316830E-01
        2   -1    0    0  501    0  0.00000000000E+00  0.00000000000E+00  0.90253777528E+03  0.90253777528E+03  0.25500000920E-02 0.  1.
       -2   -1    0    0    0  501  0.00000000000E+00  0.00000000000E+00 -0.27284696260E+03  0.27284696261E+03  0.25500000920E-02 0. -1.
    10030    2    1    2    0    0  0.00000000000E+00  0.00000000000E+00  0.62969081268E+03  0.11753847379E+04  0.99248111444E+03 0.  0.
        1    1    3    3  502    0 -0.20316392397E+03  0.39227814155E+03  0.47141091814E+02  0.44427469307E+03  0.50400001928E-02 0. -1.
       -1    1    3    3    0  502  0.20316392397E+03 -0.39227814155E+03  0.58254972086E+03  0.73111004483E+03  0.50400001928E-02 0.  1.
</event>
<event>
 5   0  0.7073004E-03  0.9490095E+03  0.7818609E-02  0.9366309E-01
       -1   -1    0    0    0  501  0.00000000000E+00  0.00000000000E+00  0.92217117577E+03  0.92217117579E+03  0.50400001928E-02 0. -1.
        1   -1    0    0  501    0  0.00000000000E+00  0.00000000000E+00 -0.24415722663E+03  0.24415722668E+03  0.50400001928E-02 0.  1.
    10030    2    1    2    0    0  0.00000000000E+00  0.00000000000E+00  0.67801394915E+03  0.11663284025E+04  0.94900949793E+03 0.  0.
        1    1    3    3  502    0 -0.88319080018E+02  0.45736788488E+03  0.22792648352E+03  0.51859051662E+03  0.50400001928E-02 0.  1.
       -1    1    3    3    0  502  0.88319080018E+02 -0.45736788488E+03  0.45008746563E+03  0.64773788584E+03  0.50400001928E-02 0. -1.
</event>
<event>
 5   0  0.1245850E-02  0.9955216E+03  0.7818609E-02  0.9313470E-01
       -2   -1    0    0    0  501  0.00000000000E+00  0.00000000000E+00  0.25371536855E+03  0.25371536857E+03  0.25500000920E-02 0. -1.
        2   -1    0    0  501    0  0.00000000000E+00  0.00000000000E+00 -0.97655031196E+03  0.97655031196E+03  0.25500000920E-02 0.  1.
    10030    2    1    2    0    0  0.00000000000E+00  0.00000000000E+00 -0.72283494340E+03  0.12302656805E+04  0.99552161668E+03 0.  0.
        3    1    3    3  502    0  0.38097685116E+02  0.49505011600E+03 -0.31790465202E+03  0.58956715389E+03  0.10100000352E+00 0. -1.
       -3    1    3    3    0  502 -0.38097685116E+02 -0.49505011600E+03 -0.40493029138E+03  0.64069852664E+03  0.10100000352E+00 0.  1.
</event>
<event>
 5   0  0.7073004E-03  0.1010024E+04  0.7818609E-02  0.9297619E-01
       -1   -1    0    0    0  501  0.00000000000E+00  0.00000000000E+00  0.28571519335E+03  0.28571519339E+03  0.50400001928E-02 0. -1.
        1   -1    0    0  501    0  0.00000000000E+00  0.00000000000E+00 -0.89262689113E+03  0.89262689114E+03  0.50400001928E-02 0.  1.
    10030    2    1    2    0    0  0.00000000000E+00  0.00000000000E+00 -0.60691169778E+03  0.11783420845E+04  0.10100238904E+04 0.  0.
        1    1    3    3  502    0  0.19830860862E+03 -0.45433206157E+03 -0.19098992787E+03  0.53124483903E+03  0.50400001928E-02 0. -1.
       -1    1    3    3    0  502 -0.19830860862E+03  0.45433206157E+03 -0.41592176991E+03  0.64709724550E+03  0.50400001928E-02 0.  1.
</event>
<event>
 5   0  0.7241200E-03  0.1014915E+04  0.7818609E-02  0.9292335E-01
        1   -1    0    0  501    0  0.00000000000E+00  0.00000000000E+00  0.43072692014E+03  0.43072692017E+03  0.50400001928E-02 0. -1.
       -1   -1    0    0    0  501  0.00000000000E+00  0.00000000000E+00 -0.59785746074E+03  0.59785746077E+03  0.50400001928E-02 0.  1.
    10030    2    1    2    0    0  0.00000000000E+00  0.00000000000E+00 -0.16713054061E+03  0.10285843809E+04  0.10149153714E+04 0.  0.
        4    1    3    3  502    0 -0.15173991347E+03  0.17943768579E+03 -0.53938804455E+03  0.58835700041E+03  0.12699999809E+01 0.  1.
       -4    1    3    3    0  502  0.15173991347E+03 -0.17943768579E+03  0.37225750395E+03  0.44022738053E+03  0.12699999809E+01 0. -1.
</event>
<event>
 5   0  0.1240503E-02  0.9809555E+03  0.7818609E-02  0.9329683E-01
        2   -1    0    0  501    0  0.00000000000E+00  0.00000000000E+00  0.19059689582E+03  0.19059689584E+03  0.25500000920E-02 0.  1.
       -2   -1    0    0    0  501  0.00000000000E+00  0.00000000000E+00 -0.12621844931E+04  0.12621844931E+04  0.25500000920E-02 0. -1.
    10030    2    1    2    0    0  0.00000000000E+00  0.00000000000E+00 -0.10715875972E+04  0.14527813889E+04  0.98095554710E+03 0.  0.
        1    1    3    3  502    0 -0.39462648607E+03  0.28725361294E+02 -0.96505812458E+03  0.10430208022E+04  0.50400001928E-02 0. -1.
       -1    1    3    3    0  502  0.39462648607E+03 -0.28725361294E+02 -0.10652947267E+03  0.40976058676E+03  0.50400001928E-02 0.  1.
</event>
<event>
 5   0  0.7073004E-03  0.1043255E+04  0.7818609E-02  0.9262335E-01
       -1   -1    0    0    0  501  0.00000000000E+00  0.00000000000E+00  0.47640214697E+03  0.47640214700E+03  0.50400001928E-02 0.  1.
        1   -1    0    0  501    0  0.00000000000E+00  0.00000000000E+00 -0.57114660779E+03  0.57114660782E+03  0.50400001928E-02 0. -1.
    10030    2    1    2    0    0  0.00000000000E+00  0.00000000000E+00 -0.94744460822E+02  0.10475487548E+04  0.10432554246E+04 0.  0.
        1    1    3    3  502    0  0.34767452221E+03 -0.59073449737E+02 -0.43330826678E+03  0.55867996200E+03  0.50400001928E-02 0. -1.
       -1    1    3    3    0  502 -0.34767452221E+03  0.59073449737E+02  0.33856380595E+03  0.48886879281E+03  0.50400001928E-02 0.  1.
</event>
<event>
 5   0  0.7073004E-03  0.1037177E+04  0.7818609E-02  0.9268685E-01
        1   -1    0    0  501    0  0.00000000000E+00  0.00000000000E+00  0.43589112611E+03  0.43589112614E+03  0.50400001928E-02 0. -1.
       -1   -1    0    0    0  501  0.00000000000E+00  0.00000000000E+00 -0.61697465370E+03  0.61697465373E+03  0.50400001928E-02 0.  1.
    10030    2    1    2    0    0  0.00000000000E+00  0.00000000000E+00 -0.18108352759E+03  0.10528657799E+04  0.10371765069E+04 0.  0.
        1    1    3    3  502    0 -0.36588930509E+03 -0.35877744487E+03 -0.97288753367E+01  0.51253379359E+03  0.50400001928E-02 0.  1.
       -1    1    3    3    0  502  0.36588930509E+03  0.35877744487E+03 -0.17135465225E+03  0.54033198628E+03  0.50400001928E-02 0. -1.
</event>
<event>
 5   0  0.1245850E-02  0.1075737E+04  0.7818609E-02  0.9229168E-01
        2   -1    0    0  501    0  0.00000000000E+00  0.00000000000E+00  0.13378917027E+04  0.13378917027E+04  0.25500000920E-02 0. -1.
       -2   -1    0    0    0  501  0.00000000000E+00  0.00000000000E+00 -0.21623765140E+03  0.21623765142E+03  0.25500000920E-02 0.  1.
    10030    2    1    2    0    0  0.00000000000E+00  0.00000000000E+00  0.11216540513E+04  0.15541293541E+04  0.10757370676E+04 0.  0.
        3    1    3    3  502    0  0.41268853794E+03  0.65637580787E+02  0.10500754879E+04  0.11301675371E+04  0.10100000352E+00 0. -1.
       -3    1    3    3    0  502 -0.41268853794E+03 -0.65637580787E+02  0.71578563378E+02  0.42396181703E+03  0.10100000352E+00 0.  1.
</event>
<event>
 5   0  0.1221315E-02  0.9993684E+03  0.7818609E-02  0.9309238E-01
       -2   -1    0    0    0  501  0.00000000000E+00  0.00000000000E+00  0.12286562564E+03  0.12286562567E+03  0.25500000920E-02 0.  1.
        2   -1    0    0  501    0  0.00000000000E+00  0.00000000000E+00 -0.20321738328E+04  0.20321738328E+04  0.25500000920E-02 0. -1.
    10030    2    1    2    0    0  0.00000000000E+00  0.00000000000E+00 -0.19093082071E+04  0.21550394584E+04  0.99936841936E+03 0.  0.
        5    1    3    3  502    0 -0.43968077275E+02 -0.18588510431E+03  0.40977126171E+02  0.19541667966E+03  0.46999998093E+01 0.  1.
       -5    1    3    3    0  502  0.43968077275E+02  0.18588510431E+03 -0.19502853333E+04  0.19596227788E+04  0.46999998093E+01 0. -1.
</event>
<event>
 5   0  0.1216322E-02  0.1025924E+04  0.7818609E-02  0.9280560E-01
        2   -1    0    0  501    0  0.00000000000E+00  0.00000000000E+00  0.33897315091E+03  0.33897315092E+03  0.25500000920E-02 0. -1.
       -2   -1    0    0    0  501  0.00000000000E+00  0.00000000000E+00 -0.77625613088E+03  0.77625613089E+03  0.25500000920E-02 0.  1.
    10030    2    1    2    0    0  0.00000000000E+00  0.00000000000E+00 -0.43728297997E+03  0.11152292818E+04  0.10259239477E+04 0.  0.
        2    1    3    3  502    0 -0.10072811387E+03 -0.49718053108E+03 -0.13588749846E+03  0.52516668369E+03  0.25500000920E-02 0. -1.
       -2    1    3    3    0  502  0.10072811387E+03  0.49718053108E+03 -0.30139548151E+03  0.59006259812E+03  0.25500000920E-02 0.  1.
</event>
<event>
 5   0  0.1216322E-02  0.9118575E+03  0.7818609E-02  0.9410879E-01
        2   -1    0    0  501    0  0.00000000000E+00  0.00000000000E+00  0.16471606169E+04  0.16471606169E+04  0.25500000920E-02 0. -1.
       -2   -1    0    0    0  501  0.00000000000E+00  0.00000000000E+00 -0.12619959850E+03  0.12619959853E+03  0.25500000920E-02 0.  1.
    10030    2    1    2    0    0  0.00000000000E+00  0.00000000000E+00  0.15209610184E+04  0.17733602154E+04  0.91185746373E+03 0.  0.
        2    1    3    3  502    0 -0.39077982845E+03  0.20801699963E+03  0.97255104171E+03  0.10685670195E+04  0.25500000920E-02 0. -1.
       -2    1    3    3    0  502  0.39077982845E+03 -0.20801699963E+03  0.54840997667E+03  0.70479319589E+03  0.25500000920E-02 0.  1.
</event>
<event>
 5   0  0.1245850E-02  0.1017999E+04  0.7818609E-02  0.9289022E-01
        2   -1    0    0  501    0  0.00000000000E+00  0.00000000000E+00  0.21258022770E+04  0.21258022770E+04  0.25500000920E-02 0. -1.
       -2   -1    0    0    0  501  0.00000000000E+00  0.00000000000E+00 -0.12187413359E+03  0.12187413362E+03  0.25500000920E-02 0.  1.
    10030    2    1    2    0    0  0.00000000000E+00  0.00000000000E+00  0.20039281434E+04  0.22476764106E+04  0.10179986458E+04 0.  0.
        3    1    3    3  502    0 -0.31938644473E+02 -0.37267435749E+03  0.23974917766E+03  0.44428136595E+03  0.10100000352E+00 0.  1.
       -3    1    3    3    0  502  0.31938644473E+02  0.37267435749E+03  0.17641789657E+04  0.18033950447E+04  0.10100000352E+00 0. -1.
</event>
<event>
 5   0  0.7461157E-03  0.1013908E+04  0.7818609E-02  0.9293421E-01
       -1   -1    0    0    0  501  0.00000000000E+00  0.00000000000E+00  0.22833139607E+03  0.22833139613E+03  0.50400001928E-02 0. -1.
        1   -1    0    0  501    0  0.00000000000E+00  0.00000000000E+00 -0.11255668604E+04  0.11255668604E+04  0.50400001928E-02 0.  1.
    10030    2    1    2    0    0  0.00000000000E+00  0.00000000000E+00 -0.89723546435E+03  0.13538982566E+04  0.10139077920E+04 0.  0.
        2    1    3    3  502    0  0.47917782472E+03  0.31659919658E+02 -0.66553545633E+03  0.82070163997E+03  0.25500000920E-02 0.  1.
       -2    1    3    3    0  502 -0.47917782472E+03 -0.31659919658E+02 -0.23170000802E+03  0.53319661659E+03  0.25500000920E-02 0. -1.
</event>
<event>
 5   0  0.1240503E-02  0.8809523E+03  0.7818609E-02  0.9449710E-01
       -2   -1    0    0    0  501  0.00000000000E+00  0.00000000000E+00  0.28144234901E+03  0.28144234902E+03  0.25500000920E-02 0. -1.
        2   -1    0    0  501    0  0.00000000000E+00  0.00000000000E+00 -0.68937470370E+03  0.68937470370E+03  0.25500000920E-02 0.  1.
    10030    2    1    2    0    0  0.00000000000E+00  0.00000000000E+00 -0.40793235469E+03  0.97081705273E+03  0.88095229375E+03 0.  0.
        1    1    3    3  502    0  0.10716611423E+02  0.94633215511E+02 -0.67789261303E+03  0.68454998800E+03  0.50400001928E-02 0.  1.
       -1    1    3    3    0  502 -0.10716611423E+02 -0.94633215511E+02  0.26996025834E+03  0.28626706473E+03  0.50400001928E-02 0. -1.
</event>
<event>
 5   0  0.7073004E-03  0.9678641E+03  0.7818609E-02  0.9344510E-01
        1   -1    0    0  501    0  0.00000000000E+00  0.00000000000E+00  0.25048993038E+03  0.25048993043E+03  0.50400001928E-02 0.  1.
       -1   -1    0    0    0  501  0.00000000000E+00  0.00000000000E+00 -0.93492879787E+03  0.93492879789E+03  0.50400001928E-02 0. -1.
    10030    2    1    2    0    0  0.00000000000E+00  0.00000000000E+00 -0.68443886749E+03  0.11854187283E+04  0.96786414238E+03 0.  0.
        1    1    3    3  502    0 -0.13257349855E+02 -0.38345906008E+03 -0.70342231901E+03  0.80126123517E+03  0.50400001928E-02 0. -1.
       -1    1    3    3    0  502  0.13257349855E+02  0.38345906008E+03  0.18983451519E+02  0.38415749314E+03  0.50400001928E-02 0.  1.
</event>
<event>
 5   0  0.7224879E-03  0.9794136E+03  0.7818609E-02  0.9331416E-01
        1   -1    0    0  501    0  0.00000000000E+00  0.00000000000E+00  0.96213412113E+03  0.96213412114E+03  0.50400001928E-02 0. -1.
       -1   -1    0    0    0  501  0.00000000000E+00  0.00000000000E+00 -0.24925084181E+03  0.24925084186E+03  0.50400001928E-02 0.  1.
    10030    2    1    2    0    0  0.00000000000E+00  0.00000000000E+00  0.71288327932E+03  0.12113849630E+04  0.97941357897E+03 0.  0.
        3    1    3    3  502    0 -0.78849070511E+02 -0.45568880603E+03  0.55565954914E+03  0.72292946309E+03  0.10100000352E+00 0.  1.
       -3    1    3    3    0  502  0.78849070511E+02  0.45568880603E+03  0.15722373018E+03  0.48845549991E+03  0.10100000352E+00 0. -1.
</event>
<event>
 5   0  0.7241200E-03  0.9733366E+03  0.7818609E-02  0.9338282E-01
       -1   -1    0    0    0  501  0.00000000000E+00  0.00000000000E+00  0.39223901991E+03  0.39223901994E+03  0.50400001928E-02 0. -1.
        1   -1    0    0  501    0  0.00000000000E+00  0.00000000000E+00 -0.60383086136E+03  0.60383086138E+03  0.50400001928E-02 0.  1.
    10030    2    1    2    0    0  0.00000000000E+00  0.00000000000E+00 -0.21159184145E+03  0.99606988132E+03  0.97333658161E+03 0.  0.
        4    1    3    3  502    0  0.64432137451E+02  0.42618917303E+02  0.38592271139E+03  0.39358077254E+03  0.12699999809E+01 0. -1.
       -4    1    3    3    0  502 -0.64432137451E+02 -0.42618917303E+02 -0.59751455283E+03  0.60248910878E+03  0.12699999809E+01 0.  1.
</event>
<event>
 5   0  0.1191822E-02  0.1004312E+04  0.7818609E-02  0.9303828E-01
        2   -1    0    0  501    0  0.00000000000E+00  0.00000000000E+00  0.16664674766E+04  0.16664674766E+04  0.25500000920E-02 0. -1.
       -2   -1    0    0    0  501  0.00000000000E+00  0.00000000000E+00 -0.15131442403E+03  0.15131442406E+03  0.25500000920E-02 0.  1.
    10030    2    1    2    0    0  0.00000000000E+00  0.00000000000E+00  0.15151530526E+04  0.18177819007E+04  0.10043118369E+04 0.  0.
        4    1    3    3  502    0  0.12811319613E+03 -0.80521217498E+02  0.16242180872E+04  0.16312518705E+04  0.12699999809E+01 0. -1.
       -4    1    3    3    0  502 -0.12811319613E+03  0.80521217498E+02 -0.10906503457E+03  0.18653003017E+03  0.12699999809E+01 0.  1.
</event>
<event>
 5   0  0.7224879E-03  0.9720953E+03  0.7818609E-02  0.9339691E-01
        1   -1    0    0  501    0  0.00000000000E+00  0.00000000000E+00  0.14994204061E+03  0.14994204070E+03  0.50400001928E-02 0.  1.
       -1   -1    0    0    0  501  0.00000000000E+00  0.00000000000E+00 -0.15755575466E+04  0.15755575466E+04  0.50400001928E-02 0. -1.
    10030    2    1    2    0    0  0.00000000000E+00  0.00000000000E+00 -0.14256155060E+04  0.17254995873E+04  0.97209529104E+03 0.  0.
        3    1    3    3  502    0 -0.39307467228E+03  0.28449339464E+03 -0.66266150248E+03  0.82131873633E+03  0.10100000352E+00 0. -1.
       -3    1    3    3    0  502  0.39307467228E+03 -0.28449339464E+03 -0.76295400349E+03  0.90418085095E+03  0.10100000352E+00 0.  1.
</event>
<event>
 5   0  0.1221315E-02  0.9015093E+03  0.7818609E-02  0.9423697E-01
        2   -1    0    0  501    0  0.00000000000E+00  0.00000000000E+00  0.16549595425E+03  0.16549595427E+03  0.25500000920E-02 0. -1.
       -2   -1    0    0    0  501  0.00000000000E+00  0.00000000000E+00 -0.12277021356E+04  0.12277021356E+04  0.25500000920E-02 0.  1.
    10030    2    1    2    0    0  0.00000000000E+00  0.00000000000E+00 -0.10622061814E+04  0.13931980899E+04  0.90150926004E+03 0.  0.
        5    1    3    3  502    0 -0.41717477080E+03 -0.14163063952E+03 -0.67823047019E+03  0.80877233394E+03  0.46999998093E+01 0.  1.
       -5    1    3    3    0  502  0.41717477080E+03  0.14163063952E+03 -0.38397571116E+03  0.58442575594E+03  0.46999998093E+01 0. -1.
</event>
<event>
 5   0  0.7224879E-03  0.1010101E+04  0.7818609E-02  0.9297536E-01
        1   -1    0    0  501    0  0.00000000000E+00  0.00000000000E+00  0.68792482456E+03  0.68792482457E+03  0.50400001928E-02 0.  1.
       -1   -1    0    0    0  501  0.00000000000E+00  0.00000000000E+00 -0.37079017703E+03  0.37079017706E+03  0.50400001928E-02 0. -1.
    10030    2    1    2    0    0  0.00000000000E+00  0.00000000000E+00  0.31713464753E+03  0.10587150016E+04  0.10101005247E+04 0.  0.
        3    1    3    3  502    0  0.54913918739E+02  0.21440434141E+03 -0.31725408729E+03  0.38682673923E+03  0.10100000352E+00 0. -1.
       -3    1    3    3    0  502 -0.54913918739E+02 -0.21440434141E+03  0.63438873482E+03  0.67188826240E+03  0.10100000352E+00 0.  1.
</event>
<event>
 5   0  0.1240503E-02  0.9230632E+03  0.7818609E-02  0.9397202E-01
       -2   -1    0    0    0  501  0.00000000000E+00  0.00000000000E+00  0.14350974633E+03  0.14350974635E+03  0.25500000920E-02 0. -1.
        2   -1    0    0  501    0  0.00000000000E+00  0.00000000000E+00 -0.14842992920E+04  0.14842992920E+04  0.25500000920E-02 0.  1.
    10030    2    1    2    0    0  0.00000000000E+00  0.00000000000E+00 -0.13407895457E+04  0.16278090383E+04  0.92306319370E+03 0.  0.
        1    1    3    3  502    0 -0.24663029734E+03  0.38429081061E+03 -0.78876507489E+03  0.91140346394E+03  0.50400001928E-02 0.  1.
       -1    1    3    3    0  502  0.24663029734E+03 -0.38429081061E+03 -0.55202447077E+03  0.71640557441E+03  0.50400001928E-02 0. -1.
</event>
<event>
 5   0  0.7224879E-03  0.1026675E+04  0.7818609E-02  0.9279763E-01
       -1   -1    0    0    0  501  0.00000000000E+00  0.00000000000E+00  0.53934228051E+03  0.53934228054E+03  0.50400001928E-02 0.  1.
        1   -1    0    0  501    0  0.00000000000E+00  0.00000000000E+00 -0.48858608498E+03  0.48858608500E+03  0.50400001928E-02 0. -1.
    10030    2    1    2    0    0  0.00000000000E+00  0.00000000000E+00  0.50756195538E+02  0.10279283655E+04  0.10266745021E+04 0.  0.
        3    1    3    3  502    0  0.24114824352E+03  0.38282173382E+01  0.47908491517E+03  0.53636694226E+03  0.10100000352E+00 0.  1.
       -3    1    3    3    0  502 -0.24114824352E+03 -0.38282173382E+01 -0.42832871963E+03  0.49156142329E+03  0.10100000352E+00 0. -1.
</event>
<event>
 5   0  0.1221315E-02  0.9997280E+03  0.7818609E-02  0.9308843E-01
        2   -1    0    0  501    0  0.00000000000E+00  0.00000000000E+00  0.16119504029E+04  0.16119504029E+04  0.25500000920E-02 0. -1.
       -2   -1    0    0    0  501  0.00000000000E+00  0.00000000000E+00 -0.15500724998E+03  0.15500725000E+03  0.25500000920E-02 0.  1.
    10030    2    1    2    0    0  0.00000000000E+00  0.00000000000E+00  0.14569431529E+04  0.17669576529E+04  0.99972796115E+03 0.  0.
        5    1    3    3  502    0 -0.42278100430E+03  0.15292734279E+03  0.34241122894E+03  0.56515315577E+03  0.46999998093E+01 0.  1.
       -5    1    3    3    0  502  0.42278100430E+03 -0.15292734279E+03  0.11145319240E+04  0.12018044971E+04  0.46999998093E+01 0. -1.
</event>
<event>
 5   0  0.1245850E-02  0.1033454E+04  0.7818609E-02  0.9272595E-01
        2   -1    0    0  501    0  0.00000000000E+00  0.00000000000E+00  0.21387758463E+04  0.21387758463E+04  0.25500000920E-02 0.  1.
       -2   -1    0    0    0  501  0.00000000000E+00  0.00000000000E+00 -0.12484106183E+03  0.12484106186E+03  0.25500000920E-02 0. -1.
    10030    2    1    2    0    0  0.00000000000E+00  0.00000000000E+00  0.20139347845E+04  0.22636169082E+04  0.10334544938E+04 0.  0.
        3    1    3    3  502    0 -0.42010005026E+03 -0.11279145131E+03  0.16179155600E+04  0.16753676412E+04  0.10100000352E+00 0.  1.
       -3    1    3    3    0  502  0.42010005026E+03  0.11279145131E+03  0.39601922447E+03  0.58824926694E+03  0.10100000352E+00 0. -1.
</event>
<event>
 5   0  0.4782125E-03  0.1025386E+04  0.7818609E-02  0.9281132E-01
        3   -1    0    0  501    0  0.00000000000E+00  0.00000000000E+00  0.57040431244E+03  0.57040432138E+03  0.10100000352E+00 0. -1.
       -3   -1    0    0    0  501  0.00000000000E+00  0.00000000000E+00 -0.46082023523E+03  0.46082024630E+03  0.10100000352E+00 0.  1.
    10030    2    1    2    0    0  0.00000000000E+00  0.00000000000E+00  0.10958407721E+03  0.10312245677E+04  0.10253855075E+04 0.  0.
        5    1    3    3  502    0 -0.70410259619E+02 -0.29260145579E+03 -0.36261183359E+03  0.47125645720E+03  0.46999998093E+01 0.  1.
       -5    1    3    3    0  502  0.70410259619E+02  0.29260145579E+03  0.47219591080E+03  0.55996811049E+03  0.46999998093E+01 0. -1.
</event>
<event>
 5   0  0.1245850E-02  0.9872970E+03  0.7818609E-02  0.9322588E-01
        2   -1    0    0  501    0  0.00000000000E+00  0.00000000000E+00  0.15190667612E+04  0.15190667612E+04  0.25500000920E-02 0. -1.
       -2   -1    0    0    0  501  0.00000000000E+00  0.00000000000E+00 -0.16042009142E+03  0.16042009144E+03  0.25500000920E-02 0.  1.
    10030    2    1    2    0    0  0.00000000000E+00  0.00000000000E+00  0.13586466698E+04  0.16794868526E+04  0.98729697399E+03 0.  0.
        3    1    3    3  502    0 -0.39868171604E+03 -0.55946509055E+02  0.19335832129E+03  0.44661456894E+03  0.10100000352E+00 0.  1.
       -3    1    3    3    0  502  0.39868171604E+03  0.55946509055E+02  0.11652883485E+04  0.12328722837E+04  0.10100000352E+00 0. -1.
</event>
<event>
 5   0  0.7073004E-03  0.9610759E+03  0.7818609E-02  0.9352297E-01
        1   -1    0    0  501    0  0.00000000000E+00  0.00000000000E+00  0.33536097442E+03  0.33536097446E+03  0.50400001928E-02 0.  1.
       -1   -1    0    0    0  501  0.00000000000E+00  0.00000000000E+00 -0.68856172104E+03  0.68856172106E+03  0.50400001928E-02 0. -1.
    10030    2    1    2    0    0  0.00000000000E+00  0.00000000000E+00 -0.35320074662E+03  0.10239226955E+04  0.96107591738E+03 0.  0.
        1    1    3    3  502    0  0.30429556910E+03  0.59829330631E+02 -0.56767530865E+03  0.64686211688E+03  0.50400001928E-02 0. -1.
       -1    1    3    3    0  502 -0.30429556910E+03 -0.59829330631E+02  0.21447456203E+03  0.37706057863E+03  0.50400001928E-02 0.  1.
</event>
<event>
 5   0  0.7241200E-03  0.9684623E+03  0.7818609E-02  0.9343828E-01
       -1   -1    0    0    0  501  0.00000000000E+00  0.00000000000E+00  0.33738524862E+03  0.33738524866E+03  0.50400001928E-02 0. -1.
        1   -1    0    0  501    0  0.00000000000E+00  0.00000000000E+00 -0.69499121775E+03  0.69499121777E+03  0.50400001928E-02 0.  1.
    10030    2    1    2    0    0  0.00000000000E+00  0.00000000000E+00 -0.35760596914E+03  0.10323764664E+04  0.96846225495E+03 0.  0.
        4    1    3    3  502    0  0.30594107663E+03  0.35183557266E+03 -0.31815906153E+03  0.56445993116E+03  0.12699999809E+01 0.  1.
       -4    1    3    3    0  502 -0.30594107663E+03 -0.35183557266E+03 -0.39446907604E+02  0.46791653526E+03  0.12699999809E+01 0. -1.
</event>
<event>
 5   0  0.7073004E-03  0.9986776E+03  0.7818609E-02  0.9309996E-01
       -1   -1    0    0    0  501  0.00000000000E+00  0.00000000000E+00  0.83619383601E+03  0.83619383603E+03  0.50400001928E-02 0. -1.
        1   -1    0    0  501    0  0.00000000000E+00  0.00000000000E+00 -0.29818354256E+03  0.29818354260E+03  0.50400001928E-02 0.  1.
    10030    2    1    2    0    0  0.00000000000E+00  0.00000000000E+00  0.53801029345E+03  0.11343773786E+04  0.99867760628E+03 0.  0.
        1    1    3    3  502    0  0.29681744865E+03 -0.37745535048E+03  0.42460861358E+03  0.64098799847E+03  0.50400001928E-02 0. -1.
       -1    1    3    3    0  502 -0.29681744865E+03  0.37745535048E+03  0.11340167987E+03  0.49338938016E+03  0.50400001928E-02 0.  1.
</event>
<event>
 5   0  0.6967681E-03  0.1063352E+04  0.7818609E-02  0.9241667E-01
       -1   -1    0    0    0  501  0.00000000000E+00  0.00000000000E+00  0.49515587145E+03  0.49515587148E+03  0.50400001928E-02 0.  1.
        1   -1    0    0  501    0  0.00000000000E+00  0.00000000000E+00 -0.57088956242E+03  0.57088956244E+03  0.50400001928E-02 0. -1.
    10030    2    1    2    0    0  0.00000000000E+00  0.00000000000E+00 -0.75733690966E+02  0.10660454339E+04  0.10633519056E+04 0.  0.
        5    1    3    3  502    0 -0.16774545454E+03  0.38702027889E+03 -0.36231292862E+03  0.55607192163E+03  0.46999998093E+01 0. -1.
       -5    1    3    3    0  502  0.16774545454E+03 -0.38702027889E+03  0.28657923765E+03  0.50997351229E+03  0.46999998093E+01 0.  1.
</event>
<event>
 5   0  0.7224879E-03  0.1123142E+04  0.7818609E-02  0.9182925E-01
        1   -1    0    0  501    0  0.00000000000E+00  0.00000000000E+00  0.10846805162E+04  0.10846805162E+04  0.50400001928E-02 0.  1.
       -1   -1    0    0    0  501  0.00000000000E+00  0.00000000000E+00 -0.29074202794E+03  0.29074202799E+03  0.50400001928E-02 0. -1.
    10030    2    1    2    0    0  0.00000000000E+00  0.00000000000E+00  0.79393848828E+03  0.13754225442E+04  0.11231424006E+04 0.  0.
        3    1    3    3  502    0 -0.14192785544E+03 -0.33979958032E+03  0.91617765953E+03  0.98741520393E+03  0.10100000352E+00 0.  1.
       -3    1    3    3    0  502  0.14192785544E+03  0.33979958032E+03 -0.12223917125E+03  0.38800734029E+03  0.10100000352E+00 0. -1.
</event>
<event>
 5   0  0.7241200E-03  0.9852665E+03  0.7818609E-02  0.9324853E-01
       -1   -1    0    0    0  501  0.00000000000E+00  0.00000000000E+00  0.39896636167E+03  0.39896636171E+03  0.50400001928E-02 0.  1.
        1   -1    0    0  501    0  0.00000000000E+00  0.00000000000E+00 -0.60829066429E+03  0.60829066431E+03  0.50400001928E-02 0. -1.
    10030    2    1    2    0    0  0.00000000000E+00  0.00000000000E+00 -0.20932430261E+03  0.10072570260E+04  0.98526648821E+03 0.  0.
        4    1    3    3  502    0  0.15333502001E+03 -0.64340446532E+02  0.36940596259E+03  0.40510949078E+03  0.12699999809E+01 0.  1.
       -4    1    3    3    0  502 -0.15333502001E+03  0.64340446532E+02 -0.57873026521E+03  0.60214753523E+03  0.12699999809E+01 0. -1.
</event>
<event>
 5   0  0.7461157E-03  0.9935487E+03  0.7818609E-02  0.9315649E-01
        1   -1    0    0  501    0  0.00000000000E+00  0.00000000000E+00  0.50594616808E+03  0.50594616811E+03  0.50400001928E-02 0. -1.
       -1   -1    0    0    0  501  0.00000000000E+00  0.00000000000E+00 -0.48776875076E+03  0.48776875079E+03  0.50400001928E-02 0.  1.
    10030    2    1    2    0    0  0.00000000000E+00  0.00000000000E+00  0.18177417318E+02  0.99371491889E+03  0.99354865081E+03 0.  0.
        2    1    3    3  502    0 -0.28312262884E+03  0.19392702140E+03 -0.35016301832E+03  0.49028588802E+03  0.25500000920E-02 0.  1.
       -2    1    3    3    0  502  0.28312262884E+03 -0.19392702140E+03  0.36834043563E+03  0.50342903087E+03  0.25500000920E-02 0. -1.
</event>
<event>
 5   0  0.1216322E-02  0.9745591E+03  0.7818609E-02  0.9336897E-01
        2   -1    0    0  501    0  0.00000000000E+00  0.00000000000E+00  0.90076129868E+03  0.90076129869E+03  0.25500000920E-02 0.  1.
       -2   -1    0    0    0  501  0.00000000000E+00  0.00000000000E+00 -0.26360076693E+03  0.26360076695E+03  0.25500000920E-02 0. -1.
    10030    2    1    2    0    0  0.00000000000E+00  0.00000000000E+00  0.63716053175E+03  0.11643620656E+04  0.97455911912E+03 0.  0.
        2    1    3    3  502    0  0.27521157868E+03  0.24434780191E+03  0.70014427207E+03  0.79097993846E+03  0.25500000920E-02 0.  1.
       -2    1    3    3    0  502 -0.27521157868E+03 -0.24434780191E+03 -0.62983740317E+02  0.37338212717E+03  0.25500000920E-02 0. -1.
</event>
<event>
 5   0  0.6967681E-03  0.1000679E+04  0.7818609E-02  0.9307801E-01
        1   -1    0    0  501    0  0.00000000000E+00  0.00000000000E+00  0.47739974055E+03  0.47739974057E+03  0.50400001928E-02 0.  1.
       -1   -1    0    0    0  501  0.00000000000E+00  0.00000000000E+00 -0.52438123139E+03  0.52438123141E+03  0.50400001928E-02 0. -1.
    10030    2    1    2    0    0  0.00000000000E+00  0.00000000000E+00 -0.46981490840E+02  0.10017809720E+04  0.10006786974E+04 0.  0.
        5    1    3    3  502    0 -0.47698568462E+03 -0.15000737587E+03 -0.40825063155E+02  0.50170343025E+03  0.46999998093E+01 0. -1.
       -5    1    3    3    0  502  0.47698568462E+03  0.15000737587E+03 -0.61564276858E+01  0.50007754173E+03  0.46999998093E+01 0.  1.
</event>
<event>
 5   0  0.7224879E-03  0.9847089E+03  0.7818609E-02  0.9325477E-01
       -1   -1    0    0    0  501  0.00000000000E+00  0.00000000000E+00  0.35371064393E+03  0.35371064396E+03  0.50400001928E-02 0.  1.
        1   -1    0    0  501    0  0.00000000000E+00  0.00000000000E+00 -0.68534237032E+03  0.68534237034E+03  0.50400001928E-02 0. -1.
    10030    2    1    2    0    0  0.00000000000E+00  0.00000000000E+00 -0.33163172639E+03  0.10390530143E+04  0.98470887301E+03 0.  0.
        3    1    3    3  502    0 -0.48642603030E+03 -0.33235966119E+02 -0.23814027456E+03  0.54261009294E+03  0.10100000352E+00 0. -1.
       -3    1    3    3    0  502  0.48642603030E+03  0.33235966119E+02 -0.93491451835E+02  0.49644292136E+03  0.10100000352E+00 0.  1.
</event>
<event>
 5   0  0.1216322E-02  0.1030517E+04  0.7818609E-02  0.9275693E-01
       -2   -1    0    0    0  501  0.00000000000E+00  0.00000000000E+00  0.23462190106E+03  0.23462190107E+03  0.25500000920E-02 0.  1.
        2   -1    0    0  501    0  0.00000000000E+00  0.00000000000E+00 -0.11315714292E+04  0.11315714293E+04  0.25500000920E-02 0. -1.
    10030    2    1    2    0    0  0.00000000000E+00  0.00000000000E+00 -0.89694952819E+03  0.13661933303E+04  0.10305172292E+04 0.  0.
        2    1    3    3  502    0 -0.22825601431E+03 -0.28955920063E+03 -0.92564030955E+03  0.99637107616E+03  0.25500000920E-02 0. -1.
       -2    1    3    3    0  502  0.22825601431E+03  0.28955920063E+03  0.28690781360E+02  0.36982225417E+03  0.25500000920E-02 0.  1.
</event>
<event>
 5   0  0.7461157E-03  0.9869107E+03  0.7818609E-02  0.9323019E-01
        1   -1    0    0  501    0  0.00000000000E+00  0.00000000000E+00  0.57381556277E+03  0.57381556280E+03  0.50400001928E-02 0. -1.
       -1   -1    0    0    0  501  0.00000000000E+00  0.00000000000E+00 -0.42434923542E+03  0.42434923545E+03  0.50400001928E-02 0.  1.
    10030    2    1    2    0    0  0.00000000000E+00  0.00000000000E+00  0.14946632735E+03  0.99816479825E+03  0.98691072618E+03 0.  0.
        2    1    3    3  502    0  0.44854280271E+01 -0.21206037734E+03  0.52535673442E+03  0.56655928296E+03  0.25500000920E-02 0. -1.
       -2    1    3    3    0  502 -0.44854280271E+01  0.21206037734E+03 -0.37589040707E+03  0.43160551529E+03  0.25500000920E-02 0.  1.
</event>
<event>
 5   0  0.6967681E-03  0.1009049E+04  0.7818609E-02  0.9298675E-01
        1   -1    0    0  501    0  0.00000000000E+00  0.00000000000E+00  0.34453204436E+03  0.34453204439E+03  0.50400001928E-02 0.  1.
       -1   -1    0    0    0  501  0.00000000000E+00  0.00000000000E+00 -0.73881368004E+03  0.73881368006E+03  0.50400001928E-02 0. -1.
    10030    2    1    2    0    0  0.00000000000E+00  0.00000000000E+00 -0.39428163568E+03  0.10833457245E+04  0.10090490327E+04 0.  0.
        5    1    3    3  502    0 -0.44178220699E+03  0.21597237242E+03 -0.31816765293E+03  0.58572035087E+03  0.46999998093E+01 0. -1.
       -5    1    3    3    0  502  0.44178220699E+03 -0.21597237242E+03 -0.76113982757E+02  0.49762537358E+03  0.46999998093E+01 0.  1.
</event>
<event>
 5   0  0.1240503E-02  0.1005711E+04  0.7818609E-02  0.9302303E-01
        2   -1    0    0  501    0  0.00000000000E+00  0.00000000000E+00  0.14498147560E+04  0.14498147560E+04  0.25500000920E-02 0.  1.
       -2   -1    0    0    0  501  0.00000000000E+00  0.00000000000E+00 -0.17441106689E+03  0.17441106691E+03  0.25500000920E-02 0. -1.
    10030    2    1    2    0    0  0.00000000000E+00  0.00000000000E+00  0.12754036891E+04  0.16242258229E+04  0.10057111681E+04 0.  0.
        1    1    3    3  502    0 -0.38696835614E+03  0.30860472243E+03  0.49431769856E+03  0.69952224446E+03  0.50400001928E-02 0. -1.
       -1    1    3    3    0  502  0.38696835614E+03 -0.30860472243E+03  0.78108599056E+03  0.92470357847E+03  0.50400001928E-02 0.  1.
</event>
<event>
 5   0  0.1216322E-02  0.9869972E+03  0.7818609E-02  0.9322922E-01
        2   -1    0    0  501    0  0.00000000000E+00  0.00000000000E+00  0.44386009825E+03  0.44386009826E+03  0.25500000920E-02 0.  1.
       -2   -1    0    0    0  501  0.00000000000E+00  0.00000000000E+00 -0.54868839257E+03  0.54868839258E+03  0.25500000920E-02 0. -1.
    10030    2    1    2    0    0  0.00000000000E+00  0.00000000000E+00 -0.10482829432E+03  0.99254849084E+03  0.98699723170E+03 0.  0.
        2    1    3    3  502    0 -0.37026199339E+03  0.28443971505E+03 -0.21312849501E+03  0.51324813749E+03  0.25500000920E-02 0. -1.
       -2    1    3    3    0  502  0.37026199339E+03 -0.28443971505E+03  0.10830020069E+03  0.47930035335E+03  0.25500000920E-02 0.  1.
</event>
<event>
 5   0  0.1191822E-02  0.9654498E+03  0.7818609E-02  0.9347272E-01
        2   -1    0    0  501    0  0.00000000000E+00  0.00000000000E+00  0.44664700285E+03  0.44664700286E+03  0.25500000920E-02 0.  1.
       -2   -1    0    0    0  501  0.00000000000E+00  0.00000000000E+00 -0.52171699178E+03  0.52171699179E+03  0.25500000920E-02 0. -1.
    10030    2    1    2    0    0  0.00000000000E+00  0.00000000000E+00 -0.75069988926E+02  0.96836399465E+03  0.96544980340E+03 0.  0.
        4    1    3    3  502    0  0.32794713888E+03  0.23850813443E+03  0.22514530401E+03  0.46381836629E+03  0.12699999809E+01 0. -1.
       -4    1    3    3    0  502 -0.32794713888E+03 -0.23850813443E+03 -0.30021529293E+03  0.50454562836E+03  0.12699999809E+01 0.  1.
</event>
<event>
 5   0  0.1221315E-02  0.9807348E+03  0.7818609E-02  0.9329931E-01
       -2   -1    0    0    0  501  0.00000000000E+00  0.00000000000E+00  0.11333438192E+04  0.11333438192E+04  0.25500000920E-02 0. -1.
        2   -1    0    0  501    0  0.00000000000E+00  0.00000000000E+00 -0.21216877311E+03  0.21216877313E+03  0.25500000920E-02 0.  1.
    10030    2    1    2    0    0  0.00000000000E+00  0.00000000000E+00  0.92117504604E+03  0.13455125923E+04  0.98073476054E+03 0.  0.
        5    1    3    3  502    0 -0.39667929849E+03 -0.22208852823E+03  0.71266806858E+03  0.84533759303E+03  0.46999998093E+01 0.  1.
       -5    1    3    3    0  502  0.39667929849E+03  0.22208852823E+03  0.20850697746E+03  0.50017499925E+03  0.46999998093E+01 0. -1.
</event>
<event>
 5   0  0.1191822E-02  0.9191364E+03  0.7818609E-02  0.9401971E-01
       -2   -1    0    0    0  501  0.00000000000E+00  0.00000000000E+00  0.16802402852E+03  0.16802402854E+03  0.25500000920E-02 0. -1.
        2   -1    0    0  501    0  0.00000000000E+00  0.00000000000E+00 -0.12569806338E+04  0.12569806338E+04  0.25500000920E-02 0.  1.
    10030    2    1    2    0    0  0.00000000000E+00  0.00000000000E+00 -0.10889566053E+04  0.14250046624E+04  0.91913644229E+03 0.  0.
        4    1    3    3  502    0  0.22075960992E+03  0.40133966206E+03 -0.60234290751E+03  0.75672116452E+03  0.12699999809E+01 0. -1.
       -4    1    3    3    0  502 -0.22075960992E+03 -0.40133966206E+03 -0.48661369780E+03  0.66828349785E+03  0.12699999809E+01 0.  1.
</event>
<event>
 5   0  0.1240503E-02  0.9633776E+03  0.7818609E-02  0.9349649E-01
       -2   -1    0    0    0  501  0.00000000000E+00  0.00000000000E+00  0.14713694866E+03  0.14713694869E+03  0.25500000920E-02 0.  1.
        2   -1    0    0  501    0  0.00000000000E+00  0.00000000000E+00 -0.15769262238E+04  0.15769262238E+04  0.25500000920E-02 0. -1.
    10030    2    1    2    0    0  0.00000000000E+00  0.00000000000E+00 -0.14297892751E+04  0.17240631725E+04  0.96337762659E+03 0.  0.
        1    1    3    3  502    0 -0.11239726042E+02  0.48063064235E+03 -0.66144669196E+03  0.81770647065E+03  0.50400001928E-02 0. -1.
       -1    1    3    3    0  502  0.11239726042E+02 -0.48063064235E+03 -0.76834258315E+03  0.90635670181E+03  0.50400001928E-02 0.  1.
</event>
<event>
 5   0  0.7461157E-03  0.1013838E+04  0.7818609E-02  0.9293497E-01
       -1   -1    0    0    0  501  0.00000000000E+00  0.00000000000E+00  0.11742698969E+04  0.11742698969E+04  0.50400001928E-02 0.  1.
        1   -1    0    0  501    0  0.00000000000E+00  0.00000000000E+00 -0.21883110768E+03  0.21883110774E+03  0.50400001928E-02 0. -1.
    10030    2    1    2    0    0  0.00000000000E+00  0.00000000000E+00  0.95543878920E+03  0.13931010046E+04  0.10138378219E+04 0.  0.
        2    1    3    3  502    0  0.84612960259E+02 -0.38644976383E+03  0.42188096702E+02  0.39784746891E+03  0.25500000920E-02 0. -1.
       -2    1    3    3    0  502 -0.84612960259E+02  0.38644976383E+03  0.91325069249E+03  0.99525353572E+03  0.25500000920E-02 0.  1.
</event>
<event>
 5   0  0.1216322E-02  0.1004992E+04  0.7818609E-02  0.9303086E-01
       -2   -1    0    0    0  501  0.00000000000E+00  0.00000000000E+00  0.58974491207E+03  0.58974491208E+03  0.25500000920E-02 0. -1.
        2   -1    0    0  501    0  0.00000000000E+00  0.00000000000E+00 -0.42815525409E+03  0.42815525409E+03  0.25500000920E-02 0.  1.
    10030    2    1    2    0    0  0.00000000000E+00  0.00000000000E+00  0.16158965799E+03  0.10179001662E+04  0.10049923038E+04 0.  0.
        2    1    3    3  502    0  0.24836911669E+03  0.14600349425E+03 -0.33619448257E+03  0.44275384648E+03  0.25500000920E-02 0.  1.
       -2    1    3    3    0  502 -0.24836911669E+03 -0.14600349425E+03  0.49778414055E+03  0.57514631969E+03  0.25500000920E-02 0. -1.
</event>
<event>
 5   0  0.1245850E-02  0.8624466E+03  0.7818609E-02  0.9473782E-01
       -2   -1    0    0    0  501  0.00000000000E+00  0.00000000000E+00  0.23263706465E+03  0.23263706466E+03  0.25500000920E-02 0.  1.
        2   -1    0    0  501    0  0.00000000000E+00  0.00000000000E+00 -0.79932891705E+03  0.79932891705E+03  0.25500000920E-02 0. -1.
    10030    2    1    2    0    0  0.00000000000E+00  0.00000000000E+00 -0.56669185240E+03  0.10319659817E+04  0.86244659652E+03 0.  0.
        3    1    3    3  502    0 -0.15272381256E+03  0.69420643017E+02  0.19198936833E+03  0.25495826394E+03  0.10100000352E+00 0.  1.
       -3    1    3    3    0  502  0.15272381256E+03 -0.69420643017E+02 -0.75868122072E+03  0.77700771777E+03  0.10100000352E+00 0. -1.
</event>
<event>
 5   0  0.1221315E-02  0.1023423E+04  0.7818609E-02  0.9283221E-01
       -2   -1    0    0    0  501  0.00000000000E+00  0.00000000000E+00  0.26724682589E+03  0.26724682591E+03  0.25500000920E-02 0. -1.
        2   -1    0    0  501    0  0.00000000000E+00  0.00000000000E+00 -0.97980089032E+03  0.97980089032E+03  0.25500000920E-02 0.  1.
    10030    2    1    2    0    0  0.00000000000E+00  0.00000000000E+00 -0.71255406443E+03  0.12470477162E+04  0.10234230366E+04 0.  0.
        5    1    3    3  502    0 -0.37946626931E+03  0.34269879869E+03 -0.33222975631E+03  0.60978341822E+03  0.46999998093E+01 0.  1.
       -5    1    3    3    0  502  0.37946626931E+03 -0.34269879869E+03 -0.38032430812E+03  0.63726429800E+03  0.46999998093E+01 0. -1.
</event>
<event>
 5   0  0.1240503E-02  0.1005763E+04  0.7818609E-02  0.9302246E-01
       -2   -1    0    0    0  501  0.00000000000E+00  0.00000000000E+00  0.20091669422E+03  0.20091669424E+03  0.25500000920E-02 0. -1.
        2   -1    0    0  501    0  0.00000000000E+00  0.00000000000E+00 -0.12586805837E+04  0.12586805837E+04  0.25500000920E-02 0.  1.
    10030    2    1    2    0    0  0.00000000000E+00  0.00000000000E+00 -0.10577638895E+04  0.14595972780E+04  0.10057632763E+04 0.  0.
        1    1    3    3  502    0  0.33619238955E+03  0.13701210677E+03 -0.10338867818E+04  0.10957734793E+04  0.50400001928E-02 0.  1.
       -1    1    3    3    0  502 -0.33619238955E+03 -0.13701210677E+03 -0.23877107657E+02  0.36382379868E+03  0.50400001928E-02 0. -1.
</event>
<event>
 5   0  0.7073004E-03  0.1085578E+04  0.7818609E-02  0.9219364E-01
       -1   -1    0    0    0  501  0.00000000000E+00  0.00000000000E+00  0.48688302276E+03  0.48688302279E+03  0.50400001928E-02 0.  1.
        1   -1    0    0  501    0  0.00000000000E+00  0.00000000000E+00 -0.60511419866E+03  0.60511419868E+03  0.50400001928E-02 0. -1.
    10030    2    1    2    0    0  0.00000000000E+00  0.00000000000E+00 -0.11823117589E+03  0.10919972215E+04  0.10855778741E+04 0.  0.
        1    1    3    3  502    0 -0.24366500197E+03 -0.47297801659E+03 -0.16717049680E+03  0.55769777872E+03  0.50400001928E-02 0. -1.
       -1    1    3    3    0  502  0.24366500197E+03  0.47297801659E+03  0.48939320907E+02  0.53429944275E+03  0.50400001928E-02 0.  1.
</event>
<event>
 5   0  0.1216322E-02  0.9830717E+03  0.7818609E-02  0.9327309E-01
       -2   -1    0    0    0  501  0.00000000000E+00  0.00000000000E+00  0.16958817370E+03  0.16958817372E+03  0.25500000920E-02 0. -1.
        2   -1    0    0  501    0  0.00000000000E+00  0.00000000000E+00 -0.14246718714E+04  0.14246718714E+04  0.25500000920E-02 0.  1.
    10030    2    1    2    0    0  0.00000000000E+00  0.00000000000E+00 -0.12550836977E+04  0.15942600452E+04  0.98307171827E+03 0.  0.
        2    1    3    3  502    0 -0.14700233617E+03 -0.40793248587E+03 -0.25212705307E+03  0.50158414126E+03  0.25500000920E-02 0. -1.
       -2    1    3    3    0  502  0.14700233617E+03  0.40793248587E+03 -0.10029566447E+04  0.10926759039E+04  0.25500000920E-02 0.  1.
</event>
<event>
 5   0  0.7224879E-03  0.9935163E+03  0.7818609E-02  0.9315685E-01
       -1   -1    0    0    0  501  0.00000000000E+00  0.00000000000E+00  0.43083948819E+03  0.43083948822E+03  0.50400001928E-02 0.  1.
        1   -1    0    0  501    0  0.00000000000E+00  0.00000000000E+00 -0.57276234456E+03  0.57276234458E+03  0.50400001928E-02 0. -1.
    10030    2    1    2    0    0  0.00000000000E+00  0.00000000000E+00 -0.14192285637E+03  0.10036018328E+04  0.99351625132E+03 0.  0.
        3    1    3    3  502    0  0.25751062081E+03  0.20381158794E+02  0.35765893327E+03  0.44118820725E+03  0.10100000352E+00 0.  1.
       -3    1    3    3    0  502 -0.25751062081E+03 -0.20381158794E+02 -0.49958178964E+03  0.56241362555E+03  0.10100000352E+00 0. -1.
</event>
<event>
 5   0  0.1221315E-02  0.9676265E+03  0.7818609E-02  0.9344782E-01
        2   -1    0    0  501    0  0.00000000000E+00  0.00000000000E+00  0.20262581267E+04  0.20262581267E+04  0.25500000920E-02 0. -1.
       -2   -1    0    0    0  501  0.00000000000E+00  0.00000000000E+00 -0.11552094740E+03  0.11552094743E+03  0.25500000920E-02 0.  1.
    10030    2    1    2    0    0  0.00000000000E+00  0.00000000000E+00  0.19107371793E+04  0.21417790741E+04  0.96762649510E+03 0.  0.
        5    1    3    3  502    0  0.13601602204E+03 -0.34460479841E+03  0.26670778129E+03  0.45651720223E+03  0.46999998093E+01 0.  1.
       -5    1    3    3    0  502 -0.13601602204E+03  0.34460479841E+03  0.16440293980E+04  0.16852618719E+04  0.46999998093E+01 0. -1.
</event>
<event>
 5   0  0.7461157E-03  0.1008517E+04  0.7818609E-02  0.9299252E-01
        1   -1    0    0  501    0  0.00000000000E+00  0.00000000000E+00  0.16212511644E+04  0.16212511644E+04  0.50400001928E-02 0. -1.
       -1   -1    0    0    0  501  0.00000000000E+00  0.00000000000E+00 -0.15683985048E+03  0.15683985056E+03  0.50400001928E-02 0.  1.
    10030    2    1    2    0    0  0.00000000000E+00  0.00000000000E+00  0.14644113139E+04  0.17780910150E+04  0.10085173083E+04 0.  0.
        2    1    3    3  502    0 -0.26580292736E+03 -0.14130870410E+03  0.18961021753E+02  0.30162703195E+03  0.25500000920E-02 0.  1.
       -2    1    3    3    0  502  0.26580292736E+03  0.14130870410E+03  0.14454502922E+04  0.14764639830E+04  0.25500000920E-02 0. -1.
</event>
<event>
 5   0  0.1191822E-02  0.1002937E+04  0.7818609E-02  0.9305330E-01
       -2   -1    0    0    0  501  0.00000000000E+00  0.00000000000E+00  0.54231534533E+03  0.54231534534E+03  0.25500000920E-02 0. -1.
        2   -1    0    0  501    0  0.00000000000E+00  0.00000000000E+00 -0.46369797835E+03  0.46369797836E+03  0.25500000920E-02 0.  1.
    10030    2    1    2    0    0  0.00000000000E+00  0.00000000000E+00  0.78617366982E+02  0.10060133237E+04  0.10029367463E+04 0.  0.
        4    1    3    3  502    0 -0.47800110266E+02  0.13932913499E+03  0.52012392825E+03  0.54058114288E+03  0.12699999809E+01 0. -1.
       -4    1    3    3    0  502  0.47800110266E+02 -0.13932913499E+03 -0.44150656127E+03  0.46543218082E+03  0.12699999809E+01 0.  1.
</event>
<event>
 5   0  0.7073004E-03  0.1020421E+04  0.7818609E-02  0.9286427E-01
        1   -1    0    0  501    0  0.00000000000E+00  0.00000000000E+00  0.97480825915E+03  0.97480825916E+03  0.50400001928E-02 0.  1.
       -1   -1    0    0    0  501  0.00000000000E+00  0.00000000000E+00 -0.26704188981E+03  0.26704188986E+03  0.50400001928E-02 0. -1.
    10030    2    1    2    0    0  0.00000000000E+00  0.00000000000E+00  0.70776636934E+03  0.12418501490E+04  0.10204207755E+04 0.  0.
        1    1    3    3  502    0 -0.20026908403E+03 -0.29755559248E+03  0.79548349148E+03  0.87260588004E+03  0.50400001928E-02 0.  1.
       -1    1    3    3    0  502  0.20026908403E+03  0.29755559248E+03 -0.87717122139E+02  0.36924426898E+03  0.50400001928E-02 0. -1.
</event>
<event>
 5   0  0.1240503E-02  0.9468595E+03  0.7818609E-02  0.9368829E-01
        2   -1    0    0  501    0  0.00000000000E+00  0.00000000000E+00  0.16132965892E+04  0.16132965892E+04  0.25500000920E-02 0. -1.
       -2   -1    0    0    0  501  0.00000000000E+00  0.00000000000E+00 -0.13893026580E+03  0.13893026583E+03  0.25500000920E-02 0.  1.
    10030    2    1    2    0    0  0.00000000000E+00  0.00000000000E+00  0.14743663234E+04  0.17522268550E+04  0.94685949111E+03 0.  0.
        1    1    3    3  502    0 -0.38132527372E+03  0.20978321493E+03  0.10819938013E+04  0.11662454920E+04  0.50400001928E-02 0. -1.
       -1    1    3    3    0  502  0.38132527372E+03 -0.20978321493E+03  0.39237252213E+03  0.58598136301E+03  0.50400001928E-02 0.  1.
</event>
<event>
 5   0  0.7241200E-03  0.9835557E+03  0.7818609E-02  0.9326767E-01
        1   -1    0    0  501    0  0.00000000000E+00  0.00000000000E+00  0.33066999821E+03  0.33066999825E+03  0.50400001928E-02 0. -1.
       -1   -1    0    0    0  501  0.00000000000E+00  0.00000000000E+00 -0.73138004272E+03  0.73138004274E+03  0.50400001928E-02 0.  1.
    10030    2    1    2    0    0  0.00000000000E+00  0.00000000000E+00 -0.40071004451E+03  0.10620500410E+04  0.98355566684E+03 0.  0.
        4    1    3    3  502    0 -0.66022417882E+02 -0.39341686751E+03  0.11018664610E+03  0.41385806889E+03  0.12699999809E+01 0. -1.
       -4    1    3    3    0  502  0.66022417882E+02  0.39341686751E+03 -0.51089669061E+03  0.64819197209E+03  0.12699999809E+01 0.  1.
</event>
<event>
 5   0  0.4782125E-03  0.1023469E+04  0.7818609E-02  0.9283172E-01
        3   -1    0    0  501    0  0.00000000000E+00  0.00000000000E+00  0.66398279252E+03  0.66398280020E+03  0.10100000352E+00 0. -1.
       -3   -1    0    0    0  501  0.00000000000E+00  0.00000000000E+00 -0.39439606109E+03  0.39439607402E+03  0.10100000352E+00 0.  1.
    10030    2    1    2    0    0  0.00000000000E+00  0.00000000000E+00  0.26958673143E+03  0.10583788742E+04  0.10234690204E+04 0.  0.
        4    1    3    3  502    0  0.35834632907E+03 -0.34132819362E+03  0.26944047257E+03  0.56348629840E+03  0.12699999809E+01 0. -1.
       -4    1    3    3    0  502 -0.35834632907E+03  0.34132819362E+03  0.14625885641E+00  0.49489257583E+03  0.12699999809E+01 0.  1.
</event>
<event>
 5   0  0.1245850E-02  0.9581611E+03  0.7818609E-02  0.9355662E-01
       -2   -1    0    0    0  501  0.00000000000E+00  0.00000000000E+00  0.34482402864E+03  0.34482402865E+03  0.25500000920E-02 0. -1.
        2   -1    0    0  501    0  0.00000000000E+00  0.00000000000E+00 -0.66560957055E+03  0.66560957056E+03  0.25500000920E-02 0.  1.
    10030    2    1    2    0    0  0.00000000000E+00  0.00000000000E+00 -0.32078554191E+03  0.10104335992E+04  0.95816110050E+03 0.  0.
        3    1    3    3  502    0 -0.30392480095E+03  0.21833973340E+03  0.15505077750E+03  0.40507194129E+03  0.10100000352E+00 0. -1.
       -3    1    3    3    0  502  0.30392480095E+03 -0.21833973340E+03 -0.47583631941E+03  0.60536165793E+03  0.10100000352E+00 0.  1.
</event>
<event>
 5   0  0.7224879E-03  0.9962464E+03  0.7818609E-02  0.9312671E-01
       -1   -1    0    0    0  501  0.00000000000E+00  0.00000000000E+00  0.21541022834E+03  0.21541022840E+03  0.50400001928E-02 0.  1.
        1   -1    0    0  501    0  0.00000000000E+00  0.00000000000E+00 -0.11518800372E+04  0.11518800372E+04  0.50400001928E-02 0. -1.
    10030    2    1    2    0    0  0.00000000000E+00  0.00000000000E+00 -0.93646980883E+03  0.13672902656E+04  0.99624643914E+03 0.  0.
        3    1    3    3  502    0  0.42942066921E+03  0.23906470078E+03 -0.57950167765E+03  0.75985277976E+03  0.10100000352E+00 0. -1.
       -3    1    3    3    0  502 -0.42942066921E+03 -0.23906470078E+03 -0.35696813118E+03  0.60743748583E+03  0.10100000352E+00 0.  1.
</event>
<event>
 5   0  0.1240503E-02  0.1006317E+04  0.7818609E-02  0.9301644E-01
       -2   -1    0    0    0  501  0.00000000000E+00  0.00000000000E+00  0.20063881275E+03  0.20063881276E+03  0.25500000920E-02 0.  1.
        2   -1    0    0  501    0  0.00000000000E+00  0.00000000000E+00 -0.12618117095E+04  0.12618117095E+04  0.25500000920E-02 0. -1.
    10030    2    1    2    0    0  0.00000000000E+00  0.00000000000E+00 -0.10611728967E+04  0.14624505222E+04  0.10063168553E+04 0.  0.
        1    1    3    3  502    0  0.25859591400E+03 -0.31780052644E+03 -0.10614344674E+03  0.42324396351E+03  0.50400001928E-02 0.  1.
       -1    1    3    3    0  502 -0.25859591400E+03  0.31780052644E+03 -0.95502944998E+03  0.10392065587E+04  0.50400001928E-02 0. -1.
</event>
<event>
 5   0  0.7241200E-03  0.1001039E+04  0.7818609E-02  0.9307406E-01
        1   -1    0    0  501    0  0.00000000000E+00  0.00000000000E+00  0.14802780352E+04  0.14802780352E+04  0.50400001928E-02 0.  1.
       -1   -1    0    0    0  501  0.00000000000E+00  0.00000000000E+00 -0.16923823555E+03  0.16923823562E+03  0.50400001928E-02 0. -1.
    10030    2    1    2    0    0  0.00000000000E+00  0.00000000000E+00  0.13110397997E+04  0.16495162709E+04  0.10010387462E+04 0.  0.
        4    1    3    3  502    0  0.10649443581E+03  0.10648199729E+03 -0.13101739394E+03  0.19961625941E+03  0.12699999809E+01 0. -1.
       -4    1    3    3    0  502 -0.10649443581E+03 -0.10648199729E+03  0.14420571936E+04  0.14499000114E+04  0.12699999809E+01 0.  1.
</event>
<event>
 5   0  0.1245850E-02  0.1005647E+04  0.7818609E-02  0.9302373E-01
        2   -1    0    0  501    0  0.00000000000E+00  0.00000000000E+00  0.64276170999E+03  0.64276171000E+03  0.25500000920E-02 0. -1.
       -2   -1    0    0    0  501  0.00000000000E+00  0.00000000000E+00 -0.39335195554E+03  0.39335195555E+03  0.25500000920E-02 0.  1.
    10030    2    1    2    0    0  0.00000000000E+00  0.00000000000E+00  0.24940975445E+03  0.10361136656E+04  0.10056472057E+04 0.  0.
        3    1    3    3  502    0  0.11514562770E+03 -0.28459228255E+03  0.53499054296E+03  0.61681940154E+03  0.10100000352E+00 0. -1.
       -3    1    3    3    0  502 -0.11514562770E+03  0.28459228255E+03 -0.28558078851E+03  0.41929426401E+03  0.10100000352E+00 0.  1.
</event>
<event>
 5   0  0.7241200E-03  0.1039561E+04  0.7818609E-02  0.9266188E-01
        1   -1    0    0  501    0  0.00000000000E+00  0.00000000000E+00  0.11320915853E+04  0.11320915853E+04  0.50400001928E-02 0. -1.
       -1   -1    0    0    0  501  0.00000000000E+00  0.00000000000E+00 -0.23864841030E+03  0.23864841036E+03  0.50400001928E-02 0.  1.
    10030    2    1    2    0    0  0.00000000000E+00  0.00000000000E+00  0.89344317500E+03  0.13707399957E+04  0.10395611713E+04 0.  0.
        4    1    3    3  502    0 -0.80559030657E+02  0.47450570901E+03  0.18791499275E+03  0.51668083253E+03  0.12699999809E+01 0.  1.
       -4    1    3    3    0  502  0.80559030657E+02 -0.47450570901E+03  0.70552818225E+03  0.85405916315E+03  0.12699999809E+01 0. -1.
</event>
<event>
 5   0  0.6967681E-03  0.9858922E+03  0.7818609E-02  0.9324155E-01
       -1   -1    0    0    0  501  0.00000000000E+00  0.00000000000E+00  0.20164524667E+03  0.20164524673E+03  0.50400001928E-02 0.  1.
        1   -1    0    0  501    0  0.00000000000E+00  0.00000000000E+00 -0.12050661098E+04  0.12050661098E+04  0.50400001928E-02 0. -1.
    10030    2    1    2    0    0  0.00000000000E+00  0.00000000000E+00 -0.10034208631E+04  0.14067113565E+04  0.98589219087E+03 0.  0.
        5    1    3    3  502    0 -0.13310317351E+03  0.46835016533E+03 -0.39206226837E+03  0.62514257929E+03  0.46999998093E+01 0.  1.
       -5    1    3    3    0  502  0.13310317351E+03 -0.46835016533E+03 -0.61135859475E+03  0.78156877723E+03  0.46999998093E+01 0. -1.
</event>
<event>
 5   0  0.7241200E-03  0.9943263E+03  0.7818609E-02  0.9314790E-01
       -1   -1    0    0    0  501  0.00000000000E+00  0.00000000000E+00  0.24605039607E+03  0.24605039612E+03  0.50400001928E-02 0. -1.
        1   -1    0    0  501    0  0.00000000000E+00  0.00000000000E+00 -0.10045550862E+04  0.10045550863E+04  0.50400001928E-02 0.  1.
    10030    2    1    2    0    0  0.00000000000E+00  0.00000000000E+00 -0.75850469018E+03  0.12506054824E+04  0.99432625809E+03 0.  0.
        4    1    3    3  502    0 -0.42738769802E+03 -0.19407386108E+03 -0.17317970198E+03  0.50031762917E+03  0.12699999809E+01 0. -1.
       -4    1    3    3    0  502  0.42738769802E+03  0.19407386108E+03 -0.58532498820E+03  0.75028785321E+03  0.12699999809E+01 0.  1.
</event>
<event>
 5   0  0.7224879E-03  0.1104401E+04  0.7818609E-02  0.9200913E-01
       -1   -1    0    0    0  501  0.00000000000E+00  0.00000000000E+00  0.62789101958E+03  0.62789101960E+03  0.50400001928E-02 0.  1.
        1   -1    0    0  501    0  0.00000000000E+00  0.00000000000E+00 -0.48563415865E+03  0.48563415868E+03  0.50400001928E-02 0. -1.
    10030    2    1    2    0    0  0.00000000000E+00  0.00000000000E+00  0.14225686093E+03  0.11135251783E+04  0.11044008820E+04 0.  0.
        3    1    3    3  502    0  0.16320135643E+03 -0.49988966899E+03  0.24104657333E+03  0.57847024523E+03  0.10100000352E+00 0.  1.
       -3    1    3    3    0  502 -0.16320135643E+03  0.49988966899E+03 -0.98789712400E+02  0.53505493305E+03  0.10100000352E+00 0. -1.
</event>
<event>
 5   0  0.1216322E-02  0.9821863E+03  0.7818609E-02  0.9328301E-01
       -2   -1    0    0    0  501  0.00000000000E+00  0.00000000000E+00  0.28909951461E+03  0.28909951462E+03  0.25500000920E-02 0.  1.
        2   -1    0    0  501    0  0.00000000000E+00  0.00000000000E+00 -0.83421959934E+03  0.83421959935E+03  0.25500000920E-02 0. -1.
    10030    2    1    2    0    0  0.00000000000E+00  0.00000000000E+00 -0.54512008474E+03  0.11233191140E+04  0.98218629853E+03 0.  0.
        2    1    3    3  502    0  0.33678634529E+03  0.29844528762E+03 -0.47633640965E+02  0.45250811687E+03  0.25500000920E-02 0.  1.
       -2    1    3    3    0  502 -0.33678634529E+03 -0.29844528762E+03 -0.49748644377E+03  0.67081099709E+03  0.25500000920E-02 0. -1.
</event>
<event>
 5   0  0.1191822E-02  0.9738385E+03  0.7818609E-02  0.9337713E-01
        2   -1    0    0  501    0  0.00000000000E+00  0.00000000000E+00  0.82472606653E+03  0.82472606654E+03  0.25500000920E-02 0.  1.
       -2   -1    0    0    0  501  0.00000000000E+00  0.00000000000E+00 -0.28747772530E+03  0.28747772531E+03  0.25500000920E-02 0. -1.
    10030    2    1    2    0    0  0.00000000000E+00  0.00000000000E+00  0.53724834124E+03  0.11122037918E+04  0.97383853612E+03 0.  0.
        4    1    3    3  502    0  0.37157804031E+03  0.64684327200E-01  0.62800559271E+03  0.72970054242E+03  0.12699999809E+01 0.  1.
       -4    1    3    3    0  502 -0.37157804031E+03 -0.64684327200E-01 -0.90757251477E+02  0.38250324943E+03  0.12699999809E+01 0. -1.
</event>
<event>
 5   0  0.1221315E-02  0.1059262E+04  0.7818609E-02  0.9245833E-01
       -2   -1    0    0    0  501  0.00000000000E+00  0.00000000000E+00  0.36191391433E+03  0.36191391434E+03  0.25500000920E-02 0. -1.
        2   -1    0    0  501    0  0.00000000000E+00  0.00000000000E+00 -0.77507118404E+03  0.77507118404E+03  0.25500000920E-02 0.  1.
    10030    2    1    2    0    0  0.00000000000E+00  0.00000000000E+00 -0.41315726971E+03  0.11369850984E+04  0.10592620943E+04 0.  0.
        5    1    3    3  502    0 -0.50832901116E+02 -0.20658786108E+03  0.31400744590E+03  0.37932215103E+03  0.46999998093E+01 0. -1.
       -5    1    3    3    0  502  0.50832901116E+02  0.20658786108E+03 -0.72716471560E+03  0.75766294736E+03  0.46999998093E+01 0.  1.
</event>
<event>
 5   0  0.1221315E-02  0.9787035E+03  0.7818609E-02  0.9332216E-01
       -2   -1    0    0    0  501  0.00000000000E+00  0.00000000000E+00  0.94036880736E+02  0.94036880771E+02  0.25500000920E-02 0. -1.
        2   -1    0    0  501    0  0.00000000000E+00  0.00000000000E+00 -0.25465023292E+04  0.25465023292E+04  0.25500000920E-02 0.  1.
    10030    2    1    2    0    0  0.00000000000E+00  0.00000000000E+00 -0.24524654485E+04  0.26405392100E+04  0.97870350133E+03 0.  0.
        5    1    3    3  502    0 -0.25569849620E+02  0.16498900866E+03  0.14751672378E+02  0.16767495944E+03  0.46999998093E+01 0. -1.
       -5    1    3    3    0  502  0.25569849620E+02 -0.16498900866E+03 -0.24672171209E+04  0.24728642506E+04  0.46999998093E+01 0.  1.
</event>
<event>
 5   0  0.7241200E-03  0.9765352E+03  0.7818609E-02  0.9334662E-01
        1   -1    0    0  501    0  0.00000000000E+00  0.00000000000E+00  0.14837321375E+04  0.14837321375E+04  0.50400001928E-02 0. -1.
       -1   -1    0    0    0  501  0.00000000000E+00  0.00000000000E+00 -0.16067943192E+03  0.16067943200E+03  0.50400001928E-02 0.  1.
    10030    2    1    2    0    0  0.00000000000E+00  0.00000000000E+00  0.13230527056E+04  0.16444115695E+04  0.97653517509E+03 0.  0.
        4    1    3    3  502    0  0.31076313528E+03  0.17343757388E+03  0.12244442406E+04  0.12751155357E+04  0.12699999809E+01 0. -1.
       -4    1    3    3    0  502 -0.31076313528E+03 -0.17343757388E+03  0.98608464987E+02  0.36929603376E+03  0.12699999809E+01 0.  1.
</event>
<event>
 5   0  0.7073004E-03  0.9087909E+03  0.7818609E-02  0.9414659E-01
       -1   -1    0    0    0  501  0.00000000000E+00  0.00000000000E+00  0.53337986593E+03  0.53337986595E+03  0.50400001928E-02 0. -1.
        1   -1    0    0  501    0  0.00000000000E+00  0.00000000000E+00 -0.38710726015E+03  0.38710726018E+03  0.50400001928E-02 0.  1.
    10030    2    1    2    0    0  0.00000000000E+00  0.00000000000E+00  0.14627260578E+03  0.92048712613E+03  0.90879088583E+03 0.  0.
        1    1    3    3  502    0  0.41776994049E+03 -0.88521588001E+02 -0.84127639012E+02  0.43525309234E+03  0.50400001928E-02 0.  1.
       -1    1    3    3    0  502 -0.41776994049E+03  0.88521588001E+02  0.23040024479E+03  0.48523403379E+03  0.50400001928E-02 0. -1.
</event>
<event>
 5   0  0.1245850E-02  0.9949082E+03  0.7818609E-02  0.9314147E-01
        2   -1    0    0  501    0  0.00000000000E+00  0.00000000000E+00  0.28001936362E+03  0.28001936363E+03  0.25500000920E-02 0.  1.
       -2   -1    0    0    0  501  0.00000000000E+00  0.00000000000E+00 -0.88372672490E+03  0.88372672490E+03  0.25500000920E-02 0. -1.
    10030    2    1    2    0    0  0.00000000000E+00  0.00000000000E+00 -0.60370736128E+03  0.11637460885E+04  0.99490822718E+03 0.  0.
        3    1    3    3  502    0 -0.32650818234E+03 -0.92376258399E+02  0.12363433523E+03  0.36114598890E+03  0.10100000352E+00 0.  1.
       -3    1    3    3    0  502  0.32650818234E+03  0.92376258399E+02 -0.72734169651E+03  0.80260009963E+03  0.10100000352E+00 0. -1.
</event>
<event>
 5   0  0.1240503E-02  0.1007325E+04  0.7818609E-02  0.9300547E-01
        2   -1    0    0  501    0  0.00000000000E+00  0.00000000000E+00  0.74729559522E+03  0.74729559523E+03  0.25500000920E-02 0.  1.
       -2   -1    0    0    0  501  0.00000000000E+00  0.00000000000E+00 -0.33945877674E+03  0.33945877675E+03  0.25500000920E-02 0. -1.
    10030    2    1    2    0    0  0.00000000000E+00  0.00000000000E+00  0.40783681848E+03  0.10867543720E+04  0.10073252675E+04 0.  0.
        1    1    3    3  502    0 -0.10533359939E+03  0.46262464130E+03  0.21597860153E+02  0.47495599110E+03  0.50400001928E-02 0. -1.
       -1    1    3    3    0  502  0.10533359939E+03 -0.46262464130E+03  0.38623895833E+03  0.61179838088E+03  0.50400001928E-02 0.  1.
</event>
<event>
 5   0  0.4782125E-03  0.9302132E+03  0.7818609E-02  0.9388582E-01
        3   -1    0    0  501    0  0.00000000000E+00  0.00000000000E+00  0.28019842356E+03  0.28019844176E+03  0.10100000352E+00 0. -1.
       -3   -1    0    0    0  501  0.00000000000E+00  0.00000000000E+00 -0.77203905123E+03  0.77203905784E+03  0.10100000352E+00 0.  1.
    10030    2    1    2    0    0  0.00000000000E+00  0.00000000000E+00 -0.49184062767E+03  0.10522374996E+04  0.93021317586E+03 0.  0.
        4    1    3    3  502    0 -0.22346408072E+03 -0.96222924875E+01 -0.70720521619E+03  0.74173419403E+03  0.12699999809E+01 0.  1.
       -4    1    3    3    0  502  0.22346408072E+03  0.96222924875E+01  0.21536458852E+03  0.31050330557E+03  0.12699999809E+01 0. -1.
</event>
<event>
 5   0  0.1221315E-02  0.1019703E+04  0.7818609E-02  0.9287195E-01
        2   -1    0    0  501    0  0.00000000000E+00  0.00000000000E+00  0.14186051115E+04  0.14186051115E+04  0.25500000920E-02 0.  1.
       -2   -1    0    0    0  501  0.00000000000E+00  0.00000000000E+00 -0.18324247611E+03  0.18324247613E+03  0.25500000920E-02 0. -1.
    10030    2    1    2    0    0  0.00000000000E+00  0.00000000000E+00  0.12353626354E+04  0.16018475876E+04  0.10197033162E+04 0.  0.
        5    1    3    3  502    0  0.23978639106E+03 -0.39217767137E+03  0.96408353890E+03  0.10680730309E+04  0.46999998093E+01 0.  1.
       -5    1    3    3    0  502 -0.23978639106E+03  0.39217767137E+03  0.27127909647E+03  0.53377455675E+03  0.46999998093E+01 0. -1.
</event>
<event>
 5   0  0.7224879E-03  0.9775790E+03  0.7818609E-02  0.9333483E-01
        1   -1    0    0  501    0  0.00000000000E+00  0.00000000000E+00  0.11233071670E+04  0.11233071670E+04  0.50400001928E-02 0. -1.
       -1   -1    0    0    0  501  0.00000000000E+00  0.00000000000E+00 -0.21268906652E+03  0.21268906658E+03  0.50400001928E-02 0.  1.
    10030    2    1    2    0    0  0.00000000000E+00  0.00000000000E+00  0.91061810048E+03  0.13359962336E+04  0.97757895398E+03 0.  0.
        3    1    3    3  502    0 -0.31851061239E+03 -0.12098225690E+03 -0.23656857185E+02  0.34153385452E+03  0.10100000352E+00 0.  1.
       -3    1    3    3    0  502  0.31851061239E+03  0.12098225690E+03  0.93427495767E+03  0.99446237908E+03  0.10100000352E+00 0. -1.
</event>
<event>
 5   0  0.4782125E-03  0.1003375E+04  0.7818609E-02  0.9304851E-01
        3   -1    0    0  501    0  0.00000000000E+00  0.00000000000E+00  0.10208083124E+04  0.10208083174E+04  0.10100000352E+00 0. -1.
       -3   -1    0    0    0  501  0.00000000000E+00  0.00000000000E+00 -0.24655972970E+03  0.24655975039E+03  0.10100000352E+00 0.  1.
    10030    2    1    2    0    0  0.00000000000E+00  0.00000000000E+00  0.77424858268E+03  0.12673680678E+04  0.10033747811E+04 0.  0.
        1    1    3    3  502    0 -0.10691794962E+03  0.34966755527E+02 -0.23042459231E+03  0.25641687680E+03  0.50400001928E-02 0.  1.
       -1    1    3    3    0  502  0.10691794962E+03 -0.34966755527E+02  0.10046731750E+04  0.10109511910E+04  0.50400001928E-02 0. -1.
</event>
<event>
 5   0  0.1216322E-02  0.1012181E+04  0.7818609E-02  0.9295285E-01
       -2   -1    0    0    0  501  0.00000000000E+00  0.00000000000E+00  0.28120814381E+03  0.28120814382E+03  0.25500000920E-02 0.  1.
        2   -1    0    0  501    0  0.00000000000E+00  0.00000000000E+00 -0.91081117948E+03  0.91081117949E+03  0.25500000920E-02 0. -1.
    10030    2    1    2    0    0  0.00000000000E+00  0.00000000000E+00 -0.62960303567E+03  0.11920193233E+04  0.10121808557E+04 0.  0.
        2    1    3    3  502    0 -0.43479351161E+03 -0.10638905104E+03 -0.36702046900E+02  0.44912255362E+03  0.25500000920E-02 0. -1.
       -2    1    3    3    0  502  0.43479351161E+03  0.10638905104E+03 -0.59290098877E+03  0.74289676969E+03  0.25500000920E-02 0.  1.
</event>
<event>
 5   0  0.7073004E-03  0.1021303E+04  0.7818609E-02  0.9285483E-01
       -1   -1    0    0    0  501  0.00000000000E+00  0.00000000000E+00  0.46730502851E+03  0.46730502853E+03  0.50400001928E-02 0. -1.
        1   -1    0    0  501    0  0.00000000000E+00  0.00000000000E+00 -0.55801923005E+03  0.55801923007E+03  0.50400001928E-02 0.  1.
    10030    2    1    2    0    0  0.00000000000E+00  0.00000000000E+00 -0.90714201541E+02  0.10253242586E+04  0.10213034656E+04 0.  0.
        1    1    3    3  502    0  0.45518056888E+03 -0.13163544982E+03  0.14578139053E+03  0.49575140523E+03  0.50400001928E-02 0. -1.
       -1    1    3    3    0  502 -0.45518056888E+03  0.13163544982E+03 -0.23649559207E+03  0.52957285338E+03  0.50400001928E-02 0.  1.
</event>
<event>
 5   0  0.1245850E-02  0.1002671E+04  0.7818609E-02  0.9305621E-01
        2   -1    0    0  501    0  0.00000000000E+00  0.00000000000E+00  0.22855420478E+03  0.22855420480E+03  0.25500000920E-02 0. -1.
       -2   -1    0    0    0  501  0.00000000000E+00  0.00000000000E+00 -0.10996827178E+04  0.10996827179E+04  0.25500000920E-02 0.  1.
    10030    2    1    2    0    0  0.00000000000E+00  0.00000000000E+00 -0.87112851306E+03  0.13282369227E+04  0.10026706520E+04 0.  0.
        3    1    3    3  502    0  0.39219814472E+03 -0.40917287135E+02 -0.84567255249E+03  0.93308932335E+03  0.10100000352E+00 0.  1.
       -3    1    3    3    0  502 -0.39219814472E+03  0.40917287135E+02 -0.25455960569E+02  0.39514759930E+03  0.10100000352E+00 0. -1.
</event>
<event>
 5   0  0.1216322E-02  0.9945754E+03  0.7818609E-02  0.9314514E-01
       -2   -1    0    0    0  501  0.00000000000E+00  0.00000000000E+00  0.26637656806E+03  0.26637656807E+03  0.25500000920E-02 0.  1.
        2   -1    0    0  501    0  0.00000000000E+00  0.00000000000E+00 -0.92836641103E+03  0.92836641104E+03  0.25500000920E-02 0. -1.
    10030    2    1    2    0    0  0.00000000000E+00  0.00000000000E+00 -0.66198984298E+03  0.11947429791E+04  0.99457540384E+03 0.  0.
        2    1    3    3  502    0  0.32281374523E+03 -0.21692065680E+03 -0.70325309822E+03  0.80363437310E+03  0.25500000920E-02 0.  1.
       -2    1    3    3    0  502 -0.32281374523E+03  0.21692065680E+03  0.41263255248E+02  0.39110860601E+03  0.25500000920E-02 0. -1.
</event>
<event>
 5   0  0.7073004E-03  0.9689555E+03  0.7818609E-02  0.9343265E-01
       -1   -1    0    0    0  501  0.00000000000E+00  0.00000000000E+00  0.21232329959E+03  0.21232329964E+03  0.50400001928E-02 0. -1.
        1   -1    0    0  501    0  0.00000000000E+00  0.00000000000E+00 -0.11054778643E+04  0.11054778643E+04  0.50400001928E-02 0.  1.
    10030    2    1    2    0    0  0.00000000000E+00  0.00000000000E+00 -0.89315456468E+03  0.13178011639E+04  0.96895553625E+03 0.  0.
        1    1    3    3  502    0 -0.44668722452E+03 -0.16676460963E+03 -0.56340309108E+03  0.73808058817E+03  0.50400001928E-02 0. -1.
       -1    1    3    3    0  502  0.44668722452E+03  0.16676460963E+03 -0.32975147360E+03  0.57972057575E+03  0.50400001928E-02 0.  1.
</event>
<event>
 5   0  0.1221315E-02  0.9739284E+03  0.7818609E-02  0.9337611E-01
       -2   -1    0    0    0  501  0.00000000000E+00  0.00000000000E+00  0.16576034458E+03  0.16576034460E+03  0.25500000920E-02 0. -1.
        2   -1    0    0  501    0  0.00000000000E+00  0.00000000000E+00 -0.14305840806E+04  0.14305840806E+04  0.25500000920E-02 0.  1.
    10030    2    1    2    0    0  0.00000000000E+00  0.00000000000E+00 -0.12648237361E+04  0.15963444252E+04  0.97392835502E+03 0.  0.
        5    1    3    3  502    0 -0.63405288661E+02  0.86234423703E+02 -0.14110263343E+04  0.14150879876E+04  0.46999998093E+01 0.  1.
       -5    1    3    3    0  502  0.63405288661E+02 -0.86234423703E+02  0.14620259826E+03  0.18125643767E+03  0.46999998093E+01 0. -1.
</event>
<event>
 5   0  0.1216322E-02  0.9701495E+03  0.7818609E-02  0.9341904E-01
       -2   -1    0    0    0  501  0.00000000000E+00  0.00000000000E+00  0.14221343555E+03  0.14221343557E+03  0.25500000920E-02 0.  1.
        2   -1    0    0  501    0  0.00000000000E+00  0.00000000000E+00 -0.16545377643E+04  0.16545377643E+04  0.25500000920E-02 0. -1.
    10030    2    1    2    0    0  0.00000000000E+00  0.00000000000E+00 -0.15123243287E+04  0.17967511998E+04  0.97014947244E+03 0.  0.
        2    1    3    3  502    0  0.16302612211E+03  0.40684099474E+03 -0.11411022304E+04  0.12223794058E+04  0.25500000920E-02 0. -1.
       -2    1    3    3    0  502 -0.16302612211E+03 -0.40684099474E+03 -0.37122209829E+03  0.57437179401E+03  0.25500000920E-02 0.  1.
</event>
<event>
 5   0  0.1221315E-02  0.9894049E+03  0.7818609E-02  0.9320242E-01
        2   -1    0    0  501    0  0.00000000000E+00  0.00000000000E+00  0.17663750201E+04  0.17663750201E+04  0.25500000920E-02 0.  1.
       -2   -1    0    0    0  501  0.00000000000E+00  0.00000000000E+00 -0.13854958528E+03  0.13854958530E+03  0.25500000920E-02 0. -1.
    10030    2    1    2    0    0  0.00000000000E+00  0.00000000000E+00  0.16278254348E+04  0.19049246054E+04  0.98940492520E+03 0.  0.
        5    1    3    3  502    0 -0.56177969514E+00  0.25775501852E+03  0.10009132033E+01  0.25780042086E+03  0.46999998093E+01 0. -1.
       -5    1    3    3    0  502  0.56177969514E+00 -0.25775501852E+03  0.16268245216E+04  0.16471241845E+04  0.46999998093E+01 0.  1.
</event>
<event>
 5   0  0.7073004E-03  0.1002845E+04  0.7818609E-02  0.9305430E-01
        1   -1    0    0  501    0  0.00000000000E+00  0.00000000000E+00  0.11098697774E+04  0.11098697774E+04  0.50400001928E-02 0. -1.
       -1   -1    0    0    0  501  0.00000000000E+00  0.00000000000E+00 -0.22653520980E+03  0.22653520986E+03  0.50400001928E-02 0.  1.
    10030    2    1    2    0    0  0.00000000000E+00  0.00000000000E+00  0.88333456760E+03  0.13364049873E+04  0.10028451185E+04 0.  0.
        1    1    3    3  502    0  0.18139552339E+03 -0.46741877680E+03  0.43324604256E+03  0.66263623673E+03  0.50400001928E-02 0. -1.
       -1    1    3    3    0  502 -0.18139552339E+03  0.46741877680E+03  0.45008852504E+03  0.67376875054E+03  0.50400001928E-02 0.  1.
</event>
<event>
 5   0  0.1191822E-02  0.9497103E+03  0.7818609E-02  0.9365489E-01
       -2   -1    0    0    0  501  0.00000000000E+00  0.00000000000E+00  0.46795819943E+03  0.46795819944E+03  0.25500000920E-02 0.  1.
        2   -1    0    0  501    0  0.00000000000E+00  0.00000000000E+00 -0.48185370714E+03  0.48185370715E+03  0.25500000920E-02 0. -1.
    10030    2    1    2    0    0  0.00000000000E+00  0.00000000000E+00 -0.13895507716E+02  0.94981190659E+03  0.94971025727E+03 0.  0.
        4    1    3    3  502    0  0.12286349053E+03  0.11777188724E+03 -0.45030110691E+03  0.48139210060E+03  0.12699999809E+01 0. -1.
       -4    1    3    3    0  502 -0.12286349053E+03 -0.11777188724E+03  0.43640559920E+03  0.46841980599E+03  0.12699999809E+01 0.  1.
</event>
<event>
 5   0  0.1245850E-02  0.9692484E+03  0.7818609E-02  0.9342931E-01
        2   -1    0    0  501    0  0.00000000000E+00  0.00000000000E+00  0.29951081940E+03  0.29951081941E+03  0.25500000920E-02 0.  1.
       -2   -1    0    0    0  501  0.00000000000E+00  0.00000000000E+00 -0.78414732743E+03  0.78414732744E+03  0.25500000920E-02 0. -1.
    10030    2    1    2    0    0  0.00000000000E+00  0.00000000000E+00 -0.48463650803E+03  0.10836581469E+04  0.96924838629E+03 0.  0.
        3    1    3    3  502    0  0.50412019911E+02  0.26850822658E+03  0.20520854335E+03  0.34168493668E+03  0.10100000352E+00 0.  1.
       -3    1    3    3    0  502 -0.50412019911E+02 -0.26850822658E+03 -0.68984505138E+03  0.74197321017E+03  0.10100000352E+00 0. -1.
</event>
<event>
 5   0  0.1221315E-02  0.9926134E+03  0.7818609E-02  0.9316684E-01
        2   -1    0    0  501    0  0.00000000000E+00  0.00000000000E+00  0.52842732591E+03  0.52842732592E+03  0.25500000920E-02 0. -1.
       -2   -1    0    0    0  501  0.00000000000E+00  0.00000000000E+00 -0.46613855312E+03  0.46613855312E+03  0.25500000920E-02 0.  1.
    10030    2    1    2    0    0  0.00000000000E+00  0.00000000000E+00  0.62288772797E+02  0.99456587904E+03  0.99261341747E+03 0.  0.
        5    1    3    3  502    0  0.17401499070E+03  0.44960086273E+03  0.14917297794E+03  0.50467496480E+03  0.46999998093E+01 0.  1.
       -5    1    3    3    0  502 -0.17401499070E+03 -0.44960086273E+03 -0.86884205145E+02  0.48989091424E+03  0.46999998093E+01 0. -1.
</event>
<event>
 5   0  0.1245850E-02  0.1054620E+04  0.7818609E-02  0.9250587E-01
       -2   -1    0    0    0  501  0.00000000000E+00  0.00000000000E+00  0.26534523404E+03  0.26534523405E+03  0.25500000920E-02 0.  1.
        2   -1    0    0  501    0  0.00000000000E+00  0.00000000000E+00 -0.10479025444E+04  0.10479025444E+04  0.25500000920E-02 0. -1.
    10030    2    1    2    0    0  0.00000000000E+00  0.00000000000E+00 -0.78255731036E+03  0.13132477785E+04  0.10546202082E+04 0.  0.
        3    1    3    3  502    0  0.12428520553E+03  0.42974151388E+03 -0.43657099616E+02  0.44947806800E+03  0.10100000352E+00 0.  1.
       -3    1    3    3    0  502 -0.12428520553E+03 -0.42974151388E+03 -0.73890021075E+03  0.86376971046E+03  0.10100000352E+00 0. -1.
</event>
<event>
 5   0  0.7224879E-03  0.9664837E+03  0.7818609E-02  0.9346088E-01
       -1   -1    0    0    0  501  0.00000000000E+00  0.00000000000E+00  0.23032992115E+03  0.23032992121E+03  0.50400001928E-02 0.  1.
        1   -1    0    0  501    0  0.00000000000E+00  0.00000000000E+00 -0.10138616950E+04  0.10138616950E+04  0.50400001928E-02 0. -1.
    10030    2    1    2    0    0  0.00000000000E+00  0.00000000000E+00 -0.78353177383E+03  0.12441916162E+04  0.96648369735E+03 0.  0.
        3    1    3    3  502    0  0.34949578834E+03  0.27206524344E+03 -0.14295339927E+03  0.46540572335E+03  0.10100000352E+00 0.  1.
       -3    1    3    3    0  502 -0.34949578834E+03 -0.27206524344E+03 -0.64057837457E+03  0.77878589286E+03  0.10100000352E+00 0. -1.
</event>
<event>
 5   0  0.7224879E-03  0.8476400E+03  0.7818609E-02  0.9493510E-01
       -1   -1    0    0    0  501  0.00000000000E+00  0.00000000000E+00  0.35854449488E+03  0.35854449491E+03  0.50400001928E-02 0.  1.
        1   -1    0    0  501    0  0.00000000000E+00  0.00000000000E+00 -0.50097937253E+03  0.50097937256E+03  0.50400001928E-02 0. -1.
    10030    2    1    2    0    0  0.00000000000E+00  0.00000000000E+00 -0.14243487766E+03  0.85952386747E+03  0.84764000872E+03 0.  0.
        3    1    3    3  502    0  0.16098226288E+03 -0.31677609649E+03 -0.30545604763E+03  0.46857847956E+03  0.10100000352E+00 0. -1.
       -3    1    3    3    0  502 -0.16098226288E+03  0.31677609649E+03  0.16302116997E+03  0.39094538791E+03  0.10100000352E+00 0.  1.
</event>
<event>
 5   0  0.1191822E-02  0.1021601E+04  0.7818609E-02  0.9285165E-01
       -2   -1    0    0    0  501  0.00000000000E+00  0.00000000000E+00  0.21151173898E+03  0.21151173899E+03  0.25500000920E-02 0. -1.
        2   -1    0    0  501    0  0.00000000000E+00  0.00000000000E+00 -0.12335833807E+04  0.12335833807E+04  0.25500000920E-02 0.  1.
    10030    2    1    2    0    0  0.00000000000E+00  0.00000000000E+00 -0.10220716417E+04  0.14450951197E+04  0.10216014214E+04 0.  0.
        4    1    3    3  502    0  0.14169986904E+03  0.44548547628E+03 -0.21983451060E+03  0.51658976704E+03  0.12699999809E+01 0.  1.
       -4    1    3    3    0  502 -0.14169986904E+03 -0.44548547628E+03 -0.80223713111E+03  0.92850535264E+03  0.12699999809E+01 0. -1.
</event>
<event>
 5   0  0.6967681E-03  0.1007601E+04  0.7818609E-02  0.9300247E-01
        1   -1    0    0  501    0  0.00000000000E+00  0.00000000000E+00  0.84968544308E+03  0.84968544310E+03  0.50400001928E-02 0. -1.
       -1   -1    0    0    0  501  0.00000000000E+00  0.00000000000E+00 -0.29871661404E+03  0.29871661409E+03  0.50400001928E-02 0.  1.
    10030    2    1    2    0    0  0.00000000000E+00  0.00000000000E+00  0.55096882904E+03  0.11484020572E+04  0.10076014263E+04 0.  0.
        5    1    3    3  502    0  0.20445425888E+03  0.12109381765E+03  0.78177440150E+03  0.81710376421E+03  0.46999998093E+01 0. -1.
       -5    1    3    3    0  502 -0.20445425888E+03 -0.12109381765E+03 -0.23080557246E+03  0.33129829297E+03  0.46999998093E+01 0.  1.
</event>
<event>
 5   0  0.4782125E-03  0.1014243E+04  0.7818609E-02  0.9293060E-01
       -3   -1    0    0    0  501  0.00000000000E+00  0.00000000000E+00  0.24461552043E+03  0.24461554128E+03  0.10100000352E+00 0. -1.
        3   -1    0    0  501    0  0.00000000000E+00  0.00000000000E+00 -0.10513317597E+04  0.10513317646E+04  0.10100000352E+00 0.  1.
    10030    2    1    2    0    0  0.00000000000E+00  0.00000000000E+00 -0.80671623931E+03  0.12959473059E+04  0.10142427366E+04 0.  0.
        2    1    3    3  502    0  0.33814988668E+02  0.49185579444E+03 -0.55511736888E+03  0.74244250230E+03  0.25500000920E-02 0.  1.
       -2    1    3    3    0  502 -0.33814988668E+02 -0.49185579444E+03 -0.25159887043E+03  0.55350480358E+03  0.25500000920E-02 0. -1.
</event>
<event>
 5   0  0.7224879E-03  0.9629942E+03  0.7818609E-02  0.9350090E-01
       -1   -1    0    0    0  501  0.00000000000E+00  0.00000000000E+00  0.31929428961E+03  0.31929428965E+03  0.50400001928E-02 0. -1.
        1   -1    0    0  501    0  0.00000000000E+00  0.00000000000E+00 -0.72609967479E+03  0.72609967481E+03  0.50400001928E-02 0.  1.
    10030    2    1    2    0    0  0.00000000000E+00  0.00000000000E+00 -0.40680538518E+03  0.10453939645E+04  0.96299424687E+03 0.  0.
        3    1    3    3  502    0  0.28603049649E+03 -0.32391234252E+03  0.27153821371E+02  0.43297804883E+03  0.10100000352E+00 0. -1.
       -3    1    3    3    0  502 -0.28603049649E+03  0.32391234252E+03 -0.43395920655E+03  0.61241591562E+03  0.10100000352E+00 0.  1.
</event>
<event>
 5   0  0.6967681E-03  0.1015750E+04  0.7818609E-02  0.9291437E-01
       -1   -1    0    0    0  501  0.00000000000E+00  0.00000000000E+00  0.57708119371E+03  0.57708119373E+03  0.50400001928E-02 0. -1.
        1   -1    0    0  501    0  0.00000000000E+00  0.00000000000E+00 -0.44696829210E+03  0.44696829213E+03  0.50400001928E-02 0.  1.
    10030    2    1    2    0    0  0.00000000000E+00  0.00000000000E+00  0.13011290161E+03  0.10240494859E+04  0.10157499605E+04 0.  0.
        5    1    3    3  502    0  0.10399971255E+03 -0.40244974624E+03 -0.22910348691E+03  0.47464959303E+03  0.46999998093E+01 0.  1.
       -5    1    3    3    0  502 -0.10399971255E+03  0.40244974624E+03  0.35921638852E+03  0.54939989282E+03  0.46999998093E+01 0. -1.
</event>
<event>
 5   0  0.7224879E-03  0.9335929E+03  0.7818609E-02  0.9384536E-01
        1   -1    0    0  501    0  0.00000000000E+00  0.00000000000E+00  0.10879658865E+04  0.10879658865E+04  0.50400001928E-02 0.  1.
       -1   -1    0    0    0  501  0.00000000000E+00  0.00000000000E+00 -0.20028102888E+03  0.20028102894E+03  0.50400001928E-02 0. -1.
    10030    2    1    2    0    0  0.00000000000E+00  0.00000000000E+00  0.88768485761E+03  0.12882469154E+04  0.93359290310E+03 0.  0.
        3    1    3    3  502    0  0.22592122916E+01  0.59088844325E+02 -0.19509203039E+03  0.20385658215E+03  0.10100000352E+00 0. -1.
       -3    1    3    3    0  502 -0.22592122916E+01 -0.59088844325E+02  0.10827768880E+04  0.10843903333E+04  0.10100000352E+00 0.  1.
</event>
<event>
 5   0  0.1240503E-02  0.1004110E+04  0.7818609E-02  0.9304048E-01
        2   -1    0    0  501    0  0.00000000000E+00  0.00000000000E+00  0.10043803710E+04  0.10043803710E+04  0.25500000920E-02 0.  1.
       -2   -1    0    0    0  501  0.00000000000E+00  0.00000000000E+00 -0.25095998440E+03  0.25095998441E+03  0.25500000920E-02 0. -1.
    10030    2    1    2    0    0  0.00000000000E+00  0.00000000000E+00  0.75342038664E+03  0.12553403555E+04  0.10041101180E+04 0.  0.
        1    1    3    3  502    0 -0.43563968370E+03  0.19169945832E+03  0.17695678106E+03  0.50778373223E+03  0.50400001928E-02 0. -1.
       -1    1    3    3    0  502  0.43563968370E+03 -0.19169945832E+03  0.57646360558E+03  0.74755662322E+03  0.50400001928E-02 0.  1.
</event>
<event>
 5   0  0.7461157E-03  0.1010353E+04  0.7818609E-02  0.9297262E-01
        1   -1    0    0  501    0  0.00000000000E+00  0.00000000000E+00  0.75539534319E+03  0.75539534321E+03  0.50400001928E-02 0. -1.
       -1   -1    0    0    0  501  0.00000000000E+00  0.00000000000E+00 -0.33784091859E+03  0.33784091863E+03  0.50400001928E-02 0.  1.
    10030    2    1    2    0    0  0.00000000000E+00  0.00000000000E+00  0.41755442460E+03  0.10932362618E+04  0.10103533177E+04 0.  0.
        2    1    3    3  502    0 -0.61607983217E+02 -0.45076555876E+03  0.44637741810E+03  0.63736797217E+03  0.25500000920E-02 0. -1.
       -2    1    3    3    0  502  0.61607983217E+02  0.45076555876E+03 -0.28822993498E+02  0.45586828966E+03  0.25500000920E-02 0.  1.
</event>
<event>
 5   0  0.7224879E-03  0.9049909E+03  0.7818609E-02  0.9419364E-01
        1   -1    0    0  501    0  0.00000000000E+00  0.00000000000E+00  0.16123255953E+04  0.16123255953E+04  0.50400001928E-02 0.  1.
       -1   -1    0    0    0  501  0.00000000000E+00  0.00000000000E+00 -0.12699180112E+03  0.12699180122E+03  0.50400001928E-02 0. -1.
    10030    2    1    2    0    0  0.00000000000E+00  0.00000000000E+00  0.14853337942E+04  0.17393173965E+04  0.90499089815E+03 0.  0.
        3    1    3    3  502    0 -0.42620402965E+03  0.14837150166E+03  0.67926857241E+03  0.81551810591E+03  0.10100000352E+00 0.  1.
       -3    1    3    3    0  502  0.42620402965E+03 -0.14837150166E+03  0.80606522176E+03  0.92379929061E+03  0.10100000352E+00 0. -1.
</event>
<event>
 5   0  0.7461157E-03  0.1019986E+04  0.7818609E-02  0.9286892E-01
       -1   -1    0    0    0  501  0.00000000000E+00  0.00000000000E+00  0.75296794738E+03  0.75296794740E+03  0.50400001928E-02 0. -1.
        1   -1    0    0  501    0  0.00000000000E+00  0.00000000000E+00 -0.34542377290E+03  0.34542377294E+03  0.50400001928E-02 0.  1.
    10030    2    1    2    0    0  0.00000000000E+00  0.00000000000E+00  0.40754417448E+03  0.10983917203E+04  0.10199863318E+04 0.  0.
        2    1    3    3  502    0 -0.25671902843E+03  0.43804998949E+03  0.15212079022E+03  0.53003130820E+03  0.25500000920E-02 0. -1.
       -2    1    3    3    0  502  0.25671902843E+03 -0.43804998949E+03  0.25542338426E+03  0.56836041213E+03  0.25500000920E-02 0.  1.
</event>
<event>
 5   0  0.7224879E-03  0.1020328E+04  0.7818609E-02  0.9286526E-01
       -1   -1    0    0    0  501  0.00000000000E+00  0.00000000000E+00  0.43521375482E+03  0.43521375485E+03  0.50400001928E-02 0.  1.
        1   -1    0    0  501    0  0.00000000000E+00  0.00000000000E+00 -0.59802202618E+03  0.59802202620E+03  0.50400001928E-02 0. -1.
    10030    2    1    2    0    0  0.00000000000E+00  0.00000000000E+00 -0.16280827136E+03  0.10332357810E+04  0.10203282050E+04 0.  0.
        3    1    3    3  502    0 -0.12266091356E+03  0.22131819740E+03  0.36718966282E+03  0.44593239723E+03  0.10100000352E+00 0.  1.
       -3    1    3    3    0  502  0.12266091356E+03 -0.22131819740E+03 -0.52999793418E+03  0.58730338382E+03  0.10100000352E+00 0. -1.
</event>
<event>
 5   0  0.1221315E-02  0.9723462E+03  0.7818609E-02  0.9339406E-01
        2   -1    0    0  501    0  0.00000000000E+00  0.00000000000E+00  0.79107564030E+03  0.79107564031E+03  0.25500000920E-02 0.  1.
       -2   -1    0    0    0  501  0.00000000000E+00  0.00000000000E+00 -0.29878845627E+03  0.29878845628E+03  0.25500000920E-02 0. -1.
    10030    2    1    2    0    0  0.00000000000E+00  0.00000000000E+00  0.49228718403E+03  0.10898640966E+04  0.97234617162E+03 0.  0.
        5    1    3    3  502    0  0.37357783824E+02 -0.26903134772E+03 -0.20578510148E+03  0.34079769374E+03  0.46999998093E+01 0. -1.
       -5    1    3    3    0  502 -0.37357783824E+02  0.26903134772E+03  0.69807228551E+03  0.74906640284E+03  0.46999998093E+01 0.  1.
</event>
<event>
 5   0  0.1240503E-02  0.1013220E+04  0.7818609E-02  0.9294163E-01
       -2   -1    0    0    0  501  0.00000000000E+00  0.00000000000E+00  0.33033721760E+03  0.33033721761E+03  0.25500000920E-02 0. -1.
        2   -1    0    0  501    0  0.00000000000E+00  0.00000000000E+00 -0.77694474322E+03  0.77694474323E+03  0.25500000920E-02 0.  1.
    10030    2    1    2    0    0  0.00000000000E+00  0.00000000000E+00 -0.44660752562E+03  0.11072819608E+04  0.10132201433E+04 0.  0.
        1    1    3    3  502    0  0.50558673734E+02 -0.10543882639E+03  0.31538744467E+03  0.33636701069E+03  0.50400001928E-02 0. -1.
       -1    1    3    3    0  502 -0.50558673734E+02  0.10543882639E+03 -0.76199497029E+03  0.77091495015E+03  0.50400001928E-02 0.  1.
</event>
<event>
 5   0  0.7073004E-03  0.9966579E+03  0.7818609E-02  0.9312218E-01
        1   -1    0    0  501    0  0.00000000000E+00  0.00000000000E+00  0.76156301722E+03  0.76156301724E+03  0.50400001928E-02 0. -1.
       -1   -1    0    0    0  501  0.00000000000E+00  0.00000000000E+00 -0.32608163981E+03  0.32608163984E+03  0.50400001928E-02 0.  1.
    10030    2    1    2    0    0  0.00000000000E+00  0.00000000000E+00  0.43548137742E+03  0.10876446571E+04  0.99665785002E+03 0.  0.
        1    1    3    3  502    0  0.48264894315E+03 -0.11053970171E+03  0.27911253907E+03  0.56839496608E+03  0.50400001928E-02 0. -1.
       -1    1    3    3    0  502 -0.48264894315E+03  0.11053970171E+03  0.15636883835E+03  0.51924969100E+03  0.50400001928E-02 0.  1.
</event>
<event>
 5   0  0.1216322E-02  0.8581890E+03  0.7818609E-02  0.9479411E-01
       -2   -1    0    0    0  501  0.00000000000E+00  0.00000000000E+00  0.16335423528E+03  0.16335423530E+03  0.25500000920E-02 0. -1.
        2   -1    0    0  501    0  0.00000000000E+00  0.00000000000E+00 -0.11271337941E+04  0.11271337941E+04  0.25500000920E-02 0.  1.
    10030    2    1    2    0    0  0.00000000000E+00  0.00000000000E+00 -0.96377955878E+03  0.12904880294E+04  0.85818897453E+03 0.  0.
        2    1    3    3  502    0  0.31551942985E+03  0.11502984623E+03 -0.80255650475E+02  0.34529023383E+03  0.25500000920E-02 0. -1.
       -2    1    3    3    0  502 -0.31551942985E+03 -0.11502984623E+03 -0.88352390830E+03  0.94519779553E+03  0.25500000920E-02 0.  1.
</event>
<event>
 5   0  0.1221315E-02  0.9932168E+03  0.7818609E-02  0.9316016E-01
       -2   -1    0    0    0  501  0.00000000000E+00  0.00000000000E+00  0.62555776935E+03  0.62555776936E+03  0.25500000920E-02 0. -1.
        2   -1    0    0  501    0  0.00000000000E+00  0.00000000000E+00 -0.39423998292E+03  0.39423998292E+03  0.25500000920E-02 0.  1.
    10030    2    1    2    0    0  0.00000000000E+00  0.00000000000E+00  0.23131778644E+03  0.10197977523E+04  0.99321676246E+03 0.  0.
        5    1    3    3  502    0  0.22974572961E+03  0.73896974796E+02 -0.32995359598E+03  0.40882187889E+03  0.46999998093E+01 0.  1.
       -5    1    3    3    0  502 -0.22974572961E+03 -0.73896974796E+02  0.56127138241E+03  0.61097587340E+03  0.46999998093E+01 0. -1.
</event>
<event>
 5   0  0.7461157E-03  0.8571541E+03  0.7818609E-02  0.9480785E-01
       -1   -1    0    0    0  501  0.00000000000E+00  0.00000000000E+00  0.94070674693E+02  0.94070674828E+02  0.50400001928E-02 0.  1.
        1   -1    0    0  501    0  0.00000000000E+00  0.00000000000E+00 -0.19525562147E+04  0.19525562147E+04  0.50400001928E-02 0. -1.
    10030    2    1    2    0    0  0.00000000000E+00  0.00000000000E+00 -0.18584855400E+04  0.20466268896E+04  0.85715408332E+03 0.  0.
        2    1    3    3  502    0  0.41798852558E+03  0.26380785944E+02 -0.71213363324E+03  0.82616261413E+03  0.25500000920E-02 0.  1.
       -2    1    3    3    0  502 -0.41798852558E+03 -0.26380785944E+02 -0.11463519068E+04  0.12204642754E+04  0.25500000920E-02 0. -1.
</event>
<event>
 5   0  0.1216322E-02  0.1023925E+04  0.7818609E-02  0.9282686E-01
       -2   -1    0    0    0  501  0.00000000000E+00  0.00000000000E+00  0.24247210275E+03  0.24247210276E+03  0.25500000920E-02 0.  1.
        2   -1    0    0  501    0  0.00000000000E+00  0.00000000000E+00 -0.10809728483E+04  0.10809728483E+04  0.25500000920E-02 0. -1.
    10030    2    1    2    0    0  0.00000000000E+00  0.00000000000E+00 -0.83850074553E+03  0.13234449510E+04  0.10239253089E+04 0.  0.
        2    1    3    3  502    0  0.59369561095E+02  0.50068189258E+03 -0.30437835845E+03  0.58894251624E+03  0.25500000920E-02 0.  1.
       -2    1    3    3    0  502 -0.59369561095E+02 -0.50068189258E+03 -0.53412238708E+03  0.73450243480E+03  0.25500000920E-02 0. -1.
</event>
<event>
 5   0  0.1245850E-02  0.9831773E+03  0.7818609E-02  0.9327191E-01
       -2   -1    0    0    0  501  0.00000000000E+00  0.00000000000E+00  0.21780909697E+03  0.21780909699E+03  0.25500000920E-02 0.  1.
        2   -1    0    0  501    0  0.00000000000E+00  0.00000000000E+00 -0.11095009397E+04  0.11095009397E+04  0.25500000920E-02 0. -1.
    10030    2    1    2    0    0  0.00000000000E+00  0.00000000000E+00 -0.89169184275E+03  0.13273100367E+04  0.98317729384E+03 0.  0.
        3    1    3    3  502    0 -0.21615819032E+03  0.22909930780E+03 -0.95537564818E+03  0.10059589929E+04  0.10100000352E+00 0. -1.
       -3    1    3    3    0  502  0.21615819032E+03 -0.22909930780E+03  0.63683805427E+02  0.32135104380E+03  0.10100000352E+00 0.  1.
</event>
<event>
 5   0  0.6967681E-03  0.9437964E+03  0.7818609E-02  0.9372431E-01
       -1   -1    0    0    0  501  0.00000000000E+00  0.00000000000E+00  0.48048226019E+03  0.48048226021E+03  0.50400001928E-02 0. -1.
        1   -1    0    0  501    0  0.00000000000E+00  0.00000000000E+00 -0.46346746532E+03  0.46346746535E+03  0.50400001928E-02 0.  1.
    10030    2    1    2    0    0  0.00000000000E+00  0.00000000000E+00  0.17014794869E+02  0.94394972556E+03  0.94379636635E+03 0.  0.
        5    1    3    3  502    0 -0.37980890063E+03 -0.67814675963E+02  0.28023550366E+03  0.47687279099E+03  0.46999998093E+01 0. -1.
       -5    1    3    3    0  502  0.37980890063E+03  0.67814675963E+02 -0.26322070879E+03  0.46707693457E+03  0.46999998093E+01 0.  1.
</event>
<event>
 5   0  0.6967681E-03  0.1006013E+04  0.7818609E-02  0.9301975E-01
       -1   -1    0    0    0  501  0.00000000000E+00  0.00000000000E+00  0.28955420370E+03  0.28955420374E+03  0.50400001928E-02 0.  1.
        1   -1    0    0  501    0  0.00000000000E+00  0.00000000000E+00 -0.87380992915E+03  0.87380992916E+03  0.50400001928E-02 0. -1.
    10030    2    1    2    0    0  0.00000000000E+00  0.00000000000E+00 -0.58425572545E+03  0.11633641329E+04  0.10060126008E+04 0.  0.
        5    1    3    3  502    0 -0.24362268990E+03 -0.43815685996E+03 -0.33924078430E+03  0.60534275307E+03  0.46999998093E+01 0. -1.
       -5    1    3    3    0  502  0.24362268990E+03  0.43815685996E+03 -0.24501494115E+03  0.55802137983E+03  0.46999998093E+01 0.  1.
</event>
<event>
 5   0  0.1240503E-02  0.1007631E+04  0.7818609E-02  0.9300214E-01
        2   -1    0    0  501    0  0.00000000000E+00  0.00000000000E+00  0.13369968925E+04  0.13369968925E+04  0.25500000920E-02 0. -1.
       -2   -1    0    0    0  501  0.00000000000E+00  0.00000000000E+00 -0.18985107417E+03  0.18985107419E+03  0.25500000920E-02 0.  1.
    10030    2    1    2    0    0  0.00000000000E+00  0.00000000000E+00  0.11471458183E+04  0.15268479667E+04  0.10076314728E+04 0.  0.
        1    1    3    3  502    0  0.48809671627E+01  0.49286909358E+03  0.41547039108E+03  0.64463897891E+03  0.50400001928E-02 0. -1.
       -1    1    3    3    0  502 -0.48809671627E+01 -0.49286909358E+03  0.73167542723E+03  0.88220898776E+03  0.50400001928E-02 0.  1.
</event>
<event>
 5   0  0.7241200E-03  0.9941471E+03  0.7818609E-02  0.9314988E-01
        1   -1    0    0  501    0  0.00000000000E+00  0.00000000000E+00  0.97840054981E+03  0.97840054982E+03  0.50400001928E-02 0.  1.
       -1   -1    0    0    0  501  0.00000000000E+00  0.00000000000E+00 -0.25253677703E+03  0.25253677708E+03  0.50400001928E-02 0. -1.
    10030    2    1    2    0    0  0.00000000000E+00  0.00000000000E+00  0.72586377278E+03  0.12309373269E+04  0.99414711493E+03 0.  0.
        4    1    3    3  502    0  0.24771833293E+03 -0.42895753131E+02 -0.16801113345E+03  0.30238017788E+03  0.12699999809E+01 0. -1.
       -4    1    3    3    0  502 -0.24771833293E+03  0.42895753131E+02  0.89387490624E+03  0.92855714902E+03  0.12699999809E+01 0.  1.
</event>
<event>
 5   0  0.7461157E-03  0.9993983E+03  0.7818609E-02  0.9309205E-01
       -1   -1    0    0    0  501  0.00000000000E+00  0.00000000000E+00  0.79230496041E+03  0.79230496043E+03  0.50400001928E-02 0. -1.
        1   -1    0    0  501    0  0.00000000000E+00  0.00000000000E+00 -0.31515545356E+03  0.31515545360E+03  0.50400001928E-02 0.  1.
    10030    2    1    2    0    0  0.00000000000E+00  0.00000000000E+00  0.47714950686E+03  0.11074604140E+04  0.99939827733E+03 0.  0.
        2    1    3    3  502    0 -0.40658386267E+03 -0.19343848120E+03  0.47873520614E+03  0.65720337872E+03  0.25500000920E-02 0. -1.
       -2    1    3    3    0  502  0.40658386267E+03  0.19343848120E+03 -0.15856992863E+01  0.45025703530E+03  0.25500000920E-02 0.  1.
</event>
<event>
 5   0  0.1191822E-02  0.9733927E+03  0.7818609E-02  0.9338218E-01
        2   -1    0    0  501    0  0.00000000000E+00  0.00000000000E+00  0.51290181118E+03  0.51290181119E+03  0.25500000920E-02 0.  1.
       -2   -1    0    0    0  501  0.00000000000E+00  0.00000000000E+00 -0.46182980992E+03  0.46182980993E+03  0.25500000920E-02 0. -1.
    10030    2    1    2    0    0  0.00000000000E+00  0.00000000000E+00  0.51072001264E+02  0.97473162111E+03  0.97339271822E+03 0.  0.
        4    1    3    3  502    0  0.21791211958E+03 -0.84662405586E+02  0.45299353782E+03  0.50976285956E+03  0.12699999809E+01 0.  1.
       -4    1    3    3    0  502 -0.21791211958E+03  0.84662405586E+02 -0.40192153655E+03  0.46496876156E+03  0.12699999809E+01 0. -1.
</event>
<event>
 5   0  0.1216322E-02  0.9781723E+03  0.7818609E-02  0.9332814E-01
       -2   -1    0    0    0  501  0.00000000000E+00  0.00000000000E+00  0.29994323554E+03  0.29994323555E+03  0.25500000920E-02 0.  1.
        2   -1    0    0  501    0  0.00000000000E+00  0.00000000000E+00 -0.79750173756E+03  0.79750173757E+03  0.25500000920E-02 0. -1.
    10030    2    1    2    0    0  0.00000000000E+00  0.00000000000E+00 -0.49755850202E+03  0.10974449731E+04  0.97817227832E+03 0.  0.
        2    1    3    3  502    0 -0.43677974771E+03 -0.20525030714E+03 -0.33783719344E+03  0.58909948724E+03  0.25500000920E-02 0.  1.
       -2    1    3    3    0  502  0.43677974771E+03  0.20525030714E+03 -0.15972130859E+03  0.50834548588E+03  0.25500000920E-02 0. -1.
</event>
<event>
 5   0  0.1245850E-02  0.1027836E+04  0.7818609E-02  0.9278530E-01
        2   -1    0    0  501    0  0.00000000000E+00  0.00000000000E+00  0.70759194399E+03  0.70759194400E+03  0.25500000920E-02 0.  1.
       -2   -1    0    0    0  501  0.00000000000E+00  0.00000000000E+00 -0.37325454600E+03  0.37325454601E+03  0.25500000920E-02 0. -1.
    10030    2    1    2    0    0  0.00000000000E+00  0.00000000000E+00  0.33433739799E+03  0.10808464900E+04  0.10278363874E+04 0.  0.
        3    1    3    3  502    0  0.92561743407E+02  0.33611353246E+03 -0.22989210895E+03  0.41760073635E+03  0.10100000352E+00 0. -1.
       -3    1    3    3    0  502 -0.92561743407E+02 -0.33611353246E+03  0.56422950694E+03  0.66324575366E+03  0.10100000352E+00 0.  1.
</event>
<event>
 5   0  0.4782125E-03  0.9603976E+03  0.7818609E-02  0.9353079E-01
       -4   -1    0    0    0  501  0.00000000000E+00  0.00000000000E+00  0.58009027468E+03  0.58009166489E+03  0.12699999809E+01 0.  1.
        4   -1    0    0  501    0  0.00000000000E+00  0.00000000000E+00 -0.39750573549E+03  0.39750776426E+03  0.12699999809E+01 0. -1.
    10030    2    1    2    0    0  0.00000000000E+00  0.00000000000E+00  0.18258453919E+03  0.97759942915E+03  0.96039758950E+03 0.  0.
        4    1    3    3  502    0  0.41579429055E+03 -0.23107909118E+03  0.15809416735E+03  0.50127618843E+03  0.12699999809E+01 0. -1.
       -4    1    3    3    0  502 -0.41579429055E+03  0.23107909118E+03  0.24490371839E+02  0.47632324072E+03  0.12699999809E+01 0.  1.
</event>
<event>
 5   0  0.1191822E-02  0.9602452E+03  0.7818609E-02  0.9353255E-01
       -2   -1    0    0    0  501  0.00000000000E+00  0.00000000000E+00  0.63158797675E+03  0.63158797676E+03  0.25500000920E-02 0.  1.
        2   -1    0    0  501    0  0.00000000000E+00  0.00000000000E+00 -0.36498116829E+03  0.36498116830E+03  0.25500000920E-02 0. -1.
    10030    2    1    2    0    0  0.00000000000E+00  0.00000000000E+00  0.26660680846E+03  0.99656914506E+03  0.96024521377E+03 0.  0.
        4    1    3    3  502    0 -0.19143687633E+03  0.35221986195E+03  0.40751234026E+03  0.57164222127E+03  0.12699999809E+01 0.  1.
       -4    1    3    3    0  502  0.19143687633E+03 -0.35221986195E+03 -0.14090553180E+03  0.42492692379E+03  0.12699999809E+01 0. -1.
</event>
<event>
 5   0  0.1245850E-02  0.9741199E+03  0.7818609E-02  0.9337394E-01
        2   -1    0    0  501    0  0.00000000000E+00  0.00000000000E+00  0.67671539480E+03  0.67671539480E+03  0.25500000920E-02 0. -1.
       -2   -1    0    0    0  501  0.00000000000E+00  0.00000000000E+00 -0.35055712276E+03  0.35055712277E+03  0.25500000920E-02 0.  1.
    10030    2    1    2    0    0  0.00000000000E+00  0.00000000000E+00  0.32615827204E+03  0.10272725176E+04  0.97411991404E+03 0.  0.
        3    1    3    3  502    0  0.42236273766E+03  0.55933256714E+02  0.41198452116E+03  0.59266353629E+03  0.10100000352E+00 0. -1.
       -3    1    3    3    0  502 -0.42236273766E+03 -0.55933256714E+02 -0.85826249120E+02  0.43460898128E+03  0.10100000352E+00 0.  1.
</event>
<event>
 5   0  0.7224879E-03  0.1008119E+04  0.7818609E-02  0.9299685E-01
        1   -1    0    0  501    0  0.00000000000E+00  0.00000000000E+00  0.40283015919E+03  0.40283015923E+03  0.50400001928E-02 0.  1.
       -1   -1    0    0    0  501  0.00000000000E+00  0.00000000000E+00 -0.63072693011E+03  0.63072693013E+03  0.50400001928E-02 0. -1.
    10030    2    1    2    0    0  0.00000000000E+00  0.00000000000E+00 -0.22789677092E+03  0.10335570894E+04  0.10081187027E+04 0.  0.
        3    1    3    3  502    0 -0.27680016541E+02  0.32003402759E+03  0.28429625893E+03  0.42896658980E+03  0.10100000352E+00 0.  1.
       -3    1    3    3    0  502  0.27680016541E+02 -0.32003402759E+03 -0.51219302984E+03  0.60459049955E+03  0.10100000352E+00 0. -1.
</event>
<event>
 5   0  0.1245850E-02  0.1008619E+04  0.7818609E-02  0.9299142E-01
        2   -1    0    0  501    0  0.00000000000E+00  0.00000000000E+00  0.56343523323E+03  0.56343523323E+03  0.25500000920E-02 0.  1.
       -2   -1    0    0    0  501  0.00000000000E+00  0.00000000000E+00 -0.45138846863E+03  0.45138846863E+03  0.25500000920E-02 0. -1.
    10030    2    1    2    0    0  0.00000000000E+00  0.00000000000E+00  0.11204676460E+03  0.10148237019E+04  0.10086191890E+04 0.  0.
        3    1    3    3  502    0  0.29064694375E+03  0.31843239982E+02 -0.35740390955E+03  0.46176531118E+03  0.10100000352E+00 0. -1.
       -3    1    3    3    0  502 -0.29064694375E+03 -0.31843239982E+02  0.46945067415E+03  0.55305839069E+03  0.10100000352E+00 0.  1.
</event>
<event>
 5   0  0.7461157E-03  0.1011293E+04  0.7818609E-02  0.9296244E-01
       -1   -1    0    0    0  501  0.00000000000E+00  0.00000000000E+00  0.58954150677E+03  0.58954150679E+03  0.50400001928E-02 0.  1.
        1   -1    0    0  501    0  0.00000000000E+00  0.00000000000E+00 -0.43369061537E+03  0.43369061540E+03  0.50400001928E-02 0. -1.
    10030    2    1    2    0    0  0.00000000000E+00  0.00000000000E+00  0.15585089140E+03  0.10232321222E+04  0.10112934666E+04 0.  0.
        2    1    3    3  502    0  0.47705585607E+03 -0.15951477897E+03  0.25826171769E+02  0.50368069814E+03  0.25500000920E-02 0.  1.
       -2    1    3    3    0  502 -0.47705585607E+03  0.15951477897E+03  0.13002471963E+03  0.51955142406E+03  0.25500000920E-02 0. -1.
</event>
<event>
 5   0  0.7073004E-03  0.1005047E+04  0.7818609E-02  0.9303026E-01
       -1   -1    0    0    0  501  0.00000000000E+00  0.00000000000E+00  0.14532401350E+04  0.14532401351E+04  0.50400001928E-02 0. -1.
        1   -1    0    0  501    0  0.00000000000E+00  0.00000000000E+00 -0.17377033835E+03  0.17377033843E+03  0.50400001928E-02 0.  1.
    10030    2    1    2    0    0  0.00000000000E+00  0.00000000000E+00  0.12794697967E+04  0.16270104735E+04  0.10050473224E+04 0.  0.
        1    1    3    3  502    0 -0.40371045333E+03  0.35855110505E+02  0.15879424961E+03  0.43529683299E+03  0.50400001928E-02 0.  1.
       -1    1    3    3    0  502  0.40371045333E+03 -0.35855110505E+02  0.11206755471E+04  0.11917136405E+04  0.50400001928E-02 0. -1.
</event>
<event>
 5   0  0.1191822E-02  0.9722369E+03  0.7818609E-02  0.9339530E-01
       -2   -1    0    0    0  501  0.00000000000E+00  0.00000000000E+00  0.44684515447E+03  0.44684515448E+03  0.25500000920E-02 0.  1.
        2   -1    0    0  501    0  0.00000000000E+00  0.00000000000E+00 -0.52884347971E+03  0.52884347972E+03  0.25500000920E-02 0. -1.
    10030    2    1    2    0    0  0.00000000000E+00  0.00000000000E+00 -0.81998325246E+02  0.97568863420E+03  0.97223689786E+03 0.  0.
        4    1    3    3  502    0 -0.28365581072E+03  0.90649780553E+02 -0.42659177956E+03  0.52025009463E+03  0.12699999809E+01 0. -1.
       -4    1    3    3    0  502  0.28365581072E+03 -0.90649780553E+02  0.34459345431E+03  0.45543853957E+03  0.12699999809E+01 0.  1.
</event>
<event>
 5   0  0.1191822E-02  0.9988747E+03  0.7818609E-02  0.9309780E-01
        2   -1    0    0  501    0  0.00000000000E+00  0.00000000000E+00  0.11245535752E+04  0.11245535752E+04  0.25500000920E-02 0. -1.
       -2   -1    0    0    0  501  0.00000000000E+00  0.00000000000E+00 -0.22181039904E+03  0.22181039906E+03  0.25500000920E-02 0.  1.
    10030    2    1    2    0    0  0.00000000000E+00  0.00000000000E+00  0.90274317617E+03  0.13463639743E+04  0.99887472143E+03 0.  0.
        4    1    3    3  502    0  0.21302799419E+03 -0.32461091327E+03  0.87479259086E+03  0.95708769778E+03  0.12699999809E+01 0. -1.
       -4    1    3    3    0  502 -0.21302799419E+03  0.32461091327E+03  0.27950585309E+02  0.38927627649E+03  0.12699999809E+01 0.  1.
</event>
<event>
 5   0  0.1191822E-02  0.1006646E+04  0.7818609E-02  0.9301286E-01
        2   -1    0    0  501    0  0.00000000000E+00  0.00000000000E+00  0.26633660509E+03  0.26633660510E+03  0.25500000920E-02 0. -1.
       -2   -1    0    0    0  501  0.00000000000E+00  0.00000000000E+00 -0.95117949466E+03  0.95117949466E+03  0.25500000920E-02 0.  1.
    10030    2    1    2    0    0  0.00000000000E+00  0.00000000000E+00 -0.68484288956E+03  0.12175160998E+04  0.10066457519E+04 0.  0.
        4    1    3    3  502    0 -0.43220441542E+03  0.22177850551E+03 -0.18312833280E+03  0.51915697182E+03  0.12699999809E+01 0.  1.
       -4    1    3    3    0  502  0.43220441542E+03 -0.22177850551E+03 -0.50171455677E+03  0.69835912795E+03  0.12699999809E+01 0. -1.
</event>
<event>
 5   0  0.4782125E-03  0.1045026E+04  0.7818609E-02  0.9260494E-01
        3   -1    0    0  501    0  0.00000000000E+00  0.00000000000E+00  0.33531812953E+03  0.33531814474E+03  0.10100000352E+00 0.  1.
       -3   -1    0    0    0  501  0.00000000000E+00  0.00000000000E+00 -0.81421166322E+03  0.81421166948E+03  0.10100000352E+00 0. -1.
    10030    2    1    2    0    0  0.00000000000E+00  0.00000000000E+00 -0.47889353369E+03  0.11495298142E+04  0.10450262088E+04 0.  0.
        4    1    3    3  502    0 -0.18269977810E+03 -0.26101810412E+03  0.21610328347E+03  0.38498298874E+03  0.12699999809E+01 0.  1.
       -4    1    3    3    0  502  0.18269977810E+03  0.26101810412E+03 -0.69499681716E+03  0.76454682548E+03  0.12699999809E+01 0. -1.
</event>
<event>
 5   0  0.7073004E-03  0.9970754E+03  0.7818609E-02  0.9311758E-01
        1   -1    0    0  501    0  0.00000000000E+00  0.00000000000E+00  0.56083083780E+03  0.56083083783E+03  0.50400001928E-02 0. -1.
       -1   -1    0    0    0  501  0.00000000000E+00  0.00000000000E+00 -0.44316368853E+03  0.44316368856E+03  0.50400001928E-02 0.  1.
    10030    2    1    2    0    0  0.00000000000E+00  0.00000000000E+00  0.11766714928E+03  0.10039945264E+04  0.99707544900E+03 0.  0.
        1    1    3    3  502    0  0.14213314634E+02 -0.17668180839E+03  0.52802992001E+03  0.55698660323E+03  0.50400001928E-02 0. -1.
       -1    1    3    3    0  502 -0.14213314634E+02  0.17668180839E+03 -0.41036277074E+03  0.44700792315E+03  0.50400001928E-02 0.  1.
</event>
<event>
 5   0  0.4782125E-03  0.9882691E+03  0.7818609E-02  0.9321505E-01
       -3   -1    0    0    0  501  0.00000000000E+00  0.00000000000E+00  0.64917784986E+03  0.64917785772E+03  0.10100000352E+00 0. -1.
        3   -1    0    0  501    0  0.00000000000E+00  0.00000000000E+00 -0.37612024295E+03  0.37612025652E+03  0.10100000352E+00 0.  1.
    10030    2    1    2    0    0  0.00000000000E+00  0.00000000000E+00  0.27305760691E+03  0.10252981142E+04  0.98826907589E+03 0.  0.
        4    1    3    3  502    0 -0.17879651798E+03 -0.98681923643E+02 -0.33028711174E+03  0.38832654555E+03  0.12699999809E+01 0.  1.
       -4    1    3    3    0  502  0.17879651798E+03  0.98681923643E+02  0.60334471865E+03  0.63697156868E+03  0.12699999809E+01 0. -1.
</event>
<event>
 5   0  0.1245850E-02  0.9726963E+03  0.7818609E-02  0.9339008E-01
       -2   -1    0    0    0  501  0.00000000000E+00  0.00000000000E+00  0.27187725928E+03  0.27187725930E+03  0.25500000920E-02 0. -1.
        2   -1    0    0  501    0  0.00000000000E+00  0.00000000000E+00 -0.87000487669E+03  0.87000487669E+03  0.25500000920E-02 0.  1.
    10030    2    1    2    0    0  0.00000000000E+00  0.00000000000E+00 -0.59812761740E+03  0.11418821360E+04  0.97269633791E+03 0.  0.
        3    1    3    3  502    0  0.24880544529E+03 -0.31036392602E+03 -0.62756555109E+03  0.74301308690E+03  0.10100000352E+00 0.  1.
       -3    1    3    3    0  502 -0.24880544529E+03  0.31036392602E+03  0.29437933689E+02  0.39886904909E+03  0.10100000352E+00 0. -1.
</event>
<event>
 5   0  0.4782125E-03  0.9880851E+03  0.7818609E-02  0.9321710E-01
        3   -1    0    0  501    0  0.00000000000E+00  0.00000000000E+00  0.73289593574E+03  0.73289594270E+03  0.10100000352E+00 0. -1.
       -3   -1    0    0    0  501  0.00000000000E+00  0.00000000000E+00 -0.33303234285E+03  0.33303235817E+03  0.10100000352E+00 0.  1.
    10030    2    1    2    0    0  0.00000000000E+00  0.00000000000E+00  0.39986359289E+03  0.10659283009E+04  0.98808514293E+03 0.  0.
        3    1    3    3  502    0 -0.18466781188E+03 -0.16230704595E+03  0.66221501724E+03  0.70638128313E+03  0.10100000352E+00 0. -1.
       -3    1    3    3    0  502  0.18466781188E+03  0.16230704595E+03 -0.26235142434E+03  0.35954701774E+03  0.10100000352E+00 0.  1.
</event>
<event>
 5   0  0.1240503E-02  0.9459271E+03  0.7818609E-02  0.9369924E-01
        2   -1    0    0  501    0  0.00000000000E+00  0.00000000000E+00  0.15350380409E+04  0.15350380409E+04  0.25500000920E-02 0.  1.
       -2   -1    0    0    0  501  0.00000000000E+00  0.00000000000E+00 -0.14572571829E+03  0.14572571831E+03  0.25500000920E-02 0. -1.
    10030    2    1    2    0    0  0.00000000000E+00  0.00000000000E+00  0.13893123226E+04  0.16807637592E+04  0.94592710317E+03 0.  0.
        1    1    3    3  502    0 -0.14155722939E+03 -0.45079517308E+03  0.73191837367E+03  0.87118266914E+03  0.50400001928E-02 0. -1.
       -1    1    3    3    0  502  0.14155722939E+03  0.45079517308E+03  0.65739394890E+03  0.80958109003E+03  0.50400001928E-02 0.  1.
</event>
<event>
 5   0  0.4782125E-03  0.1001951E+04  0.7818609E-02  0.9306407E-01
       -4   -1    0    0    0  501  0.00000000000E+00  0.00000000000E+00  0.45295159929E+03  0.45295337972E+03  0.12699999809E+01 0. -1.
        4   -1    0    0  501    0  0.00000000000E+00  0.00000000000E+00 -0.55408773269E+03  0.55408918815E+03  0.12699999809E+01 0.  1.
    10030    2    1    2    0    0  0.00000000000E+00  0.00000000000E+00 -0.10113613340E+03  0.10070425679E+04  0.10019512044E+04 0.  0.
        1    1    3    3  502    0  0.27861701622E+03 -0.31361104389E+03 -0.32581586594E+03  0.53116410563E+03  0.50400001928E-02 0.  1.
       -1    1    3    3    0  502 -0.27861701622E+03  0.31361104389E+03  0.22467973254E+03  0.47587846224E+03  0.50400001928E-02 0. -1.
</event>
<event>
 5   0  0.7073004E-03  0.1047622E+04  0.7818609E-02  0.9257803E-01
       -1   -1    0    0    0  501  0.00000000000E+00  0.00000000000E+00  0.39612540630E+03  0.39612540634E+03  0.50400001928E-02 0. -1.
        1   -1    0    0  501    0  0.00000000000E+00  0.00000000000E+00 -0.69265407711E+03  0.69265407713E+03  0.50400001928E-02 0.  1.
    10030    2    1    2    0    0  0.00000000000E+00  0.00000000000E+00 -0.29652867081E+03  0.10887794835E+04  0.10476218359E+04 0.  0.
        1    1    3    3  502    0  0.63092962277E+02  0.29680281484E+03  0.29548219297E+03  0.42353554653E+03  0.50400001928E-02 0. -1.
       -1    1    3    3    0  502 -0.63092962277E+02 -0.29680281484E+03 -0.59201086378E+03  0.66524393694E+03  0.50400001928E-02 0.  1.
</event>
<event>
 5   0  0.7461157E-03  0.9920185E+03  0.7818609E-02  0.9317342E-01
       -1   -1    0    0    0  501  0.00000000000E+00  0.00000000000E+00  0.65493373526E+03  0.65493373528E+03  0.50400001928E-02 0. -1.
        1   -1    0    0  501    0  0.00000000000E+00  0.00000000000E+00 -0.37564895968E+03  0.37564895971E+03  0.50400001928E-02 0.  1.
    10030    2    1    2    0    0  0.00000000000E+00  0.00000000000E+00  0.27928477558E+03  0.10305826950E+04  0.99201850051E+03 0.  0.
        2    1    3    3  502    0 -0.32340652600E+03  0.15599701163E+03  0.49514141815E+03  0.61163050339E+03  0.25500000920E-02 0. -1.
       -2    1    3    3    0  502  0.32340652600E+03 -0.15599701163E+03 -0.21585664257E+03  0.41895219160E+03  0.25500000920E-02 0.  1.
</event>
<event>
 5   0  0.1245850E-02  0.1110564E+04  0.7818609E-02  0.9194956E-01
        2   -1    0    0  501    0  0.00000000000E+00  0.00000000000E+00  0.72676969954E+03  0.72676969954E+03  0.25500000920E-02 0. -1.
       -2   -1    0    0    0  501  0.00000000000E+00  0.00000000000E+00 -0.42425820237E+03  0.42425820238E+03  0.25500000920E-02 0.  1.
    10030    2    1    2    0    0  0.00000000000E+00  0.00000000000E+00  0.30251149716E+03  0.11510279019E+04  0.11105638321E+04 0.  0.
        3    1    3    3  502    0 -0.76014801288E+02 -0.45447803268E+03  0.47239940523E+03  0.65991646476E+03  0.10100000352E+00 0. -1.
       -3    1    3    3    0  502  0.76014801288E+02  0.45447803268E+03 -0.16988790806E+03  0.49111143716E+03  0.10100000352E+00 0.  1.
</event>
<event>
 5   0  0.7461157E-03  0.1004169E+04  0.7818609E-02  0.9303985E-01
       -1   -1    0    0    0  501  0.00000000000E+00  0.00000000000E+00  0.15142777620E+03  0.15142777629E+03  0.50400001928E-02 0. -1.
        1   -1    0    0  501    0  0.00000000000E+00  0.00000000000E+00 -0.16647447482E+04  0.16647447482E+04  0.50400001928E-02 0.  1.
    10030    2    1    2    0    0  0.00000000000E+00  0.00000000000E+00 -0.15133169720E+04  0.18161725245E+04  0.10041685023E+04 0.  0.
        2    1    3    3  502    0  0.21948511061E+03  0.25259714588E+03 -0.79665145925E+02  0.34398483596E+03  0.25500000920E-02 0. -1.
       -2    1    3    3    0  502 -0.21948511061E+03 -0.25259714588E+03 -0.14336518261E+04  0.14721876885E+04  0.25500000920E-02 0.  1.
</event>
<event>
 5   0  0.1216322E-02  0.1004377E+04  0.7818609E-02  0.9303757E-01
       -2   -1    0    0    0  501  0.00000000000E+00  0.00000000000E+00  0.28893143462E+03  0.28893143463E+03  0.25500000920E-02 0. -1.
        2   -1    0    0  501    0  0.00000000000E+00  0.00000000000E+00 -0.87284786968E+03  0.87284786968E+03  0.25500000920E-02 0.  1.
    10030    2    1    2    0    0  0.00000000000E+00  0.00000000000E+00 -0.58391643506E+03  0.11617793043E+04  0.10043767962E+04 0.  0.
        2    1    3    3  502    0 -0.36197766159E+03 -0.63959874129E+02  0.10382567007E+03  0.38196657283E+03  0.25500000920E-02 0. -1.
       -2    1    3    3    0  502  0.36197766159E+03  0.63959874129E+02 -0.68774210513E+03  0.77981273147E+03  0.25500000920E-02 0.  1.
</event>
<event>
 5   0  0.7224879E-03  0.7506186E+03  0.7818609E-02  0.9634380E-01
       -1   -1    0    0    0  501  0.00000000000E+00  0.00000000000E+00  0.41618452395E+03  0.41618452398E+03  0.50400001928E-02 0. -1.
        1   -1    0    0  501    0  0.00000000000E+00  0.00000000000E+00 -0.33844860067E+03  0.33844860071E+03  0.50400001928E-02 0.  1.
    10030    2    1    2    0    0  0.00000000000E+00  0.00000000000E+00  0.77735923283E+02  0.75463312469E+03  0.75061859763E+03 0.  0.
        3    1    3    3  502    0  0.12779320491E+02 -0.20891053587E+03  0.35206281701E+03  0.40957924795E+03  0.10100000352E+00 0. -1.
       -3    1    3    3    0  502 -0.12779320491E+02  0.20891053587E+03 -0.27432689373E+03  0.34505387674E+03  0.10100000352E+00 0.  1.
</event>
<event>
 5   0  0.7073004E-03  0.9986555E+03  0.7818609E-02  0.9310021E-01
        1   -1    0    0  501    0  0.00000000000E+00  0.00000000000E+00  0.47267119311E+03  0.47267119314E+03  0.50400001928E-02 0. -1.
       -1   -1    0    0    0  501  0.00000000000E+00  0.00000000000E+00 -0.52748762167E+03  0.52748762169E+03  0.50400001928E-02 0.  1.
    10030    2    1    2    0    0  0.00000000000E+00  0.00000000000E+00 -0.54816428559E+02  0.10001588148E+04  0.99865550318E+03 0.  0.
        1    1    3    3  502    0 -0.36870145790E+03  0.33097667127E+03  0.34668003778E+02  0.49667715117E+03  0.50400001928E-02 0.  1.
       -1    1    3    3    0  502  0.36870145790E+03 -0.33097667127E+03 -0.89484432337E+02  0.50348166366E+03  0.50400001928E-02 0. -1.
</event>
<event>
 5   0  0.1191822E-02  0.9900120E+03  0.7818609E-02  0.9319568E-01
       -2   -1    0    0    0  501  0.00000000000E+00  0.00000000000E+00  0.10677392643E+03  0.10677392646E+03  0.25500000920E-02 0.  1.
        2   -1    0    0  501    0  0.00000000000E+00  0.00000000000E+00 -0.22948575791E+04  0.22948575791E+04  0.25500000920E-02 0. -1.
    10030    2    1    2    0    0  0.00000000000E+00  0.00000000000E+00 -0.21880836527E+04  0.24016315056E+04  0.99001202894E+03 0.  0.
        4    1    3    3  502    0 -0.24457058581E+02 -0.45486011347E+03 -0.62406627649E+03  0.77262940721E+03  0.12699999809E+01 0.  1.
       -4    1    3    3    0  502  0.24457058581E+02  0.45486011347E+03 -0.15640173762E+04  0.16290020984E+04  0.12699999809E+01 0. -1.
</event>
<event>
 5   0  0.1221315E-02  0.1007795E+04  0.7818609E-02  0.9300036E-01
       -2   -1    0    0    0  501  0.00000000000E+00  0.00000000000E+00  0.14847458884E+03  0.14847458886E+03  0.25500000920E-02 0.  1.
        2   -1    0    0  501    0  0.00000000000E+00  0.00000000000E+00 -0.17101425450E+04  0.17101425450E+04  0.25500000920E-02 0. -1.
    10030    2    1    2    0    0  0.00000000000E+00  0.00000000000E+00 -0.15616679561E+04  0.18586171338E+04  0.10077950412E+04 0.  0.
        5    1    3    3  502    0  0.19575479731E+03  0.45164600542E+03 -0.58231816996E+03  0.76250940713E+03  0.46999998093E+01 0.  1.
       -5    1    3    3    0  502 -0.19575479731E+03 -0.45164600542E+03 -0.97934978618E+03  0.10961077267E+04  0.46999998093E+01 0. -1.
</event>
<event>
 5   0  0.7461157E-03  0.1032998E+04  0.7818609E-02  0.9273076E-01
       -1   -1    0    0    0  501  0.00000000000E+00  0.00000000000E+00  0.69081751700E+03  0.69081751702E+03  0.50400001928E-02 0. -1.
        1   -1    0    0  501    0  0.00000000000E+00  0.00000000000E+00 -0.38616717930E+03  0.38616717933E+03  0.50400001928E-02 0.  1.
    10030    2    1    2    0    0  0.00000000000E+00  0.00000000000E+00  0.30465033770E+03  0.10769846964E+04  0.10329976805E+04 0.  0.
        2    1    3    3  502    0  0.19901894618E+03 -0.89710756537E+02 -0.33570395073E+03  0.40044188507E+03  0.25500000920E-02 0.  1.
       -2    1    3    3    0  502 -0.19901894618E+03  0.89710756537E+02  0.64035428844E+03  0.67654281128E+03  0.25500000920E-02 0. -1.
</event>
<event>
 5   0  0.7461157E-03  0.9736905E+03  0.7818609E-02  0.9337881E-01
        1   -1    0    0  501    0  0.00000000000E+00  0.00000000000E+00  0.88753732735E+03  0.88753732737E+03  0.50400001928E-02 0.  1.
       -1   -1    0    0    0  501  0.00000000000E+00  0.00000000000E+00 -0.26705164664E+03  0.26705164669E+03  0.50400001928E-02 0. -1.
    10030    2    1    2    0    0  0.00000000000E+00  0.00000000000E+00  0.62048568071E+03  0.11545889741E+04  0.97369051502E+03 0.  0.
        2    1    3    3  502    0  0.23731124669E+03  0.26486718696E+03 -0.84014734038E+02  0.36541720003E+03  0.25500000920E-02 0. -1.
       -2    1    3    3    0  502 -0.23731124669E+03 -0.26486718696E+03  0.70450041475E+03  0.78917177403E+03  0.25500000920E-02 0.  1.
</event>
<event>
 5   0  0.7073004E-03  0.1007718E+04  0.7818609E-02  0.9300120E-01
       -1   -1    0    0    0  501  0.00000000000E+00  0.00000000000E+00  0.78147899965E+03  0.78147899967E+03  0.50400001928E-02 0. -1.
        1   -1    0    0  501    0  0.00000000000E+00  0.00000000000E+00 -0.32486319915E+03  0.32486319919E+03  0.50400001928E-02 0.  1.
    10030    2    1    2    0    0  0.00000000000E+00  0.00000000000E+00  0.45661580050E+03  0.11063421989E+04  0.10077177540E+04 0.  0.
        1    1    3    3  502    0  0.34354771218E+03 -0.16520877333E+03  0.59003003127E+03  0.70246310021E+03  0.50400001928E-02 0. -1.
       -1    1    3    3    0  502 -0.34354771218E+03  0.16520877333E+03 -0.13341423077E+03  0.40387909865E+03  0.50400001928E-02 0.  1.
</event>
<event>
 5   0  0.6967681E-03  0.9958751E+03  0.7818609E-02  0.9313080E-01
       -1   -1    0    0    0  501  0.00000000000E+00  0.00000000000E+00  0.38273017133E+03  0.38273017136E+03  0.50400001928E-02 0.  1.
        1   -1    0    0  501    0  0.00000000000E+00  0.00000000000E+00 -0.64782407128E+03  0.64782407130E+03  0.50400001928E-02 0. -1.
    10030    2    1    2    0    0  0.00000000000E+00  0.00000000000E+00 -0.26509389995E+03  0.10305542427E+04  0.99587512835E+03 0.  0.
        5    1    3    3  502    0  0.85816223091E+02  0.22241792174E+03  0.31980859421E+03  0.39891575925E+03  0.46999998093E+01 0.  1.
       -5    1    3    3    0  502 -0.85816223091E+02 -0.22241792174E+03 -0.58490249415E+03  0.63163848340E+03  0.46999998093E+01 0. -1.
</event>
<event>
 5   0  0.7224879E-03  0.9822093E+03  0.7818609E-02  0.9328275E-01
        1   -1    0    0  501    0  0.00000000000E+00  0.00000000000E+00  0.32402144491E+03  0.32402144495E+03  0.50400001928E-02 0. -1.
       -1   -1    0    0    0  501  0.00000000000E+00  0.00000000000E+00 -0.74434518231E+03  0.74434518232E+03  0.50400001928E-02 0.  1.
    10030    2    1    2    0    0  0.00000000000E+00  0.00000000000E+00 -0.42032373740E+03  0.10683666273E+04  0.98220934939E+03 0.  0.
        3    1    3    3  502    0 -0.25337633482E+03  0.38160321628E+03 -0.17530726490E+02  0.45839711855E+03  0.10100000352E+00 0. -1.
       -3    1    3    3    0  502  0.25337633482E+03 -0.38160321628E+03 -0.40279301091E+03  0.60996950872E+03  0.10100000352E+00 0.  1.
</event>
<event>
 5   0  0.1240503E-02  0.9761368E+03  0.7818609E-02  0.9335112E-01
        2   -1    0    0  501    0  0.00000000000E+00  0.00000000000E+00  0.12622870636E+04  0.12622870636E+04  0.25500000920E-02 0. -1.
       -2   -1    0    0    0  501  0.00000000000E+00  0.00000000000E+00 -0.18871361984E+03  0.18871361986E+03  0.25500000920E-02 0.  1.
    10030    2    1    2    0    0  0.00000000000E+00  0.00000000000E+00  0.10735734438E+04  0.14510006835E+04  0.97613679590E+03 0.  0.
        1    1    3    3  502    0  0.48527314139E+03 -0.50419000379E+02  0.55665567986E+03  0.74020108302E+03  0.50400001928E-02 0.  1.
       -1    1    3    3    0  502 -0.48527314139E+03  0.50419000379E+02  0.51691776394E+03  0.71079960049E+03  0.50400001928E-02 0. -1.
</event>
<event>
 5   0  0.7224879E-03  0.9935185E+03  0.7818609E-02  0.9315682E-01
        1   -1    0    0  501    0  0.00000000000E+00  0.00000000000E+00  0.39867400884E+03  0.39867400887E+03  0.50400001928E-02 0.  1.
       -1   -1    0    0    0  501  0.00000000000E+00  0.00000000000E+00 -0.61897628040E+03  0.61897628042E+03  0.50400001928E-02 0. -1.
    10030    2    1    2    0    0  0.00000000000E+00  0.00000000000E+00 -0.22030227156E+03  0.10176502893E+04  0.99351850533E+03 0.  0.
        3    1    3    3  502    0 -0.49526006004E+03 -0.11971141290E+02 -0.14770093595E+03  0.51695397472E+03  0.10100000352E+00 0. -1.
       -3    1    3    3    0  502  0.49526006004E+03  0.11971141290E+02 -0.72601335607E+02  0.50069631457E+03  0.10100000352E+00 0.  1.
</event>
<event>
 5   0  0.7073004E-03  0.9966513E+03  0.7818609E-02  0.9312225E-01
       -1   -1    0    0    0  501  0.00000000000E+00  0.00000000000E+00  0.41903876373E+03  0.41903876376E+03  0.50400001928E-02 0. -1.
        1   -1    0    0  501    0  0.00000000000E+00  0.00000000000E+00 -0.59261447873E+03  0.59261447875E+03  0.50400001928E-02 0.  1.
    10030    2    1    2    0    0  0.00000000000E+00  0.00000000000E+00 -0.17357571500E+03  0.10116532425E+04  0.99665127013E+03 0.  0.
        1    1    3    3  502    0 -0.30635134011E+03  0.35914739664E+03 -0.24884834467E+03  0.53363235918E+03  0.50400001928E-02 0.  1.
       -1    1    3    3    0  502  0.30635134011E+03 -0.35914739664E+03  0.75272629670E+02  0.47802088333E+03  0.50400001928E-02 0. -1.
</event>
<event>
 5   0  0.7073004E-03  0.1002094E+04  0.7818609E-02  0.9306251E-01
        1   -1    0    0  501    0  0.00000000000E+00  0.00000000000E+00  0.13879909599E+04  0.13879909599E+04  0.50400001928E-02 0.  1.
       -1   -1    0    0    0  501  0.00000000000E+00  0.00000000000E+00 -0.18087151573E+03  0.18087151580E+03  0.50400001928E-02 0. -1.
    10030    2    1    2    0    0  0.00000000000E+00  0.00000000000E+00  0.12071194441E+04  0.15688624757E+04  0.10020938654E+04 0.  0.
        1    1    3    3  502    0 -0.43579212751E+03 -0.25659659426E+02  0.21855699277E+03  0.48820114260E+03  0.50400001928E-02 0. -1.
       -1    1    3    3    0  502  0.43579212751E+03  0.25659659426E+02  0.98856245137E+03  0.10806613331E+04  0.50400001928E-02 0.  1.
</event>
<event>
 5   0  0.7461157E-03  0.1007207E+04  0.7818609E-02  0.9300675E-01
        1   -1    0    0  501    0  0.00000000000E+00  0.00000000000E+00  0.19440473768E+04  0.19440473768E+04  0.50400001928E-02 0. -1.
       -1   -1    0    0    0  501  0.00000000000E+00  0.00000000000E+00 -0.13045805147E+03  0.13045805157E+03  0.50400001928E-02 0.  1.
    10030    2    1    2    0    0  0.00000000000E+00  0.00000000000E+00  0.18135893253E+04  0.20745054284E+04  0.10072072932E+04 0.  0.
        2    1    3    3  502    0 -0.43522691699E+03  0.14363495375E+03  0.13366827589E+04  0.14130726334E+04  0.25500000920E-02 0. -1.
       -2    1    3    3    0  502  0.43522691699E+03 -0.14363495375E+03  0.47690656642E+03  0.66143279500E+03  0.25500000920E-02 0.  1.
</event>
<event>
 5   0  0.7224879E-03  0.1224467E+04  0.7818609E-02  0.9091706E-01
        1   -1    0    0  501    0  0.00000000000E+00  0.00000000000E+00  0.10930732472E+04  0.10930732472E+04  0.50400001928E-02 0. -1.
       -1   -1    0    0    0  501  0.00000000000E+00  0.00000000000E+00 -0.34291398503E+03  0.34291398506E+03  0.50400001928E-02 0.  1.
    10030    2    1    2    0    0  0.00000000000E+00  0.00000000000E+00  0.75015926218E+03  0.14359872323E+04  0.12244673996E+04 0.  0.
        3    1    3    3  502    0 -0.28254064911E+03  0.24486198729E+03 -0.19348188108E+03  0.42097726747E+03  0.10100000352E+00 0.  1.
       -3    1    3    3    0  502  0.28254064911E+03 -0.24486198729E+03  0.94364114325E+03  0.10150099648E+04  0.10100000352E+00 0. -1.
</event>
<event>
 5   0  0.1240503E-02  0.1076936E+04  0.7818609E-02  0.9227968E-01
       -2   -1    0    0    0  501  0.00000000000E+00  0.00000000000E+00  0.67702639363E+03  0.67702639363E+03  0.25500000920E-02 0. -1.
        2   -1    0    0  501    0  0.00000000000E+00  0.00000000000E+00 -0.42826655787E+03  0.42826655787E+03  0.25500000920E-02 0.  1.
    10030    2    1    2    0    0  0.00000000000E+00  0.00000000000E+00  0.24875983576E+03  0.11052929515E+04  0.10769359557E+04 0.  0.
        1    1    3    3  502    0  0.27933837397E+03 -0.10357947826E+03 -0.33597180972E+03  0.44903863134E+03  0.50400001928E-02 0.  1.
       -1    1    3    3    0  502 -0.27933837397E+03  0.10357947826E+03  0.58473164547E+03  0.65625432016E+03  0.50400001928E-02 0. -1.
</event>
<event>
 5   0  0.1245850E-02  0.9826400E+03  0.7818609E-02  0.9327792E-01
       -2   -1    0    0    0  501  0.00000000000E+00  0.00000000000E+00  0.42358053420E+03  0.42358053421E+03  0.25500000920E-02 0.  1.
        2   -1    0    0  501    0  0.00000000000E+00  0.00000000000E+00 -0.56989249273E+03  0.56989249274E+03  0.25500000920E-02 0. -1.
    10030    2    1    2    0    0  0.00000000000E+00  0.00000000000E+00 -0.14631195853E+03  0.99347302695E+03  0.98264004909E+03 0.  0.
        3    1    3    3  502    0  0.35713682952E+03  0.20053126347E+03 -0.34750681211E+03  0.53714104041E+03  0.10100000352E+00 0. -1.
       -3    1    3    3    0  502 -0.35713682952E+03 -0.20053126347E+03  0.20119485358E+03  0.45633198654E+03  0.10100000352E+00 0.  1.
</event>
<event>
 5   0  0.7224879E-03  0.9972531E+03  0.7818609E-02  0.9311563E-01
       -1   -1    0    0    0  501  0.00000000000E+00  0.00000000000E+00  0.27561168082E+03  0.27561168087E+03  0.50400001928E-02 0. -1.
        1   -1    0    0  501    0  0.00000000000E+00  0.00000000000E+00 -0.90209684796E+03  0.90209684797E+03  0.50400001928E-02 0.  1.
    10030    2    1    2    0    0  0.00000000000E+00  0.00000000000E+00 -0.62648516714E+03  0.11777085288E+04  0.99725308435E+03 0.  0.
        3    1    3    3  502    0 -0.35142174380E+03 -0.34953354535E+03 -0.24901920900E+03  0.55469047044E+03  0.10100000352E+00 0. -1.
       -3    1    3    3    0  502  0.35142174380E+03  0.34953354535E+03 -0.37746595814E+03  0.62301805840E+03  0.10100000352E+00 0.  1.
</event>
<event>
 5   0  0.4782125E-03  0.9987353E+03  0.7818609E-02  0.9309933E-01
       -4   -1    0    0    0  501  0.00000000000E+00  0.00000000000E+00  0.38646126672E+03  0.38646335347E+03  0.12699999809E+01 0. -1.
        4   -1    0    0  501    0  0.00000000000E+00  0.00000000000E+00 -0.64525565835E+03  0.64525690816E+03  0.12699999809E+01 0.  1.
    10030    2    1    2    0    0  0.00000000000E+00  0.00000000000E+00 -0.25879439163E+03  0.10317202616E+04  0.99873528081E+03 0.  0.
        2    1    3    3  502    0  0.19479616850E+03  0.40111891311E+03  0.10280669997E+03  0.45761462748E+03  0.25500000920E-02 0. -1.
       -2    1    3    3    0  502 -0.19479616850E+03 -0.40111891311E+03 -0.36160109160E+03  0.57410563416E+03  0.25500000920E-02 0.  1.
</event>
<event>
 5   0  0.7241200E-03  0.1001371E+04  0.7818609E-02  0.9307042E-01
       -1   -1    0    0    0  501  0.00000000000E+00  0.00000000000E+00  0.32915386695E+03  0.32915386699E+03  0.50400001928E-02 0.  1.
        1   -1    0    0  501    0  0.00000000000E+00  0.00000000000E+00 -0.76160718418E+03  0.76160718420E+03  0.50400001928E-02 0. -1.
    10030    2    1    2    0    0  0.00000000000E+00  0.00000000000E+00 -0.43245331723E+03  0.10907610512E+04  0.10013709598E+04 0.  0.
        4    1    3    3  502    0  0.49442176890E+03  0.78541640665E+02 -0.20760408623E+03  0.54196193999E+03  0.12699999809E+01 0.  1.
       -4    1    3    3    0  502 -0.49442176890E+03 -0.78541640665E+02 -0.22484923099E+03  0.54879911120E+03  0.12699999809E+01 0. -1.
</event>
<event>
 5   0  0.7461157E-03  0.9986147E+03  0.7818609E-02  0.9310065E-01
        1   -1    0    0  501    0  0.00000000000E+00  0.00000000000E+00  0.90220832321E+03  0.90220832322E+03  0.50400001928E-02 0. -1.
       -1   -1    0    0    0  501  0.00000000000E+00  0.00000000000E+00 -0.27633068526E+03  0.27633068530E+03  0.50400001928E-02 0.  1.
    10030    2    1    2    0    0  0.00000000000E+00  0.00000000000E+00  0.62587763795E+03  0.11785390085E+04  0.99861472898E+03 0.  0.
        2    1    3    3  502    0  0.68685605414E+02  0.11368177402E+03 -0.25509957895E+03  0.28760572547E+03  0.25500000920E-02 0.  1.
       -2    1    3    3    0  502 -0.68685605414E+02 -0.11368177402E+03  0.88097721690E+03  0.89093328305E+03  0.25500000920E-02 0. -1.
</event>
<event>
 5   0  0.7073004E-03  0.1011292E+04  0.7818609E-02  0.9296246E-01
        1   -1    0    0  501    0  0.00000000000E+00  0.00000000000E+00  0.80504735244E+03  0.80504735246E+03  0.50400001928E-02 0.  1.
       -1   -1    0    0    0  501  0.00000000000E+00  0.00000000000E+00 -0.31759358701E+03  0.31759358705E+03  0.50400001928E-02 0. -1.
    10030    2    1    2    0    0  0.00000000000E+00  0.00000000000E+00  0.48745376543E+03  0.11226409395E+04  0.10112919982E+04 0.  0.
        1    1    3    3  502    0  0.19679494602E+03 -0.44446269245E+03  0.39835682913E+03  0.62846121527E+03  0.50400001928E-02 0. -1.
       -1    1    3    3    0  502 -0.19679494602E+03  0.44446269245E+03  0.89096936307E+02  0.49417972424E+03  0.50400001928E-02 0.  1.
</event>
<event>
 5   0  0.6967681E-03  0.9835095E+03  0.7818609E-02  0.9326818E-01
        1   -1    0    0  501    0  0.00000000000E+00  0.00000000000E+00  0.59979760665E+03  0.59979760668E+03  0.50400001928E-02 0.  1.
       -1   -1    0    0    0  501  0.00000000000E+00  0.00000000000E+00 -0.40317389945E+03  0.40317389948E+03  0.50400001928E-02 0. -1.
    10030    2    1    2    0    0  0.00000000000E+00  0.00000000000E+00  0.19662370720E+03  0.10029715062E+04  0.98350951187E+03 0.  0.
        5    1    3    3  502    0  0.12716075664E+03  0.32554971704E+03  0.45105864137E+03  0.57063864595E+03  0.46999998093E+01 0.  1.
       -5    1    3    3    0  502 -0.12716075664E+03 -0.32554971704E+03 -0.25443493417E+03  0.43233286021E+03  0.46999998093E+01 0. -1.
</event>
<event>
 5   0  0.1221315E-02  0.1001323E+04  0.7818609E-02  0.9307095E-01
        2   -1    0    0  501    0  0.00000000000E+00  0.00000000000E+00  0.15418779038E+04  0.15418779038E+04  0.25500000920E-02 0. -1.
       -2   -1    0    0    0  501  0.00000000000E+00  0.00000000000E+00 -0.16256928331E+03  0.16256928333E+03  0.25500000920E-02 0.  1.
    10030    2    1    2    0    0  0.00000000000E+00  0.00000000000E+00  0.13793086205E+04  0.17044471871E+04  0.10013230963E+04 0.  0.
        5    1    3    3  502    0 -0.15461619652E+03  0.22852983162E+03  0.14007315721E+04  0.14276564990E+04  0.46999998093E+01 0. -1.
       -5    1    3    3    0  502  0.15461619652E+03 -0.22852983162E+03 -0.21422951593E+02  0.27679068811E+03  0.46999998093E+01 0.  1.
</event>
<event>
 5   0  0.1191822E-02  0.1166751E+04  0.7818609E-02  0.9142468E-01
        2   -1    0    0  501    0  0.00000000000E+00  0.00000000000E+00  0.10867210135E+04  0.10867210135E+04  0.25500000920E-02 0.  1.
       -2   -1    0    0    0  501  0.00000000000E+00  0.00000000000E+00 -0.31316874851E+03  0.31316874852E+03  0.25500000920E-02 0. -1.
    10030    2    1    2    0    0  0.00000000000E+00  0.00000000000E+00  0.77355226500E+03  0.13998897620E+04  0.11667511470E+04 0.  0.
        4    1    3    3  502    0  0.48766148935E+03  0.10323813917E+03  0.23142784549E+02  0.49900805901E+03  0.12699999809E+01 0. -1.
       -4    1    3    3    0  502 -0.48766148935E+03 -0.10323813917E+03  0.75040948045E+03  0.90088170301E+03  0.12699999809E+01 0.  1.
</event>
<event>
 5   0  0.6967681E-03  0.1016155E+04  0.7818609E-02  0.9291001E-01
        1   -1    0    0  501    0  0.00000000000E+00  0.00000000000E+00  0.72159568480E+03  0.72159568481E+03  0.50400001928E-02 0. -1.
       -1   -1    0    0    0  501  0.00000000000E+00  0.00000000000E+00 -0.35773901730E+03  0.35773901733E+03  0.50400001928E-02 0.  1.
    10030    2    1    2    0    0  0.00000000000E+00  0.00000000000E+00  0.36385666750E+03  0.10793347021E+04  0.10161553645E+04 0.  0.
        5    1    3    3  502    0  0.31713087115E+03 -0.26179852464E+03  0.49882404685E+03  0.64649669501E+03  0.46999998093E+01 0. -1.
       -5    1    3    3    0  502 -0.31713087115E+03  0.26179852464E+03 -0.13496737935E+03  0.43283800714E+03  0.46999998093E+01 0.  1.
</event>
<event>
 5   0  0.6967681E-03  0.9908450E+03  0.7818609E-02  0.9318643E-01
        1   -1    0    0  501    0  0.00000000000E+00  0.00000000000E+00  0.13310562259E+04  0.13310562259E+04  0.50400001928E-02 0. -1.
       -1   -1    0    0    0  501  0.00000000000E+00  0.00000000000E+00 -0.18439750829E+03  0.18439750836E+03  0.50400001928E-02 0.  1.
    10030    2    1    2    0    0  0.00000000000E+00  0.00000000000E+00  0.11466587176E+04  0.15154537343E+04  0.99084499597E+03 0.  0.
        5    1    3    3  502    0  0.14338669539E+03 -0.43308715762E+03  0.27795371941E+03  0.53423271207E+03  0.46999998093E+01 0.  1.
       -5    1    3    3    0  502 -0.14338669539E+03  0.43308715762E+03  0.86870499820E+03  0.98122102220E+03  0.46999998093E+01 0. -1.
</event>
<event>
 5   0  0.1240503E-02  0.1020321E+04  0.7818609E-02  0.9286534E-01
       -2   -1    0    0    0  501  0.00000000000E+00  0.00000000000E+00  0.29558625361E+03  0.29558625363E+03  0.25500000920E-02 0.  1.
        2   -1    0    0  501    0  0.00000000000E+00  0.00000000000E+00 -0.88049952166E+03  0.88049952166E+03  0.25500000920E-02 0. -1.
    10030    2    1    2    0    0  0.00000000000E+00  0.00000000000E+00 -0.58491326805E+03  0.11760857753E+04  0.10203206455E+04 0.  0.
        1    1    3    3  502    0  0.39350891688E+03 -0.32391351271E+03 -0.26682903277E+03  0.57529728327E+03  0.50400001928E-02 0.  1.
       -1    1    3    3    0  502 -0.39350891688E+03  0.32391351271E+03 -0.31808423528E+03  0.60078849202E+03  0.50400001928E-02 0. -1.
</event>
<event>
 5   0  0.1191822E-02  0.9884509E+03  0.7818609E-02  0.9321303E-01
       -2   -1    0    0    0  501  0.00000000000E+00  0.00000000000E+00  0.37783282392E+03  0.37783282393E+03  0.25500000920E-02 0.  1.
        2   -1    0    0  501    0  0.00000000000E+00  0.00000000000E+00 -0.64647325459E+03  0.64647325459E+03  0.25500000920E-02 0. -1.
    10030    2    1    2    0    0  0.00000000000E+00  0.00000000000E+00 -0.26864043066E+03  0.10243060785E+04  0.98845094037E+03 0.  0.
        4    1    3    3  502    0 -0.33216288238E+03  0.27733760009E+02 -0.51246209090E+03  0.61132671248E+03  0.12699999809E+01 0. -1.
       -4    1    3    3    0  502  0.33216288238E+03 -0.27733760009E+02  0.24382166024E+03  0.41297936605E+03  0.12699999809E+01 0.  1.
</event>
<event>
 5   0  0.1191822E-02  0.9977443E+03  0.7818609E-02  0.9311022E-01
        2   -1    0    0  501    0  0.00000000000E+00  0.00000000000E+00  0.17647784484E+04  0.17647784484E+04  0.25500000920E-02 0. -1.
       -2   -1    0    0    0  501  0.00000000000E+00  0.00000000000E+00 -0.14102246934E+03  0.14102246936E+03  0.25500000920E-02 0.  1.
    10030    2    1    2    0    0  0.00000000000E+00  0.00000000000E+00  0.16237559791E+04  0.19058009178E+04  0.99774428520E+03 0.  0.
        4    1    3    3  502    0  0.44677416700E+03 -0.94848544243E+02  0.11951794421E+04  0.12794760312E+04  0.12699999809E+01 0. -1.
       -4    1    3    3    0  502 -0.44677416700E+03  0.94848544243E+02  0.42857653699E+03  0.62632488662E+03  0.12699999809E+01 0.  1.
</event>
<event>
 5   0  0.7241200E-03  0.1004648E+04  0.7818609E-02  0.9303461E-01
       -1   -1    0    0    0  501  0.00000000000E+00  0.00000000000E+00  0.27318358332E+03  0.27318358336E+03  0.50400001928E-02 0. -1.
        1   -1    0    0  501    0  0.00000000000E+00  0.00000000000E+00 -0.92366295482E+03  0.92366295483E+03  0.50400001928E-02 0.  1.
    10030    2    1    2    0    0  0.00000000000E+00  0.00000000000E+00 -0.65047937150E+03  0.11968465382E+04  0.10046483082E+04 0.  0.
        4    1    3    3  502    0 -0.70081171597E+02 -0.34173173215E+03  0.10534228417E+03  0.36440438678E+03  0.12699999809E+01 0. -1.
       -4    1    3    3    0  502  0.70081171597E+02  0.34173173215E+03 -0.75582165567E+03  0.83244215141E+03  0.12699999809E+01 0.  1.
</event>
<event>
 5   0  0.7224879E-03  0.1013556E+04  0.7818609E-02  0.9293800E-01
        1   -1    0    0  501    0  0.00000000000E+00  0.00000000000E+00  0.38216606323E+03  0.38216606326E+03  0.50400001928E-02 0.  1.
       -1   -1    0    0    0  501  0.00000000000E+00  0.00000000000E+00 -0.67202223226E+03  0.67202223228E+03  0.50400001928E-02 0. -1.
    10030    2    1    2    0    0  0.00000000000E+00  0.00000000000E+00 -0.28985616903E+03  0.10541882955E+04  0.10135562953E+04 0.  0.
        3    1    3    3  502    0 -0.35627058203E+03  0.23945373627E+03 -0.42509106918E+03  0.60412684656E+03  0.10100000352E+00 0. -1.
       -3    1    3    3    0  502  0.35627058203E+03 -0.23945373627E+03  0.13523490015E+03  0.45006144898E+03  0.10100000352E+00 0.  1.
</event>
<event>
 5   0  0.7224879E-03  0.9611187E+03  0.7818609E-02  0.9352248E-01
        1   -1    0    0  501    0  0.00000000000E+00  0.00000000000E+00  0.77853800078E+03  0.77853800079E+03  0.50400001928E-02 0. -1.
       -1   -1    0    0    0  501  0.00000000000E+00  0.00000000000E+00 -0.29662941209E+03  0.29662941213E+03  0.50400001928E-02 0.  1.
    10030    2    1    2    0    0  0.00000000000E+00  0.00000000000E+00  0.48190858868E+03  0.10751674129E+04  0.96111865967E+03 0.  0.
        3    1    3    3  502    0 -0.36604369181E+03 -0.28518139468E+03  0.10114006448E+03  0.47491655586E+03  0.10100000352E+00 0.  1.
       -3    1    3    3    0  502  0.36604369181E+03  0.28518139468E+03  0.38076852421E+03  0.60025085707E+03  0.10100000352E+00 0. -1.
</event>
<event>
 5   0  0.1191822E-02  0.1017753E+04  0.7818609E-02  0.9289286E-01
        2   -1    0    0  501    0  0.00000000000E+00  0.00000000000E+00  0.11256681827E+04  0.11256681827E+04  0.25500000920E-02 0. -1.
       -2   -1    0    0    0  501  0.00000000000E+00  0.00000000000E+00 -0.23004565667E+03  0.23004565668E+03  0.25500000920E-02 0.  1.
    10030    2    1    2    0    0  0.00000000000E+00  0.00000000000E+00  0.89562252608E+03  0.13557138394E+04  0.10177525756E+04 0.  0.
        4    1    3    3  502    0  0.17570181832E+03  0.13365513548E+03 -0.16293585954E+03  0.27438026792E+03  0.12699999809E+01 0.  1.
       -4    1    3    3    0  502 -0.17570181832E+03 -0.13365513548E+03  0.10585583856E+04  0.10813335715E+04  0.12699999809E+01 0. -1.
</event>
<event>
 5   0  0.7241200E-03  0.1000146E+04  0.7818609E-02  0.9308385E-01
        1   -1    0    0  501    0  0.00000000000E+00  0.00000000000E+00  0.13131128016E+04  0.13131128016E+04  0.50400001928E-02 0.  1.
       -1   -1    0    0    0  501  0.00000000000E+00  0.00000000000E+00 -0.19044271396E+03  0.19044271403E+03  0.50400001928E-02 0. -1.
    10030    2    1    2    0    0  0.00000000000E+00  0.00000000000E+00  0.11226700876E+04  0.15035555157E+04  0.10001455209E+04 0.  0.
        4    1    3    3  502    0  0.80513260979E+02 -0.19444925181E+03 -0.12062042275E+03  0.24257740210E+03  0.12699999809E+01 0. -1.
       -4    1    3    3    0  502 -0.80513260979E+02  0.19444925181E+03  0.12432905104E+04  0.12609781136E+04  0.12699999809E+01 0.  1.
</event>
<event>
 5   0  0.1240503E-02  0.9847182E+03  0.7818609E-02  0.9325466E-01
       -2   -1    0    0    0  501  0.00000000000E+00  0.00000000000E+00  0.74430368060E+03  0.74430368060E+03  0.25500000920E-02 0.  1.
        2   -1    0    0  501    0  0.00000000000E+00  0.00000000000E+00 -0.32569700810E+03  0.32569700811E+03  0.25500000920E-02 0. -1.
    10030    2    1    2    0    0  0.00000000000E+00  0.00000000000E+00  0.41860667249E+03  0.10700006887E+04  0.98471819705E+03 0.  0.
        1    1    3    3  502    0  0.69269335794E+02  0.34671783503E+03  0.58162405972E+03  0.68066000682E+03  0.50400001928E-02 0.  1.
       -1    1    3    3    0  502 -0.69269335794E+02 -0.34671783503E+03 -0.16301738723E+03  0.38934068189E+03  0.50400001928E-02 0. -1.
</event>
<event>
 5   0  0.6967681E-03  0.9750251E+03  0.7818609E-02  0.9336369E-01
        1   -1    0    0  501    0  0.00000000000E+00  0.00000000000E+00  0.59116888415E+03  0.59116888417E+03  0.50400001928E-02 0. -1.
       -1   -1    0    0    0  501  0.00000000000E+00  0.00000000000E+00 -0.40203142509E+03  0.40203142512E+03  0.50400001928E-02 0.  1.
    10030    2    1    2    0    0  0.00000000000E+00  0.00000000000E+00  0.18913745905E+03  0.99320030929E+03  0.97502506427E+03 0.  0.
        5    1    3    3  502    0  0.20195224669E+03  0.43989664833E+03  0.35587687113E+02  0.48536825672E+03  0.46999998093E+01 0.  1.
       -5    1    3    3    0  502 -0.20195224669E+03 -0.43989664833E+03  0.15354977194E+03  0.50783205257E+03  0.46999998093E+01 0. -1.
</event>
<event>
 5   0  0.1245850E-02  0.1011782E+04  0.7818609E-02  0.9295717E-01
       -2   -1    0    0    0  501  0.00000000000E+00  0.00000000000E+00  0.32481312315E+03  0.32481312316E+03  0.25500000920E-02 0. -1.
        2   -1    0    0  501    0  0.00000000000E+00  0.00000000000E+00 -0.78791611617E+03  0.78791611617E+03  0.25500000920E-02 0.  1.
    10030    2    1    2    0    0  0.00000000000E+00  0.00000000000E+00 -0.46310299301E+03  0.11127292393E+04  0.10117815861E+04 0.  0.
        3    1    3    3  502    0  0.43988286532E+03  0.17574960669E+03 -0.36235472321E+02  0.47507670866E+03  0.10100000352E+00 0.  1.
       -3    1    3    3    0  502 -0.43988286532E+03 -0.17574960669E+03 -0.42686752069E+03  0.63765253068E+03  0.10100000352E+00 0. -1.
</event>
<event>
 5   0  0.1240503E-02  0.1001121E+04  0.7818609E-02  0.9307316E-01
       -2   -1    0    0    0  501  0.00000000000E+00  0.00000000000E+00  0.36718168486E+03  0.36718168487E+03  0.25500000920E-02 0.  1.
        2   -1    0    0  501    0  0.00000000000E+00  0.00000000000E+00 -0.68238986469E+03  0.68238986470E+03  0.25500000920E-02 0. -1.
    10030    2    1    2    0    0  0.00000000000E+00  0.00000000000E+00 -0.31520817983E+03  0.10495715496E+04  0.10011214916E+04 0.  0.
        1    1    3    3  502    0  0.14468550893E+02 -0.48315458363E+03 -0.29394944104E+03  0.56573312132E+03  0.50400001928E-02 0. -1.
       -1    1    3    3    0  502 -0.14468550893E+02  0.48315458363E+03 -0.21258738789E+02  0.48383842825E+03  0.50400001928E-02 0.  1.
</event>
<event>
 5   0  0.6967681E-03  0.9926704E+03  0.7818609E-02  0.9316620E-01
       -1   -1    0    0    0  501  0.00000000000E+00  0.00000000000E+00  0.14733251695E+04  0.14733251695E+04  0.50400001928E-02 0.  1.
        1   -1    0    0  501    0  0.00000000000E+00  0.00000000000E+00 -0.16720588145E+03  0.16720588153E+03  0.50400001928E-02 0. -1.
    10030    2    1    2    0    0  0.00000000000E+00  0.00000000000E+00  0.13061192881E+04  0.16405310511E+04  0.99267040594E+03 0.  0.
        5    1    3    3  502    0 -0.60045913352E+02  0.17697512681E+03 -0.10679886469E+03  0.21529931425E+03  0.46999998093E+01 0. -1.
       -5    1    3    3    0  502  0.60045913352E+02 -0.17697512681E+03  0.14129181528E+04  0.14252317368E+04  0.46999998093E+01 0.  1.
</event>
<event>
 5   0  0.7461157E-03  0.9995608E+03  0.7818609E-02  0.9309027E-01
       -1   -1    0    0    0  501  0.00000000000E+00  0.00000000000E+00  0.93333856384E+03  0.93333856386E+03  0.50400001928E-02 0. -1.
        1   -1    0    0  501    0  0.00000000000E+00  0.00000000000E+00 -0.26762041662E+03  0.26762041667E+03  0.50400001928E-02 0.  1.
    10030    2    1    2    0    0  0.00000000000E+00  0.00000000000E+00  0.66571814722E+03  0.12009589805E+04  0.99956081424E+03 0.  0.
        2    1    3    3  502    0  0.25909866986E+03  0.37198356061E+03  0.80042283217E+02  0.46033754702E+03  0.25500000920E-02 0.  1.
       -2    1    3    3    0  502 -0.25909866986E+03 -0.37198356061E+03  0.58567586400E+03  0.74062143351E+03  0.25500000920E-02 0. -1.
</event>
<event>
 5   0  0.1216322E-02  0.9607587E+03  0.7818609E-02  0.9352663E-01
        2   -1    0    0  501    0  0.00000000000E+00  0.00000000000E+00  0.97117013401E+03  0.97117013401E+03  0.25500000920E-02 0.  1.
       -2   -1    0    0    0  501  0.00000000000E+00  0.00000000000E+00 -0.23761472814E+03  0.23761472815E+03  0.25500000920E-02 0. -1.
    10030    2    1    2    0    0  0.00000000000E+00  0.00000000000E+00  0.73355540587E+03  0.12087848622E+04  0.96075871556E+03 0.  0.
        2    1    3    3  502    0  0.39378566722E+03 -0.27048069797E+02  0.71125898234E+03  0.81344212441E+03  0.25500000920E-02 0.  1.
       -2    1    3    3    0  502 -0.39378566722E+03  0.27048069797E+02  0.22296423524E+02  0.39534273776E+03  0.25500000920E-02 0. -1.
</event>
<event>
 5   0  0.1216322E-02  0.1004452E+04  0.7818609E-02  0.9303675E-01
        2   -1    0    0  501    0  0.00000000000E+00  0.00000000000E+00  0.52088977806E+03  0.52088977807E+03  0.25500000920E-02 0. -1.
       -2   -1    0    0    0  501  0.00000000000E+00  0.00000000000E+00 -0.48423132564E+03  0.48423132565E+03  0.25500000920E-02 0.  1.
    10030    2    1    2    0    0  0.00000000000E+00  0.00000000000E+00  0.36658452415E+02  0.10051211037E+04  0.10044523836E+04 0.  0.
        2    1    3    3  502    0 -0.17042317751E+03 -0.80950897054E+02  0.48407871614E+03  0.51954721690E+03  0.25500000920E-02 0. -1.
       -2    1    3    3    0  502  0.17042317751E+03  0.80950897054E+02 -0.44742026372E+03  0.48557388682E+03  0.25500000920E-02 0.  1.
</event>
<event>
 5   0  0.7224879E-03  0.9968959E+03  0.7818609E-02  0.9311956E-01
        1   -1    0    0  501    0  0.00000000000E+00  0.00000000000E+00  0.37401109144E+03  0.37401109147E+03  0.50400001928E-02 0. -1.
       -1   -1    0    0    0  501  0.00000000000E+00  0.00000000000E+00 -0.66428607406E+03  0.66428607408E+03  0.50400001928E-02 0.  1.
    10030    2    1    2    0    0  0.00000000000E+00  0.00000000000E+00 -0.29027498262E+03  0.10382971656E+04  0.99689590151E+03 0.  0.
        3    1    3    3  502    0 -0.20198384706E+03  0.14150217508E+03  0.30601463449E+03  0.39302074595E+03  0.10100000352E+00 0. -1.
       -3    1    3    3    0  502  0.20198384706E+03 -0.14150217508E+03 -0.59628961711E+03  0.64527641960E+03  0.10100000352E+00 0.  1.
</event>
<event>
 5   0  0.7461157E-03  0.1001977E+04  0.7818609E-02  0.9306379E-01
       -1   -1    0    0    0  501  0.00000000000E+00  0.00000000000E+00  0.11090646903E+04  0.11090646904E+04  0.50400001928E-02 0.  1.
        1   -1    0    0  501    0  0.00000000000E+00  0.00000000000E+00 -0.22630748466E+03  0.22630748471E+03  0.50400001928E-02 0. -1.
    10030    2    1    2    0    0  0.00000000000E+00  0.00000000000E+00  0.88275720569E+03  0.13353721751E+04  0.10019773260E+04 0.  0.
        2    1    3    3  502    0  0.18760792337E+03 -0.30685300527E+03  0.90618508327E+03  0.97494969352E+03  0.25500000920E-02 0.  1.
       -2    1    3    3    0  502 -0.18760792337E+03  0.30685300527E+03 -0.23427877578E+02  0.36042248155E+03  0.25500000920E-02 0. -1.
</event>
<event>
 5   0  0.1240503E-02  0.9852124E+03  0.7818609E-02  0.9324914E-01
       -2   -1    0    0    0  501  0.00000000000E+00  0.00000000000E+00  0.39827454562E+03  0.39827454563E+03  0.25500000920E-02 0.  1.
        2   -1    0    0  501    0  0.00000000000E+00  0.00000000000E+00 -0.60928038691E+03  0.60928038692E+03  0.25500000920E-02 0. -1.
    10030    2    1    2    0    0  0.00000000000E+00  0.00000000000E+00 -0.21100584129E+03  0.10075549325E+04  0.98521240199E+03 0.  0.
        1    1    3    3  502    0 -0.33700455754E+03  0.33973247473E+03 -0.22507597835E+03  0.52881889361E+03  0.50400001928E-02 0.  1.
       -1    1    3    3    0  502  0.33700455754E+03 -0.33973247473E+03  0.14070137058E+02  0.47873603893E+03  0.50400001928E-02 0. -1.
</event>
<event>
 5   0  0.7241200E-03  0.1015090E+04  0.7818609E-02  0.9292147E-01
       -1   -1    0    0    0  501  0.00000000000E+00  0.00000000000E+00  0.22342319077E+03  0.22342319082E+03  0.50400001928E-02 0.  1.
        1   -1    0    0  501    0  0.00000000000E+00  0.00000000000E+00 -0.11529786765E+04  0.11529786765E+04  0.50400001928E-02 0. -1.
    10030    2    1    2    0    0  0.00000000000E+00  0.00000000000E+00 -0.92955548574E+03  0.13764018673E+04  0.10150904883E+04 0.  0.
        4    1    3    3  502    0  0.20504313918E+02  0.50708327230E+03 -0.47404289245E+03  0.69445816917E+03  0.12699999809E+01 0. -1.
       -4    1    3    3    0  502 -0.20504313918E+02 -0.50708327230E+03 -0.45551259328E+03  0.68194369817E+03  0.12699999809E+01 0.  1.
</event>
<event>
 5   0  0.1240503E-02  0.1017152E+04  0.7818609E-02  0.9289931E-01
       -2   -1    0    0    0  501  0.00000000000E+00  0.00000000000E+00  0.26588877034E+03  0.26588877035E+03  0.25500000920E-02 0.  1.
        2   -1    0    0  501    0  0.00000000000E+00  0.00000000000E+00 -0.97277276279E+03  0.97277276279E+03  0.25500000920E-02 0. -1.
    10030    2    1    2    0    0  0.00000000000E+00  0.00000000000E+00 -0.70688399246E+03  0.12386615331E+04  0.10171516184E+04 0.  0.
        1    1    3    3  502    0  0.40204443396E+03 -0.30436828886E+03 -0.27294375642E+03  0.57339173027E+03  0.50400001928E-02 0.  1.
       -1    1    3    3    0  502 -0.40204443396E+03  0.30436828886E+03 -0.43394023603E+03  0.66526980287E+03  0.50400001928E-02 0. -1.
</event>
<event>
 5   0  0.7073004E-03  0.9918727E+03  0.7818609E-02  0.9317504E-01
        1   -1    0    0  501    0  0.00000000000E+00  0.00000000000E+00  0.83136224648E+03  0.83136224649E+03  0.50400001928E-02 0.  1.
       -1   -1    0    0    0  501  0.00000000000E+00  0.00000000000E+00 -0.29584322419E+03  0.29584322423E+03  0.50400001928E-02 0. -1.
    10030    2    1    2    0    0  0.00000000000E+00  0.00000000000E+00  0.53551902229E+03  0.11272054707E+04  0.99187274890E+03 0.  0.
        1    1    3    3  502    0 -0.33530776248E+03  0.29653538446E+03  0.25112971159E+02  0.44832487234E+03  0.50400001928E-02 0. -1.
       -1    1    3    3    0  502  0.33530776248E+03 -0.29653538446E+03  0.51040605113E+03  0.67888059839E+03  0.50400001928E-02 0.  1.
</event>
<event>
 5   0  0.1191822E-02  0.9803641E+03  0.7818609E-02  0.9330347E-01
        2   -1    0    0  501    0  0.00000000000E+00  0.00000000000E+00  0.19842839879E+04  0.19842839879E+04  0.25500000920E-02 0.  1.
       -2   -1    0    0    0  501  0.00000000000E+00  0.00000000000E+00 -0.12109074323E+03  0.12109074326E+03  0.25500000920E-02 0. -1.
    10030    2    1    2    0    0  0.00000000000E+00  0.00000000000E+00  0.18631932447E+04  0.21053747312E+04  0.98036406076E+03 0.  0.
        4    1    3    3  502    0  0.32921668157E+03  0.28278303553E+03  0.14209678092E+04  0.14857661311E+04  0.12699999809E+01 0.  1.
       -4    1    3    3    0  502 -0.32921668157E+03 -0.28278303553E+03  0.44222543547E+03  0.61960860007E+03  0.12699999809E+01 0. -1.
</event>
<event>
 5   0  0.6967681E-03  0.9930300E+03  0.7818609E-02  0.9316223E-01
        1   -1    0    0  501    0  0.00000000000E+00  0.00000000000E+00  0.86373671696E+03  0.86373671697E+03  0.50400001928E-02 0.  1.
       -1   -1    0    0    0  501  0.00000000000E+00  0.00000000000E+00 -0.28541928998E+03  0.28541929003E+03  0.50400001928E-02 0. -1.
    10030    2    1    2    0    0  0.00000000000E+00  0.00000000000E+00  0.57831742697E+03  0.11491560070E+04  0.99302995024E+03 0.  0.
        5    1    3    3  502    0  0.58592050599E+02 -0.40524368290E+03  0.61410851825E+03  0.73811031229E+03  0.46999998093E+01 0.  1.
       -5    1    3    3    0  502 -0.58592050599E+02  0.40524368290E+03 -0.35791091275E+02  0.41104569471E+03  0.46999998093E+01 0. -1.
</event>
<event>
 5   0  0.1245850E-02  0.9372478E+03  0.7818609E-02  0.9380181E-01
       -2   -1    0    0    0  501  0.00000000000E+00  0.00000000000E+00  0.16195793931E+03  0.16195793933E+03  0.25500000920E-02 0. -1.
        2   -1    0    0  501    0  0.00000000000E+00  0.00000000000E+00 -0.13559592434E+04  0.13559592434E+04  0.25500000920E-02 0.  1.
    10030    2    1    2    0    0  0.00000000000E+00  0.00000000000E+00 -0.11940013041E+04  0.15179171827E+04  0.93724781114E+03 0.  0.
        3    1    3    3  502    0  0.14626199098E+03  0.19804880391E+03  0.48775348963E+02  0.25098793518E+03  0.10100000352E+00 0. -1.
       -3    1    3    3    0  502 -0.14626199098E+03 -0.19804880391E+03 -0.12427766531E+04  0.12669292476E+04  0.10100000352E+00 0.  1.
</event>
<event>
 5   0  0.1216322E-02  0.9964215E+03  0.7818609E-02  0.9312478E-01
       -2   -1    0    0    0  501  0.00000000000E+00  0.00000000000E+00  0.26952940681E+03  0.26952940682E+03  0.25500000920E-02 0.  1.
        2   -1    0    0  501    0  0.00000000000E+00  0.00000000000E+00 -0.92091596828E+03  0.92091596828E+03  0.25500000920E-02 0. -1.
    10030    2    1    2    0    0  0.00000000000E+00  0.00000000000E+00 -0.65138656147E+03  0.11904453751E+04  0.99642146637E+03 0.  0.
        2    1    3    3  502    0  0.22102516729E+03 -0.44533733906E+03 -0.36415632170E+03  0.61626885105E+03  0.25500000920E-02 0. -1.
       -2    1    3    3    0  502 -0.22102516729E+03  0.44533733906E+03 -0.28723023978E+03  0.57417652406E+03  0.25500000920E-02 0.  1.
</event>
<event>
 5   0  0.1240503E-02  0.1044397E+04  0.7818609E-02  0.9261148E-01
       -2   -1    0    0    0  501  0.00000000000E+00  0.00000000000E+00  0.15328071110E+03  0.15328071112E+03  0.25500000920E-02 0. -1.
        2   -1    0    0  501    0  0.00000000000E+00  0.00000000000E+00 -0.17790316625E+04  0.17790316625E+04  0.25500000920E-02 0.  1.
    10030    2    1    2    0    0  0.00000000000E+00  0.00000000000E+00 -0.16257509514E+04  0.19323123736E+04  0.10443969328E+04 0.  0.
        1    1    3    3  502    0 -0.65290191345E+02  0.24137774380E+03  0.35312603423E+02  0.25253317460E+03  0.50400001928E-02 0. -1.
       -1    1    3    3    0  502  0.65290191345E+02 -0.24137774380E+03 -0.16610635548E+04  0.16797791990E+04  0.50400001928E-02 0.  1.
</event>
<event>
 5   0  0.7461157E-03  0.9220292E+03  0.7818609E-02  0.9398455E-01
       -1   -1    0    0    0  501  0.00000000000E+00  0.00000000000E+00  0.19239492544E+03  0.19239492550E+03  0.50400001928E-02 0. -1.
        1   -1    0    0  501    0  0.00000000000E+00  0.00000000000E+00 -0.11046779900E+04  0.11046779900E+04  0.50400001928E-02 0.  1.
    10030    2    1    2    0    0  0.00000000000E+00  0.00000000000E+00 -0.91228306456E+03  0.12970729155E+04  0.92202915262E+03 0.  0.
        2    1    3    3  502    0  0.45811351371E+03 -0.45545542882E+02 -0.42191211294E+03  0.62446154323E+03  0.25500000920E-02 0. -1.
       -2    1    3    3    0  502 -0.45811351371E+03  0.45545542882E+02 -0.49037095162E+03  0.67261137228E+03  0.25500000920E-02 0.  1.
</event>
<event>
 5   0  0.1216322E-02  0.9605763E+03  0.7818609E-02  0.9352873E-01
        2   -1    0    0  501    0  0.00000000000E+00  0.00000000000E+00  0.86453687841E+03  0.86453687842E+03  0.25500000920E-02 0. -1.
       -2   -1    0    0    0  501  0.00000000000E+00  0.00000000000E+00 -0.26682115311E+03  0.26682115312E+03  0.25500000920E-02 0.  1.
    10030    2    1    2    0    0  0.00000000000E+00  0.00000000000E+00  0.59771572531E+03  0.11313580315E+04  0.96057634118E+03 0.  0.
        2    1    3    3  502    0  0.39918148572E+02 -0.29784384813E+03  0.74013243464E+03  0.79881189104E+03  0.25500000920E-02 0. -1.
       -2    1    3    3    0  502 -0.39918148572E+02  0.29784384813E+03 -0.14241670933E+03  0.33254614050E+03  0.25500000920E-02 0.  1.
</event>
<event>
 5   0  0.7224879E-03  0.1002003E+04  0.7818609E-02  0.9306350E-01
       -1   -1    0    0    0  501  0.00000000000E+00  0.00000000000E+00  0.58982548530E+03  0.58982548532E+03  0.50400001928E-02 0. -1.
        1   -1    0    0  501    0  0.00000000000E+00  0.00000000000E+00 -0.42555410119E+03  0.42555410122E+03  0.50400001928E-02 0.  1.
    10030    2    1    2    0    0  0.00000000000E+00  0.00000000000E+00  0.16427138411E+03  0.10153795865E+04  0.10020033020E+04 0.  0.
        3    1    3    3  502    0  0.11625701292E+03  0.28004691069E+03 -0.32201254725E+03  0.44230538774E+03  0.10100000352E+00 0.  1.
       -3    1    3    3    0  502 -0.11625701292E+03 -0.28004691069E+03  0.48628393135E+03  0.57307419880E+03  0.10100000352E+00 0. -1.
</event>
<event>
 5   0  0.7241200E-03  0.9576227E+03  0.7818609E-02  0.9356285E-01
        1   -1    0    0  501    0  0.00000000000E+00  0.00000000000E+00  0.51521283974E+03  0.51521283977E+03  0.50400001928E-02 0. -1.
       -1   -1    0    0    0  501  0.00000000000E+00  0.00000000000E+00 -0.44498174467E+03  0.44498174469E+03  0.50400001928E-02 0.  1.
    10030    2    1    2    0    0  0.00000000000E+00  0.00000000000E+00  0.70231095076E+02  0.96019458446E+03  0.95762269883E+03 0.  0.
        4    1    3    3  502    0 -0.46402808944E+03  0.67068894992E+02  0.13252784852E+03  0.48722227781E+03  0.12699999809E+01 0.  1.
       -4    1    3    3    0  502  0.46402808944E+03 -0.67068894992E+02 -0.62296753441E+02  0.47297230665E+03  0.12699999809E+01 0. -1.
</event>
<event>
 5   0  0.7461157E-03  0.8809160E+03  0.7818609E-02  0.9449757E-01
       -1   -1    0    0    0  501  0.00000000000E+00  0.00000000000E+00  0.25398067390E+03  0.25398067395E+03  0.50400001928E-02 0.  1.
        1   -1    0    0  501    0  0.00000000000E+00  0.00000000000E+00 -0.76385043886E+03  0.76385043887E+03  0.50400001928E-02 0. -1.
    10030    2    1    2    0    0  0.00000000000E+00  0.00000000000E+00 -0.50986976496E+03  0.10178311128E+04  0.88091599884E+03 0.  0.
        2    1    3    3  502    0  0.32472221755E+03 -0.29247622091E+03 -0.31839268577E+03  0.54070394924E+03  0.25500000920E-02 0.  1.
       -2    1    3    3    0  502 -0.32472221755E+03  0.29247622091E+03 -0.19147707919E+03  0.47712716358E+03  0.25500000920E-02 0. -1.
</event>
<event>
 5   0  0.6967681E-03  0.9968697E+03  0.7818609E-02  0.9311985E-01
       -1   -1    0    0    0  501  0.00000000000E+00  0.00000000000E+00  0.43035557064E+03  0.43035557067E+03  0.50400001928E-02 0. -1.
        1   -1    0    0  501    0  0.00000000000E+00  0.00000000000E+00 -0.57728385628E+03  0.57728385630E+03  0.50400001928E-02 0.  1.
    10030    2    1    2    0    0  0.00000000000E+00  0.00000000000E+00 -0.14692828564E+03  0.10076394270E+04  0.99686974759E+03 0.  0.
        5    1    3    3  502    0  0.45541558274E+03  0.20208624029E+03 -0.60167872917E+02  0.50188092656E+03  0.46999998093E+01 0. -1.
       -5    1    3    3    0  502 -0.45541558274E+03 -0.20208624029E+03 -0.86760412718E+02  0.50575850040E+03  0.46999998093E+01 0.  1.
</event>
<event>
 5   0  0.1240503E-02  0.9965407E+03  0.7818609E-02  0.9312347E-01
       -2   -1    0    0    0  501  0.00000000000E+00  0.00000000000E+00  0.52138512534E+03  0.52138512534E+03  0.25500000920E-02 0.  1.
        2   -1    0    0  501    0  0.00000000000E+00  0.00000000000E+00 -0.47618032554E+03  0.47618032555E+03  0.25500000920E-02 0. -1.
    10030    2    1    2    0    0  0.00000000000E+00  0.00000000000E+00  0.45204799796E+02  0.99756545089E+03  0.99654069405E+03 0.  0.
        1    1    3    3  502    0  0.16495599582E+03  0.22529141925E+03 -0.39050421112E+03  0.48006274910E+03  0.50400001928E-02 0. -1.
       -1    1    3    3    0  502 -0.16495599582E+03 -0.22529141925E+03  0.43570901092E+03  0.51750270179E+03  0.50400001928E-02 0.  1.
</event>
<event>
 5   0  0.1191822E-02  0.9553353E+03  0.7818609E-02  0.9358936E-01
       -2   -1    0    0    0  501  0.00000000000E+00  0.00000000000E+00  0.38834694034E+03  0.38834694035E+03  0.25500000920E-02 0. -1.
        2   -1    0    0  501    0  0.00000000000E+00  0.00000000000E+00 -0.58753235821E+03  0.58753235822E+03  0.25500000920E-02 0.  1.
    10030    2    1    2    0    0  0.00000000000E+00  0.00000000000E+00 -0.19918541787E+03  0.97587929857E+03  0.95533532055E+03 0.  0.
        4    1    3    3  502    0 -0.69873821352E+02 -0.47096776947E+03 -0.13878161957E+03  0.49593844540E+03  0.12699999809E+01 0.  1.
       -4    1    3    3    0  502  0.69873821352E+02  0.47096776947E+03 -0.60403798295E+02  0.47994085317E+03  0.12699999809E+01 0. -1.
</event>
<event>
 5   0  0.1245850E-02  0.9657453E+03  0.7818609E-02  0.9346934E-01
       -2   -1    0    0    0  501  0.00000000000E+00  0.00000000000E+00  0.45437090085E+03  0.45437090086E+03  0.25500000920E-02 0. -1.
        2   -1    0    0  501    0  0.00000000000E+00  0.00000000000E+00 -0.51316220273E+03  0.51316220273E+03  0.25500000920E-02 0.  1.
    10030    2    1    2    0    0  0.00000000000E+00  0.00000000000E+00 -0.58791301874E+02  0.96753310359E+03  0.96574525076E+03 0.  0.
        3    1    3    3  502    0  0.21269915462E+02  0.22638561826E+02 -0.51216016566E+03  0.51310131483E+03  0.10100000352E+00 0.  1.
       -3    1    3    3    0  502 -0.21269915462E+02 -0.22638561826E+02  0.45336886379E+03  0.45443178876E+03  0.10100000352E+00 0. -1.
</event>
<event>
 5   0  0.7461157E-03  0.9489467E+03  0.7818609E-02  0.9366383E-01
        1   -1    0    0  501    0  0.00000000000E+00  0.00000000000E+00  0.85783502206E+03  0.85783502207E+03  0.50400001928E-02 0.  1.
       -1   -1    0    0    0  501  0.00000000000E+00  0.00000000000E+00 -0.26243383738E+03  0.26243383743E+03  0.50400001928E-02 0. -1.
    10030    2    1    2    0    0  0.00000000000E+00  0.00000000000E+00  0.59540118468E+03  0.11202688595E+04  0.94894665122E+03 0.  0.
        2    1    3    3  502    0  0.40844316231E+03 -0.59947749303E+02  0.57381909816E+03  0.70688606360E+03  0.25500000920E-02 0.  1.
       -2    1    3    3    0  502 -0.40844316231E+03  0.59947749303E+02  0.21582086515E+02  0.41338279591E+03  0.25500000920E-02 0. -1.
</event>
<event>
 5   0  0.4782125E-03  0.1002823E+04  0.7818609E-02  0.9305454E-01
        4   -1    0    0  501    0  0.00000000000E+00  0.00000000000E+00  0.77332165520E+03  0.77332269804E+03  0.12699999809E+01 0. -1.
       -4   -1    0    0    0  501  0.00000000000E+00  0.00000000000E+00 -0.32510609357E+03  0.32510857413E+03  0.12699999809E+01 0.  1.
    10030    2    1    2    0    0  0.00000000000E+00  0.00000000000E+00  0.44821556163E+03  0.10984312722E+04  0.10028230502E+04 0.  0.
        1    1    3    3  502    0 -0.13696907798E+03  0.47971397407E+03  0.16904051726E+03  0.52674540505E+03  0.50400001928E-02 0. -1.
       -1    1    3    3    0  502  0.13696907798E+03 -0.47971397407E+03  0.27917504437E+03  0.57168586712E+03  0.50400001928E-02 0.  1.
</event>
<event>
 5   0  0.6967681E-03  0.1027350E+04  0.7818609E-02  0.9279047E-01
       -1   -1    0    0    0  501  0.00000000000E+00  0.00000000000E+00  0.39129221658E+03  0.39129221661E+03  0.50400001928E-02 0. -1.
        1   -1    0    0  501    0  0.00000000000E+00  0.00000000000E+00 -0.67433443563E+03  0.67433443565E+03  0.50400001928E-02 0.  1.
    10030    2    1    2    0    0  0.00000000000E+00  0.00000000000E+00 -0.28304221905E+03  0.10656266523E+04  0.10273496310E+04 0.  0.
        5    1    3    3  502    0  0.99435541209E+02 -0.14234173711E+02 -0.66402504133E+03  0.67159614655E+03  0.46999998093E+01 0.  1.
       -5    1    3    3    0  502 -0.99435541209E+02  0.14234173711E+02  0.38098282228E+03  0.39403050571E+03  0.46999998093E+01 0. -1.
</event>
<event>
 5   0  0.6967681E-03  0.1014359E+04  0.7818609E-02  0.9292935E-01
        1   -1    0    0  501    0  0.00000000000E+00  0.00000000000E+00  0.95347533317E+03  0.95347533318E+03  0.50400001928E-02 0. -1.
       -1   -1    0    0    0  501  0.00000000000E+00  0.00000000000E+00 -0.26978236929E+03  0.26978236934E+03  0.50400001928E-02 0.  1.
    10030    2    1    2    0    0  0.00000000000E+00  0.00000000000E+00  0.68369296388E+03  0.12232577025E+04  0.10143585845E+04 0.  0.
        5    1    3    3  502    0  0.38724437367E+03  0.18326605854E+03  0.14540179345E+02  0.42869355018E+03  0.46999998093E+01 0. -1.
       -5    1    3    3    0  502 -0.38724437367E+03 -0.18326605854E+03  0.66915278453E+03  0.79456415235E+03  0.46999998093E+01 0.  1.
</event>
<event>
 5   0  0.7241200E-03  0.1047865E+04  0.7818609E-02  0.9257551E-01
        1   -1    0    0  501    0  0.00000000000E+00  0.00000000000E+00  0.13142533900E+04  0.13142533900E+04  0.50400001928E-02 0.  1.
       -1   -1    0    0    0  501  0.00000000000E+00  0.00000000000E+00 -0.20886800916E+03  0.20886800922E+03  0.50400001928E-02 0. -1.
    10030    2    1    2    0    0  0.00000000000E+00  0.00000000000E+00  0.11053853809E+04  0.15231213993E+04  0.10478654287E+04 0.  0.
        4    1    3    3  502    0 -0.51099095776E+03  0.10076982255E+03  0.63539886520E+03  0.82158362134E+03  0.12699999809E+01 0. -1.
       -4    1    3    3    0  502  0.51099095776E+03 -0.10076982255E+03  0.46998651568E+03  0.70153777793E+03  0.12699999809E+01 0.  1.
</event>
<event>
 5   0  0.7073004E-03  0.1011666E+04  0.7818609E-02  0.9295841E-01
        1   -1    0    0  501    0  0.00000000000E+00  0.00000000000E+00  0.15934635835E+04  0.15934635835E+04  0.50400001928E-02 0. -1.
       -1   -1    0    0    0  501  0.00000000000E+00  0.00000000000E+00 -0.16057289489E+03  0.16057289496E+03  0.50400001928E-02 0.  1.
    10030    2    1    2    0    0  0.00000000000E+00  0.00000000000E+00  0.14328906886E+04  0.17540364784E+04  0.10116660725E+04 0.  0.
        1    1    3    3  502    0  0.26954429858E+03 -0.33778538110E+03  0.11722558692E+04  0.12493746098E+04  0.50400001928E-02 0. -1.
       -1    1    3    3    0  502 -0.26954429858E+03  0.33778538110E+03  0.26063481932E+03  0.50466186863E+03  0.50400001928E-02 0.  1.
</event>
<event>
 5   0  0.1191822E-02  0.1039288E+04  0.7818609E-02  0.9266474E-01
       -2   -1    0    0    0  501  0.00000000000E+00  0.00000000000E+00  0.27562122476E+03  0.27562122477E+03  0.25500000920E-02 0. -1.
        2   -1    0    0  501    0  0.00000000000E+00  0.00000000000E+00 -0.97971299721E+03  0.97971299722E+03  0.25500000920E-02 0.  1.
    10030    2    1    2    0    0  0.00000000000E+00  0.00000000000E+00 -0.70409177245E+03  0.12553342220E+04  0.10392876334E+04 0.  0.
        4    1    3    3  502    0 -0.11422788614E+03  0.50585774490E+03 -0.31220388861E+03  0.60532053410E+03  0.12699999809E+01 0. -1.
       -4    1    3    3    0  502  0.11422788614E+03 -0.50585774490E+03 -0.39188788383E+03  0.65001368789E+03  0.12699999809E+01 0.  1.
</event>
<event>
 5   0  0.1221315E-02  0.9813252E+03  0.7818609E-02  0.9329267E-01
       -2   -1    0    0    0  501  0.00000000000E+00  0.00000000000E+00  0.18907883190E+03  0.18907883191E+03  0.25500000920E-02 0.  1.
        2   -1    0    0  501    0  0.00000000000E+00  0.00000000000E+00 -0.12732773019E+04  0.12732773019E+04  0.25500000920E-02 0. -1.
    10030    2    1    2    0    0  0.00000000000E+00  0.00000000000E+00 -0.10841984700E+04  0.14623561338E+04  0.98132519571E+03 0.  0.
        5    1    3    3  502    0  0.12669791438E+03 -0.43911710458E+03 -0.27614607235E+03  0.53399900404E+03  0.46999998093E+01 0.  1.
       -5    1    3    3    0  502 -0.12669791438E+03  0.43911710458E+03 -0.80805239762E+03  0.92835712975E+03  0.46999998093E+01 0. -1.
</event>
<event>
 5   0  0.6967681E-03  0.9336993E+03  0.7818609E-02  0.9384409E-01
        1   -1    0    0  501    0  0.00000000000E+00  0.00000000000E+00  0.10227013883E+04  0.10227013883E+04  0.50400001928E-02 0.  1.
       -1   -1    0    0    0  501  0.00000000000E+00  0.00000000000E+00 -0.21311068288E+03  0.21311068294E+03  0.50400001928E-02 0. -1.
    10030    2    1    2    0    0  0.00000000000E+00  0.00000000000E+00  0.80959070538E+03  0.12358120712E+04  0.93369929052E+03 0.  0.
        5    1    3    3  502    0  0.17093337646E+02 -0.46552333693E+03  0.44499214197E+03  0.64423928461E+03  0.46999998093E+01 0.  1.
       -5    1    3    3    0  502 -0.17093337646E+02  0.46552333693E+03  0.36459856341E+03  0.59157278660E+03  0.46999998093E+01 0. -1.
</event>
<event>
 5   0  0.1240503E-02  0.9740683E+03  0.7818609E-02  0.9337453E-01
       -2   -1    0    0    0  501  0.00000000000E+00  0.00000000000E+00  0.22767878154E+03  0.22767878155E+03  0.25500000920E-02 0. -1.
        2   -1    0    0  501    0  0.00000000000E+00  0.00000000000E+00 -0.10418286569E+04  0.10418286569E+04  0.25500000920E-02 0.  1.
    10030    2    1    2    0    0  0.00000000000E+00  0.00000000000E+00 -0.81414987539E+03  0.12695074385E+04  0.97406833269E+03 0.  0.
        1    1    3    3  502    0 -0.16287782358E+03 -0.16803721175E+03 -0.96375003985E+03  0.99175593231E+03  0.50400001928E-02 0.  1.
       -1    1    3    3    0  502  0.16287782358E+03  0.16803721175E+03  0.14960016446E+03  0.27775150617E+03  0.50400001928E-02 0. -1.
</event>
<event>
 5   0  0.1216322E-02  0.8536618E+03  0.7818609E-02  0.9485435E-01
       -2   -1    0    0    0  501  0.00000000000E+00  0.00000000000E+00  0.15659548596E+03  0.15659548598E+03  0.25500000920E-02 0. -1.
        2   -1    0    0  501    0  0.00000000000E+00  0.00000000000E+00 -0.11634091915E+04  0.11634091915E+04  0.25500000920E-02 0.  1.
    10030    2    1    2    0    0  0.00000000000E+00  0.00000000000E+00 -0.10068137056E+04  0.13200046775E+04  0.85366182468E+03 0.  0.
        2    1    3    3  502    0  0.15730690191E+03  0.12207298549E+03 -0.10871932264E+04  0.11052766110E+04  0.25500000920E-02 0.  1.
       -2    1    3    3    0  502 -0.15730690191E+03 -0.12207298549E+03  0.80379520860E+02  0.21472806653E+03  0.25500000920E-02 0. -1.
</event>
<event>
 5   0  0.1216322E-02  0.9914013E+03  0.7818609E-02  0.9318026E-01
       -2   -1    0    0    0  501  0.00000000000E+00  0.00000000000E+00  0.10531168732E+04  0.10531168732E+04  0.25500000920E-02 0.  1.
        2   -1    0    0  501    0  0.00000000000E+00  0.00000000000E+00 -0.23332563044E+03  0.23332563046E+03  0.25500000920E-02 0. -1.
    10030    2    1    2    0    0  0.00000000000E+00  0.00000000000E+00  0.81979124276E+03  0.12864425037E+04  0.99140134836E+03 0.  0.
        2    1    3    3  502    0 -0.34752908330E+03  0.54864909661E+02  0.86300252498E+03  0.93196565397E+03  0.25500000920E-02 0.  1.
       -2    1    3    3    0  502  0.34752908330E+03 -0.54864909661E+02 -0.43211282223E+02  0.35447684969E+03  0.25500000920E-02 0. -1.
</event>
<event>
 5   0  0.7241200E-03  0.9785251E+03  0.7818609E-02  0.9332417E-01
       -1   -1    0    0    0  501  0.00000000000E+00  0.00000000000E+00  0.13398933134E+03  0.13398933143E+03  0.50400001928E-02 0. -1.
        1   -1    0    0  501    0  0.00000000000E+00  0.00000000000E+00 -0.17865441527E+04  0.17865441527E+04  0.50400001928E-02 0.  1.
    10030    2    1    2    0    0  0.00000000000E+00  0.00000000000E+00 -0.16525548214E+04  0.19205334842E+04  0.97852512798E+03 0.  0.
        4    1    3    3  502    0 -0.44721040384E+03  0.14242444430E+03 -0.55506932341E+03  0.72690125487E+03  0.12699999809E+01 0. -1.
       -4    1    3    3    0  502  0.44721040384E+03 -0.14242444430E+03 -0.10974854980E+04  0.11936322293E+04  0.12699999809E+01 0.  1.
</event>
<event>
 5   0  0.7073004E-03  0.1003886E+04  0.7818609E-02  0.9304293E-01
        1   -1    0    0  501    0  0.00000000000E+00  0.00000000000E+00  0.85103613790E+03  0.85103613792E+03  0.50400001928E-02 0.  1.
       -1   -1    0    0    0  501  0.00000000000E+00  0.00000000000E+00 -0.29604714559E+03  0.29604714563E+03  0.50400001928E-02 0. -1.
    10030    2    1    2    0    0  0.00000000000E+00  0.00000000000E+00  0.55498899231E+03  0.11470832836E+04  0.10038860881E+04 0.  0.
        1    1    3    3  502    0 -0.87631070834E+02  0.48185068341E+03  0.40312044789E+03  0.63432277368E+03  0.50400001928E-02 0.  1.
       -1    1    3    3    0  502  0.87631070834E+02 -0.48185068341E+03  0.15186854442E+03  0.51276050987E+03  0.50400001928E-02 0. -1.
</event>
<event>
 5   0  0.1221315E-02  0.9921949E+03  0.7818609E-02  0.9317147E-01
       -2   -1    0    0    0  501  0.00000000000E+00  0.00000000000E+00  0.31504952841E+03  0.31504952842E+03  0.25500000920E-02 0. -1.
        2   -1    0    0  501    0  0.00000000000E+00  0.00000000000E+00 -0.78118734146E+03  0.78118734146E+03  0.25500000920E-02 0.  1.
    10030    2    1    2    0    0  0.00000000000E+00  0.00000000000E+00 -0.46613781305E+03  0.10962368699E+04  0.99219494765E+03 0.  0.
        5    1    3    3  502    0 -0.24295072365E+03 -0.87132150143E+02 -0.70113546914E+03  0.74714797851E+03  0.46999998093E+01 0.  1.
       -5    1    3    3    0  502  0.24295072365E+03  0.87132150143E+02  0.23499765609E+03  0.34908889137E+03  0.46999998093E+01 0. -1.
</event>
<event>
 5   0  0.6967681E-03  0.1006690E+04  0.7818609E-02  0.9301238E-01
       -1   -1    0    0    0  501  0.00000000000E+00  0.00000000000E+00  0.22403651058E+03  0.22403651063E+03  0.50400001928E-02 0.  1.
        1   -1    0    0  501    0  0.00000000000E+00  0.00000000000E+00 -0.11308696969E+04  0.11308696969E+04  0.50400001928E-02 0. -1.
    10030    2    1    2    0    0  0.00000000000E+00  0.00000000000E+00 -0.90683318631E+03  0.13549062075E+04  0.10066898248E+04 0.  0.
        5    1    3    3  502    0 -0.33053714975E+03 -0.37897404908E+03 -0.48221618694E+03  0.69672855416E+03  0.46999998093E+01 0.  1.
       -5    1    3    3    0  502  0.33053714975E+03  0.37897404908E+03 -0.42461699937E+03  0.65817765337E+03  0.46999998093E+01 0. -1.
</event>
<event>
 5   0  0.1216322E-02  0.9854105E+03  0.7818609E-02  0.9324693E-01
       -2   -1    0    0    0  501  0.00000000000E+00  0.00000000000E+00  0.48689773817E+03  0.48689773817E+03  0.25500000920E-02 0.  1.
        2   -1    0    0  501    0  0.00000000000E+00  0.00000000000E+00 -0.49858201461E+03  0.49858201461E+03  0.25500000920E-02 0. -1.
    10030    2    1    2    0    0  0.00000000000E+00  0.00000000000E+00 -0.11684276441E+02  0.98547975278E+03  0.98541048342E+03 0.  0.
        2    1    3    3  502    0 -0.37339788079E+03  0.33996430442E+02 -0.32551554352E+03  0.49653006328E+03  0.25500000920E-02 0. -1.
       -2    1    3    3    0  502  0.37339788079E+03 -0.33996430442E+02  0.31383126708E+03  0.48894968950E+03  0.25500000920E-02 0.  1.
</event>
<event>
 5   0  0.1191822E-02  0.8417001E+03  0.7818609E-02  0.9501545E-01
        2   -1    0    0  501    0  0.00000000000E+00  0.00000000000E+00  0.56355499953E+03  0.56355499954E+03  0.25500000920E-02 0. -1.
       -2   -1    0    0    0  501  0.00000000000E+00  0.00000000000E+00 -0.31428122556E+03  0.31428122557E+03  0.25500000920E-02 0.  1.
    10030    2    1    2    0    0  0.00000000000E+00  0.00000000000E+00  0.24927377397E+03  0.87783622511E+03  0.84170007944E+03 0.  0.
        4    1    3    3  502    0  0.35497019239E+02 -0.36706937596E+03  0.33610585902E+03  0.49896766079E+03  0.12699999809E+01 0.  1.
       -4    1    3    3    0  502 -0.35497019239E+02  0.36706937596E+03 -0.86832085050E+02  0.37886856433E+03  0.12699999809E+01 0. -1.
</event>
<event>
 5   0  0.7241200E-03  0.1220775E+04  0.7818609E-02  0.9094864E-01
       -1   -1    0    0    0  501  0.00000000000E+00  0.00000000000E+00  0.74305096978E+03  0.74305096980E+03  0.50400001928E-02 0.  1.
        1   -1    0    0  501    0  0.00000000000E+00  0.00000000000E+00 -0.50140992245E+03  0.50140992247E+03  0.50400001928E-02 0. -1.
    10030    2    1    2    0    0  0.00000000000E+00  0.00000000000E+00  0.24164104733E+03  0.12444608923E+04  0.12207753752E+04 0.  0.
        4    1    3    3  502    0 -0.32195451282E+03 -0.36378712681E+03 -0.25591126278E+03  0.54907920128E+03  0.12699999809E+01 0. -1.
       -4    1    3    3    0  502  0.32195451282E+03  0.36378712681E+03  0.49755231012E+03  0.69538169099E+03  0.12699999809E+01 0.  1.
</event>
<event>
 5   0  0.1221315E-02  0.9955874E+03  0.7818609E-02  0.9313398E-01
        2   -1    0    0  501    0  0.00000000000E+00  0.00000000000E+00  0.24665235014E+04  0.24665235014E+04  0.25500000920E-02 0. -1.
       -2   -1    0    0    0  501  0.00000000000E+00  0.00000000000E+00 -0.10046470720E+03  0.10046470723E+03  0.25500000920E-02 0.  1.
    10030    2    1    2    0    0  0.00000000000E+00  0.00000000000E+00  0.23660587942E+04  0.25669882086E+04  0.99558738725E+03 0.  0.
        5    1    3    3  502    0  0.41917135707E+03 -0.26587860232E+03  0.12788257799E+04  0.13717920845E+04  0.46999998093E+01 0. -1.
       -5    1    3    3    0  502 -0.41917135707E+03  0.26587860232E+03  0.10872330142E+04  0.11951961241E+04  0.46999998093E+01 0.  1.
</event>
<event>
 5   0  0.1245850E-02  0.9975472E+03  0.7818609E-02  0.9311239E-01
       -2   -1    0    0    0  501  0.00000000000E+00  0.00000000000E+00  0.33013529730E+03  0.33013529731E+03  0.25500000920E-02 0.  1.
        2   -1    0    0  501    0  0.00000000000E+00  0.00000000000E+00 -0.75355506011E+03  0.75355506011E+03  0.25500000920E-02 0. -1.
    10030    2    1    2    0    0  0.00000000000E+00  0.00000000000E+00 -0.42341976280E+03  0.10836903574E+04  0.99754723961E+03 0.  0.
        3    1    3    3  502    0 -0.91726993584E+02  0.22083579280E+03 -0.68722174676E+03  0.72763729162E+03  0.10100000352E+00 0. -1.
       -3    1    3    3    0  502  0.91726993584E+02 -0.22083579280E+03  0.26380198396E+03  0.35605306581E+03  0.10100000352E+00 0.  1.
</event>
<event>
 5   0  0.1191822E-02  0.1118905E+04  0.7818609E-02  0.9186959E-01
        2   -1    0    0  501    0  0.00000000000E+00  0.00000000000E+00  0.71107157239E+03  0.71107157239E+03  0.25500000920E-02 0.  1.
       -2   -1    0    0    0  501  0.00000000000E+00  0.00000000000E+00 -0.44016250498E+03  0.44016250499E+03  0.25500000920E-02 0. -1.
    10030    2    1    2    0    0  0.00000000000E+00  0.00000000000E+00  0.27090906740E+03  0.11512340774E+04  0.11189049013E+04 0.  0.
        4    1    3    3  502    0 -0.27802965333E+03  0.28719884460E+03  0.53817374506E+03  0.67038515589E+03  0.12699999809E+01 0.  1.
       -4    1    3    3    0  502  0.27802965333E+03 -0.28719884460E+03 -0.26726467766E+03  0.48084892149E+03  0.12699999809E+01 0. -1.
</event>
<event>
 5   0  0.7461157E-03  0.1002216E+04  0.7818609E-02  0.9306117E-01
       -1   -1    0    0    0  501  0.00000000000E+00  0.00000000000E+00  0.27515392447E+03  0.27515392452E+03  0.50400001928E-02 0.  1.
        1   -1    0    0  501    0  0.00000000000E+00  0.00000000000E+00 -0.91261410487E+03  0.91261410489E+03  0.50400001928E-02 0. -1.
    10030    2    1    2    0    0  0.00000000000E+00  0.00000000000E+00 -0.63746018040E+03  0.11877680294E+04  0.10022162492E+04 0.  0.
        2    1    3    3  502    0 -0.20308643097E+03  0.24392980315E+03  0.14082905424E+03  0.34724439496E+03  0.25500000920E-02 0.  1.
       -2    1    3    3    0  502  0.20308643097E+03 -0.24392980315E+03 -0.77828923463E+03  0.84052363444E+03  0.25500000920E-02 0. -1.
</event>
<event>
 5   0  0.1245850E-02  0.9998412E+03  0.7818609E-02  0.9308719E-01
        2   -1    0    0  501    0  0.00000000000E+00  0.00000000000E+00  0.73462382064E+03  0.73462382064E+03  0.25500000920E-02 0. -1.
       -2   -1    0    0    0  501  0.00000000000E+00  0.00000000000E+00 -0.34020214185E+03  0.34020214186E+03  0.25500000920E-02 0.  1.
    10030    2    1    2    0    0  0.00000000000E+00  0.00000000000E+00  0.39442167879E+03  0.10748259625E+04  0.99984118188E+03 0.  0.
        3    1    3    3  502    0 -0.11874002612E+03 -0.86231127997E+02  0.71094858184E+03  0.72593587696E+03  0.10100000352E+00 0. -1.
       -3    1    3    3    0  502  0.11874002612E+03  0.86231127997E+02 -0.31652690305E+03  0.34889008555E+03  0.10100000352E+00 0.  1.
</event>
<event>
 5   0  0.7224879E-03  0.1005739E+04  0.7818609E-02  0.9302272E-01
       -1   -1    0    0    0  501  0.00000000000E+00  0.00000000000E+00  0.13729761994E+03  0.13729762003E+03  0.50400001928E-02 0.  1.
        1   -1    0    0  501    0  0.00000000000E+00  0.00000000000E+00 -0.18418228117E+04  0.18418228117E+04  0.50400001928E-02 0. -1.
    10030    2    1    2    0    0  0.00000000000E+00  0.00000000000E+00 -0.17045251918E+04  0.19791204317E+04  0.10057393072E+04 0.  0.
        3    1    3    3  502    0 -0.39027217235E+03  0.14514313025E+03 -0.14071023631E+04  0.14674181296E+04  0.10100000352E+00 0.  1.
       -3    1    3    3    0  502  0.39027217235E+03 -0.14514313025E+03 -0.29742282869E+03  0.51170230212E+03  0.10100000352E+00 0. -1.
</event>
<event>
 5   0  0.1191822E-02  0.9313001E+03  0.7818609E-02  0.9387279E-01
        2   -1    0    0  501    0  0.00000000000E+00  0.00000000000E+00  0.29246731772E+03  0.29246731773E+03  0.25500000920E-02 0. -1.
       -2   -1    0    0    0  501  0.00000000000E+00  0.00000000000E+00 -0.74138180221E+03  0.74138180221E+03  0.25500000920E-02 0.  1.
    10030    2    1    2    0    0  0.00000000000E+00  0.00000000000E+00 -0.44891448448E+03  0.10338491199E+04  0.93130005285E+03 0.  0.
        4    1    3    3  502    0  0.13801380727E+03 -0.39763698153E+03 -0.33651534194E+01  0.42092269746E+03  0.12699999809E+01 0. -1.
       -4    1    3    3    0  502 -0.13801380727E+03  0.39763698153E+03 -0.44554933106E+03  0.61292642249E+03  0.12699999809E+01 0.  1.
</event>
<event>
 5   0  0.7073004E-03  0.1058018E+04  0.7818609E-02  0.9247105E-01
       -1   -1    0    0    0  501  0.00000000000E+00  0.00000000000E+00  0.11139691403E+04  0.11139691403E+04  0.50400001928E-02 0. -1.
        1   -1    0    0  501    0  0.00000000000E+00  0.00000000000E+00 -0.25121923070E+03  0.25121923075E+03  0.50400001928E-02 0.  1.
    10030    2    1    2    0    0  0.00000000000E+00  0.00000000000E+00  0.86274990958E+03  0.13651883710E+04  0.10580179025E+04 0.  0.
        1    1    3    3  502    0  0.24103939482E+03  0.19079703160E+03 -0.12413559757E+03  0.33153151243E+03  0.50400001928E-02 0.  1.
       -1    1    3    3    0  502 -0.24103939482E+03 -0.19079703160E+03  0.98688550715E+03  0.10336568586E+04  0.50400001928E-02 0. -1.
</event>
<event>
 5   0  0.1221315E-02  0.1022654E+04  0.7818609E-02  0.9284041E-01
       -2   -1    0    0    0  501  0.00000000000E+00  0.00000000000E+00  0.23338613545E+03  0.23338613546E+03  0.25500000920E-02 0. -1.
        2   -1    0    0  501    0  0.00000000000E+00  0.00000000000E+00 -0.11202697334E+04  0.11202697334E+04  0.25500000920E-02 0.  1.
    10030    2    1    2    0    0  0.00000000000E+00  0.00000000000E+00 -0.88688359798E+03  0.13536558689E+04  0.10226542402E+04 0.  0.
        5    1    3    3  502    0  0.35029601430E+03  0.36484031967E+03 -0.54265146200E+03  0.74182778035E+03  0.46999998093E+01 0.  1.
       -5    1    3    3    0  502 -0.35029601430E+03 -0.36484031967E+03 -0.34423213599E+03  0.61182808855E+03  0.46999998093E+01 0. -1.
</event>
<event>
 5   0  0.6967681E-03  0.9838081E+03  0.7818609E-02  0.9326484E-01
        1   -1    0    0  501    0  0.00000000000E+00  0.00000000000E+00  0.22998023618E+03  0.22998023624E+03  0.50400001928E-02 0. -1.
       -1   -1    0    0    0  501  0.00000000000E+00  0.00000000000E+00 -0.10521321074E+04  0.10521321074E+04  0.50400001928E-02 0.  1.
    10030    2    1    2    0    0  0.00000000000E+00  0.00000000000E+00 -0.82215187119E+03  0.12821123436E+04  0.98380809224E+03 0.  0.
        5    1    3    3  502    0  0.32322767011E+03 -0.25294990488E+03 -0.57792661934E+02  0.41451400805E+03  0.46999998093E+01 0.  1.
       -5    1    3    3    0  502 -0.32322767011E+03  0.25294990488E+03 -0.76435920925E+03  0.86759833556E+03  0.46999998093E+01 0. -1.
</event>
<event>
 5   0  0.6967681E-03  0.9574160E+03  0.7818609E-02  0.9356524E-01
       -1   -1    0    0    0  501  0.00000000000E+00  0.00000000000E+00  0.15814488049E+03  0.15814488057E+03  0.50400001928E-02 0.  1.
        1   -1    0    0  501    0  0.00000000000E+00  0.00000000000E+00 -0.14490596066E+04  0.14490596066E+04  0.50400001928E-02 0. -1.
    10030    2    1    2    0    0  0.00000000000E+00  0.00000000000E+00 -0.12909147261E+04  0.16072044872E+04  0.95741601905E+03 0.  0.
        5    1    3    3  502    0  0.35482371033E+02 -0.17488591149E+03 -0.13910964960E+04  0.14025033447E+04  0.46999998093E+01 0. -1.
       -5    1    3    3    0  502 -0.35482371033E+02  0.17488591149E+03  0.10018176994E+03  0.20470114245E+03  0.46999998093E+01 0.  1.
</event>
<event>
 5   0  0.1221315E-02  0.1043551E+04  0.7818609E-02  0.9262028E-01
        2   -1    0    0  501    0  0.00000000000E+00  0.00000000000E+00  0.79034321178E+03  0.79034321178E+03  0.25500000920E-02 0. -1.
       -2   -1    0    0    0  501  0.00000000000E+00  0.00000000000E+00 -0.34447011772E+03  0.34447011773E+03  0.25500000920E-02 0.  1.
    10030    2    1    2    0    0  0.00000000000E+00  0.00000000000E+00  0.44587309406E+03  0.11348133295E+04  0.10435508981E+04 0.  0.
        5    1    3    3  502    0  0.37610920482E+03 -0.26424025966E+03 -0.45526866298E+02  0.46192622173E+03  0.46999998093E+01 0.  1.
       -5    1    3    3    0  502 -0.37610920482E+03  0.26424025966E+03  0.49139996036E+03  0.67288710778E+03  0.46999998093E+01 0. -1.
</event>
<event>
 5   0  0.7241200E-03  0.9957378E+03  0.7818609E-02  0.9313232E-01
        1   -1    0    0  501    0  0.00000000000E+00  0.00000000000E+00  0.17909010644E+03  0.17909010651E+03  0.50400001928E-02 0. -1.
       -1   -1    0    0    0  501  0.00000000000E+00  0.00000000000E+00 -0.13840712080E+04  0.13840712081E+04  0.50400001928E-02 0.  1.
    10030    2    1    2    0    0  0.00000000000E+00  0.00000000000E+00 -0.12049811016E+04  0.15631613146E+04  0.99573783704E+03 0.  0.
        4    1    3    3  502    0  0.13401908563E+03  0.16179095488E+03 -0.13110739781E+04  0.13278004433E+04  0.12699999809E+01 0.  1.
       -4    1    3    3    0  502 -0.13401908563E+03 -0.16179095488E+03  0.10609287644E+03  0.23536087127E+03  0.12699999809E+01 0. -1.
</event>
<event>
 5   0  0.7241200E-03  0.9988091E+03  0.7818609E-02  0.9309852E-01
       -1   -1    0    0    0  501  0.00000000000E+00  0.00000000000E+00  0.40868896091E+03  0.40868896094E+03  0.50400001928E-02 0.  1.
        1   -1    0    0  501    0  0.00000000000E+00  0.00000000000E+00 -0.61025598567E+03  0.61025598569E+03  0.50400001928E-02 0. -1.
    10030    2    1    2    0    0  0.00000000000E+00  0.00000000000E+00 -0.20156702476E+03  0.10189449466E+04  0.99880906023E+03 0.  0.
        4    1    3    3  502    0 -0.12045592880E+03 -0.20415820096E+03  0.34763806000E+03  0.42076601034E+03  0.12699999809E+01 0.  1.
       -4    1    3    3    0  502  0.12045592880E+03  0.20415820096E+03 -0.54920508475E+03  0.59817893629E+03  0.12699999809E+01 0. -1.
</event>
<event>
 5   0  0.6967681E-03  0.1005964E+04  0.7818609E-02  0.9302027E-01
        1   -1    0    0  501    0  0.00000000000E+00  0.00000000000E+00  0.10840198334E+04  0.10840198334E+04  0.50400001928E-02 0.  1.
       -1   -1    0    0    0  501  0.00000000000E+00  0.00000000000E+00 -0.23338230284E+03  0.23338230289E+03  0.50400001928E-02 0. -1.
    10030    2    1    2    0    0  0.00000000000E+00  0.00000000000E+00  0.85063753056E+03  0.13174021363E+04  0.10059643037E+04 0.  0.
        5    1    3    3  502    0  0.68511192840E+02 -0.47251894945E+03  0.63238753560E+03  0.79240395400E+03  0.46999998093E+01 0.  1.
       -5    1    3    3    0  502 -0.68511192840E+02  0.47251894945E+03  0.21824999497E+03  0.52499818231E+03  0.46999998093E+01 0. -1.
</event>
<event>
 5   0  0.7461157E-03  0.9884040E+03  0.7818609E-02  0.9321355E-01
        1   -1    0    0  501    0  0.00000000000E+00  0.00000000000E+00  0.37919735876E+03  0.37919735879E+03  0.50400001928E-02 0. -1.
       -1   -1    0    0    0  501  0.00000000000E+00  0.00000000000E+00 -0.64408580243E+03  0.64408580245E+03  0.50400001928E-02 0.  1.
    10030    2    1    2    0    0  0.00000000000E+00  0.00000000000E+00 -0.26488844367E+03  0.10232831612E+04  0.98840403707E+03 0.  0.
        2    1    3    3  502    0  0.32612027915E+03 -0.10339112671E+02  0.25183369329E+03  0.41216688708E+03  0.25500000920E-02 0. -1.
       -2    1    3    3    0  502 -0.32612027915E+03  0.10339112671E+02 -0.51672213696E+03  0.61111627417E+03  0.25500000920E-02 0.  1.
</event>
<event>
 5   0  0.7241200E-03  0.9917544E+03  0.7818609E-02  0.9317635E-01
        1   -1    0    0  501    0  0.00000000000E+00  0.00000000000E+00  0.48375232773E+03  0.48375232775E+03  0.50400001928E-02 0. -1.
       -1   -1    0    0    0  501  0.00000000000E+00  0.00000000000E+00 -0.50830598880E+03  0.50830598883E+03  0.50400001928E-02 0.  1.
    10030    2    1    2    0    0  0.00000000000E+00  0.00000000000E+00 -0.24553661072E+02  0.99205831658E+03  0.99175441578E+03 0.  0.
        4    1    3    3  502    0 -0.37374782720E+03 -0.30422607032E+03  0.10459925757E+03  0.49313644946E+03  0.12699999809E+01 0.  1.
       -4    1    3    3    0  502  0.37374782720E+03  0.30422607032E+03 -0.12915291864E+03  0.49892186712E+03  0.12699999809E+01 0. -1.
</event>
<event>
 5   0  0.7241200E-03  0.9849108E+03  0.7818609E-02  0.9325251E-01
       -1   -1    0    0    0  501  0.00000000000E+00  0.00000000000E+00  0.26400477820E+03  0.26400477825E+03  0.50400001928E-02 0. -1.
        1   -1    0    0  501    0  0.00000000000E+00  0.00000000000E+00 -0.91859074076E+03  0.91859074077E+03  0.50400001928E-02 0.  1.
    10030    2    1    2    0    0  0.00000000000E+00  0.00000000000E+00 -0.65458596256E+03  0.11825955190E+04  0.98491084837E+03 0.  0.
        4    1    3    3  502    0 -0.44695635673E+03 -0.13536506990E+03 -0.51491588774E+03  0.69515010704E+03  0.12699999809E+01 0.  1.
       -4    1    3    3    0  502  0.44695635673E+03  0.13536506990E+03 -0.13967007482E+03  0.48744541199E+03  0.12699999809E+01 0. -1.
</event>
<event>
 5   0  0.7073004E-03  0.1041247E+04  0.7818609E-02  0.9264428E-01
       -1   -1    0    0    0  501  0.00000000000E+00  0.00000000000E+00  0.44206547590E+03  0.44206547593E+03  0.50400001928E-02 0. -1.
        1   -1    0    0  501    0  0.00000000000E+00  0.00000000000E+00 -0.61314221388E+03  0.61314221390E+03  0.50400001928E-02 0.  1.
    10030    2    1    2    0    0  0.00000000000E+00  0.00000000000E+00 -0.17107673798E+03  0.10552076898E+04  0.10412473378E+04 0.  0.
        1    1    3    3  502    0  0.18021046721E+03  0.45312100882E+03 -0.27034159081E+03  0.55756527588E+03  0.50400001928E-02 0.  1.
       -1    1    3    3    0  502 -0.18021046721E+03 -0.45312100882E+03  0.99264852833E+02  0.49764241394E+03  0.50400001928E-02 0. -1.
</event>
<event>
 5   0  0.1216322E-02  0.1017936E+04  0.7818609E-02  0.9289089E-01
       -2   -1    0    0    0  501  0.00000000000E+00  0.00000000000E+00  0.39784164311E+03  0.39784164312E+03  0.25500000920E-02 0.  1.
        2   -1    0    0  501    0  0.00000000000E+00  0.00000000000E+00 -0.65113432875E+03  0.65113432875E+03  0.25500000920E-02 0. -1.
    10030    2    1    2    0    0  0.00000000000E+00  0.00000000000E+00 -0.25329268563E+03  0.10489759719E+04  0.10179358550E+04 0.  0.
        2    1    3    3  502    0 -0.45951017120E+03 -0.12093511985E+03  0.61326040967E+02  0.47909892919E+03  0.25500000920E-02 0.  1.
       -2    1    3    3    0  502  0.45951017120E+03  0.12093511985E+03 -0.31461872660E+03  0.56987704268E+03  0.25500000920E-02 0. -1.
</event>
<event>
 5   0  0.7073004E-03  0.9967770E+03  0.7818609E-02  0.9312087E-01
        1   -1    0    0  501    0  0.00000000000E+00  0.00000000000E+00  0.10981278965E+04  0.10981278965E+04  0.50400001928E-02 0. -1.
       -1   -1    0    0    0  501  0.00000000000E+00  0.00000000000E+00 -0.22619507172E+03  0.22619507178E+03  0.50400001928E-02 0.  1.
    10030    2    1    2    0    0  0.00000000000E+00  0.00000000000E+00  0.87193282480E+03  0.13243229683E+04  0.99677704298E+03 0.  0.
        1    1    3    3  502    0  0.57365335317E+02  0.96802318757E+02  0.10810306835E+04  0.10868711097E+04  0.50400001928E-02 0. -1.
       -1    1    3    3    0  502 -0.57365335317E+02 -0.96802318757E+02 -0.20909785866E+03  0.23745185856E+03  0.50400001928E-02 0.  1.
</event>
<event>
 5   0  0.7241200E-03  0.9783566E+03  0.7818609E-02  0.9332607E-01
       -1   -1    0    0    0  501  0.00000000000E+00  0.00000000000E+00  0.52838003882E+03  0.52838003885E+03  0.50400001928E-02 0. -1.
        1   -1    0    0  501    0  0.00000000000E+00  0.00000000000E+00 -0.45288504870E+03  0.45288504873E+03  0.50400001928E-02 0.  1.
    10030    2    1    2    0    0  0.00000000000E+00  0.00000000000E+00  0.75494990125E+02  0.98126508757E+03  0.97835662136E+03 0.  0.
        4    1    3    3  502    0  0.27915459458E+03 -0.39852597328E+03  0.88331220067E+02  0.49452427281E+03  0.12699999809E+01 0. -1.
       -4    1    3    3    0  502 -0.27915459458E+03  0.39852597328E+03 -0.12836229941E+02  0.48674081476E+03  0.12699999809E+01 0.  1.
</event>
<event>
 5   0  0.1221315E-02  0.9799014E+03  0.7818609E-02  0.9330867E-01
       -2   -1    0    0    0  501  0.00000000000E+00  0.00000000000E+00  0.20712844609E+03  0.20712844611E+03  0.25500000920E-02 0. -1.
        2   -1    0    0  501    0  0.00000000000E+00  0.00000000000E+00 -0.11589509157E+04  0.11589509157E+04  0.25500000920E-02 0.  1.
    10030    2    1    2    0    0  0.00000000000E+00  0.00000000000E+00 -0.95182246961E+03  0.13660793618E+04  0.97990142827E+03 0.  0.
        5    1    3    3  502    0 -0.13904357485E+03  0.37569260351E+03 -0.82707258157E+02  0.40907288910E+03  0.46999998093E+01 0. -1.
       -5    1    3    3    0  502  0.13904357485E+03 -0.37569260351E+03 -0.86911521146E+03  0.95700647272E+03  0.46999998093E+01 0.  1.
</event>
<event>
 5   0  0.4782125E-03  0.1027593E+04  0.7818609E-02  0.9278788E-01
        4   -1    0    0  501    0  0.00000000000E+00  0.00000000000E+00  0.62623595955E+03  0.62623724732E+03  0.12699999809E+01 0. -1.
       -4   -1    0    0    0  501  0.00000000000E+00  0.00000000000E+00 -0.42154298637E+03  0.42154489945E+03  0.12699999809E+01 0.  1.
    10030    2    1    2    0    0  0.00000000000E+00  0.00000000000E+00  0.20469297319E+03  0.10477821468E+04  0.10275934088E+04 0.  0.
        2    1    3    3  502    0 -0.33225186566E+03  0.30929781794E+03  0.34776297573E+03  0.57183522951E+03  0.25500000920E-02 0. -1.
       -2    1    3    3    0  502  0.33225186566E+03 -0.30929781794E+03 -0.14307000254E+03  0.47594691726E+03  0.25500000920E-02 0.  1.
</event>
<event>
 5   0  0.7224879E-03  0.9388680E+03  0.7818609E-02  0.9378258E-01
        1   -1    0    0  501    0  0.00000000000E+00  0.00000000000E+00  0.35704255431E+03  0.35704255434E+03  0.50400001928E-02 0. -1.
       -1   -1    0    0    0  501  0.00000000000E+00  0.00000000000E+00 -0.61720453045E+03  0.61720453047E+03  0.50400001928E-02 0.  1.
    10030    2    1    2    0    0  0.00000000000E+00  0.00000000000E+00 -0.26016197614E+03  0.97424708482E+03  0.93886800374E+03 0.  0.
        3    1    3    3  502    0  0.26914639231E+03 -0.32845230995E+03  0.77578925530E+02  0.43167024485E+03  0.10100000352E+00 0. -1.
       -3    1    3    3    0  502 -0.26914639231E+03  0.32845230995E+03 -0.33774090167E+03  0.54257683997E+03  0.10100000352E+00 0.  1.
</event>
<event>
 5   0  0.7241200E-03  0.1054524E+04  0.7818609E-02  0.9250686E-01
       -1   -1    0    0    0  501  0.00000000000E+00  0.00000000000E+00  0.21719551205E+03  0.21719551211E+03  0.50400001928E-02 0.  1.
        1   -1    0    0  501    0  0.00000000000E+00  0.00000000000E+00 -0.12799761676E+04  0.12799761676E+04  0.50400001928E-02 0. -1.
    10030    2    1    2    0    0  0.00000000000E+00  0.00000000000E+00 -0.10627806555E+04  0.14971716797E+04  0.10545237393E+04 0.  0.
        4    1    3    3  502    0 -0.40701423312E+03 -0.31391154329E+03 -0.69818912469E+03  0.86698945190E+03  0.12699999809E+01 0. -1.
       -4    1    3    3    0  502  0.40701423312E+03  0.31391154329E+03 -0.36459153084E+03  0.63018222780E+03  0.12699999809E+01 0.  1.
</event>
<event>
 5   0  0.7241200E-03  0.1024849E+04  0.7818609E-02  0.9281703E-01
        1   -1    0    0  501    0  0.00000000000E+00  0.00000000000E+00  0.44606751950E+03  0.44606751953E+03  0.50400001928E-02 0.  1.
       -1   -1    0    0    0  501  0.00000000000E+00  0.00000000000E+00 -0.58865247139E+03  0.58865247141E+03  0.50400001928E-02 0. -1.
    10030    2    1    2    0    0  0.00000000000E+00  0.00000000000E+00 -0.14258495189E+03  0.10347199909E+04  0.10248487650E+04 0.  0.
        4    1    3    3  502    0  0.29415700163E+03  0.35823029352E+02 -0.49336872503E+03  0.57552232170E+03  0.12699999809E+01 0. -1.
       -4    1    3    3    0  502 -0.29415700163E+03 -0.35823029352E+02  0.35078377314E+03  0.45919766924E+03  0.12699999809E+01 0.  1.
</event>
<event>
 5   0  0.1191822E-02  0.9718543E+03  0.7818609E-02  0.9339965E-01
       -2   -1    0    0    0  501  0.00000000000E+00  0.00000000000E+00  0.21033216092E+03  0.21033216094E+03  0.25500000920E-02 0.  1.
        2   -1    0    0  501    0  0.00000000000E+00  0.00000000000E+00 -0.11226299876E+04  0.11226299876E+04  0.25500000920E-02 0. -1.
    10030    2    1    2    0    0  0.00000000000E+00  0.00000000000E+00 -0.91229782672E+03  0.13329621486E+04  0.97185429202E+03 0.  0.
        4    1    3    3  502    0  0.18809012522E+03 -0.34485578388E+03 -0.63823128028E+02  0.39796785229E+03  0.12699999809E+01 0.  1.
       -4    1    3    3    0  502 -0.18809012522E+03  0.34485578388E+03 -0.84847469870E+03  0.93499429630E+03  0.12699999809E+01 0. -1.
</event>
<event>
 5   0  0.6967681E-03  0.9868727E+03  0.7818609E-02  0.9323061E-01
       -1   -1    0    0    0  501  0.00000000000E+00  0.00000000000E+00  0.21719807689E+03  0.21719807695E+03  0.50400001928E-02 0. -1.
        1   -1    0    0  501    0  0.00000000000E+00  0.00000000000E+00 -0.11210017077E+04  0.11210017077E+04  0.50400001928E-02 0.  1.
    10030    2    1    2    0    0  0.00000000000E+00  0.00000000000E+00 -0.90380363076E+03  0.13381997846E+04  0.98687266684E+03 0.  0.
        5    1    3    3  502    0 -0.34903398739E+03 -0.23517375874E+03 -0.10267995306E+03  0.43323975338E+03  0.46999998093E+01 0.  1.
       -5    1    3    3    0  502  0.34903398739E+03  0.23517375874E+03 -0.80112367770E+03  0.90496003123E+03  0.46999998093E+01 0. -1.
</event>
<event>
 5   0  0.7224879E-03  0.1044812E+04  0.7818609E-02  0.9260717E-01
        1   -1    0    0  501    0  0.00000000000E+00  0.00000000000E+00  0.52237791023E+03  0.52237791026E+03  0.50400001928E-02 0. -1.
       -1   -1    0    0    0  501  0.00000000000E+00  0.00000000000E+00 -0.52243394047E+03  0.52243394049E+03  0.50400001928E-02 0.  1.
    10030    2    1    2    0    0  0.00000000000E+00  0.00000000000E+00 -0.56030236120E-01  0.10448118507E+04  0.10448118492E+04 0.  0.
        3    1    3    3  502    0  0.20288324920E+03  0.42171356024E+03  0.23214433539E+03  0.52239347464E+03  0.10100000352E+00 0. -1.
       -3    1    3    3    0  502 -0.20288324920E+03 -0.42171356024E+03 -0.23220036562E+03  0.52241837610E+03  0.10100000352E+00 0.  1.
</event>
<event>
 5   0  0.1216322E-02  0.9941510E+03  0.7818609E-02  0.9314983E-01
        2   -1    0    0  501    0  0.00000000000E+00  0.00000000000E+00  0.77258350658E+03  0.77258350658E+03  0.25500000920E-02 0. -1.
       -2   -1    0    0    0  501  0.00000000000E+00  0.00000000000E+00 -0.31981535889E+03  0.31981535890E+03  0.25500000920E-02 0.  1.
    10030    2    1    2    0    0  0.00000000000E+00  0.00000000000E+00  0.45276814769E+03  0.10923988655E+04  0.99415103769E+03 0.  0.
        2    1    3    3  502    0  0.35125989834E+03  0.92522138864E+02 -0.14647299156E+03  0.39166082217E+03  0.25500000920E-02 0.  1.
       -2    1    3    3    0  502 -0.35125989834E+03 -0.92522138864E+02  0.59924113925E+03  0.70073804331E+03  0.25500000920E-02 0. -1.
</event>
<event>
 5   0  0.1221315E-02  0.9896920E+03  0.7818609E-02  0.9319923E-01
       -2   -1    0    0    0  501  0.00000000000E+00  0.00000000000E+00  0.28176003582E+03  0.28176003583E+03  0.25500000920E-02 0. -1.
        2   -1    0    0  501    0  0.00000000000E+00  0.00000000000E+00 -0.86908203658E+03  0.86908203658E+03  0.25500000920E-02 0.  1.
    10030    2    1    2    0    0  0.00000000000E+00  0.00000000000E+00 -0.58732200076E+03  0.11508420724E+04  0.98969204455E+03 0.  0.
        5    1    3    3  502    0  0.66233861533E+02  0.17467270209E+03  0.23915433065E+03  0.30350347796E+03  0.46999998093E+01 0. -1.
       -5    1    3    3    0  502 -0.66233861533E+02 -0.17467270209E+03 -0.82647633141E+03  0.84733859445E+03  0.46999998093E+01 0.  1.
</event>
<event>
 5   0  0.1245850E-02  0.1040482E+04  0.7818609E-02  0.9265227E-01
        2   -1    0    0  501    0  0.00000000000E+00  0.00000000000E+00  0.74279280400E+03  0.74279280400E+03  0.25500000920E-02 0. -1.
       -2   -1    0    0    0  501  0.00000000000E+00  0.00000000000E+00 -0.36436883054E+03  0.36436883055E+03  0.25500000920E-02 0.  1.
    10030    2    1    2    0    0  0.00000000000E+00  0.00000000000E+00  0.37842397346E+03  0.11071616345E+04  0.10404817064E+04 0.  0.
        3    1    3    3  502    0  0.23315012161E+03  0.36917698936E+03  0.49018067734E+03  0.65645086283E+03  0.10100000352E+00 0. -1.
       -3    1    3    3    0  502 -0.23315012161E+03 -0.36917698936E+03 -0.11175670388E+03  0.45071077171E+03  0.10100000352E+00 0.  1.
</event>
<event>
 5   0  0.7461157E-03  0.1001470E+04  0.7818609E-02  0.9306934E-01
       -1   -1    0    0    0  501  0.00000000000E+00  0.00000000000E+00  0.67283951862E+03  0.67283951864E+03  0.50400001928E-02 0.  1.
        1   -1    0    0  501    0  0.00000000000E+00  0.00000000000E+00 -0.37265283082E+03  0.37265283085E+03  0.50400001928E-02 0. -1.
    10030    2    1    2    0    0  0.00000000000E+00  0.00000000000E+00  0.30018668781E+03  0.10454923495E+04  0.10014700222E+04 0.  0.
        2    1    3    3  502    0  0.20976557458E+02  0.47329824652E+03 -0.19157622094E+02  0.47415004019E+03  0.25500000920E-02 0. -1.
       -2    1    3    3    0  502 -0.20976557458E+02 -0.47329824652E+03  0.31934430990E+03  0.57134230930E+03  0.25500000920E-02 0.  1.
</event>
<event>
 5   0  0.1245850E-02  0.9855689E+03  0.7818609E-02  0.9324516E-01
        2   -1    0    0  501    0  0.00000000000E+00  0.00000000000E+00  0.75875974028E+03  0.75875974028E+03  0.25500000920E-02 0. -1.
       -2   -1    0    0    0  501  0.00000000000E+00  0.00000000000E+00 -0.32004399539E+03  0.32004399540E+03  0.25500000920E-02 0.  1.
    10030    2    1    2    0    0  0.00000000000E+00  0.00000000000E+00  0.43871574489E+03  0.10788037357E+04  0.98556886888E+03 0.  0.
        3    1    3    3  502    0 -0.40108065795E+03  0.28478395874E+03  0.18709238832E+03  0.52628050440E+03  0.10100000352E+00 0. -1.
       -3    1    3    3    0  502  0.40108065795E+03 -0.28478395874E+03  0.25162335657E+03  0.55252323129E+03  0.10100000352E+00 0.  1.
</event>
<event>
 5   0  0.6967681E-03  0.1006101E+04  0.7818609E-02  0.9301878E-01
       -1   -1    0    0    0  501  0.00000000000E+00  0.00000000000E+00  0.67543914579E+03  0.67543914580E+03  0.50400001928E-02 0.  1.
        1   -1    0    0  501    0  0.00000000000E+00  0.00000000000E+00 -0.37465978174E+03  0.37465978178E+03  0.50400001928E-02 0. -1.
    10030    2    1    2    0    0  0.00000000000E+00  0.00000000000E+00  0.30077936404E+03  0.10500989276E+04  0.10061011539E+04 0.  0.
        5    1    3    3  502    0  0.18920038727E+03 -0.27284834484E+03  0.54479680035E+03  0.63801931750E+03  0.46999998093E+01 0.  1.
       -5    1    3    3    0  502 -0.18920038727E+03  0.27284834484E+03 -0.24401743631E+03  0.41207961009E+03  0.46999998093E+01 0. -1.
</event>
<event>
 5   0  0.7224879E-03  0.1015918E+04  0.7818609E-02  0.9291256E-01
       -1   -1    0    0    0  501  0.00000000000E+00  0.00000000000E+00  0.87154990642E+03  0.87154990644E+03  0.50400001928E-02 0.  1.
        1   -1    0    0  501    0  0.00000000000E+00  0.00000000000E+00 -0.29605016412E+03  0.29605016417E+03  0.50400001928E-02 0. -1.
    10030    2    1    2    0    0  0.00000000000E+00  0.00000000000E+00  0.57549974230E+03  0.11676000706E+04  0.10159182898E+04 0.  0.
        3    1    3    3  502    0 -0.12497756118E+03  0.49208439885E+03  0.26935968646E+03  0.57473567601E+03  0.10100000352E+00 0. -1.
       -3    1    3    3    0  502  0.12497756118E+03 -0.49208439885E+03  0.30614005584E+03  0.59286439459E+03  0.10100000352E+00 0.  1.
</event>
<event>
 5   0  0.4782125E-03  0.1019582E+04  0.7818609E-02  0.9287325E-01
       -3   -1    0    0    0  501  0.00000000000E+00  0.00000000000E+00  0.22650103896E+03  0.22650106148E+03  0.10100000352E+00 0.  1.
        3   -1    0    0  501    0  0.00000000000E+00  0.00000000000E+00 -0.11473976445E+04  0.11473976489E+04  0.10100000352E+00 0. -1.
    10030    2    1    2    0    0  0.00000000000E+00  0.00000000000E+00 -0.92089660550E+03  0.13738987104E+04  0.10195818302E+04 0.  0.
        3    1    3    3  502    0  0.91262128012E+02  0.47743502398E+03 -0.25337912186E+03  0.54815505810E+03  0.10100000352E+00 0.  1.
       -3    1    3    3    0  502 -0.91262128012E+02 -0.47743502398E+03 -0.66751748364E+03  0.82574365229E+03  0.10100000352E+00 0. -1.
</event>
<event>
 5   0  0.7241200E-03  0.9446235E+03  0.7818609E-02  0.9371457E-01
        1   -1    0    0  501    0  0.00000000000E+00  0.00000000000E+00  0.26580086015E+03  0.26580086020E+03  0.50400001928E-02 0. -1.
       -1   -1    0    0    0  501  0.00000000000E+00  0.00000000000E+00 -0.83926885448E+03  0.83926885450E+03  0.50400001928E-02 0.  1.
    10030    2    1    2    0    0  0.00000000000E+00  0.00000000000E+00 -0.57346799433E+03  0.11050697147E+04  0.94462348786E+03 0.  0.
        4    1    3    3  502    0 -0.91371173142E+02 -0.41691095287E+03 -0.50107493577E+02  0.42973923223E+03  0.12699999809E+01 0. -1.
       -4    1    3    3    0  502  0.91371173142E+02  0.41691095287E+03 -0.52336050075E+03  0.67533048247E+03  0.12699999809E+01 0.  1.
</event>
<event>
 5   0  0.1191822E-02  0.9377058E+03  0.7818609E-02  0.9379637E-01
       -2   -1    0    0    0  501  0.00000000000E+00  0.00000000000E+00  0.33525725932E+03  0.33525725933E+03  0.25500000920E-02 0.  1.
        2   -1    0    0  501    0  0.00000000000E+00  0.00000000000E+00 -0.65568467850E+03  0.65568467850E+03  0.25500000920E-02 0. -1.
    10030    2    1    2    0    0  0.00000000000E+00  0.00000000000E+00 -0.32042741918E+03  0.99094193783E+03  0.93770581378E+03 0.  0.
        4    1    3    3  502    0 -0.10726220166E+03  0.11805521740E+03  0.30570110391E+03  0.34481443139E+03  0.12699999809E+01 0.  1.
       -4    1    3    3    0  502  0.10726220166E+03 -0.11805521740E+03 -0.62612852309E+03  0.64612750645E+03  0.12699999809E+01 0. -1.
</event>
<event>
 5   0  0.7241200E-03  0.1058490E+04  0.7818609E-02  0.9246622E-01
       -1   -1    0    0    0  501  0.00000000000E+00  0.00000000000E+00  0.65312397185E+03  0.65312397186E+03  0.50400001928E-02 0. -1.
        1   -1    0    0  501    0  0.00000000000E+00  0.00000000000E+00 -0.42886242780E+03  0.42886242783E+03  0.50400001928E-02 0.  1.
    10030    2    1    2    0    0  0.00000000000E+00  0.00000000000E+00  0.22426154404E+03  0.10819863997E+04  0.10584901176E+04 0.  0.
        4    1    3    3  502    0  0.34658664541E+03 -0.26809722249E+03  0.41553643159E+03  0.60387959260E+03  0.12699999809E+01 0. -1.
       -4    1    3    3    0  502 -0.34658664541E+03  0.26809722249E+03 -0.19127488754E+03  0.47810680709E+03  0.12699999809E+01 0.  1.
</event>
<event>
 5   0  0.1221315E-02  0.1015352E+04  0.7818609E-02  0.9291865E-01
        2   -1    0    0  501    0  0.00000000000E+00  0.00000000000E+00  0.93475032569E+03  0.93475032569E+03  0.25500000920E-02 0. -1.
       -2   -1    0    0    0  501  0.00000000000E+00  0.00000000000E+00 -0.27572595900E+03  0.27572595901E+03  0.25500000920E-02 0.  1.
    10030    2    1    2    0    0  0.00000000000E+00  0.00000000000E+00  0.65902436669E+03  0.12104762847E+04  0.10153520178E+04 0.  0.
        5    1    3    3  502    0 -0.36196586884E+03  0.55160056661E+02  0.74872863864E+03  0.83347380665E+03  0.46999998093E+01 0. -1.
       -5    1    3    3    0  502  0.36196586884E+03 -0.55160056661E+02 -0.89704271954E+02  0.37700247806E+03  0.46999998093E+01 0.  1.
</event>
<event>
 5   0  0.7224879E-03  0.1012012E+04  0.7818609E-02  0.9295468E-01
       -1   -1    0    0    0  501  0.00000000000E+00  0.00000000000E+00  0.29119464057E+03  0.29119464062E+03  0.50400001928E-02 0. -1.
        1   -1    0    0  501    0  0.00000000000E+00  0.00000000000E+00 -0.87928097892E+03  0.87928097893E+03  0.50400001928E-02 0.  1.
    10030    2    1    2    0    0  0.00000000000E+00  0.00000000000E+00 -0.58808633834E+03  0.11704756195E+04  0.10120116771E+04 0.  0.
        3    1    3    3  502    0  0.46377496785E+03 -0.91858843763E+02 -0.85483842479E+02  0.48045058592E+03  0.10100000352E+00 0. -1.
       -3    1    3    3    0  502 -0.46377496785E+03  0.91858843763E+02 -0.50260249586E+03  0.69002503363E+03  0.10100000352E+00 0.  1.
</event>
<event>
 5   0  0.1216322E-02  0.1006580E+04  0.7818609E-02  0.9301357E-01
       -2   -1    0    0    0  501  0.00000000000E+00  0.00000000000E+00  0.72615522020E+03  0.72615522020E+03  0.25500000920E-02 0.  1.
        2   -1    0    0  501    0  0.00000000000E+00  0.00000000000E+00 -0.34882476675E+03  0.34882476676E+03  0.25500000920E-02 0. -1.
    10030    2    1    2    0    0  0.00000000000E+00  0.00000000000E+00  0.37733045345E+03  0.10749799870E+04  0.10065802011E+04 0.  0.
        2    1    3    3  502    0 -0.91387509839E+01  0.57017504493E+02  0.72260567779E+03  0.72490928962E+03  0.25500000920E-02 0.  1.
       -2    1    3    3    0  502  0.91387509839E+01 -0.57017504493E+02 -0.34527522434E+03  0.35007069734E+03  0.25500000920E-02 0. -1.
</event>
<event>
 5   0  0.1191822E-02  0.1067909E+04  0.7818609E-02  0.9237047E-01
        2   -1    0    0  501    0  0.00000000000E+00  0.00000000000E+00  0.22200039950E+04  0.22200039950E+04  0.25500000920E-02 0.  1.
       -2   -1    0    0    0  501  0.00000000000E+00  0.00000000000E+00 -0.12842641115E+03  0.12842641118E+03  0.25500000920E-02 0. -1.
    10030    2    1    2    0    0  0.00000000000E+00  0.00000000000E+00  0.20915775838E+04  0.23484304061E+04  0.10679085089E+04 0.  0.
        4    1    3    3  502    0 -0.11982289844E+03 -0.35780964101E+03  0.21500795149E+03  0.43429862801E+03  0.12699999809E+01 0. -1.
       -4    1    3    3    0  502  0.11982289844E+03  0.35780964101E+03  0.18765696323E+04  0.19141317781E+04  0.12699999809E+01 0.  1.
</event>
<event>
 5   0  0.1216322E-02  0.1022835E+04  0.7818609E-02  0.9283849E-01
        2   -1    0    0  501    0  0.00000000000E+00  0.00000000000E+00  0.95454859818E+03  0.95454859818E+03  0.25500000920E-02 0.  1.
       -2   -1    0    0    0  501  0.00000000000E+00  0.00000000000E+00 -0.27400149711E+03  0.27400149712E+03  0.25500000920E-02 0. -1.
    10030    2    1    2    0    0  0.00000000000E+00  0.00000000000E+00  0.68054710106E+03  0.12285500953E+04  0.10228347764E+04 0.  0.
        2    1    3    3  502    0  0.81168818956E+02  0.45721425660E+03  0.82900972326E+02  0.47170523087E+03  0.25500000920E-02 0. -1.
       -2    1    3    3    0  502 -0.81168818956E+02 -0.45721425660E+03  0.59764612874E+03  0.75684486443E+03  0.25500000920E-02 0.  1.
</event>
<event>
 5   0  0.7241200E-03  0.9883309E+03  0.7818609E-02  0.9321437E-01
       -1   -1    0    0    0  501  0.00000000000E+00  0.00000000000E+00  0.17019220052E+03  0.17019220059E+03  0.50400001928E-02 0. -1.
        1   -1    0    0  501    0  0.00000000000E+00  0.00000000000E+00 -0.14348454760E+04  0.14348454760E+04  0.50400001928E-02 0.  1.
    10030    2    1    2    0    0  0.00000000000E+00  0.00000000000E+00 -0.12646532755E+04  0.16050376766E+04  0.98833093451E+03 0.  0.
        4    1    3    3  502    0 -0.48082596335E+03  0.67833586489E+02 -0.48346003556E+03  0.68522275311E+03  0.12699999809E+01 0. -1.
       -4    1    3    3    0  502  0.48082596335E+03 -0.67833586489E+02 -0.78119323990E+03  0.91981492348E+03  0.12699999809E+01 0.  1.
</event>
<event>
 5   0  0.1221315E-02  0.1079834E+04  0.7818609E-02  0.9225073E-01
       -2   -1    0    0    0  501  0.00000000000E+00  0.00000000000E+00  0.22016096776E+03  0.22016096778E+03  0.25500000920E-02 0. -1.
        2   -1    0    0  501    0  0.00000000000E+00  0.00000000000E+00 -0.13240785146E+04  0.13240785146E+04  0.25500000920E-02 0.  1.
    10030    2    1    2    0    0  0.00000000000E+00  0.00000000000E+00 -0.11039175468E+04  0.15442394823E+04  0.10798340746E+04 0.  0.
        5    1    3    3  502    0  0.53290208771E+03  0.74456941501E+02 -0.61526823091E+03  0.81737724289E+03  0.46999998093E+01 0.  1.
       -5    1    3    3    0  502 -0.53290208771E+03 -0.74456941501E+02 -0.48864931589E+03  0.72686223945E+03  0.46999998093E+01 0. -1.
</event>
<event>
 5   0  0.7461157E-03  0.9872077E+03  0.7818609E-02  0.9322688E-01
       -1   -1    0    0    0  501  0.00000000000E+00  0.00000000000E+00  0.16644355369E+03  0.16644355377E+03  0.50400001928E-02 0.  1.
        1   -1    0    0  501    0  0.00000000000E+00  0.00000000000E+00 -0.14638281264E+04  0.14638281264E+04  0.50400001928E-02 0. -1.
    10030    2    1    2    0    0  0.00000000000E+00  0.00000000000E+00 -0.12973845727E+04  0.16302716802E+04  0.98720768925E+03 0.  0.
        2    1    3    3  502    0  0.39598894528E+03  0.26422979047E+03 -0.43324904623E+03  0.64368421063E+03  0.25500000920E-02 0. -1.
       -2    1    3    3    0  502 -0.39598894528E+03 -0.26422979047E+03 -0.86413552648E+03  0.98658746955E+03  0.25500000920E-02 0.  1.
</event>
<event>
 5   0  0.7073004E-03  0.9865317E+03  0.7818609E-02  0.9323441E-01
       -1   -1    0    0    0  501  0.00000000000E+00  0.00000000000E+00  0.57938625864E+03  0.57938625866E+03  0.50400001928E-02 0.  1.
        1   -1    0    0  501    0  0.00000000000E+00  0.00000000000E+00 -0.41994644010E+03  0.41994644013E+03  0.50400001928E-02 0. -1.
    10030    2    1    2    0    0  0.00000000000E+00  0.00000000000E+00  0.15943981854E+03  0.99933269880E+03  0.98653169597E+03 0.  0.
        1    1    3    3  502    0  0.34476080369E+03  0.16759527700E+03 -0.23473199514E+03  0.44949671656E+03  0.50400001928E-02 0. -1.
       -1    1    3    3    0  502 -0.34476080369E+03 -0.16759527700E+03  0.39417181368E+03  0.54983598223E+03  0.50400001928E-02 0.  1.
</event>
<event>
 5   0  0.6967681E-03  0.9687388E+03  0.7818609E-02  0.9343512E-01
        1   -1    0    0  501    0  0.00000000000E+00  0.00000000000E+00  0.16333131053E+04  0.16333131053E+04  0.50400001928E-02 0.  1.
       -1   -1    0    0    0  501  0.00000000000E+00  0.00000000000E+00 -0.14364283751E+03  0.14364283760E+03  0.50400001928E-02 0. -1.
    10030    2    1    2    0    0  0.00000000000E+00  0.00000000000E+00  0.14896702678E+04  0.17769559429E+04  0.96873882771E+03 0.  0.
        5    1    3    3  502    0 -0.35552750585E+03  0.54939456803E+02  0.13397065364E+04  0.13871747709E+04  0.46999998093E+01 0.  1.
       -5    1    3    3    0  502  0.35552750585E+03 -0.54939456803E+02  0.14996373139E+03  0.38978117202E+03  0.46999998093E+01 0. -1.
</event>
<event>
 5   0  0.7241200E-03  0.9971928E+03  0.7818609E-02  0.9311629E-01
        1   -1    0    0  501    0  0.00000000000E+00  0.00000000000E+00  0.65374974829E+03  0.65374974831E+03  0.50400001928E-02 0. -1.
       -1   -1    0    0    0  501  0.00000000000E+00  0.00000000000E+00 -0.38026532935E+03  0.38026532939E+03  0.50400001928E-02 0.  1.
    10030    2    1    2    0    0  0.00000000000E+00  0.00000000000E+00  0.27348441893E+03  0.10340150777E+04  0.99719278653E+03 0.  0.
        4    1    3    3  502    0 -0.15143483736E+03  0.30750033385E+03  0.51220074663E+03  0.61631175799E+03  0.12699999809E+01 0. -1.
       -4    1    3    3    0  502  0.15143483736E+03 -0.30750033385E+03 -0.23871632769E+03  0.41770331971E+03  0.12699999809E+01 0.  1.
</event>
<event>
 5   0  0.1240503E-02  0.9607142E+03  0.7818609E-02  0.9352714E-01
        2   -1    0    0  501    0  0.00000000000E+00  0.00000000000E+00  0.24759937293E+04  0.24759937293E+04  0.25500000920E-02 0.  1.
       -2   -1    0    0    0  501  0.00000000000E+00  0.00000000000E+00 -0.93192062103E+02  0.93192062138E+02  0.25500000920E-02 0. -1.
    10030    2    1    2    0    0  0.00000000000E+00  0.00000000000E+00  0.23828016672E+04  0.25691857914E+04  0.96071423729E+03 0.  0.
        1    1    3    3  502    0  0.33826788566E+03  0.33974140878E+03  0.12713412801E+04  0.13587339835E+04  0.50400001928E-02 0.  1.
       -1    1    3    3    0  502 -0.33826788566E+03 -0.33974140878E+03  0.11114603870E+04  0.12104518079E+04  0.50400001928E-02 0. -1.
</event>
<event>
 5   0  0.7073004E-03  0.9851830E+03  0.7818609E-02  0.9324947E-01
       -1   -1    0    0    0  501  0.00000000000E+00  0.00000000000E+00  0.24396985782E+03  0.24396985787E+03  0.50400001928E-02 0.  1.
        1   -1    0    0  501    0  0.00000000000E+00  0.00000000000E+00 -0.99457522149E+03  0.99457522151E+03  0.50400001928E-02 0. -1.
    10030    2    1    2    0    0  0.00000000000E+00  0.00000000000E+00 -0.75060536367E+03  0.12385450794E+04  0.98518297878E+03 0.  0.
        1    1    3    3  502    0 -0.16829618940E+03  0.36694321798E+03 -0.20442589424E+02  0.40421384449E+03  0.50400001928E-02 0.  1.
       -1    1    3    3    0  502  0.16829618940E+03 -0.36694321798E+03 -0.73016277425E+03  0.83433123489E+03  0.50400001928E-02 0. -1.
</event>
<event>
 5   0  0.1245850E-02  0.6861347E+03  0.7818609E-02  0.9741242E-01
        2   -1    0    0  501    0  0.00000000000E+00  0.00000000000E+00  0.18335308359E+04  0.18335308359E+04  0.25500000920E-02 0. -1.
       -2   -1    0    0    0  501  0.00000000000E+00  0.00000000000E+00 -0.64190469599E+02  0.64190469650E+02  0.25500000920E-02 0.  1.
    10030    2    1    2    0    0  0.00000000000E+00  0.00000000000E+00  0.17693403663E+04  0.18977213056E+04  0.68613469649E+03 0.  0.
        3    1    3    3  502    0 -0.10969988954E+03 -0.12763279046E+03  0.57830405616E+02  0.17795662668E+03  0.10100000352E+00 0.  1.
       -3    1    3    3    0  502  0.10969988954E+03  0.12763279046E+03  0.17115099607E+04  0.17197646789E+04  0.10100000352E+00 0. -1.
</event>
<event>
 5   0  0.1240503E-02  0.1007814E+04  0.7818609E-02  0.9300016E-01
        2   -1    0    0  501    0  0.00000000000E+00  0.00000000000E+00  0.77301288124E+03  0.77301288125E+03  0.25500000920E-02 0.  1.
       -2   -1    0    0    0  501  0.00000000000E+00  0.00000000000E+00 -0.32848386309E+03  0.32848386310E+03  0.25500000920E-02 0. -1.
    10030    2    1    2    0    0  0.00000000000E+00  0.00000000000E+00  0.44452901816E+03  0.11014967443E+04  0.10078139857E+04 0.  0.
        1    1    3    3  502    0  0.28272778185E+03 -0.27518493534E+03  0.56486844212E+03  0.68901241222E+03  0.50400001928E-02 0.  1.
       -1    1    3    3    0  502 -0.28272778185E+03  0.27518493534E+03 -0.12033942396E+03  0.41248433213E+03  0.50400001928E-02 0. -1.
</event>
<event>
 5   0  0.1240503E-02  0.8773089E+03  0.7818609E-02  0.9454400E-01
       -2   -1    0    0    0  501  0.00000000000E+00  0.00000000000E+00  0.28195648204E+03  0.28195648205E+03  0.25500000920E-02 0.  1.
        2   -1    0    0  501    0  0.00000000000E+00  0.00000000000E+00 -0.68243761551E+03  0.68243761552E+03  0.25500000920E-02 0. -1.
    10030    2    1    2    0    0  0.00000000000E+00  0.00000000000E+00 -0.40048113347E+03  0.96439409757E+03  0.87730886075E+03 0.  0.
        1    1    3    3  502    0  0.11700216753E+03  0.18651790860E+03  0.21681284528E+03  0.30900849072E+03  0.50400001928E-02 0.  1.
       -1    1    3    3    0  502 -0.11700216753E+03 -0.18651790860E+03 -0.61729397875E+03  0.65538560685E+03  0.50400001928E-02 0. -1.
</event>
<event>
 5   0  0.1221315E-02  0.9363187E+03  0.7818609E-02  0.9381286E-01
        2   -1    0    0  501    0  0.00000000000E+00  0.00000000000E+00  0.52015151889E+03  0.52015151890E+03  0.25500000920E-02 0.  1.
       -2   -1    0    0    0  501  0.00000000000E+00  0.00000000000E+00 -0.42136413501E+03  0.42136413501E+03  0.25500000920E-02 0. -1.
    10030    2    1    2    0    0  0.00000000000E+00  0.00000000000E+00  0.98787383888E+02  0.94151565391E+03  0.93631873812E+03 0.  0.
        5    1    3    3  502    0  0.31316466208E+02  0.39630867381E+02  0.51737966270E+03  0.51986068526E+03  0.46999998093E+01 0.  1.
       -5    1    3    3    0  502 -0.31316466208E+02 -0.39630867381E+02 -0.41859227882E+03  0.42165496865E+03  0.46999998093E+01 0. -1.
</event>
<event>
 5   0  0.6967681E-03  0.1002928E+04  0.7818609E-02  0.9305339E-01
       -1   -1    0    0    0  501  0.00000000000E+00  0.00000000000E+00  0.89676988065E+03  0.89676988066E+03  0.50400001928E-02 0. -1.
        1   -1    0    0  501    0  0.00000000000E+00  0.00000000000E+00 -0.28041347509E+03  0.28041347514E+03  0.50400001928E-02 0.  1.
    10030    2    1    2    0    0  0.00000000000E+00  0.00000000000E+00  0.61635640556E+03  0.11771833558E+04  0.10029284294E+04 0.  0.
        5    1    3    3  502    0  0.49212505558E+03  0.79423510690E+02  0.24443714986E+03  0.55521777224E+03  0.46999998093E+01 0.  1.
       -5    1    3    3    0  502 -0.49212505558E+03 -0.79423510690E+02  0.37191925570E+03  0.62196558356E+03  0.46999998093E+01 0. -1.
</event>
<event>
 5   0  0.1245850E-02  0.1002051E+04  0.7818609E-02  0.9306298E-01
       -2   -1    0    0    0  501  0.00000000000E+00  0.00000000000E+00  0.25305631578E+03  0.25305631580E+03  0.25500000920E-02 0.  1.
        2   -1    0    0  501    0  0.00000000000E+00  0.00000000000E+00 -0.99197884452E+03  0.99197884452E+03  0.25500000920E-02 0. -1.
    10030    2    1    2    0    0  0.00000000000E+00  0.00000000000E+00 -0.73892252873E+03  0.12450351603E+04  0.10020509203E+04 0.  0.
        3    1    3    3  502    0  0.37820776605E+03 -0.23461300307E+03 -0.83575510867E+02  0.45284572619E+03  0.10100000352E+00 0.  1.
       -3    1    3    3    0  502 -0.37820776605E+03  0.23461300307E+03 -0.65534701787E+03  0.79218943413E+03  0.10100000352E+00 0. -1.
</event>
<event>
 5   0  0.7461157E-03  0.9499761E+03  0.7818609E-02  0.9365178E-01
        1   -1    0    0  501    0  0.00000000000E+00  0.00000000000E+00  0.81677357998E+03  0.81677357999E+03  0.50400001928E-02 0.  1.
       -1   -1    0    0    0  501  0.00000000000E+00  0.00000000000E+00 -0.27622546663E+03  0.27622546668E+03  0.50400001928E-02 0. -1.
    10030    2    1    2    0    0  0.00000000000E+00  0.00000000000E+00  0.54054811334E+03  0.10929990467E+04  0.94997613295E+03 0.  0.
        2    1    3    3  502    0  0.33515807194E+03  0.13815737663E+03  0.62339350319E+03  0.72113650146E+03  0.25500000920E-02 0. -1.
       -2    1    3    3    0  502 -0.33515807194E+03 -0.13815737663E+03 -0.82845389850E+02  0.37186254521E+03  0.25500000920E-02 0.  1.
</event>
<event>
 5   0  0.7073004E-03  0.1056554E+04  0.7818609E-02  0.9248604E-01
       -1   -1    0    0    0  501  0.00000000000E+00  0.00000000000E+00  0.30127188877E+03  0.30127188881E+03  0.50400001928E-02 0.  1.
        1   -1    0    0  501    0  0.00000000000E+00  0.00000000000E+00 -0.92632774644E+03  0.92632774646E+03  0.50400001928E-02 0. -1.
    10030    2    1    2    0    0  0.00000000000E+00  0.00000000000E+00 -0.62505585767E+03  0.12275996353E+04  0.10565538506E+04 0.  0.
        1    1    3    3  502    0 -0.46293527431E+03  0.13344801965E+03 -0.60745831791E+02  0.48560014235E+03  0.50400001928E-02 0. -1.
       -1    1    3    3    0  502  0.46293527431E+03 -0.13344801965E+03 -0.56431002588E+03  0.74199949291E+03  0.50400001928E-02 0.  1.
</event>
<event>
 5   0  0.7224879E-03  0.1013205E+04  0.7818609E-02  0.9294179E-01
       -1   -1    0    0    0  501  0.00000000000E+00  0.00000000000E+00  0.32406622040E+03  0.32406622043E+03  0.50400001928E-02 0.  1.
        1   -1    0    0  501    0  0.00000000000E+00  0.00000000000E+00 -0.79195635083E+03  0.79195635085E+03  0.50400001928E-02 0. -1.
    10030    2    1    2    0    0  0.00000000000E+00  0.00000000000E+00 -0.46789013044E+03  0.11160225713E+04  0.10132054113E+04 0.  0.
        3    1    3    3  502    0  0.56970468665E+02 -0.45881420613E+03 -0.46206036665E+03  0.65364814899E+03  0.10100000352E+00 0. -1.
       -3    1    3    3    0  502 -0.56970468665E+02  0.45881420613E+03 -0.58297637884E+01  0.46237442230E+03  0.10100000352E+00 0.  1.
</event>
<event>
 5   0  0.7224879E-03  0.1101062E+04  0.7818609E-02  0.9204157E-01
        1   -1    0    0  501    0  0.00000000000E+00  0.00000000000E+00  0.71333040953E+03  0.71333040955E+03  0.50400001928E-02 0. -1.
       -1   -1    0    0    0  501  0.00000000000E+00  0.00000000000E+00 -0.42488643883E+03  0.42488643886E+03  0.50400001928E-02 0.  1.
    10030    2    1    2    0    0  0.00000000000E+00  0.00000000000E+00  0.28844397070E+03  0.11382168484E+04  0.11010620644E+04 0.  0.
        3    1    3    3  502    0  0.39568255064E+02 -0.18614811282E+03 -0.38980249736E+03  0.43377732059E+03  0.10100000352E+00 0.  1.
       -3    1    3    3    0  502 -0.39568255064E+02  0.18614811282E+03  0.67824646806E+03  0.70443952781E+03  0.10100000352E+00 0. -1.
</event>
<event>
 5   0  0.1216322E-02  0.1011068E+04  0.7818609E-02  0.9296488E-01
        2   -1    0    0  501    0  0.00000000000E+00  0.00000000000E+00  0.34151616020E+03  0.34151616021E+03  0.25500000920E-02 0.  1.
       -2   -1    0    0    0  501  0.00000000000E+00  0.00000000000E+00 -0.74832412300E+03  0.74832412300E+03  0.25500000920E-02 0. -1.
    10030    2    1    2    0    0  0.00000000000E+00  0.00000000000E+00 -0.40680796280E+03  0.10898402832E+04  0.10110683084E+04 0.  0.
        2    1    3    3  502    0  0.67314994162E+02  0.49604861000E+03 -0.27938895986E+03  0.57328328322E+03  0.25500000920E-02 0.  1.
       -2    1    3    3    0  502 -0.67314994162E+02 -0.49604861000E+03 -0.12741900294E+03  0.51655699999E+03  0.25500000920E-02 0. -1.
</event>
<event>
 5   0  0.6967681E-03  0.1008222E+04  0.7818609E-02  0.9299573E-01
       -1   -1    0    0    0  501  0.00000000000E+00  0.00000000000E+00  0.25143788641E+03  0.25143788646E+03  0.50400001928E-02 0. -1.
        1   -1    0    0  501    0  0.00000000000E+00  0.00000000000E+00 -0.10106984647E+04  0.10106984647E+04  0.50400001928E-02 0.  1.
    10030    2    1    2    0    0  0.00000000000E+00  0.00000000000E+00 -0.75926057832E+03  0.12621363512E+04  0.10082219712E+04 0.  0.
        5    1    3    3  502    0  0.43454369267E+03 -0.10848041901E+02 -0.69918138085E+03  0.82329982034E+03  0.46999998093E+01 0.  1.
       -5    1    3    3    0  502 -0.43454369267E+03  0.10848041901E+02 -0.60079197471E+02  0.43883653086E+03  0.46999998093E+01 0. -1.
</event>
<event>
 5   0  0.1221315E-02  0.9728684E+03  0.7818609E-02  0.9338813E-01
        2   -1    0    0  501    0  0.00000000000E+00  0.00000000000E+00  0.17670446654E+04  0.17670446654E+04  0.25500000920E-02 0.  1.
       -2   -1    0    0    0  501  0.00000000000E+00  0.00000000000E+00 -0.13390619166E+03  0.13390619169E+03  0.25500000920E-02 0. -1.
    10030    2    1    2    0    0  0.00000000000E+00  0.00000000000E+00  0.16331384737E+04  0.19009508571E+04  0.97286838095E+03 0.  0.
        5    1    3    3  502    0  0.11751920372E+03 -0.20361376303E+03  0.16486161322E+04  0.16653007443E+04  0.46999998093E+01 0.  1.
       -5    1    3    3    0  502 -0.11751920372E+03  0.20361376303E+03 -0.15477658445E+02  0.23565011277E+03  0.46999998093E+01 0. -1.
</event>
<event>
 5   0  0.7461157E-03  0.9988165E+03  0.7818609E-02  0.9309844E-01
        1   -1    0    0  501    0  0.00000000000E+00  0.00000000000E+00  0.67926424073E+03  0.67926424075E+03  0.50400001928E-02 0. -1.
       -1   -1    0    0    0  501  0.00000000000E+00  0.00000000000E+00 -0.36717464808E+03  0.36717464811E+03  0.50400001928E-02 0.  1.
    10030    2    1    2    0    0  0.00000000000E+00  0.00000000000E+00  0.31208959265E+03  0.10464388889E+04  0.99881651682E+03 0.  0.
        2    1    3    3  502    0 -0.67202790598E+01  0.84196208541E+02  0.67172678046E+03  0.67701627105E+03  0.25500000920E-02 0. -1.
       -2    1    3    3    0  502  0.67202790598E+01 -0.84196208541E+02 -0.35963718781E+03  0.36942261780E+03  0.25500000920E-02 0.  1.
</event>
<event>
 5   0  0.4782125E-03  0.9896764E+03  0.7818609E-02  0.9319941E-01
       -4   -1    0    0    0  501  0.00000000000E+00  0.00000000000E+00  0.31993869514E+03  0.31994121577E+03  0.12699999809E+01 0.  1.
        4   -1    0    0  501    0  0.00000000000E+00  0.00000000000E+00 -0.76534324166E+03  0.76534429537E+03  0.12699999809E+01 0. -1.
    10030    2    1    2    0    0  0.00000000000E+00  0.00000000000E+00 -0.44540454653E+03  0.10852855111E+04  0.98967642723E+03 0.  0.
        4    1    3    3  502    0 -0.13622268086E+03  0.80862159162E+02 -0.73678492089E+03  0.75362387178E+03  0.12699999809E+01 0. -1.
       -4    1    3    3    0  502  0.13622268086E+03 -0.80862159162E+02  0.29138037436E+03  0.33166163936E+03  0.12699999809E+01 0.  1.
</event>
<event>
 5   0  0.7073004E-03  0.1014126E+04  0.7818609E-02  0.9293186E-01
        1   -1    0    0  501    0  0.00000000000E+00  0.00000000000E+00  0.37493570411E+03  0.37493570414E+03  0.50400001928E-02 0. -1.
       -1   -1    0    0    0  501  0.00000000000E+00  0.00000000000E+00 -0.68575188685E+03  0.68575188687E+03  0.50400001928E-02 0.  1.
    10030    2    1    2    0    0  0.00000000000E+00  0.00000000000E+00 -0.31081618274E+03  0.10606875910E+04  0.10141259617E+04 0.  0.
        1    1    3    3  502    0  0.36686329276E+03  0.32723940361E+03 -0.28536489894E+03  0.56842539389E+03  0.50400001928E-02 0.  1.
       -1    1    3    3    0  502 -0.36686329276E+03 -0.32723940361E+03 -0.25451283799E+02  0.49226219712E+03  0.50400001928E-02 0. -1.
</event>
<event>
 5   0  0.7461157E-03  0.1017380E+04  0.7818609E-02  0.9289686E-01
        1   -1    0    0  501    0  0.00000000000E+00  0.00000000000E+00  0.20070608024E+04  0.20070608024E+04  0.50400001928E-02 0. -1.
       -1   -1    0    0    0  501  0.00000000000E+00  0.00000000000E+00 -0.12892753350E+03  0.12892753360E+03  0.50400001928E-02 0.  1.
    10030    2    1    2    0    0  0.00000000000E+00  0.00000000000E+00  0.18781332689E+04  0.21359883360E+04  0.10173797697E+04 0.  0.
        2    1    3    3  502    0  0.18514966805E+03 -0.81317322465E+02  0.19190461101E+04  0.19296711843E+04  0.25500000920E-02 0. -1.
       -2    1    3    3    0  502 -0.18514966805E+03  0.81317322465E+02 -0.40912841261E+02  0.20631715173E+03  0.25500000920E-02 0.  1.
</event>
<event>
 5   0  0.1240503E-02  0.9798640E+03  0.7818609E-02  0.9330910E-01
        2   -1    0    0  501    0  0.00000000000E+00  0.00000000000E+00  0.86850867356E+03  0.86850867356E+03  0.25500000920E-02 0.  1.
       -2   -1    0    0    0  501  0.00000000000E+00  0.00000000000E+00 -0.27637417046E+03  0.27637417047E+03  0.25500000920E-02 0. -1.
    10030    2    1    2    0    0  0.00000000000E+00  0.00000000000E+00  0.59213450310E+03  0.11448828440E+04  0.97986399914E+03 0.  0.
        1    1    3    3  502    0  0.95024281077E+02 -0.63299462454E+02 -0.26061225808E+03  0.28452624665E+03  0.50400001928E-02 0. -1.
       -1    1    3    3    0  502 -0.95024281077E+02  0.63299462454E+02  0.85274676118E+03  0.86035659739E+03  0.50400001928E-02 0.  1.
</event>
<event>
 5   0  0.1240503E-02  0.9984687E+03  0.7818609E-02  0.9310226E-01
       -2   -1    0    0    0  501  0.00000000000E+00  0.00000000000E+00  0.47058175438E+03  0.47058175439E+03  0.25500000920E-02 0. -1.
        2   -1    0    0  501    0  0.00000000000E+00  0.00000000000E+00 -0.52963151782E+03  0.52963151782E+03  0.25500000920E-02 0.  1.
    10030    2    1    2    0    0  0.00000000000E+00  0.00000000000E+00 -0.59049763436E+02  0.10002132722E+04  0.99846868521E+03 0.  0.
        1    1    3    3  502    0  0.15899736299E+03  0.10899643764E+03  0.43179527961E+03  0.47287159819E+03  0.50400001928E-02 0. -1.
       -1    1    3    3    0  502 -0.15899736299E+03 -0.10899643764E+03 -0.49084504304E+03  0.52734167402E+03  0.50400001928E-02 0.  1.
</event>
<event>
 5   0  0.6967681E-03  0.1010211E+04  0.7818609E-02  0.9297416E-01
       -1   -1    0    0    0  501  0.00000000000E+00  0.00000000000E+00  0.24082665847E+03  0.24082665853E+03  0.50400001928E-02 0. -1.
        1   -1    0    0  501    0  0.00000000000E+00  0.00000000000E+00 -0.10593998925E+04  0.10593998925E+04  0.50400001928E-02 0.  1.
    10030    2    1    2    0    0  0.00000000000E+00  0.00000000000E+00 -0.81857323401E+03  0.13002265510E+04  0.10102113366E+04 0.  0.
        5    1    3    3  502    0  0.30795904625E+03  0.31319776717E+03 -0.73022767027E+03  0.85216556839E+03  0.46999998093E+01 0.  1.
       -5    1    3    3    0  502 -0.30795904625E+03 -0.31319776717E+03 -0.88345563740E+02  0.44806098263E+03  0.46999998093E+01 0. -1.
</event>
<event>
 5   0  0.7241200E-03  0.1006239E+04  0.7818609E-02  0.9301729E-01
        1   -1    0    0  501    0  0.00000000000E+00  0.00000000000E+00  0.29854058295E+03  0.29854058299E+03  0.50400001928E-02 0.  1.
       -1   -1    0    0    0  501  0.00000000000E+00  0.00000000000E+00 -0.84788829521E+03  0.84788829522E+03  0.50400001928E-02 0. -1.
    10030    2    1    2    0    0  0.00000000000E+00  0.00000000000E+00 -0.54934771226E+03  0.11464288782E+04  0.10062386714E+04 0.  0.
        4    1    3    3  502    0  0.35015045623E+02  0.28820914856E+03 -0.74281819988E+03  0.79754063076E+03  0.12699999809E+01 0. -1.
       -4    1    3    3    0  502 -0.35015045623E+02 -0.28820914856E+03  0.19347048761E+03  0.34888824746E+03  0.12699999809E+01 0.  1.
</event>
<event>
 5   0  0.1221315E-02  0.1019725E+04  0.7818609E-02  0.9287172E-01
       -2   -1    0    0    0  501  0.00000000000E+00  0.00000000000E+00  0.40249032588E+03  0.40249032588E+03  0.25500000920E-02 0. -1.
        2   -1    0    0  501    0  0.00000000000E+00  0.00000000000E+00 -0.64587797650E+03  0.64587797651E+03  0.25500000920E-02 0.  1.
    10030    2    1    2    0    0  0.00000000000E+00  0.00000000000E+00 -0.24338765063E+03  0.10483683024E+04  0.10197247418E+04 0.  0.
        5    1    3    3  502    0  0.44373299694E+03  0.92487654464E+02 -0.36166984282E+03  0.57989663218E+03  0.46999998093E+01 0.  1.
       -5    1    3    3    0  502 -0.44373299694E+03 -0.92487654464E+02  0.11828219220E+03  0.46847167021E+03  0.46999998093E+01 0. -1.
</event>
<event>
 5   0  0.6967681E-03  0.1016711E+04  0.7818609E-02  0.9290404E-01
       -1   -1    0    0    0  501  0.00000000000E+00  0.00000000000E+00  0.33199174781E+03  0.33199174785E+03  0.50400001928E-02 0.  1.
        1   -1    0    0  501    0  0.00000000000E+00  0.00000000000E+00 -0.77840889441E+03  0.77840889443E+03  0.50400001928E-02 0. -1.
    10030    2    1    2    0    0  0.00000000000E+00  0.00000000000E+00 -0.44641714660E+03  0.11104006423E+04  0.10167110295E+04 0.  0.
        5    1    3    3  502    0  0.50596378862E+03  0.44339976780E+02 -0.20035547546E+03  0.54601263307E+03  0.46999998093E+01 0.  1.
       -5    1    3    3    0  502 -0.50596378862E+03 -0.44339976780E+02 -0.24606167114E+03  0.56438800921E+03  0.46999998093E+01 0. -1.
</event>
<event>
 5   0  0.7461157E-03  0.1009280E+04  0.7818609E-02  0.9298425E-01
        1   -1    0    0  501    0  0.00000000000E+00  0.00000000000E+00  0.24038656508E+03  0.24038656513E+03  0.50400001928E-02 0. -1.
       -1   -1    0    0    0  501  0.00000000000E+00  0.00000000000E+00 -0.10593835925E+04  0.10593835925E+04  0.50400001928E-02 0.  1.
    10030    2    1    2    0    0  0.00000000000E+00  0.00000000000E+00 -0.81899702738E+03  0.12997701576E+04  0.10092801057E+04 0.  0.
        2    1    3    3  502    0 -0.40953172120E+02 -0.50292214174E+03 -0.41893919939E+03  0.65583374094E+03  0.25500000920E-02 0. -1.
       -2    1    3    3    0  502  0.40953172120E+02  0.50292214174E+03 -0.40005782799E+03  0.64393641666E+03  0.25500000920E-02 0.  1.
</event>
<event>
 5   0  0.1221315E-02  0.9917299E+03  0.7818609E-02  0.9317662E-01
       -2   -1    0    0    0  501  0.00000000000E+00  0.00000000000E+00  0.11985178074E+03  0.11985178076E+03  0.25500000920E-02 0.  1.
        2   -1    0    0  501    0  0.00000000000E+00  0.00000000000E+00 -0.20515509220E+04  0.20515509220E+04  0.25500000920E-02 0. -1.
    10030    2    1    2    0    0  0.00000000000E+00  0.00000000000E+00 -0.19316991413E+04  0.21714027028E+04  0.99172986505E+03 0.  0.
        5    1    3    3  502    0 -0.38972558562E+03 -0.26603401527E+03 -0.12993444842E+04  0.13823813902E+04  0.46999998093E+01 0.  1.
       -5    1    3    3    0  502  0.38972558562E+03  0.26603401527E+03 -0.63235465706E+03  0.78902131256E+03  0.46999998093E+01 0. -1.
</event>
<event>
 5   0  0.1240503E-02  0.1015798E+04  0.7818609E-02  0.9291386E-01
       -2   -1    0    0    0  501  0.00000000000E+00  0.00000000000E+00  0.71274753385E+03  0.71274753385E+03  0.25500000920E-02 0.  1.
        2   -1    0    0  501    0  0.00000000000E+00  0.00000000000E+00 -0.36192504893E+03  0.36192504894E+03  0.25500000920E-02 0. -1.
    10030    2    1    2    0    0  0.00000000000E+00  0.00000000000E+00  0.35082248492E+03  0.10746725828E+04  0.10157975902E+04 0.  0.
        1    1    3    3  502    0 -0.63145138092E+02 -0.44969356427E+03  0.41608148090E+03  0.61590210990E+03  0.50400001928E-02 0.  1.
       -1    1    3    3    0  502  0.63145138092E+02  0.44969356427E+03 -0.65258995977E+02  0.45877047289E+03  0.50400001928E-02 0. -1.
</event>
<event>
 5   0  0.7461157E-03  0.9864207E+03  0.7818609E-02  0.9323565E-01
       -1   -1    0    0    0  501  0.00000000000E+00  0.00000000000E+00  0.31152452388E+03  0.31152452392E+03  0.50400001928E-02 0. -1.
        1   -1    0    0  501    0  0.00000000000E+00  0.00000000000E+00 -0.78085809741E+03  0.78085809742E+03  0.50400001928E-02 0.  1.
    10030    2    1    2    0    0  0.00000000000E+00  0.00000000000E+00 -0.46933357353E+03  0.10923826213E+04  0.98642069533E+03 0.  0.
        2    1    3    3  502    0  0.29068654163E+03  0.29813395792E+03  0.58065196974E+02  0.42042132374E+03  0.25500000920E-02 0. -1.
       -2    1    3    3    0  502 -0.29068654163E+03 -0.29813395792E+03 -0.52739877050E+03  0.67196129761E+03  0.25500000920E-02 0.  1.
</event>
<event>
 5   0  0.6967681E-03  0.9751810E+03  0.7818609E-02  0.9336193E-01
       -1   -1    0    0    0  501  0.00000000000E+00  0.00000000000E+00  0.49036299035E+03  0.49036299038E+03  0.50400001928E-02 0.  1.
        1   -1    0    0  501    0  0.00000000000E+00  0.00000000000E+00 -0.48483371383E+03  0.48483371386E+03  0.50400001928E-02 0. -1.
    10030    2    1    2    0    0  0.00000000000E+00  0.00000000000E+00  0.55292765193E+01  0.97519670424E+03  0.97518102886E+03 0.  0.
        5    1    3    3  502    0 -0.13531381896E+03  0.42149585164E+03  0.20710547989E+03  0.48875694608E+03  0.46999998093E+01 0.  1.
       -5    1    3    3    0  502  0.13531381896E+03 -0.42149585164E+03 -0.20157620337E+03  0.48643975815E+03  0.46999998093E+01 0. -1.
</event>
<event>
 5   0  0.7224879E-03  0.1030540E+04  0.7818609E-02  0.9275669E-01
       -1   -1    0    0    0  501  0.00000000000E+00  0.00000000000E+00  0.43348181027E+03  0.43348181030E+03  0.50400001928E-02 0.  1.
        1   -1    0    0  501    0  0.00000000000E+00  0.00000000000E+00 -0.61249009418E+03  0.61249009420E+03  0.50400001928E-02 0. -1.
    10030    2    1    2    0    0  0.00000000000E+00  0.00000000000E+00 -0.17900828391E+03  0.10459719045E+04  0.10305402754E+04 0.  0.
        3    1    3    3  502    0  0.11602401942E+03  0.13037134673E+03  0.40257006190E+03  0.43877206619E+03  0.10100000352E+00 0.  1.
       -3    1    3    3    0  502 -0.11602401942E+03 -0.13037134673E+03 -0.58157834581E+03  0.60719983831E+03  0.10100000352E+00 0. -1.
</event>
<event>
 5   0  0.7224879E-03  0.7555317E+03  0.7818609E-02  0.9626712E-01
       -1   -1    0    0    0  501  0.00000000000E+00  0.00000000000E+00  0.51402127043E+03  0.51402127045E+03  0.50400001928E-02 0. -1.
        1   -1    0    0  501    0  0.00000000000E+00  0.00000000000E+00 -0.27762863304E+03  0.27762863308E+03  0.50400001928E-02 0.  1.
    10030    2    1    2    0    0  0.00000000000E+00  0.00000000000E+00  0.23639263739E+03  0.79164990353E+03  0.75553166099E+03 0.  0.
        3    1    3    3  502    0  0.18788870763E+03 -0.15263172296E+03  0.42207496893E+03  0.48656541072E+03  0.10100000352E+00 0. -1.
       -3    1    3    3    0  502 -0.18788870763E+03  0.15263172296E+03 -0.18568233154E+03  0.30508449282E+03  0.10100000352E+00 0.  1.
</event>
<event>
 5   0  0.6967681E-03  0.1033306E+04  0.7818609E-02  0.9272751E-01
       -1   -1    0    0    0  501  0.00000000000E+00  0.00000000000E+00  0.34943931770E+03  0.34943931774E+03  0.50400001928E-02 0. -1.
        1   -1    0    0  501    0  0.00000000000E+00  0.00000000000E+00 -0.76388204749E+03  0.76388204750E+03  0.50400001928E-02 0.  1.
    10030    2    1    2    0    0  0.00000000000E+00  0.00000000000E+00 -0.41444272978E+03  0.11133213652E+04  0.10333061918E+04 0.  0.
        5    1    3    3  502    0 -0.45415151905E+03 -0.24144650133E+03 -0.15489837734E+03  0.53718303450E+03  0.46999998093E+01 0.  1.
       -5    1    3    3    0  502  0.45415151905E+03  0.24144650133E+03 -0.25954435245E+03  0.57613833074E+03  0.46999998093E+01 0. -1.
</event>
<event>
 5   0  0.7241200E-03  0.9906442E+03  0.7818609E-02  0.9318866E-01
       -1   -1    0    0    0  501  0.00000000000E+00  0.00000000000E+00  0.11191455348E+03  0.11191455359E+03  0.50400001928E-02 0. -1.
        1   -1    0    0  501    0  0.00000000000E+00  0.00000000000E+00 -0.21922437696E+04  0.21922437696E+04  0.50400001928E-02 0.  1.
    10030    2    1    2    0    0  0.00000000000E+00  0.00000000000E+00 -0.20803292161E+04  0.23041583232E+04  0.99064419996E+03 0.  0.
        4    1    3    3  502    0 -0.40632933942E+02 -0.21525883492E+03 -0.68831217521E+01  0.21917205934E+03  0.12699999809E+01 0. -1.
       -4    1    3    3    0  502  0.40632933942E+02  0.21525883492E+03 -0.20734460943E+04  0.20849862638E+04  0.12699999809E+01 0.  1.
</event>
<event>
 5   0  0.7224879E-03  0.9737026E+03  0.7818609E-02  0.9337867E-01
       -1   -1    0    0    0  501  0.00000000000E+00  0.00000000000E+00  0.19050388874E+03  0.19050388881E+03  0.50400001928E-02 0. -1.
        1   -1    0    0  501    0  0.00000000000E+00  0.00000000000E+00 -0.12441959478E+04  0.12441959478E+04  0.50400001928E-02 0.  1.
    10030    2    1    2    0    0  0.00000000000E+00  0.00000000000E+00 -0.10536920590E+04  0.14346998366E+04  0.97370255513E+03 0.  0.
        3    1    3    3  502    0 -0.22200445110E+02 -0.18049625613E+03 -0.11922710815E+04  0.12060605707E+04  0.10100000352E+00 0.  1.
       -3    1    3    3    0  502  0.22200445110E+02  0.18049625613E+03  0.13857902246E+03  0.22863926589E+03  0.10100000352E+00 0. -1.
</event>
<event>
 5   0  0.1191822E-02  0.8729583E+03  0.7818609E-02  0.9460031E-01
        2   -1    0    0  501    0  0.00000000000E+00  0.00000000000E+00  0.16479037977E+04  0.16479037978E+04  0.25500000920E-02 0. -1.
       -2   -1    0    0    0  501  0.00000000000E+00  0.00000000000E+00 -0.11560992136E+03  0.11560992139E+03  0.25500000920E-02 0.  1.
    10030    2    1    2    0    0  0.00000000000E+00  0.00000000000E+00  0.15322938764E+04  0.17635137191E+04  0.87295825443E+03 0.  0.
        4    1    3    3  502    0  0.25065565054E+03 -0.21007723592E+02  0.14867598455E+04  0.15078879371E+04  0.12699999809E+01 0. -1.
       -4    1    3    3    0  502 -0.25065565054E+03  0.21007723592E+02  0.45534030875E+02  0.25562578208E+03  0.12699999809E+01 0.  1.
</event>
<event>
 5   0  0.7224879E-03  0.1026200E+04  0.7818609E-02  0.9280267E-01
       -1   -1    0    0    0  501  0.00000000000E+00  0.00000000000E+00  0.29740206877E+03  0.29740206881E+03  0.50400001928E-02 0.  1.
        1   -1    0    0  501    0  0.00000000000E+00  0.00000000000E+00 -0.88523781085E+03  0.88523781087E+03  0.50400001928E-02 0. -1.
    10030    2    1    2    0    0  0.00000000000E+00  0.00000000000E+00 -0.58783574209E+03  0.11826398797E+04  0.10261998954E+04 0.  0.
        3    1    3    3  502    0 -0.14792853887E+03 -0.49047105042E+03 -0.32705629690E+03  0.60779152302E+03  0.10100000352E+00 0. -1.
       -3    1    3    3    0  502  0.14792853887E+03  0.49047105042E+03 -0.26077944519E+03  0.57484835666E+03  0.10100000352E+00 0.  1.
</event>
<event>
 5   0  0.1245850E-02  0.1001141E+04  0.7818609E-02  0.9307294E-01
        2   -1    0    0  501    0  0.00000000000E+00  0.00000000000E+00  0.70319756763E+03  0.70319756763E+03  0.25500000920E-02 0.  1.
       -2   -1    0    0    0  501  0.00000000000E+00  0.00000000000E+00 -0.35633071796E+03  0.35633071797E+03  0.25500000920E-02 0. -1.
    10030    2    1    2    0    0  0.00000000000E+00  0.00000000000E+00  0.34686684967E+03  0.10595282856E+04  0.10011411372E+04 0.  0.
        3    1    3    3  502    0 -0.26340934003E+03  0.27925911794E+03  0.51341757581E+03  0.64106766625E+03  0.10100000352E+00 0.  1.
       -3    1    3    3    0  502  0.26340934003E+03 -0.27925911794E+03 -0.16655072614E+03  0.41846061935E+03  0.10100000352E+00 0. -1.
</event>
<event>
 5   0  0.1245850E-02  0.1024119E+04  0.7818609E-02  0.9282480E-01
       -2   -1    0    0    0  501  0.00000000000E+00  0.00000000000E+00  0.24404290709E+03  0.24404290710E+03  0.25500000920E-02 0.  1.
        2   -1    0    0  501    0  0.00000000000E+00  0.00000000000E+00 -0.10744214812E+04  0.10744214812E+04  0.25500000920E-02 0. -1.
    10030    2    1    2    0    0  0.00000000000E+00  0.00000000000E+00 -0.83037857408E+03  0.13184643883E+04  0.10241190199E+04 0.  0.
        3    1    3    3  502    0  0.65655143099E+02  0.27300348865E+03 -0.96647194765E+03  0.10064340706E+04  0.10100000352E+00 0. -1.
       -3    1    3    3    0  502 -0.65655143099E+02 -0.27300348865E+03  0.13609337357E+03  0.31203031770E+03  0.10100000352E+00 0.  1.
</event>
<event>
 5   0  0.4782125E-03  0.1003002E+04  0.7818609E-02  0.9305259E-01
       -4   -1    0    0    0  501  0.00000000000E+00  0.00000000000E+00  0.57679498924E+03  0.57679638739E+03  0.12699999809E+01 0.  1.
        4   -1    0    0  501    0  0.00000000000E+00  0.00000000000E+00 -0.43603262703E+03  0.43603447654E+03  0.12699999809E+01 0. -1.
    10030    2    1    2    0    0  0.00000000000E+00  0.00000000000E+00  0.14076236221E+03  0.10128308639E+04  0.10030016532E+04 0.  0.
        4    1    3    3  502    0  0.13494266303E+03  0.24059827775E+01  0.55811150828E+03  0.57419977328E+03  0.12699999809E+01 0.  1.
       -4    1    3    3    0  502 -0.13494266303E+03 -0.24059827775E+01 -0.41734914608E+03  0.43863109066E+03  0.12699999809E+01 0. -1.
</event>
<event>
 5   0  0.1221315E-02  0.1010011E+04  0.7818609E-02  0.9297632E-01
        2   -1    0    0  501    0  0.00000000000E+00  0.00000000000E+00  0.23313704503E+03  0.23313704504E+03  0.25500000920E-02 0.  1.
       -2   -1    0    0    0  501  0.00000000000E+00  0.00000000000E+00 -0.10939087962E+04  0.10939087962E+04  0.25500000920E-02 0. -1.
    10030    2    1    2    0    0  0.00000000000E+00  0.00000000000E+00 -0.86077175116E+03  0.13270458412E+04  0.10100112163E+04 0.  0.
        5    1    3    3  502    0 -0.20050750827E+03 -0.28453475069E+03 -0.91107165435E+03  0.97531376212E+03  0.46999998093E+01 0. -1.
       -5    1    3    3    0  502  0.20050750827E+03  0.28453475069E+03  0.50299903185E+02  0.35173207912E+03  0.46999998093E+01 0.  1.
</event>
<event>
 5   0  0.6967681E-03  0.1003402E+04  0.7818609E-02  0.9304821E-01
        1   -1    0    0  501    0  0.00000000000E+00  0.00000000000E+00  0.42021203240E+03  0.42021203243E+03  0.50400001928E-02 0.  1.
       -1   -1    0    0    0  501  0.00000000000E+00  0.00000000000E+00 -0.59899256836E+03  0.59899256838E+03  0.50400001928E-02 0. -1.
    10030    2    1    2    0    0  0.00000000000E+00  0.00000000000E+00 -0.17878053596E+03  0.10192046008E+04  0.10034019824E+04 0.  0.
        5    1    3    3  502    0 -0.13229391585E+03  0.35682450397E+03 -0.42142740860E+03  0.56784554019E+03  0.46999998093E+01 0. -1.
       -5    1    3    3    0  502  0.13229391585E+03 -0.35682450397E+03  0.24264687264E+03  0.45135906062E+03  0.46999998093E+01 0.  1.
</event>
<event>
 5   0  0.7461157E-03  0.1004248E+04  0.7818609E-02  0.9303898E-01
       -1   -1    0    0    0  501  0.00000000000E+00  0.00000000000E+00  0.43041425823E+03  0.43041425826E+03  0.50400001928E-02 0.  1.
        1   -1    0    0  501    0  0.00000000000E+00  0.00000000000E+00 -0.58578146318E+03  0.58578146320E+03  0.50400001928E-02 0. -1.
    10030    2    1    2    0    0  0.00000000000E+00  0.00000000000E+00 -0.15536720495E+03  0.10161957215E+04  0.10042483637E+04 0.  0.
        2    1    3    3  502    0 -0.12514856238E+03 -0.17113004715E+03  0.38290292661E+03  0.43767831442E+03  0.25500000920E-02 0.  1.
       -2    1    3    3    0  502  0.12514856238E+03  0.17113004715E+03 -0.53827013156E+03  0.57851740703E+03  0.25500000920E-02 0. -1.
</event>
<event>
 5   0  0.1221315E-02  0.9919219E+03  0.7818609E-02  0.9317449E-01
        2   -1    0    0  501    0  0.00000000000E+00  0.00000000000E+00  0.64517000417E+03  0.64517000417E+03  0.25500000920E-02 0.  1.
       -2   -1    0    0    0  501  0.00000000000E+00  0.00000000000E+00 -0.38125960191E+03  0.38125960191E+03  0.25500000920E-02 0. -1.
    10030    2    1    2    0    0  0.00000000000E+00  0.00000000000E+00  0.26391040226E+03  0.10264296061E+04  0.99192188998E+03 0.  0.
        5    1    3    3  502    0  0.15042363964E+03  0.13248249876E+03 -0.33745157769E+03  0.39252330010E+03  0.46999998093E+01 0. -1.
       -5    1    3    3    0  502 -0.15042363964E+03 -0.13248249876E+03  0.60136197995E+03  0.63390630599E+03  0.46999998093E+01 0.  1.
</event>
<event>
 5   0  0.1240503E-02  0.9921049E+03  0.7818609E-02  0.9317247E-01
        2   -1    0    0  501    0  0.00000000000E+00  0.00000000000E+00  0.65401967811E+03  0.65401967812E+03  0.25500000920E-02 0.  1.
       -2   -1    0    0    0  501  0.00000000000E+00  0.00000000000E+00 -0.37623947833E+03  0.37623947834E+03  0.25500000920E-02 0. -1.
    10030    2    1    2    0    0  0.00000000000E+00  0.00000000000E+00  0.27778019978E+03  0.10302591565E+04  0.99210487857E+03 0.  0.
        1    1    3    3  502    0 -0.12053223105E+03 -0.44411863970E+03 -0.53431176581E+02  0.46327559347E+03  0.50400001928E-02 0. -1.
       -1    1    3    3    0  502  0.12053223105E+03  0.44411863970E+03  0.33121137636E+03  0.56698356299E+03  0.50400001928E-02 0.  1.
</event>
<event>
 5   0  0.7461157E-03  0.9465826E+03  0.7818609E-02  0.9369154E-01
       -1   -1    0    0    0  501  0.00000000000E+00  0.00000000000E+00  0.18356073637E+03  0.18356073644E+03  0.50400001928E-02 0.  1.
        1   -1    0    0  501    0  0.00000000000E+00  0.00000000000E+00 -0.12203298550E+04  0.12203298550E+04  0.50400001928E-02 0. -1.
    10030    2    1    2    0    0  0.00000000000E+00  0.00000000000E+00 -0.10367691186E+04  0.14038905914E+04  0.94658258350E+03 0.  0.
        2    1    3    3  502    0  0.45091584789E+03  0.71149663340E+02 -0.70372804163E+03  0.83882091834E+03  0.25500000920E-02 0. -1.
       -2    1    3    3    0  502 -0.45091584789E+03 -0.71149663340E+02 -0.33304107700E+03  0.56506967309E+03  0.25500000920E-02 0.  1.
</event>
<event>
 5   0  0.1240503E-02  0.7746157E+03  0.7818609E-02  0.9597504E-01
        2   -1    0    0  501    0  0.00000000000E+00  0.00000000000E+00  0.14393639479E+04  0.14393639479E+04  0.25500000920E-02 0.  1.
       -2   -1    0    0    0  501  0.00000000000E+00  0.00000000000E+00 -0.10421782117E+03  0.10421782121E+03  0.25500000920E-02 0. -1.
    10030    2    1    2    0    0  0.00000000000E+00  0.00000000000E+00  0.13351461268E+04  0.15435817692E+04  0.77461571003E+03 0.  0.
        1    1    3    3  502    0  0.37081942106E+03  0.93870038572E+02  0.78860021027E+03  0.87647528136E+03  0.50400001928E-02 0. -1.
       -1    1    3    3    0  502 -0.37081942106E+03 -0.93870038572E+02  0.54654591650E+03  0.66710648779E+03  0.50400001928E-02 0.  1.
</event>
<event>
 5   0  0.7241200E-03  0.1004146E+04  0.7818609E-02  0.9304009E-01
        1   -1    0    0  501    0  0.00000000000E+00  0.00000000000E+00  0.62383900515E+03  0.62383900517E+03  0.50400001928E-02 0. -1.
       -1   -1    0    0    0  501  0.00000000000E+00  0.00000000000E+00 -0.40407425294E+03  0.40407425297E+03  0.50400001928E-02 0.  1.
    10030    2    1    2    0    0  0.00000000000E+00  0.00000000000E+00  0.21976475221E+03  0.10279132581E+04  0.10041459655E+04 0.  0.
        4    1    3    3  502    0 -0.39466634639E+03  0.19661091010E+03 -0.13592250754E+03  0.46140428682E+03  0.12699999809E+01 0.  1.
       -4    1    3    3    0  502  0.39466634639E+03 -0.19661091010E+03  0.35568725974E+03  0.56650897132E+03  0.12699999809E+01 0. -1.
</event>
<event>
 5   0  0.4782125E-03  0.1005114E+04  0.7818609E-02  0.9302954E-01
       -3   -1    0    0    0  501  0.00000000000E+00  0.00000000000E+00  0.31008506349E+03  0.31008507994E+03  0.10100000352E+00 0.  1.
        3   -1    0    0  501    0  0.00000000000E+00  0.00000000000E+00 -0.81449739282E+03  0.81449739909E+03  0.10100000352E+00 0. -1.
    10030    2    1    2    0    0  0.00000000000E+00  0.00000000000E+00 -0.50441232934E+03  0.11245824790E+04  0.10051139011E+04 0.  0.
        3    1    3    3  502    0  0.15652658767E+02  0.41412133424E+03 -0.57028942307E+03  0.70496207094E+03  0.10100000352E+00 0. -1.
       -3    1    3    3    0  502 -0.15652658767E+02 -0.41412133424E+03  0.65877093737E+02  0.41962040808E+03  0.10100000352E+00 0.  1.
</event>
<event>
 5   0  0.1245850E-02  0.9619208E+03  0.7818609E-02  0.9351324E-01
       -2   -1    0    0    0  501  0.00000000000E+00  0.00000000000E+00  0.28080571449E+03  0.28080571450E+03  0.25500000920E-02 0.  1.
        2   -1    0    0  501    0  0.00000000000E+00  0.00000000000E+00 -0.82378282687E+03  0.82378282687E+03  0.25500000920E-02 0. -1.
    10030    2    1    2    0    0  0.00000000000E+00  0.00000000000E+00 -0.54297711237E+03  0.11045885414E+04  0.96192083935E+03 0.  0.
        3    1    3    3  502    0 -0.14351838997E+03 -0.20919017901E+03 -0.74070555090E+03  0.78294494225E+03  0.10100000352E+00 0. -1.
       -3    1    3    3    0  502  0.14351838997E+03  0.20919017901E+03  0.19772843853E+03  0.32164359913E+03  0.10100000352E+00 0.  1.
</event>
<event>
 5   0  0.7241200E-03  0.9895063E+03  0.7818609E-02  0.9320130E-01
        1   -1    0    0  501    0  0.00000000000E+00  0.00000000000E+00  0.46291479279E+03  0.46291479282E+03  0.50400001928E-02 0. -1.
       -1   -1    0    0    0  501  0.00000000000E+00  0.00000000000E+00 -0.52878130556E+03  0.52878130559E+03  0.50400001928E-02 0.  1.
    10030    2    1    2    0    0  0.00000000000E+00  0.00000000000E+00 -0.65866512768E+02  0.99169609841E+03  0.98950631837E+03 0.  0.
        4    1    3    3  502    0 -0.23671678137E+03  0.24156321798E+03  0.32896342028E+03  0.47181158066E+03  0.12699999809E+01 0. -1.
       -4    1    3    3    0  502  0.23671678137E+03 -0.24156321798E+03 -0.39482993305E+03  0.51988451775E+03  0.12699999809E+01 0.  1.
</event>
<event>
 5   0  0.1245850E-02  0.9903342E+03  0.7818609E-02  0.9319210E-01
        2   -1    0    0  501    0  0.00000000000E+00  0.00000000000E+00  0.25727899636E+03  0.25727899637E+03  0.25500000920E-02 0.  1.
       -2   -1    0    0    0  501  0.00000000000E+00  0.00000000000E+00 -0.95301383176E+03  0.95301383176E+03  0.25500000920E-02 0. -1.
    10030    2    1    2    0    0  0.00000000000E+00  0.00000000000E+00 -0.69573483540E+03  0.12102928281E+04  0.99033417019E+03 0.  0.
        3    1    3    3  502    0  0.48356081446E+02  0.16001388044E+03  0.22175394545E+03  0.27770051327E+03  0.10100000352E+00 0.  1.
       -3    1    3    3    0  502 -0.48356081446E+02 -0.16001388044E+03 -0.91748878085E+03  0.93259231486E+03  0.10100000352E+00 0. -1.
</event>
<event>
 5   0  0.1191822E-02  0.9670308E+03  0.7818609E-02  0.9345463E-01
        2   -1    0    0  501    0  0.00000000000E+00  0.00000000000E+00  0.66011385297E+03  0.66011385298E+03  0.25500000920E-02 0.  1.
       -2   -1    0    0    0  501  0.00000000000E+00  0.00000000000E+00 -0.35416181669E+03  0.35416181670E+03  0.25500000920E-02 0. -1.
    10030    2    1    2    0    0  0.00000000000E+00  0.00000000000E+00  0.30595203628E+03  0.10142756697E+04  0.96703075731E+03 0.  0.
        4    1    3    3  502    0  0.11011044543E+03 -0.16437375340E+03 -0.30976129563E+03  0.36755504916E+03  0.12699999809E+01 0. -1.
       -4    1    3    3    0  502 -0.11011044543E+03  0.16437375340E+03  0.61571333191E+03  0.64672062051E+03  0.12699999809E+01 0.  1.
</event>
<event>
 5   0  0.1216322E-02  0.7289417E+03  0.7818609E-02  0.9668979E-01
        2   -1    0    0  501    0  0.00000000000E+00  0.00000000000E+00  0.19437488243E+04  0.19437488243E+04  0.25500000920E-02 0.  1.
       -2   -1    0    0    0  501  0.00000000000E+00  0.00000000000E+00 -0.68341644659E+02  0.68341644707E+02  0.25500000920E-02 0. -1.
    10030    2    1    2    0    0  0.00000000000E+00  0.00000000000E+00  0.18754071797E+04  0.20120904690E+04  0.72894167533E+03 0.  0.
        2    1    3    3  502    0 -0.17534036955E+03 -0.60804692982E+02  0.18035619092E+04  0.18130849445E+04  0.25500000920E-02 0.  1.
       -2    1    3    3    0  502  0.17534036955E+03  0.60804692982E+02  0.71845270497E+02  0.19900552450E+03  0.25500000920E-02 0. -1.
</event>
<event>
 5   0  0.1216322E-02  0.9926642E+03  0.7818609E-02  0.9316627E-01
       -2   -1    0    0    0  501  0.00000000000E+00  0.00000000000E+00  0.22262244355E+03  0.22262244356E+03  0.25500000920E-02 0. -1.
        2   -1    0    0  501    0  0.00000000000E+00  0.00000000000E+00 -0.11065620443E+04  0.11065620443E+04  0.25500000920E-02 0.  1.
    10030    2    1    2    0    0  0.00000000000E+00  0.00000000000E+00 -0.88393960071E+03  0.13291844878E+04  0.99266418540E+03 0.  0.
        2    1    3    3  502    0 -0.33154210956E+03  0.36278148745E+03 -0.53488347205E+03  0.72638206663E+03  0.25500000920E-02 0. -1.
       -2    1    3    3    0  502  0.33154210956E+03 -0.36278148745E+03 -0.34905612866E+03  0.60280242120E+03  0.25500000920E-02 0.  1.
</event>
<event>
 5   0  0.7461157E-03  0.9561084E+03  0.7818609E-02  0.9358039E-01
       -1   -1    0    0    0  501  0.00000000000E+00  0.00000000000E+00  0.38905044083E+03  0.38905044086E+03  0.50400001928E-02 0. -1.
        1   -1    0    0  501    0  0.00000000000E+00  0.00000000000E+00 -0.58741953892E+03  0.58741953894E+03  0.50400001928E-02 0.  1.
    10030    2    1    2    0    0  0.00000000000E+00  0.00000000000E+00 -0.19836909809E+03  0.97646997980E+03  0.95610842606E+03 0.  0.
        2    1    3    3  502    0  0.42531138703E+02 -0.21896330048E+03 -0.53101538727E+03  0.57596108049E+03  0.25500000920E-02 0.  1.
       -2    1    3    3    0  502 -0.42531138703E+02  0.21896330048E+03  0.33264628918E+03  0.40050889931E+03  0.25500000920E-02 0. -1.
</event>
<event>
 5   0  0.1216322E-02  0.9954744E+03  0.7818609E-02  0.9313522E-01
        2   -1    0    0  501    0  0.00000000000E+00  0.00000000000E+00  0.35873254002E+03  0.35873254003E+03  0.25500000920E-02 0.  1.
       -2   -1    0    0    0  501  0.00000000000E+00  0.00000000000E+00 -0.69060455111E+03  0.69060455112E+03  0.25500000920E-02 0. -1.
    10030    2    1    2    0    0  0.00000000000E+00  0.00000000000E+00 -0.33187201109E+03  0.10493370911E+04  0.99547440907E+03 0.  0.
        2    1    3    3  502    0 -0.12820613956E+03  0.43503398426E+03  0.50222731582E+02  0.45630439890E+03  0.25500000920E-02 0.  1.
       -2    1    3    3    0  502  0.12820613956E+03 -0.43503398426E+03 -0.38209474267E+03  0.59303269224E+03  0.25500000920E-02 0. -1.
</event>
<event>
 5   0  0.1221315E-02  0.9752657E+03  0.7818609E-02  0.9336097E-01
        2   -1    0    0  501    0  0.00000000000E+00  0.00000000000E+00  0.19642581386E+04  0.19642581386E+04  0.25500000920E-02 0.  1.
       -2   -1    0    0    0  501  0.00000000000E+00  0.00000000000E+00 -0.12105628863E+03  0.12105628866E+03  0.25500000920E-02 0. -1.
    10030    2    1    2    0    0  0.00000000000E+00  0.00000000000E+00  0.18432018500E+04  0.20853144273E+04  0.97526570781E+03 0.  0.
        5    1    3    3  502    0  0.29860550711E+03  0.98749603507E+02  0.12486058136E+03  0.33842131706E+03  0.46999998093E+01 0. -1.
       -5    1    3    3    0  502 -0.29860550711E+03 -0.98749603507E+02  0.17183412686E+04  0.17468931102E+04  0.46999998093E+01 0.  1.
</event>
<event>
 5   0  0.1221315E-02  0.1007564E+04  0.7818609E-02  0.9300287E-01
       -2   -1    0    0    0  501  0.00000000000E+00  0.00000000000E+00  0.26445201564E+03  0.26445201565E+03  0.25500000920E-02 0.  1.
        2   -1    0    0  501    0  0.00000000000E+00  0.00000000000E+00 -0.95970640492E+03  0.95970640493E+03  0.25500000920E-02 0. -1.
    10030    2    1    2    0    0  0.00000000000E+00  0.00000000000E+00 -0.69525438929E+03  0.12241584206E+04  0.10075639795E+04 0.  0.
        5    1    3    3  502    0 -0.29250173001E+03  0.40053789707E+03 -0.24041812913E+03  0.55119038077E+03  0.46999998093E+01 0.  1.
       -5    1    3    3    0  502  0.29250173001E+03 -0.40053789707E+03 -0.45483626015E+03  0.67296803980E+03  0.46999998093E+01 0. -1.
</event>
<event>
 5   0  0.1245850E-02  0.9979797E+03  0.7818609E-02  0.9310763E-01
        2   -1    0    0  501    0  0.00000000000E+00  0.00000000000E+00  0.36996133932E+03  0.36996133933E+03  0.25500000920E-02 0.  1.
       -2   -1    0    0    0  501  0.00000000000E+00  0.00000000000E+00 -0.67301865757E+03  0.67301865757E+03  0.25500000920E-02 0. -1.
    10030    2    1    2    0    0  0.00000000000E+00  0.00000000000E+00 -0.30305731825E+03  0.10429799969E+04  0.99797972715E+03 0.  0.
        3    1    3    3  502    0  0.94201703933E+02  0.17967546311E+03 -0.62797301089E+03  0.65992980360E+03  0.10100000352E+00 0. -1.
       -3    1    3    3    0  502 -0.94201703933E+02 -0.17967546311E+03  0.32491569264E+03  0.38305019331E+03  0.10100000352E+00 0.  1.
</event>
<event>
 5   0  0.6967681E-03  0.9784525E+03  0.7818609E-02  0.9332499E-01
        1   -1    0    0  501    0  0.00000000000E+00  0.00000000000E+00  0.70704727449E+03  0.70704727451E+03  0.50400001928E-02 0. -1.
       -1   -1    0    0    0  501  0.00000000000E+00  0.00000000000E+00 -0.33850966721E+03  0.33850966725E+03  0.50400001928E-02 0.  1.
    10030    2    1    2    0    0  0.00000000000E+00  0.00000000000E+00  0.36853760728E+03  0.10455569418E+04  0.97845252847E+03 0.  0.
        5    1    3    3  502    0  0.32442798305E+03  0.35643439671E+03  0.27380841782E+03  0.55433936809E+03  0.46999998093E+01 0. -1.
       -5    1    3    3    0  502 -0.32442798305E+03 -0.35643439671E+03  0.94729189456E+02  0.49121757366E+03  0.46999998093E+01 0.  1.
</event>
<event>
 5   0  0.7073004E-03  0.1016839E+04  0.7818609E-02  0.9290266E-01
       -1   -1    0    0    0  501  0.00000000000E+00  0.00000000000E+00  0.11758568760E+03  0.11758568771E+03  0.50400001928E-02 0. -1.
        1   -1    0    0  501    0  0.00000000000E+00  0.00000000000E+00 -0.21983170809E+04  0.21983170809E+04  0.50400001928E-02 0.  1.
    10030    2    1    2    0    0  0.00000000000E+00  0.00000000000E+00 -0.20807313933E+04  0.23159027686E+04  0.10168394675E+04 0.  0.
        1    1    3    3  502    0 -0.28725134756E+03 -0.19106118867E+03 -0.18979021396E+03  0.39374870137E+03  0.50400001928E-02 0. -1.
       -1    1    3    3    0  502  0.28725134756E+03  0.19106118867E+03 -0.18909411793E+04  0.19221540672E+04  0.50400001928E-02 0.  1.
</event>
<event>
 5   0  0.1245850E-02  0.1025913E+04  0.7818609E-02  0.9280571E-01
        2   -1    0    0  501    0  0.00000000000E+00  0.00000000000E+00  0.20756609205E+04  0.20756609205E+04  0.25500000920E-02 0. -1.
       -2   -1    0    0    0  501  0.00000000000E+00  0.00000000000E+00 -0.12676665664E+03  0.12676665666E+03  0.25500000920E-02 0.  1.
    10030    2    1    2    0    0  0.00000000000E+00  0.00000000000E+00  0.19488942639E+04  0.22024275772E+04  0.10259134374E+04 0.  0.
        3    1    3    3  502    0  0.22675755577E+03  0.23075944293E+03  0.11988269085E+03  0.34502286789E+03  0.10100000352E+00 0.  1.
       -3    1    3    3    0  502 -0.22675755577E+03 -0.23075944293E+03  0.18290115731E+04  0.18574047093E+04  0.10100000352E+00 0. -1.
</event>
<event>
 5   0  0.4782125E-03  0.9955527E+03  0.7818609E-02  0.9313436E-01
       -4   -1    0    0    0  501  0.00000000000E+00  0.00000000000E+00  0.60019519061E+03  0.60019653425E+03  0.12699999809E+01 0. -1.
        4   -1    0    0  501    0  0.00000000000E+00  0.00000000000E+00 -0.41283173009E+03  0.41283368355E+03  0.12699999809E+01 0.  1.
    10030    2    1    2    0    0  0.00000000000E+00  0.00000000000E+00  0.18736346052E+03  0.10130302178E+04  0.99555268863E+03 0.  0.
        3    1    3    3  502    0  0.40479305410E+02  0.41623505486E+03  0.36840494139E+03  0.55732612186E+03  0.10100000352E+00 0. -1.
       -3    1    3    3    0  502 -0.40479305410E+02 -0.41623505486E+03 -0.18104148087E+03  0.45570409594E+03  0.10100000352E+00 0.  1.
</event>
<event>
 5   0  0.1191822E-02  0.1028530E+04  0.7818609E-02  0.9277796E-01
        2   -1    0    0  501    0  0.00000000000E+00  0.00000000000E+00  0.15676147811E+04  0.15676147812E+04  0.25500000920E-02 0. -1.
       -2   -1    0    0    0  501  0.00000000000E+00  0.00000000000E+00 -0.16870747628E+03  0.16870747630E+03  0.25500000920E-02 0.  1.
    10030    2    1    2    0    0  0.00000000000E+00  0.00000000000E+00  0.13989073049E+04  0.17363222575E+04  0.10285296953E+04 0.  0.
        4    1    3    3  502    0  0.16124055103E+03  0.31951057060E+03  0.76019266956E+02  0.36587711307E+03  0.12699999809E+01 0.  1.
       -4    1    3    3    0  502 -0.16124055103E+03 -0.31951057060E+03  0.13228880379E+04  0.13704451444E+04  0.12699999809E+01 0. -1.
</event>
<event>
 5   0  0.4782125E-03  0.1018279E+04  0.7818609E-02  0.9288721E-01
        3   -1    0    0  501    0  0.00000000000E+00  0.00000000000E+00  0.33504892133E+03  0.33504893655E+03  0.10100000352E+00 0. -1.
       -3   -1    0    0    0  501  0.00000000000E+00  0.00000000000E+00 -0.77368717580E+03  0.77368718239E+03  0.10100000352E+00 0.  1.
    10030    2    1    2    0    0  0.00000000000E+00  0.00000000000E+00 -0.43863825447E+03  0.11087361189E+04  0.10182790694E+04 0.  0.
        1    1    3    3  502    0  0.25629696697E+03  0.41528802917E+03 -0.61266500080E+02  0.49183926898E+03  0.50400001928E-02 0.  1.
       -1    1    3    3    0  502 -0.25629696697E+03 -0.41528802917E+03 -0.37737175439E+03  0.61689684996E+03  0.50400001928E-02 0. -1.
</event>
<event>
 5   0  0.7241200E-03  0.9957519E+03  0.7818609E-02  0.9313216E-01
        1   -1    0    0  501    0  0.00000000000E+00  0.00000000000E+00  0.41415731747E+03  0.41415731750E+03  0.50400001928E-02 0.  1.
       -1   -1    0    0    0  501  0.00000000000E+00  0.00000000000E+00 -0.59851762030E+03  0.59851762032E+03  0.50400001928E-02 0. -1.
    10030    2    1    2    0    0  0.00000000000E+00  0.00000000000E+00 -0.18436030283E+03  0.10126749378E+04  0.99575188096E+03 0.  0.
        4    1    3    3  502    0  0.40540040493E+03  0.26439352042E+03 -0.21089193547E+03  0.52794928100E+03  0.12699999809E+01 0. -1.
       -4    1    3    3    0  502 -0.40540040493E+03 -0.26439352042E+03  0.26531632635E+02  0.48472565683E+03  0.12699999809E+01 0.  1.
</event>
<event>
 5   0  0.1191822E-02  0.1241229E+04  0.7818609E-02  0.9077515E-01
        2   -1    0    0  501    0  0.00000000000E+00  0.00000000000E+00  0.61375063149E+03  0.61375063149E+03  0.25500000920E-02 0.  1.
       -2   -1    0    0    0  501  0.00000000000E+00  0.00000000000E+00 -0.62755493269E+03  0.62755493270E+03  0.25500000920E-02 0. -1.
    10030    2    1    2    0    0  0.00000000000E+00  0.00000000000E+00 -0.13804301205E+02  0.12413055642E+04  0.12412288044E+04 0.  0.
        4    1    3    3  502    0 -0.17498878354E+03 -0.12977231778E+03 -0.58805657376E+03  0.62711567966E+03  0.12699999809E+01 0. -1.
       -4    1    3    3    0  502  0.17498878354E+03  0.12977231778E+03  0.57425227256E+03  0.61418988453E+03  0.12699999809E+01 0.  1.
</event>
<event>
 5   0  0.1240503E-02  0.9984328E+03  0.7818609E-02  0.9310265E-01
        2   -1    0    0  501    0  0.00000000000E+00  0.00000000000E+00  0.12350436374E+04  0.12350436374E+04  0.25500000920E-02 0. -1.
       -2   -1    0    0    0  501  0.00000000000E+00  0.00000000000E+00 -0.20178801327E+03  0.20178801329E+03  0.25500000920E-02 0.  1.
    10030    2    1    2    0    0  0.00000000000E+00  0.00000000000E+00  0.10332556241E+04  0.14368316507E+04  0.99843277573E+03 0.  0.
        1    1    3    3  502    0  0.30800381261E+02 -0.29631302288E+03  0.10931019520E+04  0.11329704094E+04  0.50400001928E-02 0. -1.
       -1    1    3    3    0  502 -0.30800381261E+02  0.29631302288E+03 -0.59846327846E+02  0.30386124135E+03  0.50400001928E-02 0.  1.
</event>
<event>
 5   0  0.1216322E-02  0.1016659E+04  0.7818609E-02  0.9290460E-01
        2   -1    0    0  501    0  0.00000000000E+00  0.00000000000E+00  0.72411360609E+03  0.72411360609E+03  0.25500000920E-02 0.  1.
       -2   -1    0    0    0  501  0.00000000000E+00  0.00000000000E+00 -0.35684872141E+03  0.35684872142E+03  0.25500000920E-02 0. -1.
    10030    2    1    2    0    0  0.00000000000E+00  0.00000000000E+00  0.36726488467E+03  0.10809623275E+04  0.10166592635E+04 0.  0.
        2    1    3    3  502    0  0.27744580600E+02  0.21856577069E+03 -0.30344516822E+03  0.37499297059E+03  0.25500000920E-02 0. -1.
       -2    1    3    3    0  502 -0.27744580600E+02 -0.21856577069E+03  0.67071005289E+03  0.70596935693E+03  0.25500000920E-02 0.  1.
</event>
<event>
 5   0  0.7224879E-03  0.9968668E+03  0.7818609E-02  0.9311988E-01
       -1   -1    0    0    0  501  0.00000000000E+00  0.00000000000E+00  0.17847428287E+03  0.17847428294E+03  0.50400001928E-02 0.  1.
        1   -1    0    0  501    0  0.00000000000E+00  0.00000000000E+00 -0.13919979398E+04  0.13919979398E+04  0.50400001928E-02 0. -1.
    10030    2    1    2    0    0  0.00000000000E+00  0.00000000000E+00 -0.12135236569E+04  0.15704722228E+04  0.99686675965E+03 0.  0.
        3    1    3    3  502    0 -0.28360920296E+03  0.36979711800E+03 -0.32825861270E+03  0.57003317052E+03  0.10100000352E+00 0.  1.
       -3    1    3    3    0  502  0.28360920296E+03 -0.36979711800E+03 -0.88526504424E+03  0.10004390522E+04  0.10100000352E+00 0. -1.
</event>
<event>
 5   0  0.4782125E-03  0.1083389E+04  0.7818609E-02  0.9221535E-01
       -3   -1    0    0    0  501  0.00000000000E+00  0.00000000000E+00  0.74341310112E+03  0.74341310798E+03  0.10100000352E+00 0. -1.
        3   -1    0    0  501    0  0.00000000000E+00  0.00000000000E+00 -0.39471042573E+03  0.39471043865E+03  0.10100000352E+00 0.  1.
    10030    2    1    2    0    0  0.00000000000E+00  0.00000000000E+00  0.34870267539E+03  0.11381235466E+04  0.10833889660E+04 0.  0.
        4    1    3    3  502    0  0.42625005503E+03  0.42016952299E+02  0.52273314942E+03  0.67580033449E+03  0.12699999809E+01 0. -1.
       -4    1    3    3    0  502 -0.42625005503E+03 -0.42016952299E+02 -0.17403047403E+03  0.46232321214E+03  0.12699999809E+01 0.  1.
</event>
<event>
 5   0  0.7073004E-03  0.1094735E+04  0.7818609E-02  0.9210339E-01
        1   -1    0    0  501    0  0.00000000000E+00  0.00000000000E+00  0.15071207022E+04  0.15071207022E+04  0.50400001928E-02 0.  1.
       -1   -1    0    0    0  501  0.00000000000E+00  0.00000000000E+00 -0.19879714982E+03  0.19879714989E+03  0.50400001928E-02 0. -1.
    10030    2    1    2    0    0  0.00000000000E+00  0.00000000000E+00  0.13083235524E+04  0.17059178521E+04  0.10947352193E+04 0.  0.
        1    1    3    3  502    0  0.45586210006E+03 -0.23495424317E+03  0.95227073436E+03  0.10815883238E+04  0.50400001928E-02 0.  1.
       -1    1    3    3    0  502 -0.45586210006E+03  0.23495424317E+03  0.35605281802E+03  0.62432952830E+03  0.50400001928E-02 0. -1.
</event>
<event>
 5   0  0.7461157E-03  0.6944585E+03  0.7818609E-02  0.9726756E-01
        1   -1    0    0  501    0  0.00000000000E+00  0.00000000000E+00  0.70362365939E+03  0.70362365941E+03  0.50400001928E-02 0. -1.
       -1   -1    0    0    0  501  0.00000000000E+00  0.00000000000E+00 -0.17135317159E+03  0.17135317166E+03  0.50400001928E-02 0.  1.
    10030    2    1    2    0    0  0.00000000000E+00  0.00000000000E+00  0.53227048780E+03  0.87497683108E+03  0.69445848165E+03 0.  0.
        2    1    3    3  502    0  0.24657034883E+03 -0.76908428293E+02  0.55852929558E+03  0.61535909621E+03  0.25500000920E-02 0. -1.
       -2    1    3    3    0  502 -0.24657034883E+03  0.76908428293E+02 -0.26258807776E+02  0.25961773486E+03  0.25500000920E-02 0.  1.
</event>
<event>
 5   0  0.1216322E-02  0.1004140E+04  0.7818609E-02  0.9304016E-01
       -2   -1    0    0    0  501  0.00000000000E+00  0.00000000000E+00  0.61924616831E+03  0.61924616832E+03  0.25500000920E-02 0.  1.
        2   -1    0    0  501    0  0.00000000000E+00  0.00000000000E+00 -0.40706595864E+03  0.40706595865E+03  0.25500000920E-02 0. -1.
    10030    2    1    2    0    0  0.00000000000E+00  0.00000000000E+00  0.21218020967E+03  0.10263121270E+04  0.10041395026E+04 0.  0.
        2    1    3    3  502    0 -0.13925335668E+03  0.54317890531E+02  0.59597748709E+03  0.61443559117E+03  0.25500000920E-02 0.  1.
       -2    1    3    3    0  502  0.13925335668E+03 -0.54317890531E+02 -0.38379727742E+03  0.41187653579E+03  0.25500000920E-02 0. -1.
</event>
<event>
 5   0  0.1221315E-02  0.9929725E+03  0.7818609E-02  0.9316286E-01
       -2   -1    0    0    0  501  0.00000000000E+00  0.00000000000E+00  0.61348666315E+03  0.61348666315E+03  0.25500000920E-02 0. -1.
        2   -1    0    0  501    0  0.00000000000E+00  0.00000000000E+00 -0.40179945257E+03  0.40179945258E+03  0.25500000920E-02 0.  1.
    10030    2    1    2    0    0  0.00000000000E+00  0.00000000000E+00  0.21168721058E+03  0.10152861157E+04  0.99297251809E+03 0.  0.
        5    1    3    3  502    0 -0.36385715142E+03 -0.27678253872E+03 -0.92093557593E+02  0.46637314859E+03  0.46999998093E+01 0.  1.
       -5    1    3    3    0  502  0.36385715142E+03  0.27678253872E+03  0.30378076817E+03  0.54891296714E+03  0.46999998093E+01 0. -1.
</event>
<event>
 5   0  0.7073004E-03  0.9981373E+03  0.7818609E-02  0.9310590E-01
        1   -1    0    0  501    0  0.00000000000E+00  0.00000000000E+00  0.49566721165E+03  0.49566721167E+03  0.50400001928E-02 0.  1.
       -1   -1    0    0    0  501  0.00000000000E+00  0.00000000000E+00 -0.50249346608E+03  0.50249346611E+03  0.50400001928E-02 0. -1.
    10030    2    1    2    0    0  0.00000000000E+00  0.00000000000E+00 -0.68262544334E+01  0.99816067778E+03  0.99813733570E+03 0.  0.
        1    1    3    3  502    0  0.41869711330E+03  0.18871339963E+02  0.26752887467E+03  0.49722741172E+03  0.50400001928E-02 0.  1.
       -1    1    3    3    0  502 -0.41869711330E+03 -0.18871339963E+02 -0.27435512911E+03  0.50093326606E+03  0.50400001928E-02 0. -1.
</event>
<event>
 5   0  0.1240503E-02  0.1019468E+04  0.7818609E-02  0.9287447E-01
       -2   -1    0    0    0  501  0.00000000000E+00  0.00000000000E+00  0.26956437429E+03  0.26956437430E+03  0.25500000920E-02 0. -1.
        2   -1    0    0  501    0  0.00000000000E+00  0.00000000000E+00 -0.96388385386E+03  0.96388385386E+03  0.25500000920E-02 0.  1.
    10030    2    1    2    0    0  0.00000000000E+00  0.00000000000E+00 -0.69431947957E+03  0.12334482282E+04  0.10194679945E+04 0.  0.
        1    1    3    3  502    0 -0.48388988952E+02  0.45106547845E+03 -0.65935008252E+02  0.45842009711E+03  0.50400001928E-02 0. -1.
       -1    1    3    3    0  502  0.48388988952E+02 -0.45106547845E+03 -0.62838447132E+03  0.77502813105E+03  0.50400001928E-02 0.  1.
</event>
<event>
 5   0  0.7073004E-03  0.1019315E+04  0.7818609E-02  0.9287610E-01
       -1   -1    0    0    0  501  0.00000000000E+00  0.00000000000E+00  0.10288598588E+04  0.10288598588E+04  0.50400001928E-02 0.  1.
        1   -1    0    0  501    0  0.00000000000E+00  0.00000000000E+00 -0.25246472067E+03  0.25246472072E+03  0.50400001928E-02 0. -1.
    10030    2    1    2    0    0  0.00000000000E+00  0.00000000000E+00  0.77639513809E+03  0.12813245795E+04  0.10193150973E+04 0.  0.
        1    1    3    3  502    0 -0.14794384056E+03  0.28264448047E+03  0.88782424420E+03  0.94340191377E+03  0.50400001928E-02 0.  1.
       -1    1    3    3    0  502  0.14794384056E+03 -0.28264448047E+03 -0.11142910610E+03  0.33792266573E+03  0.50400001928E-02 0. -1.
</event>
<event>
 5   0  0.1221315E-02  0.9687788E+03  0.7818609E-02  0.9343466E-01
       -2   -1    0    0    0  501  0.00000000000E+00  0.00000000000E+00  0.91286953447E+03  0.91286953448E+03  0.25500000920E-02 0. -1.
        2   -1    0    0  501    0  0.00000000000E+00  0.00000000000E+00 -0.25702808888E+03  0.25702808890E+03  0.25500000920E-02 0.  1.
    10030    2    1    2    0    0  0.00000000000E+00  0.00000000000E+00  0.65584144559E+03  0.11698976234E+04  0.96877884340E+03 0.  0.
        5    1    3    3  502    0  0.15757065262E+03  0.10616488603E+03 -0.21012115434E+03  0.28332398962E+03  0.46999998093E+01 0.  1.
       -5    1    3    3    0  502 -0.15757065262E+03 -0.10616488603E+03  0.86596259993E+03  0.88657363376E+03  0.46999998093E+01 0. -1.
</event>
<event>
 5   0  0.1191822E-02  0.9835167E+03  0.7818609E-02  0.9326810E-01
       -2   -1    0    0    0  501  0.00000000000E+00  0.00000000000E+00  0.16143596452E+03  0.16143596454E+03  0.25500000920E-02 0.  1.
        2   -1    0    0  501    0  0.00000000000E+00  0.00000000000E+00 -0.14979702392E+04  0.14979702392E+04  0.25500000920E-02 0. -1.
    10030    2    1    2    0    0  0.00000000000E+00  0.00000000000E+00 -0.13365342747E+04  0.16594062038E+04  0.98351669107E+03 0.  0.
        4    1    3    3  502    0  0.59238228864E+02  0.22747277863E+02  0.15449655826E+03  0.16702516524E+03  0.12699999809E+01 0.  1.
       -4    1    3    3    0  502 -0.59238228864E+02 -0.22747277863E+02 -0.14910308330E+04  0.14923810385E+04  0.12699999809E+01 0. -1.
</event>
<event>
 5   0  0.1221315E-02  0.1041084E+04  0.7818609E-02  0.9264598E-01
        2   -1    0    0  501    0  0.00000000000E+00  0.00000000000E+00  0.42692767923E+03  0.42692767924E+03  0.25500000920E-02 0.  1.
       -2   -1    0    0    0  501  0.00000000000E+00  0.00000000000E+00 -0.63468367521E+03  0.63468367521E+03  0.25500000920E-02 0. -1.
    10030    2    1    2    0    0  0.00000000000E+00  0.00000000000E+00 -0.20775599597E+03  0.10616113545E+04  0.10410841052E+04 0.  0.
        5    1    3    3  502    0  0.43512364402E+03  0.11851738021E+03 -0.36893186736E+03  0.58267638338E+03  0.46999998093E+01 0. -1.
       -5    1    3    3    0  502 -0.43512364402E+03 -0.11851738021E+03  0.16117587139E+03  0.47893497107E+03  0.46999998093E+01 0.  1.
</event>
<event>
 5   0  0.1221315E-02  0.1001752E+04  0.7818609E-02  0.9306626E-01
        2   -1    0    0  501    0  0.00000000000E+00  0.00000000000E+00  0.10313946733E+04  0.10313946733E+04  0.25500000920E-02 0.  1.
       -2   -1    0    0    0  501  0.00000000000E+00  0.00000000000E+00 -0.24324013385E+03  0.24324013386E+03  0.25500000920E-02 0. -1.
    10030    2    1    2    0    0  0.00000000000E+00  0.00000000000E+00  0.78815453943E+03  0.12746348071E+04  0.10017516227E+04 0.  0.
        5    1    3    3  502    0  0.73106538508E+02  0.46285716839E+03  0.61909235306E+03  0.77645267462E+03  0.46999998093E+01 0.  1.
       -5    1    3    3    0  502 -0.73106538508E+02 -0.46285716839E+03  0.16906218636E+03  0.49818213252E+03  0.46999998093E+01 0. -1.
</event>
<event>
 5   0  0.4782125E-03  0.9764215E+03  0.7818609E-02  0.9334790E-01
        4   -1    0    0  501    0  0.00000000000E+00  0.00000000000E+00  0.19262956648E+04  0.19262960835E+04  0.12699999809E+01 0. -1.
       -4   -1    0    0    0  501  0.00000000000E+00  0.00000000000E+00 -0.12373106235E+03  0.12373757994E+03  0.12699999809E+01 0.  1.
    10030    2    1    2    0    0  0.00000000000E+00  0.00000000000E+00  0.18025646025E+04  0.20500336634E+04  0.97642146385E+03 0.  0.
        4    1    3    3  502    0  0.40308819534E+03  0.27528787655E+03  0.92059321763E+03  0.10419966379E+04  0.12699999809E+01 0. -1.
       -4    1    3    3    0  502 -0.40308819534E+03 -0.27528787655E+03  0.88197138486E+03  0.10080370255E+04  0.12699999809E+01 0.  1.
</event>
<event>
 5   0  0.1240503E-02  0.7272499E+03  0.7818609E-02  0.9671734E-01
        2   -1    0    0  501    0  0.00000000000E+00  0.00000000000E+00  0.18366301649E+03  0.18366301650E+03  0.25500000920E-02 0. -1.
       -2   -1    0    0    0  501  0.00000000000E+00  0.00000000000E+00 -0.71992233498E+03  0.71992233498E+03  0.25500000920E-02 0.  1.
    10030    2    1    2    0    0  0.00000000000E+00  0.00000000000E+00 -0.53625931849E+03  0.90358535149E+03  0.72724990942E+03 0.  0.
        1    1    3    3  502    0  0.80662194618E+02  0.17362477730E+03  0.11597442275E+03  0.22383480447E+03  0.50400001928E-02 0. -1.
       -1    1    3    3    0  502 -0.80662194618E+02 -0.17362477730E+03 -0.65223374125E+03  0.67975054702E+03  0.50400001928E-02 0.  1.
</event>
<event>
 5   0  0.7461157E-03  0.1056612E+04  0.7818609E-02  0.9248544E-01
       -1   -1    0    0    0  501  0.00000000000E+00  0.00000000000E+00  0.36476856933E+03  0.36476856936E+03  0.50400001928E-02 0.  1.
        1   -1    0    0  501    0  0.00000000000E+00  0.00000000000E+00 -0.76516233654E+03  0.76516233656E+03  0.50400001928E-02 0. -1.
    10030    2    1    2    0    0  0.00000000000E+00  0.00000000000E+00 -0.40039376721E+03  0.11299309059E+04  0.10566118887E+04 0.  0.
        2    1    3    3  502    0  0.15653432926E+03  0.27217750155E+03  0.25416654303E+03  0.40396066663E+03  0.25500000920E-02 0.  1.
       -2    1    3    3    0  502 -0.15653432926E+03 -0.27217750155E+03 -0.65456031024E+03  0.72597023929E+03  0.25500000920E-02 0. -1.
</event>
<event>
 5   0  0.1191822E-02  0.1006423E+04  0.7818609E-02  0.9301528E-01
       -2   -1    0    0    0  501  0.00000000000E+00  0.00000000000E+00  0.17607844561E+03  0.17607844563E+03  0.25500000920E-02 0. -1.
        2   -1    0    0  501    0  0.00000000000E+00  0.00000000000E+00 -0.14381199997E+04  0.14381199997E+04  0.25500000920E-02 0.  1.
    10030    2    1    2    0    0  0.00000000000E+00  0.00000000000E+00 -0.12620415541E+04  0.16141984453E+04  0.10064232393E+04 0.  0.
        4    1    3    3  502    0  0.17140344493E+03 -0.51878014642E+02  0.12323664887E+03  0.21739216605E+03  0.12699999809E+01 0. -1.
       -4    1    3    3    0  502 -0.17140344493E+03  0.51878014642E+02 -0.13852782029E+04  0.13968062792E+04  0.12699999809E+01 0.  1.
</event>
<event>
 5   0  0.7224879E-03  0.8092947E+03  0.7818609E-02  0.9546660E-01
        1   -1    0    0  501    0  0.00000000000E+00  0.00000000000E+00  0.21910133239E+04  0.21910133239E+04  0.50400001928E-02 0. -1.
       -1   -1    0    0    0  501  0.00000000000E+00  0.00000000000E+00 -0.74732308386E+02  0.74732308556E+02  0.50400001928E-02 0.  1.
    10030    2    1    2    0    0  0.00000000000E+00  0.00000000000E+00  0.21162810155E+04  0.22657456325E+04  0.80929471418E+03 0.  0.
        3    1    3    3  502    0  0.18777543205E+03  0.90232633822E+02  0.20293339028E+04  0.20399994216E+04  0.10100000352E+00 0. -1.
       -3    1    3    3    0  502 -0.18777543205E+03 -0.90232633822E+02  0.86947112731E+02  0.22574621083E+03  0.10100000352E+00 0.  1.
</event>
<event>
 5   0  0.1245850E-02  0.6239637E+03  0.7818609E-02  0.9856899E-01
        2   -1    0    0  501    0  0.00000000000E+00  0.00000000000E+00  0.72304105657E+03  0.72304105657E+03  0.25500000920E-02 0. -1.
       -2   -1    0    0    0  501  0.00000000000E+00  0.00000000000E+00 -0.13461569853E+03  0.13461569855E+03  0.25500000920E-02 0.  1.
    10030    2    1    2    0    0  0.00000000000E+00  0.00000000000E+00  0.58842535804E+03  0.85765675512E+03  0.62396370698E+03 0.  0.
        3    1    3    3  502    0 -0.13694391577E+03  0.58849724456E+02  0.67093353105E+03  0.68729086959E+03  0.10100000352E+00 0. -1.
       -3    1    3    3    0  502  0.13694391577E+03 -0.58849724456E+02 -0.82508173017E+02  0.17036588553E+03  0.10100000352E+00 0.  1.
</event>
<event>
 5   0  0.7241200E-03  0.1000058E+04  0.7818609E-02  0.9308482E-01
        1   -1    0    0  501    0  0.00000000000E+00  0.00000000000E+00  0.10297625064E+04  0.10297625064E+04  0.50400001928E-02 0. -1.
       -1   -1    0    0    0  501  0.00000000000E+00  0.00000000000E+00 -0.24280239861E+03  0.24280239866E+03  0.50400001928E-02 0.  1.
    10030    2    1    2    0    0  0.00000000000E+00  0.00000000000E+00  0.78696010782E+03  0.12725649051E+04  0.10000576115E+04 0.  0.
        4    1    3    3  502    0 -0.16814968863E+03 -0.36098886359E+03  0.86908909310E+01  0.39832702885E+03  0.12699999809E+01 0.  1.
       -4    1    3    3    0  502  0.16814968863E+03  0.36098886359E+03  0.77826921689E+03  0.87423787626E+03  0.12699999809E+01 0. -1.
</event>
<event>
 5   0  0.1240503E-02  0.1014461E+04  0.7818609E-02  0.9292825E-01
        2   -1    0    0  501    0  0.00000000000E+00  0.00000000000E+00  0.11988461398E+04  0.11988461398E+04  0.25500000920E-02 0. -1.
       -2   -1    0    0    0  501  0.00000000000E+00  0.00000000000E+00 -0.21460848994E+03  0.21460848996E+03  0.25500000920E-02 0.  1.
    10030    2    1    2    0    0  0.00000000000E+00  0.00000000000E+00  0.98423764990E+03  0.14134546298E+04  0.10144605655E+04 0.  0.
        1    1    3    3  502    0 -0.81372234927E+02  0.59343864480E+02 -0.20053736378E+03  0.22440670481E+03  0.50400001928E-02 0.  1.
       -1    1    3    3    0  502  0.81372234927E+02 -0.59343864480E+02  0.11847750137E+04  0.11890479250E+04  0.50400001928E-02 0. -1.
</event>
<event>
 5   0  0.6967681E-03  0.9795529E+03  0.7818609E-02  0.9331260E-01
        1   -1    0    0  501    0  0.00000000000E+00  0.00000000000E+00  0.74098802904E+03  0.74098802905E+03  0.50400001928E-02 0.  1.
       -1   -1    0    0    0  501  0.00000000000E+00  0.00000000000E+00 -0.32373122049E+03  0.32373122053E+03  0.50400001928E-02 0. -1.
    10030    2    1    2    0    0  0.00000000000E+00  0.00000000000E+00  0.41725680854E+03  0.10647192496E+04  0.97955287564E+03 0.  0.
        5    1    3    3  502    0  0.39842256566E+03  0.14074966131E+03 -0.60503574374E+02  0.42688848719E+03  0.46999998093E+01 0. -1.
       -5    1    3    3    0  502 -0.39842256566E+03 -0.14074966131E+03  0.47776038291E+03  0.63783076240E+03  0.46999998093E+01 0.  1.
</event>
<event>
 5   0  0.7241200E-03  0.9942112E+03  0.7818609E-02  0.9314917E-01
       -1   -1    0    0    0  501  0.00000000000E+00  0.00000000000E+00  0.39631414146E+03  0.39631414149E+03  0.50400001928E-02 0.  1.
        1   -1    0    0  501    0  0.00000000000E+00  0.00000000000E+00 -0.62353053008E+03  0.62353053010E+03  0.50400001928E-02 0. -1.
    10030    2    1    2    0    0  0.00000000000E+00  0.00000000000E+00 -0.22721638862E+03  0.10198446716E+04  0.99421117824E+03 0.  0.
        4    1    3    3  502    0  0.11508136966E+03 -0.15717777007E+03  0.35552766584E+03  0.40540116813E+03  0.12699999809E+01 0.  1.
       -4    1    3    3    0  502 -0.11508136966E+03  0.15717777007E+03 -0.58274405446E+03  0.61444350347E+03  0.12699999809E+01 0. -1.
</event>
<event>
 5   0  0.1245850E-02  0.1001538E+04  0.7818609E-02  0.9306860E-01
       -2   -1    0    0    0  501  0.00000000000E+00  0.00000000000E+00  0.16320766812E+03  0.16320766814E+03  0.25500000920E-02 0. -1.
        2   -1    0    0  501    0  0.00000000000E+00  0.00000000000E+00 -0.15365049616E+04  0.15365049616E+04  0.25500000920E-02 0.  1.
    10030    2    1    2    0    0  0.00000000000E+00  0.00000000000E+00 -0.13732972935E+04  0.16997126298E+04  0.10015376016E+04 0.  0.
        3    1    3    3  502    0  0.18271461551E+03 -0.19164601780E+03 -0.14079804896E+04  0.14326625199E+04  0.10100000352E+00 0.  1.
       -3    1    3    3    0  502 -0.18271461551E+03  0.19164601780E+03  0.34683196081E+02  0.26705010981E+03  0.10100000352E+00 0. -1.
</event>
<event>
 5   0  0.6967681E-03  0.9987998E+03  0.7818609E-02  0.9309862E-01
       -1   -1    0    0    0  501  0.00000000000E+00  0.00000000000E+00  0.19038807764E+03  0.19038807771E+03  0.50400001928E-02 0. -1.
        1   -1    0    0  501    0  0.00000000000E+00  0.00000000000E+00 -0.13099572154E+04  0.13099572154E+04  0.50400001928E-02 0.  1.
    10030    2    1    2    0    0  0.00000000000E+00  0.00000000000E+00 -0.11195691378E+04  0.15003452931E+04  0.99879975189E+03 0.  0.
        5    1    3    3  502    0  0.11786150935E+03  0.39131914399E+03 -0.99086745457E+03  0.10718499943E+04  0.46999998093E+01 0.  1.
       -5    1    3    3    0  502 -0.11786150935E+03 -0.39131914399E+03 -0.12870168322E+03  0.42849529881E+03  0.46999998093E+01 0. -1.
</event>
<event>
 5   0  0.7224879E-03  0.1030449E+04  0.7818609E-02  0.9275765E-01
       -1   -1    0    0    0  501  0.00000000000E+00  0.00000000000E+00  0.52450707190E+03  0.52450707193E+03  0.50400001928E-02 0. -1.
        1   -1    0    0  501    0  0.00000000000E+00  0.00000000000E+00 -0.50610622906E+03  0.50610622908E+03  0.50400001928E-02 0.  1.
    10030    2    1    2    0    0  0.00000000000E+00  0.00000000000E+00  0.18400842843E+02  0.10306133010E+04  0.10304490212E+04 0.  0.
        3    1    3    3  502    0 -0.26099138539E+03 -0.20627108001E+03  0.40269932095E+03  0.52233228408E+03  0.10100000352E+00 0. -1.
       -3    1    3    3    0  502  0.26099138539E+03  0.20627108001E+03 -0.38429847811E+03  0.50828101693E+03  0.10100000352E+00 0.  1.
</event>
<event>
 5   0  0.7461157E-03  0.1009226E+04  0.7818609E-02  0.9298484E-01
       -1   -1    0    0    0  501  0.00000000000E+00  0.00000000000E+00  0.66869325241E+03  0.66869325242E+03  0.50400001928E-02 0.  1.
        1   -1    0    0  501    0  0.00000000000E+00  0.00000000000E+00 -0.38079373391E+03  0.38079373395E+03  0.50400001928E-02 0. -1.
    10030    2    1    2    0    0  0.00000000000E+00  0.00000000000E+00  0.28789951849E+03  0.10494869864E+04  0.10092258428E+04 0.  0.
        2    1    3    3  502    0  0.45923826481E+03 -0.15475424926E+01  0.36141431017E+03  0.58439924910E+03  0.25500000920E-02 0.  1.
       -2    1    3    3    0  502 -0.45923826481E+03  0.15475424926E+01 -0.73514791675E+02  0.46508773727E+03  0.25500000920E-02 0. -1.
</event>
<event>
 5   0  0.1216322E-02  0.9667965E+03  0.7818609E-02  0.9345731E-01
       -2   -1    0    0    0  501  0.00000000000E+00  0.00000000000E+00  0.41119874185E+03  0.41119874186E+03  0.25500000920E-02 0. -1.
        2   -1    0    0  501    0  0.00000000000E+00  0.00000000000E+00 -0.56827479025E+03  0.56827479026E+03  0.25500000920E-02 0.  1.
    10030    2    1    2    0    0  0.00000000000E+00  0.00000000000E+00 -0.15707604840E+03  0.97947353212E+03  0.96679652209E+03 0.  0.
        2    1    3    3  502    0  0.29627409273E+02  0.47794440974E+03 -0.14547429591E+03  0.50047119094E+03  0.25500000920E-02 0.  1.
       -2    1    3    3    0  502 -0.29627409273E+02 -0.47794440974E+03 -0.11601752496E+02  0.47900234118E+03  0.25500000920E-02 0. -1.
</event>
<event>
 5   0  0.7461157E-03  0.1000715E+04  0.7818609E-02  0.9307761E-01
        1   -1    0    0  501    0  0.00000000000E+00  0.00000000000E+00  0.12110478032E+04  0.12110478032E+04  0.50400001928E-02 0.  1.
       -1   -1    0    0    0  501  0.00000000000E+00  0.00000000000E+00 -0.20672828122E+03  0.20672828128E+03  0.50400001928E-02 0. -1.
    10030    2    1    2    0    0  0.00000000000E+00  0.00000000000E+00  0.10043195219E+04  0.14177760845E+04  0.10007154059E+04 0.  0.
        2    1    3    3  502    0 -0.22186651084E+03  0.38614022764E+03  0.82532079847E+03  0.93780778650E+03  0.25500000920E-02 0.  1.
       -2    1    3    3    0  502  0.22186651084E+03 -0.38614022764E+03  0.17899872347E+03  0.47996829796E+03  0.25500000920E-02 0. -1.
</event>
<event>
 5   0  0.7461157E-03  0.1049412E+04  0.7818609E-02  0.9255952E-01
       -1   -1    0    0    0  501  0.00000000000E+00  0.00000000000E+00  0.30700666266E+03  0.30700666270E+03  0.50400001928E-02 0.  1.
        1   -1    0    0  501    0  0.00000000000E+00  0.00000000000E+00 -0.89677606038E+03  0.89677606039E+03  0.50400001928E-02 0. -1.
    10030    2    1    2    0    0  0.00000000000E+00  0.00000000000E+00 -0.58976939772E+03  0.12037827231E+04  0.10494116933E+04 0.  0.
        2    1    3    3  502    0  0.43495657396E+03  0.20256930408E+03 -0.53847773462E+03  0.72123492350E+03  0.25500000920E-02 0. -1.
       -2    1    3    3    0  502 -0.43495657396E+03 -0.20256930408E+03 -0.51291663095E+02  0.48254779960E+03  0.25500000920E-02 0.  1.
</event>
<event>
 5   0  0.7224879E-03  0.1017524E+04  0.7818609E-02  0.9289531E-01
       -1   -1    0    0    0  501  0.00000000000E+00  0.00000000000E+00  0.58917242098E+03  0.58917242100E+03  0.50400001928E-02 0.  1.
        1   -1    0    0  501    0  0.00000000000E+00  0.00000000000E+00 -0.43932568036E+03  0.43932568039E+03  0.50400001928E-02 0. -1.
    10030    2    1    2    0    0  0.00000000000E+00  0.00000000000E+00  0.14984674061E+03  0.10284981014E+04  0.10175236110E+04 0.  0.
        3    1    3    3  502    0  0.88622321674E+02 -0.49733451053E+03  0.13593190119E+03  0.52313767138E+03  0.10100000352E+00 0.  1.
       -3    1    3    3    0  502 -0.88622321674E+02  0.49733451053E+03  0.13914839426E+02  0.50536043001E+03  0.10100000352E+00 0. -1.
</event>
<event>
 5   0  0.1240503E-02  0.9993704E+03  0.7818609E-02  0.9309236E-01
       -2   -1    0    0    0  501  0.00000000000E+00  0.00000000000E+00  0.14182188907E+03  0.14182188909E+03  0.25500000920E-02 0.  1.
        2   -1    0    0  501    0  0.00000000000E+00  0.00000000000E+00 -0.17605554572E+04  0.17605554572E+04  0.25500000920E-02 0. -1.
    10030    2    1    2    0    0  0.00000000000E+00  0.00000000000E+00 -0.16187335681E+04  0.19023773463E+04  0.99937040335E+03 0.  0.
        1    1    3    3  502    0  0.42921409455E+03  0.25480048835E+03 -0.85349005073E+03  0.98873317662E+03  0.50400001928E-02 0. -1.
       -1    1    3    3    0  502 -0.42921409455E+03 -0.25480048835E+03 -0.76524351740E+03  0.91364416967E+03  0.50400001928E-02 0.  1.
</event>
<event>
 5   0  0.4782125E-03  0.1008671E+04  0.7818609E-02  0.9299085E-01
        3   -1    0    0  501    0  0.00000000000E+00  0.00000000000E+00  0.11279859838E+03  0.11279864360E+03  0.10100000352E+00 0.  1.
       -3   -1    0    0    0  501  0.00000000000E+00  0.00000000000E+00 -0.22549427756E+04  0.22549427778E+04  0.10100000352E+00 0. -1.
    10030    2    1    2    0    0  0.00000000000E+00  0.00000000000E+00 -0.21421441772E+04  0.23677414214E+04  0.10086712859E+04 0.  0.
        5    1    3    3  502    0 -0.14110973545E+03 -0.82125572480E+02 -0.21911365921E+04  0.21972160163E+04  0.46999998093E+01 0. -1.
       -5    1    3    3    0  502  0.14110973545E+03  0.82125572480E+02  0.48992414873E+02  0.17052540516E+03  0.46999998093E+01 0.  1.
</event>
<event>
 5   0  0.1191822E-02  0.9914438E+03  0.7818609E-02  0.9317979E-01
       -2   -1    0    0    0  501  0.00000000000E+00  0.00000000000E+00  0.26617059810E+03  0.26617059811E+03  0.25500000920E-02 0. -1.
        2   -1    0    0  501    0  0.00000000000E+00  0.00000000000E+00 -0.92324316303E+03  0.92324316303E+03  0.25500000920E-02 0.  1.
    10030    2    1    2    0    0  0.00000000000E+00  0.00000000000E+00 -0.65707256493E+03  0.11894137611E+04  0.99144376523E+03 0.  0.
        4    1    3    3  502    0 -0.12524072796E+03  0.11580834018E+03  0.22985156879E+03  0.28623446363E+03  0.12699999809E+01 0. -1.
       -4    1    3    3    0  502  0.12524072796E+03 -0.11580834018E+03 -0.88692413372E+03  0.90317929752E+03  0.12699999809E+01 0.  1.
</event>
<event>
 5   0  0.7073004E-03  0.9968529E+03  0.7818609E-02  0.9312003E-01
        1   -1    0    0  501    0  0.00000000000E+00  0.00000000000E+00  0.15262928503E+04  0.15262928503E+04  0.50400001928E-02 0. -1.
       -1   -1    0    0    0  501  0.00000000000E+00  0.00000000000E+00 -0.16276623285E+03  0.16276623293E+03  0.50400001928E-02 0.  1.
    10030    2    1    2    0    0  0.00000000000E+00  0.00000000000E+00  0.13635266174E+04  0.16890590832E+04  0.99685292304E+03 0.  0.
        1    1    3    3  502    0  0.41420357146E+03  0.10250346235E+03  0.24528932037E+03  0.49217721313E+03  0.50400001928E-02 0.  1.
       -1    1    3    3    0  502 -0.41420357146E+03 -0.10250346235E+03  0.11182372971E+04  0.11968818701E+04  0.50400001928E-02 0. -1.
</event>
<event>
 5   0  0.1240503E-02  0.1001810E+04  0.7818609E-02  0.9306562E-01
        2   -1    0    0  501    0  0.00000000000E+00  0.00000000000E+00  0.95455548405E+03  0.95455548405E+03  0.25500000920E-02 0. -1.
       -2   -1    0    0    0  501  0.00000000000E+00  0.00000000000E+00 -0.26285112065E+03  0.26285112066E+03  0.25500000920E-02 0.  1.
    10030    2    1    2    0    0  0.00000000000E+00  0.00000000000E+00  0.69170436340E+03  0.12174066047E+04  0.10018103188E+04 0.  0.
        1    1    3    3  502    0  0.38605766708E+03  0.29696086785E+03  0.20372130690E+03  0.52794758287E+03  0.50400001928E-02 0. -1.
       -1    1    3    3    0  502 -0.38605766708E+03 -0.29696086785E+03  0.48798305649E+03  0.68945902184E+03  0.50400001928E-02 0.  1.
</event>
<event>
 5   0  0.1191822E-02  0.1002595E+04  0.7818609E-02  0.9305704E-01
       -2   -1    0    0    0  501  0.00000000000E+00  0.00000000000E+00  0.47651672694E+03  0.47651672695E+03  0.25500000920E-02 0.  1.
        2   -1    0    0  501    0  0.00000000000E+00  0.00000000000E+00 -0.52736667344E+03  0.52736667345E+03  0.25500000920E-02 0. -1.
    10030    2    1    2    0    0  0.00000000000E+00  0.00000000000E+00 -0.50849946501E+02  0.10038834004E+04  0.10025947160E+04 0.  0.
        4    1    3    3  502    0 -0.41429502287E+03 -0.22210192848E+03 -0.19979758966E+03  0.51077423814E+03  0.12699999809E+01 0. -1.
       -4    1    3    3    0  502  0.41429502287E+03  0.22210192848E+03  0.14894764316E+03  0.49310916227E+03  0.12699999809E+01 0.  1.
</event>
<event>
 5   0  0.1221315E-02  0.9969748E+03  0.7818609E-02  0.9311869E-01
        2   -1    0    0  501    0  0.00000000000E+00  0.00000000000E+00  0.58394777268E+03  0.58394777268E+03  0.25500000920E-02 0.  1.
       -2   -1    0    0    0  501  0.00000000000E+00  0.00000000000E+00 -0.42553411902E+03  0.42553411903E+03  0.25500000920E-02 0. -1.
    10030    2    1    2    0    0  0.00000000000E+00  0.00000000000E+00  0.15841365365E+03  0.10094818917E+04  0.99697482618E+03 0.  0.
        5    1    3    3  502    0 -0.67824576206E+02  0.49056263756E+03  0.21787966500E+02  0.49573045094E+03  0.46999998093E+01 0. -1.
       -5    1    3    3    0  502  0.67824576206E+02 -0.49056263756E+03  0.13662568715E+03  0.51375144077E+03  0.46999998093E+01 0.  1.
</event>
<event>
 5   0  0.1240503E-02  0.1017731E+04  0.7818609E-02  0.9289309E-01
       -2   -1    0    0    0  501  0.00000000000E+00  0.00000000000E+00  0.13354377404E+03  0.13354377407E+03  0.25500000920E-02 0. -1.
        2   -1    0    0  501    0  0.00000000000E+00  0.00000000000E+00 -0.19390205684E+04  0.19390205684E+04  0.25500000920E-02 0.  1.
    10030    2    1    2    0    0  0.00000000000E+00  0.00000000000E+00 -0.18054767944E+04  0.20725643425E+04  0.10177310542E+04 0.  0.
        1    1    3    3  502    0  0.14851085451E+03  0.18785209139E+03  0.11628554317E+02  0.23974800406E+03  0.50400001928E-02 0. -1.
       -1    1    3    3    0  502 -0.14851085451E+03 -0.18785209139E+03 -0.18171053487E+04  0.18328163384E+04  0.50400001928E-02 0.  1.
</event>
<event>
 5   0  0.1221315E-02  0.9943569E+03  0.7818609E-02  0.9314756E-01
        2   -1    0    0  501    0  0.00000000000E+00  0.00000000000E+00  0.86439541586E+03  0.86439541586E+03  0.25500000920E-02 0. -1.
       -2   -1    0    0    0  501  0.00000000000E+00  0.00000000000E+00 -0.28596451296E+03  0.28596451297E+03  0.25500000920E-02 0.  1.
    10030    2    1    2    0    0  0.00000000000E+00  0.00000000000E+00  0.57843090290E+03  0.11503599288E+04  0.99435690596E+03 0.  0.
        5    1    3    3  502    0  0.49904360060E+02 -0.97754862973E+02  0.85017851516E+03  0.85724678829E+03  0.46999998093E+01 0. -1.
       -5    1    3    3    0  502 -0.49904360060E+02  0.97754862973E+02 -0.27174761226E+03  0.29311314054E+03  0.46999998093E+01 0.  1.
</event>
<event>
 5   0  0.1240503E-02  0.9615461E+03  0.7818609E-02  0.9351756E-01
        2   -1    0    0  501    0  0.00000000000E+00  0.00000000000E+00  0.63155665135E+03  0.63155665136E+03  0.25500000920E-02 0. -1.
       -2   -1    0    0    0  501  0.00000000000E+00  0.00000000000E+00 -0.36598890327E+03  0.36598890328E+03  0.25500000920E-02 0.  1.
    10030    2    1    2    0    0  0.00000000000E+00  0.00000000000E+00  0.26556774808E+03  0.99754555464E+03  0.96154610122E+03 0.  0.
        1    1    3    3  502    0  0.31680785064E+03 -0.18030567893E+03 -0.19242537028E+03  0.41219519070E+03  0.50400001928E-02 0.  1.
       -1    1    3    3    0  502 -0.31680785064E+03  0.18030567893E+03  0.45799311836E+03  0.58535036394E+03  0.50400001928E-02 0. -1.
</event>
<event>
 5   0  0.7241200E-03  0.9943228E+03  0.7818609E-02  0.9314793E-01
       -1   -1    0    0    0  501  0.00000000000E+00  0.00000000000E+00  0.63115958182E+03  0.63115958184E+03  0.50400001928E-02 0.  1.
        1   -1    0    0  501    0  0.00000000000E+00  0.00000000000E+00 -0.39161167536E+03  0.39161167540E+03  0.50400001928E-02 0. -1.
    10030    2    1    2    0    0  0.00000000000E+00  0.00000000000E+00  0.23954790646E+03  0.10227712572E+04  0.99432280731E+03 0.  0.
        4    1    3    3  502    0 -0.14273005892E+03 -0.11420882226E+03  0.59533528616E+03  0.62276901067E+03  0.12699999809E+01 0.  1.
       -4    1    3    3    0  502  0.14273005892E+03  0.11420882226E+03 -0.35578737970E+03  0.40000224657E+03  0.12699999809E+01 0. -1.
</event>
<event>
 5   0  0.7224879E-03  0.9988360E+03  0.7818609E-02  0.9309822E-01
       -1   -1    0    0    0  501  0.00000000000E+00  0.00000000000E+00  0.12770401606E+04  0.12770401606E+04  0.50400001928E-02 0. -1.
        1   -1    0    0  501    0  0.00000000000E+00  0.00000000000E+00 -0.19530970481E+03  0.19530970487E+03  0.50400001928E-02 0.  1.
    10030    2    1    2    0    0  0.00000000000E+00  0.00000000000E+00  0.10817304558E+04  0.14723498655E+04  0.99883599623E+03 0.  0.
        3    1    3    3  502    0  0.40574546290E+03 -0.17860849984E+03  0.20186873777E+03  0.48711536044E+03  0.10100000352E+00 0.  1.
       -3    1    3    3    0  502 -0.40574546290E+03  0.17860849984E+03  0.87986171800E+03  0.98523450502E+03  0.10100000352E+00 0. -1.
</event>
<event>
 5   0  0.1240503E-02  0.1020728E+04  0.7818609E-02  0.9286098E-01
       -2   -1    0    0    0  501  0.00000000000E+00  0.00000000000E+00  0.16099492328E+03  0.16099492330E+03  0.25500000920E-02 0.  1.
        2   -1    0    0  501    0  0.00000000000E+00  0.00000000000E+00 -0.16178855871E+04  0.16178855871E+04  0.25500000920E-02 0. -1.
    10030    2    1    2    0    0  0.00000000000E+00  0.00000000000E+00 -0.14568906639E+04  0.17788805104E+04  0.10207279089E+04 0.  0.
        1    1    3    3  502    0 -0.50687871523E+03  0.59539397970E+02 -0.72735125600E+03  0.88854421471E+03  0.50400001928E-02 0. -1.
       -1    1    3    3    0  502  0.50687871523E+03 -0.59539397970E+02 -0.72953940786E+03  0.89033629574E+03  0.50400001928E-02 0.  1.
</event>
<event>
 5   0  0.7461157E-03  0.1034748E+04  0.7818609E-02  0.9271234E-01
        1   -1    0    0  501    0  0.00000000000E+00  0.00000000000E+00  0.51966360820E+03  0.51966360823E+03  0.50400001928E-02 0. -1.
       -1   -1    0    0    0  501  0.00000000000E+00  0.00000000000E+00 -0.51509464617E+03  0.51509464620E+03  0.50400001928E-02 0.  1.
    10030    2    1    2    0    0  0.00000000000E+00  0.00000000000E+00  0.45689620329E+01  0.10347582544E+04  0.10347481673E+04 0.  0.
        2    1    3    3  502    0  0.12272616608E+03  0.19103259540E+03 -0.46260797080E+03  0.51532640045E+03  0.25500000920E-02 0.  1.
       -2    1    3    3    0  502 -0.12272616608E+03 -0.19103259540E+03  0.46717693283E+03  0.51943185398E+03  0.25500000920E-02 0. -1.
</event>
<event>
 5   0  0.1216322E-02  0.1008568E+04  0.7818609E-02  0.9299197E-01
       -2   -1    0    0    0  501  0.00000000000E+00  0.00000000000E+00  0.27306813757E+03  0.27306813758E+03  0.25500000920E-02 0.  1.
        2   -1    0    0  501    0  0.00000000000E+00  0.00000000000E+00 -0.93127823509E+03  0.93127823509E+03  0.25500000920E-02 0. -1.
    10030    2    1    2    0    0  0.00000000000E+00  0.00000000000E+00 -0.65821009752E+03  0.12043463727E+04  0.10085681201E+04 0.  0.
        2    1    3    3  502    0 -0.16554070817E+03 -0.27345487555E+03 -0.79484224791E+03  0.85671202519E+03  0.25500000920E-02 0. -1.
       -2    1    3    3    0  502  0.16554070817E+03  0.27345487555E+03  0.13663215039E+03  0.34763434748E+03  0.25500000920E-02 0.  1.
</event>
<event>
 5   0  0.7241200E-03  0.1029213E+04  0.7818609E-02  0.9277072E-01
        1   -1    0    0  501    0  0.00000000000E+00  0.00000000000E+00  0.40205220394E+03  0.40205220398E+03  0.50400001928E-02 0.  1.
       -1   -1    0    0    0  501  0.00000000000E+00  0.00000000000E+00 -0.65867077561E+03  0.65867077563E+03  0.50400001928E-02 0. -1.
    10030    2    1    2    0    0  0.00000000000E+00  0.00000000000E+00 -0.25661857167E+03  0.10607229796E+04  0.10292133638E+04 0.  0.
        4    1    3    3  502    0 -0.27716477663E+03 -0.29635799858E+03  0.19787685200E+03  0.45144793518E+03  0.12699999809E+01 0.  1.
       -4    1    3    3    0  502  0.27716477663E+03  0.29635799858E+03 -0.45449542367E+03  0.60927504443E+03  0.12699999809E+01 0. -1.
</event>
<event>
 5   0  0.1221315E-02  0.9773113E+03  0.7818609E-02  0.9333785E-01
       -2   -1    0    0    0  501  0.00000000000E+00  0.00000000000E+00  0.14375689103E+03  0.14375689105E+03  0.25500000920E-02 0.  1.
        2   -1    0    0  501    0  0.00000000000E+00  0.00000000000E+00 -0.16610288886E+04  0.16610288886E+04  0.25500000920E-02 0. -1.
    10030    2    1    2    0    0  0.00000000000E+00  0.00000000000E+00 -0.15172719976E+04  0.18047857797E+04  0.97731130957E+03 0.  0.
        5    1    3    3  502    0 -0.54609316828E+02 -0.18557674442E+03 -0.15872632801E+04  0.15990146078E+04  0.46999998093E+01 0. -1.
       -5    1    3    3    0  502  0.54609316828E+02  0.18557674442E+03  0.69991282505E+02  0.20577117189E+03  0.46999998093E+01 0.  1.
</event>
<event>
 5   0  0.7241200E-03  0.9432109E+03  0.7818609E-02  0.9373121E-01
       -1   -1    0    0    0  501  0.00000000000E+00  0.00000000000E+00  0.29026718960E+03  0.29026718965E+03  0.50400001928E-02 0.  1.
        1   -1    0    0  501    0  0.00000000000E+00  0.00000000000E+00 -0.76623089085E+03  0.76623089086E+03  0.50400001928E-02 0. -1.
    10030    2    1    2    0    0  0.00000000000E+00  0.00000000000E+00 -0.47596370124E+03  0.10564980805E+04  0.94321087209E+03 0.  0.
        4    1    3    3  502    0  0.16553129388E+03 -0.44051362612E+03 -0.20332703381E+03  0.51263667410E+03  0.12699999809E+01 0. -1.
       -4    1    3    3    0  502 -0.16553129388E+03  0.44051362612E+03 -0.27263666744E+03  0.54386140641E+03  0.12699999809E+01 0.  1.
</event>
<event>
 5   0  0.1240503E-02  0.1018215E+04  0.7818609E-02  0.9288789E-01
        2   -1    0    0  501    0  0.00000000000E+00  0.00000000000E+00  0.17022203552E+04  0.17022203552E+04  0.25500000920E-02 0.  1.
       -2   -1    0    0    0  501  0.00000000000E+00  0.00000000000E+00 -0.15226624378E+03  0.15226624380E+03  0.25500000920E-02 0. -1.
    10030    2    1    2    0    0  0.00000000000E+00  0.00000000000E+00  0.15499541115E+04  0.18544865991E+04  0.10182154970E+04 0.  0.
        1    1    3    3  502    0 -0.47719395592E+03  0.33868062763E+02  0.10921653939E+04  0.11923449019E+04  0.50400001928E-02 0.  1.
       -1    1    3    3    0  502  0.47719395592E+03 -0.33868062763E+02  0.45778871753E+03  0.66214169719E+03  0.50400001928E-02 0. -1.
</event>
<event>
 5   0  0.7461157E-03  0.1023887E+04  0.7818609E-02  0.9282727E-01
        1   -1    0    0  501    0  0.00000000000E+00  0.00000000000E+00  0.94470933190E+03  0.94470933192E+03  0.50400001928E-02 0. -1.
       -1   -1    0    0    0  501  0.00000000000E+00  0.00000000000E+00 -0.27742521543E+03  0.27742521548E+03  0.50400001928E-02 0.  1.
    10030    2    1    2    0    0  0.00000000000E+00  0.00000000000E+00  0.66728411647E+03  0.12221345474E+04  0.10238870835E+04 0.  0.
        2    1    3    3  502    0  0.83170754429E+02 -0.93765871686E+02 -0.25882859218E+03  0.28757895128E+03  0.25500000920E-02 0.  1.
       -2    1    3    3    0  502 -0.83170754429E+02  0.93765871686E+02  0.92611270865E+03  0.93455559611E+03  0.25500000920E-02 0. -1.
</event>
<event>
 5   0  0.7461157E-03  0.1001079E+04  0.7818609E-02  0.9307362E-01
        1   -1    0    0  501    0  0.00000000000E+00  0.00000000000E+00  0.37797496608E+03  0.37797496611E+03  0.50400001928E-02 0.  1.
       -1   -1    0    0    0  501  0.00000000000E+00  0.00000000000E+00 -0.66284750979E+03  0.66284750981E+03  0.50400001928E-02 0. -1.
    10030    2    1    2    0    0  0.00000000000E+00  0.00000000000E+00 -0.28487254371E+03  0.10408224759E+04  0.10010789480E+04 0.  0.
        2    1    3    3  502    0 -0.24377293384E+03 -0.20750818369E+03  0.25761871651E+03  0.41091640595E+03  0.25500000920E-02 0.  1.
       -2    1    3    3    0  502  0.24377293384E+03  0.20750818369E+03 -0.54249126022E+03  0.62990606998E+03  0.25500000920E-02 0. -1.
</event>
<event>
 5   0  0.7224879E-03  0.1089852E+04  0.7818609E-02  0.9215139E-01
       -1   -1    0    0    0  501  0.00000000000E+00  0.00000000000E+00  0.15523748887E+03  0.15523748895E+03  0.50400001928E-02 0.  1.
        1   -1    0    0  501    0  0.00000000000E+00  0.00000000000E+00 -0.19128402843E+04  0.19128402844E+04  0.50400001928E-02 0. -1.
    10030    2    1    2    0    0  0.00000000000E+00  0.00000000000E+00 -0.17576027955E+04  0.20680777733E+04  0.10898523248E+04 0.  0.
        3    1    3    3  502    0 -0.48860444140E+03 -0.15809007388E+03 -0.12246485922E+04  0.13279649680E+04  0.10100000352E+00 0. -1.
       -3    1    3    3    0  502  0.48860444140E+03  0.15809007388E+03 -0.53295420325E+03  0.74011280531E+03  0.10100000352E+00 0.  1.
</event>
<event>
 5   0  0.6967681E-03  0.1020023E+04  0.7818609E-02  0.9286853E-01
       -1   -1    0    0    0  501  0.00000000000E+00  0.00000000000E+00  0.75532136805E+03  0.75532136807E+03  0.50400001928E-02 0.  1.
        1   -1    0    0  501    0  0.00000000000E+00  0.00000000000E+00 -0.34437193232E+03  0.34437193236E+03  0.50400001928E-02 0. -1.
    10030    2    1    2    0    0  0.00000000000E+00  0.00000000000E+00  0.41094943574E+03  0.10996933004E+04  0.10200225077E+04 0.  0.
        5    1    3    3  502    0  0.25450713906E+03  0.16742124463E+03 -0.23547710785E+03  0.38506533901E+03  0.46999998093E+01 0. -1.
       -5    1    3    3    0  502 -0.25450713906E+03 -0.16742124463E+03  0.64642654359E+03  0.71462796142E+03  0.46999998093E+01 0.  1.
</event>
<event>
 5   0  0.7241200E-03  0.9816093E+03  0.7818609E-02  0.9328949E-01
       -1   -1    0    0    0  501  0.00000000000E+00  0.00000000000E+00  0.20585609279E+03  0.20585609285E+03  0.50400001928E-02 0. -1.
        1   -1    0    0  501    0  0.00000000000E+00  0.00000000000E+00 -0.11701825584E+04  0.11701825584E+04  0.50400001928E-02 0.  1.
    10030    2    1    2    0    0  0.00000000000E+00  0.00000000000E+00 -0.96432646557E+03  0.13760386512E+04  0.98160931000E+03 0.  0.
        4    1    3    3  502    0  0.16341121681E+03 -0.98476856100E+02 -0.11160686680E+04  0.11322595999E+04  0.12699999809E+01 0.  1.
       -4    1    3    3    0  502 -0.16341121681E+03  0.98476856100E+02  0.15174220243E+03  0.24377905133E+03  0.12699999809E+01 0. -1.
</event>
<event>
 5   0  0.1191822E-02  0.9998019E+03  0.7818609E-02  0.9308762E-01
       -2   -1    0    0    0  501  0.00000000000E+00  0.00000000000E+00  0.22237106612E+03  0.22237106614E+03  0.25500000920E-02 0.  1.
        2   -1    0    0  501    0  0.00000000000E+00  0.00000000000E+00 -0.11238015969E+04  0.11238015969E+04  0.25500000920E-02 0. -1.
    10030    2    1    2    0    0  0.00000000000E+00  0.00000000000E+00 -0.90143053081E+03  0.13461726631E+04  0.99980189884E+03 0.  0.
        4    1    3    3  502    0 -0.91516946047E+02  0.11144050618E+03 -0.10951873366E+04  0.11046407801E+04  0.12699999809E+01 0. -1.
       -4    1    3    3    0  502  0.91516946047E+02 -0.11144050618E+03  0.19375680577E+03  0.24153188302E+03  0.12699999809E+01 0.  1.
</event>
<event>
 5   0  0.1240503E-02  0.1141636E+04  0.7818609E-02  0.9165534E-01
        2   -1    0    0  501    0  0.00000000000E+00  0.00000000000E+00  0.76730128432E+03  0.76730128433E+03  0.25500000920E-02 0. -1.
       -2   -1    0    0    0  501  0.00000000000E+00  0.00000000000E+00 -0.42464853533E+03  0.42464853534E+03  0.25500000920E-02 0.  1.
    10030    2    1    2    0    0  0.00000000000E+00  0.00000000000E+00  0.34265274900E+03  0.11919498197E+04  0.11416363108E+04 0.  0.
        1    1    3    3  502    0 -0.42299814327E+03  0.19768548985E+03  0.51416734849E+03  0.69453224863E+03  0.50400001928E-02 0. -1.
       -1    1    3    3    0  502  0.42299814327E+03 -0.19768548985E+03 -0.17151459949E+03  0.49741757103E+03  0.50400001928E-02 0.  1.
</event>
<event>
 5   0  0.1221315E-02  0.1003088E+04  0.7818609E-02  0.9305165E-01
       -2   -1    0    0    0  501  0.00000000000E+00  0.00000000000E+00  0.28437987849E+03  0.28437987850E+03  0.25500000920E-02 0.  1.
        2   -1    0    0  501    0  0.00000000000E+00  0.00000000000E+00 -0.88454268198E+03  0.88454268199E+03  0.25500000920E-02 0. -1.
    10030    2    1    2    0    0  0.00000000000E+00  0.00000000000E+00 -0.60016280349E+03  0.11689225605E+04  0.10030875145E+04 0.  0.
        5    1    3    3  502    0 -0.34935129043E+03  0.85670733147E+01  0.11911864541E+03  0.36923036245E+03  0.46999998093E+01 0.  1.
       -5    1    3    3    0  502  0.34935129043E+03 -0.85670733147E+01 -0.71928144890E+03  0.79969219804E+03  0.46999998093E+01 0. -1.
</event>
<event>
 5   0  0.1216322E-02  0.9773662E+03  0.7818609E-02  0.9333723E-01
       -2   -1    0    0    0  501  0.00000000000E+00  0.00000000000E+00  0.14467941684E+03  0.14467941686E+03  0.25500000920E-02 0.  1.
        2   -1    0    0  501    0  0.00000000000E+00  0.00000000000E+00 -0.16506231553E+04  0.16506231553E+04  0.25500000920E-02 0. -1.
    10030    2    1    2    0    0  0.00000000000E+00  0.00000000000E+00 -0.15059437384E+04  0.17953025721E+04  0.97736624773E+03 0.  0.
        2    1    3    3  502    0 -0.18995288603E+03  0.32483966385E+03 -0.18026556140E+03  0.41725121780E+03  0.25500000920E-02 0.  1.
       -2    1    3    3    0  502  0.18995288603E+03 -0.32483966385E+03 -0.13256781770E+04  0.13780513544E+04  0.25500000920E-02 0. -1.
</event>
<event>
 5   0  0.7461157E-03  0.9862232E+03  0.7818609E-02  0.9323785E-01
       -1   -1    0    0    0  501  0.00000000000E+00  0.00000000000E+00  0.25497297799E+03  0.25497297804E+03  0.50400001928E-02 0. -1.
        1   -1    0    0  501    0  0.00000000000E+00  0.00000000000E+00 -0.95366590787E+03  0.95366590788E+03  0.50400001928E-02 0.  1.
    10030    2    1    2    0    0  0.00000000000E+00  0.00000000000E+00 -0.69869292988E+03  0.12086388859E+04  0.98622317267E+03 0.  0.
        2    1    3    3  502    0  0.10343580255E+03 -0.36074691914E+03 -0.74136382603E+03  0.83093780000E+03  0.25500000920E-02 0.  1.
       -2    1    3    3    0  502 -0.10343580255E+03  0.36074691914E+03  0.42670896156E+02  0.37770108592E+03  0.25500000920E-02 0. -1.
</event>
<event>
 5   0  0.7073004E-03  0.9149684E+03  0.7818609E-02  0.9407061E-01
       -1   -1    0    0    0  501  0.00000000000E+00  0.00000000000E+00  0.39723928825E+03  0.39723928828E+03  0.50400001928E-02 0. -1.
        1   -1    0    0  501    0  0.00000000000E+00  0.00000000000E+00 -0.52686579833E+03  0.52686579836E+03  0.50400001928E-02 0.  1.
    10030    2    1    2    0    0  0.00000000000E+00  0.00000000000E+00 -0.12962651008E+03  0.92410508664E+03  0.91496840330E+03 0.  0.
        1    1    3    3  502    0 -0.61442450027E+02 -0.24262281013E+03 -0.45158743186E+03  0.51630631538E+03  0.50400001928E-02 0.  1.
       -1    1    3    3    0  502  0.61442450027E+02  0.24262281013E+03  0.32196092178E+03  0.40779877126E+03  0.50400001928E-02 0. -1.
</event>
<event>
 5   0  0.1221315E-02  0.1024432E+04  0.7818609E-02  0.9282147E-01
        2   -1    0    0  501    0  0.00000000000E+00  0.00000000000E+00  0.71332098166E+03  0.71332098166E+03  0.25500000920E-02 0.  1.
       -2   -1    0    0    0  501  0.00000000000E+00  0.00000000000E+00 -0.36780825187E+03  0.36780825188E+03  0.25500000920E-02 0. -1.
    10030    2    1    2    0    0  0.00000000000E+00  0.00000000000E+00  0.34551272979E+03  0.10811292335E+04  0.10244322199E+04 0.  0.
        5    1    3    3  502    0  0.26747963627E+02 -0.33563806970E+03  0.58009059966E+03  0.67074254465E+03  0.46999998093E+01 0.  1.
       -5    1    3    3    0  502 -0.26747963627E+02  0.33563806970E+03 -0.23457786987E+03  0.41038668890E+03  0.46999998093E+01 0. -1.
</event>
<event>
 5   0  0.1240503E-02  0.9732651E+03  0.7818609E-02  0.9338363E-01
       -2   -1    0    0    0  501  0.00000000000E+00  0.00000000000E+00  0.10644979170E+03  0.10644979173E+03  0.25500000920E-02 0. -1.
        2   -1    0    0  501    0  0.00000000000E+00  0.00000000000E+00 -0.22246285966E+04  0.22246285966E+04  0.25500000920E-02 0.  1.
    10030    2    1    2    0    0  0.00000000000E+00  0.00000000000E+00 -0.21181788049E+04  0.23310783884E+04  0.97326512472E+03 0.  0.
        1    1    3    3  502    0  0.43640039885E+03 -0.11743381729E+03 -0.14913737757E+04  0.15583426287E+04  0.50400001928E-02 0.  1.
       -1    1    3    3    0  502 -0.43640039885E+03  0.11743381729E+03 -0.62680502925E+03  0.77273575967E+03  0.50400001928E-02 0. -1.
</event>
<event>
 5   0  0.6967681E-03  0.1013479E+04  0.7818609E-02  0.9293884E-01
       -1   -1    0    0    0  501  0.00000000000E+00  0.00000000000E+00  0.30553947405E+03  0.30553947409E+03  0.50400001928E-02 0.  1.
        1   -1    0    0  501    0  0.00000000000E+00  0.00000000000E+00 -0.84043059190E+03  0.84043059192E+03  0.50400001928E-02 0. -1.
    10030    2    1    2    0    0  0.00000000000E+00  0.00000000000E+00 -0.53489111785E+03  0.11459700660E+04  0.10134786057E+04 0.  0.
        5    1    3    3  502    0 -0.16618684937E+03 -0.41008537953E+03  0.11765726205E+02  0.44266082921E+03  0.46999998093E+01 0.  1.
       -5    1    3    3    0  502  0.16618684937E+03  0.41008537953E+03 -0.54665684406E+03  0.70330923680E+03  0.46999998093E+01 0. -1.
</event>
<event>
 5   0  0.7224879E-03  0.1009934E+04  0.7818609E-02  0.9297716E-01
       -1   -1    0    0    0  501  0.00000000000E+00  0.00000000000E+00  0.58635573699E+03  0.58635573701E+03  0.50400001928E-02 0.  1.
        1   -1    0    0  501    0  0.00000000000E+00  0.00000000000E+00 -0.43487543089E+03  0.43487543092E+03  0.50400001928E-02 0. -1.
    10030    2    1    2    0    0  0.00000000000E+00  0.00000000000E+00  0.15148030610E+03  0.10212311679E+04  0.10099340648E+04 0.  0.
        3    1    3    3  502    0  0.30537890048E+03 -0.46488983226E+01 -0.33089469329E+03  0.45029900440E+03  0.10100000352E+00 0. -1.
       -3    1    3    3    0  502 -0.30537890048E+03  0.46488983226E+01  0.48237499939E+03  0.57093216353E+03  0.10100000352E+00 0.  1.
</event>
<event>
 5   0  0.1221315E-02  0.1107506E+04  0.7818609E-02  0.9197907E-01
        2   -1    0    0  501    0  0.00000000000E+00  0.00000000000E+00  0.13019505350E+04  0.13019505350E+04  0.25500000920E-02 0. -1.
       -2   -1    0    0    0  501  0.00000000000E+00  0.00000000000E+00 -0.23552547517E+03  0.23552547519E+03  0.25500000920E-02 0.  1.
    10030    2    1    2    0    0  0.00000000000E+00  0.00000000000E+00  0.10664250598E+04  0.15374760102E+04  0.11075062409E+04 0.  0.
        5    1    3    3  502    0 -0.32020255977E+02 -0.14581718135E+03  0.12734573948E+04  0.12821871055E+04  0.46999998093E+01 0. -1.
       -5    1    3    3    0  502  0.32020255977E+02  0.14581718135E+03 -0.20703233493E+03  0.25528890472E+03  0.46999998093E+01 0.  1.
</event>
<event>
 5   0  0.7224879E-03  0.9978137E+03  0.7818609E-02  0.9310946E-01
        1   -1    0    0  501    0  0.00000000000E+00  0.00000000000E+00  0.66153753567E+03  0.66153753569E+03  0.50400001928E-02 0. -1.
       -1   -1    0    0    0  501  0.00000000000E+00  0.00000000000E+00 -0.37625688529E+03  0.37625688532E+03  0.50400001928E-02 0.  1.
    10030    2    1    2    0    0  0.00000000000E+00  0.00000000000E+00  0.28528065039E+03  0.10377944210E+04  0.99781371548E+03 0.  0.
        3    1    3    3  502    0  0.97391818453E+02  0.48308467646E+03  0.61728147538E+02  0.49665515736E+03  0.10100000352E+00 0. -1.
       -3    1    3    3    0  502 -0.97391818453E+02 -0.48308467646E+03  0.22355250285E+03  0.54113926365E+03  0.10100000352E+00 0.  1.
</event>
<event>
 5   0  0.1221315E-02  0.1024296E+04  0.7818609E-02  0.9282292E-01
        2   -1    0    0  501    0  0.00000000000E+00  0.00000000000E+00  0.24278971805E+04  0.24278971805E+04  0.25500000920E-02 0.  1.
       -2   -1    0    0    0  501  0.00000000000E+00  0.00000000000E+00 -0.10803405800E+03  0.10803405803E+03  0.25500000920E-02 0. -1.
    10030    2    1    2    0    0  0.00000000000E+00  0.00000000000E+00  0.23198631225E+04  0.25359312385E+04  0.10242960214E+04 0.  0.
        5    1    3    3  502    0 -0.45568544542E+03  0.10801870520E+03  0.16730587917E+04  0.17373730389E+04  0.46999998093E+01 0.  1.
       -5    1    3    3    0  502  0.45568544542E+03 -0.10801870520E+03  0.64680433078E+03  0.79855819960E+03  0.46999998093E+01 0. -1.
</event>
<event>
 5   0  0.7461157E-03  0.9931588E+03  0.7818609E-02  0.9316080E-01
       -1   -1    0    0    0  501  0.00000000000E+00  0.00000000000E+00  0.21144225345E+03  0.21144225351E+03  0.50400001928E-02 0. -1.
        1   -1    0    0  501    0  0.00000000000E+00  0.00000000000E+00 -0.11662338876E+04  0.11662338876E+04  0.50400001928E-02 0.  1.
    10030    2    1    2    0    0  0.00000000000E+00  0.00000000000E+00 -0.95479163416E+03  0.13776761411E+04  0.99315884186E+03 0.  0.
        2    1    3    3  502    0  0.30338736252E+03  0.38698818482E+03 -0.38141661866E+03  0.62232016191E+03  0.25500000920E-02 0.  1.
       -2    1    3    3    0  502 -0.30338736252E+03 -0.38698818482E+03 -0.57337501550E+03  0.75535597921E+03  0.25500000920E-02 0. -1.
</event>
<event>
 5   0  0.1240503E-02  0.1154382E+04  0.7818609E-02  0.9153750E-01
        2   -1    0    0  501    0  0.00000000000E+00  0.00000000000E+00  0.26457206310E+04  0.26457206310E+04  0.25500000920E-02 0.  1.
       -2   -1    0    0    0  501  0.00000000000E+00  0.00000000000E+00 -0.12592012417E+03  0.12592012420E+03  0.25500000920E-02 0. -1.
    10030    2    1    2    0    0  0.00000000000E+00  0.00000000000E+00  0.25198005068E+04  0.27716407552E+04  0.11543820346E+04 0.  0.
        1    1    3    3  502    0  0.23309477620E+03 -0.43650627294E+03  0.19732705509E+04  0.20343715413E+04  0.50400001928E-02 0. -1.
       -1    1    3    3    0  502 -0.23309477620E+03  0.43650627294E+03  0.54652995593E+03  0.73726921390E+03  0.50400001928E-02 0.  1.
</event>
<event>
 5   0  0.7461157E-03  0.9629518E+03  0.7818609E-02  0.9350139E-01
        1   -1    0    0  501    0  0.00000000000E+00  0.00000000000E+00  0.52239156913E+03  0.52239156916E+03  0.50400001928E-02 0.  1.
       -1   -1    0    0    0  501  0.00000000000E+00  0.00000000000E+00 -0.44376486939E+03  0.44376486942E+03  0.50400001928E-02 0. -1.
    10030    2    1    2    0    0  0.00000000000E+00  0.00000000000E+00  0.78626699747E+02  0.96615643858E+03  0.96295176717E+03 0.  0.
        2    1    3    3  502    0 -0.27303013208E+03  0.34866765462E+03 -0.15027167558E+03  0.46764961552E+03  0.25500000920E-02 0. -1.
       -2    1    3    3    0  502  0.27303013208E+03 -0.34866765462E+03  0.22889837532E+03  0.49850682306E+03  0.25500000920E-02 0.  1.
</event>
<event>
 5   0  0.1191822E-02  0.1000273E+04  0.7818609E-02  0.9308246E-01
       -2   -1    0    0    0  501  0.00000000000E+00  0.00000000000E+00  0.15045025082E+03  0.15045025084E+03  0.25500000920E-02 0.  1.
        2   -1    0    0  501    0  0.00000000000E+00  0.00000000000E+00 -0.16625857775E+04  0.16625857775E+04  0.25500000920E-02 0. -1.
    10030    2    1    2    0    0  0.00000000000E+00  0.00000000000E+00 -0.15121355267E+04  0.18130360283E+04  0.10002728573E+04 0.  0.
        4    1    3    3  502    0 -0.28141873819E+03  0.32628359799E+03 -0.29582018451E+03  0.52265541897E+03  0.12699999809E+01 0.  1.
       -4    1    3    3    0  502  0.28141873819E+03 -0.32628359799E+03 -0.12163153422E+04  0.12903806093E+04  0.12699999809E+01 0. -1.
</event>
<event>
 5   0  0.7241200E-03  0.1010160E+04  0.7818609E-02  0.9297471E-01
        1   -1    0    0  501    0  0.00000000000E+00  0.00000000000E+00  0.52252994093E+03  0.52252994095E+03  0.50400001928E-02 0.  1.
       -1   -1    0    0    0  501  0.00000000000E+00  0.00000000000E+00 -0.48821321828E+03  0.48821321831E+03  0.50400001928E-02 0. -1.
    10030    2    1    2    0    0  0.00000000000E+00  0.00000000000E+00  0.34316722644E+02  0.10107431593E+04  0.10101604311E+04 0.  0.
        4    1    3    3  502    0  0.24050225939E+03  0.44374457543E+03 -0.16627593206E+01  0.50473256548E+03  0.12699999809E+01 0. -1.
       -4    1    3    3    0  502 -0.24050225939E+03 -0.44374457543E+03  0.35979481965E+02  0.50601059378E+03  0.12699999809E+01 0.  1.
</event>
<event>
 5   0  0.4782125E-03  0.7034871E+03  0.7818609E-02  0.9711287E-01
        4   -1    0    0  501    0  0.00000000000E+00  0.00000000000E+00  0.63867642758E+03  0.63867769027E+03  0.12699999809E+01 0.  1.
       -4   -1    0    0    0  501  0.00000000000E+00  0.00000000000E+00 -0.19371512070E+03  0.19371928373E+03  0.12699999809E+01 0. -1.
    10030    2    1    2    0    0  0.00000000000E+00  0.00000000000E+00  0.44496130688E+03  0.83239697400E+03  0.70348714111E+03 0.  0.
        1    1    3    3  502    0 -0.19046673444E+03  0.23307649401E+03  0.43782232741E+03  0.53131028542E+03  0.50400001928E-02 0.  1.
       -1    1    3    3    0  502  0.19046673444E+03 -0.23307649401E+03  0.71389794711E+01  0.30108668858E+03  0.50400001928E-02 0. -1.
</event>
<event>
 5   0  0.7224879E-03  0.9731974E+03  0.7818609E-02  0.9338440E-01
        1   -1    0    0  501    0  0.00000000000E+00  0.00000000000E+00  0.13194084738E+04  0.13194084738E+04  0.50400001928E-02 0. -1.
       -1   -1    0    0    0  501  0.00000000000E+00  0.00000000000E+00 -0.17945791243E+03  0.17945791250E+03  0.50400001928E-02 0.  1.
    10030    2    1    2    0    0  0.00000000000E+00  0.00000000000E+00  0.11399505614E+04  0.14988663863E+04  0.97319739090E+03 0.  0.
        3    1    3    3  502    0 -0.38567344141E+03 -0.29607833073E+03  0.54027405182E+03  0.72684416666E+03  0.10100000352E+00 0.  1.
       -3    1    3    3    0  502  0.38567344141E+03  0.29607833073E+03  0.59967650955E+03  0.77202221966E+03  0.10100000352E+00 0. -1.
</event>
<event>
 5   0  0.7461157E-03  0.1040152E+04  0.7818609E-02  0.9265571E-01
       -1   -1    0    0    0  501  0.00000000000E+00  0.00000000000E+00  0.37217188135E+03  0.37217188139E+03  0.50400001928E-02 0.  1.
        1   -1    0    0  501    0  0.00000000000E+00  0.00000000000E+00 -0.72675872826E+03  0.72675872828E+03  0.50400001928E-02 0. -1.
    10030    2    1    2    0    0  0.00000000000E+00  0.00000000000E+00 -0.35458684691E+03  0.10989306097E+04  0.10401522258E+04 0.  0.
        2    1    3    3  502    0  0.13007844978E+01 -0.13441542887E+03  0.35350132180E+03  0.37819622431E+03  0.25500000920E-02 0.  1.
       -2    1    3    3    0  502 -0.13007844978E+01  0.13441542887E+03 -0.70808816871E+03  0.72073438536E+03  0.25500000920E-02 0. -1.
</event>
<event>
 5   0  0.7224879E-03  0.1176730E+04  0.7818609E-02  0.9133472E-01
       -1   -1    0    0    0  501  0.00000000000E+00  0.00000000000E+00  0.33163333813E+03  0.33163333817E+03  0.50400001928E-02 0. -1.
        1   -1    0    0  501    0  0.00000000000E+00  0.00000000000E+00 -0.10438438927E+04  0.10438438927E+04  0.50400001928E-02 0.  1.
    10030    2    1    2    0    0  0.00000000000E+00  0.00000000000E+00 -0.71221055452E+03  0.13754772308E+04  0.11767301044E+04 0.  0.
        3    1    3    3  502    0 -0.28929989099E+03  0.50147847858E+03 -0.47869102334E+03  0.75121248487E+03  0.10100000352E+00 0.  1.
       -3    1    3    3    0  502  0.28929989099E+03 -0.50147847858E+03 -0.23351953118E+03  0.62426474596E+03  0.10100000352E+00 0. -1.
</event>
<event>
 5   0  0.6967681E-03  0.1009298E+04  0.7818609E-02  0.9298405E-01
       -1   -1    0    0    0  501  0.00000000000E+00  0.00000000000E+00  0.54353289943E+03  0.54353289945E+03  0.50400001928E-02 0.  1.
        1   -1    0    0  501    0  0.00000000000E+00  0.00000000000E+00 -0.46854692483E+03  0.46854692486E+03  0.50400001928E-02 0. -1.
    10030    2    1    2    0    0  0.00000000000E+00  0.00000000000E+00  0.74985974593E+02  0.10120798243E+04  0.10092981098E+04 0.  0.
        5    1    3    3  502    0  0.43753998111E+03  0.32282186174E+02 -0.21252369565E+03  0.48751593392E+03  0.46999998093E+01 0. -1.
       -5    1    3    3    0  502 -0.43753998111E+03 -0.32282186174E+02  0.28750967024E+03  0.52456389039E+03  0.46999998093E+01 0.  1.
</event>
<event>
 5   0  0.6967681E-03  0.1003262E+04  0.7818609E-02  0.9304975E-01
       -1   -1    0    0    0  501  0.00000000000E+00  0.00000000000E+00  0.41947537395E+03  0.41947537398E+03  0.50400001928E-02 0.  1.
        1   -1    0    0  501    0  0.00000000000E+00  0.00000000000E+00 -0.59987654852E+03  0.59987654854E+03  0.50400001928E-02 0. -1.
    10030    2    1    2    0    0  0.00000000000E+00  0.00000000000E+00 -0.18040117457E+03  0.10193519225E+04  0.10032615602E+04 0.  0.
        5    1    3    3  502    0  0.39437612513E+03 -0.30888953932E+03 -0.11642291270E+03  0.51431669249E+03  0.46999998093E+01 0.  1.
       -5    1    3    3    0  502 -0.39437612513E+03  0.30888953932E+03 -0.63978261875E+02  0.50503523002E+03  0.46999998093E+01 0. -1.
</event>
<event>
 5   0  0.6967681E-03  0.9818422E+03  0.7818609E-02  0.9328687E-01
        1   -1    0    0  501    0  0.00000000000E+00  0.00000000000E+00  0.69340424630E+03  0.69340424632E+03  0.50400001928E-02 0.  1.
       -1   -1    0    0    0  501  0.00000000000E+00  0.00000000000E+00 -0.34756566942E+03  0.34756566946E+03  0.50400001928E-02 0. -1.
    10030    2    1    2    0    0  0.00000000000E+00  0.00000000000E+00  0.34583857688E+03  0.10409699158E+04  0.98184216874E+03 0.  0.
        5    1    3    3  502    0 -0.21959721512E+03 -0.39346220230E+03 -0.33608922129E+02  0.45187065757E+03  0.46999998093E+01 0. -1.
       -5    1    3    3    0  502  0.21959721512E+03  0.39346220230E+03  0.37944749901E+03  0.58909925821E+03  0.46999998093E+01 0.  1.
</event>
<event>
 5   0  0.1191822E-02  0.9140100E+03  0.7818609E-02  0.9408236E-01
       -2   -1    0    0    0  501  0.00000000000E+00  0.00000000000E+00  0.13558813298E+03  0.13558813301E+03  0.25500000920E-02 0.  1.
        2   -1    0    0  501    0  0.00000000000E+00  0.00000000000E+00 -0.15403527313E+04  0.15403527313E+04  0.25500000920E-02 0. -1.
    10030    2    1    2    0    0  0.00000000000E+00  0.00000000000E+00 -0.14047645983E+04  0.16759408643E+04  0.91400995835E+03 0.  0.
        4    1    3    3  502    0 -0.30791514065E+03 -0.33359237964E+03 -0.79864837094E+03  0.91866013460E+03  0.12699999809E+01 0. -1.
       -4    1    3    3    0  502  0.30791514065E+03  0.33359237964E+03 -0.60611622734E+03  0.75728072968E+03  0.12699999809E+01 0.  1.
</event>
<event>
 5   0  0.7241200E-03  0.1020318E+04  0.7818609E-02  0.9286537E-01
        1   -1    0    0  501    0  0.00000000000E+00  0.00000000000E+00  0.21118265298E+04  0.21118265298E+04  0.50400001928E-02 0.  1.
       -1   -1    0    0    0  501  0.00000000000E+00  0.00000000000E+00 -0.12324024608E+03  0.12324024618E+03  0.50400001928E-02 0. -1.
    10030    2    1    2    0    0  0.00000000000E+00  0.00000000000E+00  0.19885862838E+04  0.22350667760E+04  0.10203176394E+04 0.  0.
        4    1    3    3  502    0 -0.81537716183E+02  0.60818364942E+01 -0.10879024187E+03  0.13609672120E+03  0.12699999809E+01 0. -1.
       -4    1    3    3    0  502  0.81537716183E+02 -0.60818364942E+01  0.20973765256E+04  0.20989700548E+04  0.12699999809E+01 0.  1.
</event>
<event>
 5   0  0.1245850E-02  0.1032768E+04  0.7818609E-02  0.9273318E-01
        2   -1    0    0  501    0  0.00000000000E+00  0.00000000000E+00  0.84523211666E+03  0.84523211666E+03  0.25500000920E-02 0.  1.
       -2   -1    0    0    0  501  0.00000000000E+00  0.00000000000E+00 -0.31547861153E+03  0.31547861154E+03  0.25500000920E-02 0. -1.
    10030    2    1    2    0    0  0.00000000000E+00  0.00000000000E+00  0.52975350513E+03  0.11607107282E+04  0.10327684244E+04 0.  0.
        3    1    3    3  502    0  0.38207167948E+03 -0.22958365315E+03 -0.28121087006E+02  0.44662985547E+03  0.10100000352E+00 0. -1.
       -3    1    3    3    0  502 -0.38207167948E+03  0.22958365315E+03  0.55787459214E+03  0.71408087274E+03  0.10100000352E+00 0.  1.
</event>
<event>
 5   0  0.1240503E-02  0.1032787E+04  0.7818609E-02  0.9273298E-01
        2   -1    0    0  501    0  0.00000000000E+00  0.00000000000E+00  0.34305574832E+03  0.34305574833E+03  0.25500000920E-02 0. -1.
       -2   -1    0    0    0  501  0.00000000000E+00  0.00000000000E+00 -0.77731397799E+03  0.77731397800E+03  0.25500000920E-02 0.  1.
    10030    2    1    2    0    0  0.00000000000E+00  0.00000000000E+00 -0.43425822967E+03  0.11203697263E+04  0.10327865770E+04 0.  0.
        1    1    3    3  502    0 -0.27435568618E+02  0.11931372646E+03  0.32708471011E+03  0.34924616442E+03  0.50400001928E-02 0. -1.
       -1    1    3    3    0  502  0.27435568618E+02 -0.11931372646E+03 -0.76134293978E+03  0.77112356191E+03  0.50400001928E-02 0.  1.
</event>
<event>
 5   0  0.7241200E-03  0.1003445E+04  0.7818609E-02  0.9304775E-01
       -1   -1    0    0    0  501  0.00000000000E+00  0.00000000000E+00  0.40415260923E+03  0.40415260926E+03  0.50400001928E-02 0. -1.
        1   -1    0    0  501    0  0.00000000000E+00  0.00000000000E+00 -0.62284731474E+03  0.62284731476E+03  0.50400001928E-02 0.  1.
    10030    2    1    2    0    0  0.00000000000E+00  0.00000000000E+00 -0.21869470551E+03  0.10269999240E+04  0.10034448015E+04 0.  0.
        4    1    3    3  502    0 -0.47524592886E+03 -0.73686316912E+02  0.36960747615E+02  0.48234435413E+03  0.12699999809E+01 0.  1.
       -4    1    3    3    0  502  0.47524592886E+03  0.73686316912E+02 -0.25565545313E+03  0.54465556989E+03  0.12699999809E+01 0. -1.
</event>
<event>
 5   0  0.1240503E-02  0.9957212E+03  0.7818609E-02  0.9313250E-01
        2   -1    0    0  501    0  0.00000000000E+00  0.00000000000E+00  0.67744316465E+03  0.67744316465E+03  0.25500000920E-02 0.  1.
       -2   -1    0    0    0  501  0.00000000000E+00  0.00000000000E+00 -0.36588334273E+03  0.36588334274E+03  0.25500000920E-02 0. -1.
    10030    2    1    2    0    0  0.00000000000E+00  0.00000000000E+00  0.31155982192E+03  0.10433265074E+04  0.99572118507E+03 0.  0.
        1    1    3    3  502    0  0.37177164103E+03  0.97221893346E+02 -0.17589606391E+03  0.42261764627E+03  0.50400001928E-02 0. -1.
       -1    1    3    3    0  502 -0.37177164103E+03 -0.97221893346E+02  0.48745588582E+03  0.62070886112E+03  0.50400001928E-02 0.  1.
</event>
<event>
 5   0  0.1245850E-02  0.9949779E+03  0.7818609E-02  0.9314070E-01
       -2   -1    0    0    0  501  0.00000000000E+00  0.00000000000E+00  0.94851472055E+02  0.94851472089E+02  0.25500000920E-02 0. -1.
        2   -1    0    0  501    0  0.00000000000E+00  0.00000000000E+00 -0.26092926829E+04  0.26092926829E+04  0.25500000920E-02 0.  1.
    10030    2    1    2    0    0  0.00000000000E+00  0.00000000000E+00 -0.25144412109E+04  0.27041441550E+04  0.99497789331E+03 0.  0.
        3    1    3    3  502    0  0.93973965972E+01 -0.21577149171E+03 -0.24752335037E+04  0.24846381136E+04  0.10100000352E+00 0.  1.
       -3    1    3    3    0  502 -0.93973965972E+01  0.21577149171E+03 -0.39207707169E+02  0.21950604138E+03  0.10100000352E+00 0. -1.
</event>
<event>
 5   0  0.7461157E-03  0.9752443E+03  0.7818609E-02  0.9336121E-01
        1   -1    0    0  501    0  0.00000000000E+00  0.00000000000E+00  0.16117303677E+03  0.16117303685E+03  0.50400001928E-02 0. -1.
       -1   -1    0    0    0  501  0.00000000000E+00  0.00000000000E+00 -0.14752798986E+04  0.14752798986E+04  0.50400001928E-02 0.  1.
    10030    2    1    2    0    0  0.00000000000E+00  0.00000000000E+00 -0.13141068618E+04  0.16364529354E+04  0.97524425947E+03 0.  0.
        2    1    3    3  502    0 -0.19856981579E+03  0.28780990915E+03 -0.86755939433E+02  0.36026533081E+03  0.25500000920E-02 0. -1.
       -2    1    3    3    0  502  0.19856981579E+03 -0.28780990915E+03 -0.12273509224E+04  0.12761876046E+04  0.25500000920E-02 0.  1.
</event>
<event>
 5   0  0.1245850E-02  0.9038145E+03  0.7818609E-02  0.9420826E-01
       -2   -1    0    0    0  501  0.00000000000E+00  0.00000000000E+00  0.73701793377E+03  0.73701793378E+03  0.25500000920E-02 0.  1.
        2   -1    0    0  501    0  0.00000000000E+00  0.00000000000E+00 -0.27708981963E+03  0.27708981965E+03  0.25500000920E-02 0. -1.
    10030    2    1    2    0    0  0.00000000000E+00  0.00000000000E+00  0.45992811414E+03  0.10141077534E+04  0.90381450828E+03 0.  0.
        3    1    3    3  502    0 -0.99899209304E+01  0.42832527623E+03  0.68696506202E+02  0.43391423224E+03  0.10100000352E+00 0.  1.
       -3    1    3    3    0  502  0.99899209304E+01 -0.42832527623E+03  0.39123160793E+03  0.58019352118E+03  0.10100000352E+00 0. -1.
</event>
<event>
 5   0  0.7241200E-03  0.9679321E+03  0.7818609E-02  0.9344433E-01
       -1   -1    0    0    0  501  0.00000000000E+00  0.00000000000E+00  0.31843624376E+03  0.31843624380E+03  0.50400001928E-02 0. -1.
        1   -1    0    0  501    0  0.00000000000E+00  0.00000000000E+00 -0.73554167331E+03  0.73554167333E+03  0.50400001928E-02 0.  1.
    10030    2    1    2    0    0  0.00000000000E+00  0.00000000000E+00 -0.41710542955E+03  0.10539779171E+04  0.96793207945E+03 0.  0.
        4    1    3    3  502    0 -0.39559620046E+03 -0.26135774070E+03 -0.10288321477E+03  0.48517088868E+03  0.12699999809E+01 0. -1.
       -4    1    3    3    0  502  0.39559620046E+03  0.26135774070E+03 -0.31422221478E+03  0.56880702844E+03  0.12699999809E+01 0.  1.
</event>
<event>
 5   0  0.4782125E-03  0.9955963E+03  0.7818609E-02  0.9313388E-01
       -4   -1    0    0    0  501  0.00000000000E+00  0.00000000000E+00  0.39306158713E+03  0.39306363884E+03  0.12699999809E+01 0. -1.
        4   -1    0    0  501    0  0.00000000000E+00  0.00000000000E+00 -0.63043887644E+03  0.63044015563E+03  0.12699999809E+01 0.  1.
    10030    2    1    2    0    0  0.00000000000E+00  0.00000000000E+00 -0.23737728932E+03  0.10235037945E+04  0.99559632372E+03 0.  0.
        5    1    3    3  502    0 -0.28067010425E+03  0.14290278180E+03 -0.51495956777E+03  0.60365748476E+03  0.46999998093E+01 0.  1.
       -5    1    3    3    0  502  0.28067010425E+03 -0.14290278180E+03  0.27758227845E+03  0.41984630971E+03  0.46999998093E+01 0. -1.
</event>
<event>
 5   0  0.7241200E-03  0.6915194E+03  0.7818609E-02  0.9731846E-01
       -1   -1    0    0    0  501  0.00000000000E+00  0.00000000000E+00  0.77263899257E+03  0.77263899258E+03  0.50400001928E-02 0. -1.
        1   -1    0    0  501    0  0.00000000000E+00  0.00000000000E+00 -0.15472915108E+03  0.15472915116E+03  0.50400001928E-02 0.  1.
    10030    2    1    2    0    0  0.00000000000E+00  0.00000000000E+00  0.61790984149E+03  0.92736814374E+03  0.69151941536E+03 0.  0.
        4    1    3    3  502    0  0.74019176532E+02 -0.11466089730E+03  0.73498587565E+03  0.74755054021E+03  0.12699999809E+01 0. -1.
       -4    1    3    3    0  502 -0.74019176532E+02  0.11466089730E+03 -0.11707603417E+03  0.17981760353E+03  0.12699999809E+01 0.  1.
</event>
<event>
 5   0  0.1240503E-02  0.9418461E+03  0.7818609E-02  0.9374732E-01
        2   -1    0    0  501    0  0.00000000000E+00  0.00000000000E+00  0.13761970074E+04  0.13761970074E+04  0.25500000920E-02 0.  1.
       -2   -1    0    0    0  501  0.00000000000E+00  0.00000000000E+00 -0.16114590570E+03  0.16114590572E+03  0.25500000920E-02 0. -1.
    10030    2    1    2    0    0  0.00000000000E+00  0.00000000000E+00  0.12150511017E+04  0.15373429131E+04  0.94184608763E+03 0.  0.
        1    1    3    3  502    0  0.25607970648E+03 -0.25087714529E+03  0.11059745363E+04  0.11626245452E+04  0.50400001928E-02 0. -1.
       -1    1    3    3    0  502 -0.25607970648E+03  0.25087714529E+03  0.10907656535E+03  0.37471836789E+03  0.50400001928E-02 0.  1.
</event>
<event>
 5   0  0.7073004E-03  0.9575342E+03  0.7818609E-02  0.9356387E-01
       -1   -1    0    0    0  501  0.00000000000E+00  0.00000000000E+00  0.50359237149E+03  0.50359237151E+03  0.50400001928E-02 0.  1.
        1   -1    0    0  501    0  0.00000000000E+00  0.00000000000E+00 -0.45516563229E+03  0.45516563232E+03  0.50400001928E-02 0. -1.
    10030    2    1    2    0    0  0.00000000000E+00  0.00000000000E+00  0.48426739198E+02  0.95875800383E+03  0.95753420870E+03 0.  0.
        1    1    3    3  502    0  0.37642237942E+03 -0.26729884472E+03 -0.10273771324E+03  0.47296671961E+03  0.50400001928E-02 0. -1.
       -1    1    3    3    0  502 -0.37642237942E+03  0.26729884472E+03  0.15116445244E+03  0.48579128422E+03  0.50400001928E-02 0.  1.
</event>
<event>
 5   0  0.7461157E-03  0.9668171E+03  0.7818609E-02  0.9345707E-01
        1   -1    0    0  501    0  0.00000000000E+00  0.00000000000E+00  0.51079349974E+03  0.51079349976E+03  0.50400001928E-02 0.  1.
       -1   -1    0    0    0  501  0.00000000000E+00  0.00000000000E+00 -0.45749176831E+03  0.45749176834E+03  0.50400001928E-02 0. -1.
    10030    2    1    2    0    0  0.00000000000E+00  0.00000000000E+00  0.53301731429E+02  0.96828526810E+03  0.96681709017E+03 0.  0.
        2    1    3    3  502    0  0.10005054200E+03  0.39811736526E+03 -0.22903326275E+03  0.47006784928E+03  0.25500000920E-02 0. -1.
       -2    1    3    3    0  502 -0.10005054200E+03 -0.39811736526E+03  0.28233499418E+03  0.49821741882E+03  0.25500000920E-02 0.  1.
</event>
<event>
 5   0  0.1216322E-02  0.9149433E+03  0.7818609E-02  0.9407092E-01
        2   -1    0    0  501    0  0.00000000000E+00  0.00000000000E+00  0.67770794925E+03  0.67770794926E+03  0.25500000920E-02 0. -1.
       -2   -1    0    0    0  501  0.00000000000E+00  0.00000000000E+00 -0.30880602827E+03  0.30880602828E+03  0.25500000920E-02 0.  1.
    10030    2    1    2    0    0  0.00000000000E+00  0.00000000000E+00  0.36890192098E+03  0.98651397754E+03  0.91494327724E+03 0.  0.
        2    1    3    3  502    0 -0.20480919892E+03 -0.36943544208E+03 -0.49330536653E+01  0.42243779287E+03  0.25500000920E-02 0.  1.
       -2    1    3    3    0  502  0.20480919892E+03  0.36943544208E+03  0.37383497465E+03  0.56407618466E+03  0.25500000920E-02 0. -1.
</event>
<event>
 5   0  0.1216322E-02  0.9855643E+03  0.7818609E-02  0.9324521E-01
       -2   -1    0    0    0  501  0.00000000000E+00  0.00000000000E+00  0.86108664768E+03  0.86108664768E+03  0.25500000920E-02 0. -1.
        2   -1    0    0  501    0  0.00000000000E+00  0.00000000000E+00 -0.28200906993E+03  0.28200906995E+03  0.25500000920E-02 0.  1.
    10030    2    1    2    0    0  0.00000000000E+00  0.00000000000E+00  0.57907757774E+03  0.11430957176E+04  0.98556429451E+03 0.  0.
        2    1    3    3  502    0 -0.10849114455E+03  0.45012551114E+03  0.93904061463E+02  0.47244182393E+03  0.25500000920E-02 0.  1.
       -2    1    3    3    0  502  0.10849114455E+03 -0.45012551114E+03  0.48517351628E+03  0.67065389370E+03  0.25500000920E-02 0. -1.
</event>
<event>
 5   0  0.1221315E-02  0.9883504E+03  0.7818609E-02  0.9321415E-01
       -2   -1    0    0    0  501  0.00000000000E+00  0.00000000000E+00  0.17199639580E+03  0.17199639581E+03  0.25500000920E-02 0.  1.
        2   -1    0    0  501    0  0.00000000000E+00  0.00000000000E+00 -0.14198503174E+04  0.14198503174E+04  0.25500000920E-02 0. -1.
    10030    2    1    2    0    0  0.00000000000E+00  0.00000000000E+00 -0.12478539216E+04  0.15918467132E+04  0.98835041796E+03 0.  0.
        5    1    3    3  502    0 -0.21161562880E+02 -0.28075382754E+03 -0.12779941757E+04  0.13086488171E+04  0.46999998093E+01 0. -1.
       -5    1    3    3    0  502  0.21161562880E+02  0.28075382754E+03  0.30140254125E+02  0.28319789607E+03  0.46999998093E+01 0.  1.
</event>
<event>
 5   0  0.1240503E-02  0.1004904E+04  0.7818609E-02  0.9303183E-01
       -2   -1    0    0    0  501  0.00000000000E+00  0.00000000000E+00  0.26080430165E+03  0.26080430166E+03  0.25500000920E-02 0. -1.
        2   -1    0    0  501    0  0.00000000000E+00  0.00000000000E+00 -0.96799783829E+03  0.96799783829E+03  0.25500000920E-02 0.  1.
    10030    2    1    2    0    0  0.00000000000E+00  0.00000000000E+00 -0.70719353664E+03  0.12288021400E+04  0.10049039760E+04 0.  0.
        1    1    3    3  502    0  0.10703560093E+03  0.19536736645E+03 -0.90431147209E+03  0.93134540656E+03  0.50400001928E-02 0.  1.
       -1    1    3    3    0  502 -0.10703560093E+03 -0.19536736645E+03  0.19711793545E+03  0.29745673339E+03  0.50400001928E-02 0. -1.
</event>
<event>
 5   0  0.7224879E-03  0.9629927E+03  0.7818609E-02  0.9350092E-01
       -1   -1    0    0    0  501  0.00000000000E+00  0.00000000000E+00  0.42605935953E+03  0.42605935956E+03  0.50400001928E-02 0. -1.
        1   -1    0    0  501    0  0.00000000000E+00  0.00000000000E+00 -0.54414651039E+03  0.54414651041E+03  0.50400001928E-02 0.  1.
    10030    2    1    2    0    0  0.00000000000E+00  0.00000000000E+00 -0.11808715086E+03  0.97020586997E+03  0.96299265570E+03 0.  0.
        3    1    3    3  502    0 -0.14840193785E+03  0.30750648406E+03 -0.40107927183E+03  0.52673329626E+03  0.10100000352E+00 0.  1.
       -3    1    3    3    0  502  0.14840193785E+03 -0.30750648406E+03  0.28299212098E+03  0.44347257371E+03  0.10100000352E+00 0. -1.
</event>
<event>
 5   0  0.1191822E-02  0.9178707E+03  0.7818609E-02  0.9403514E-01
       -2   -1    0    0    0  501  0.00000000000E+00  0.00000000000E+00  0.18705906683E+03  0.18705906685E+03  0.25500000920E-02 0.  1.
        2   -1    0    0  501    0  0.00000000000E+00  0.00000000000E+00 -0.11259634665E+04  0.11259634665E+04  0.25500000920E-02 0. -1.
    10030    2    1    2    0    0  0.00000000000E+00  0.00000000000E+00 -0.93890439963E+03  0.13130225333E+04  0.91787074326E+03 0.  0.
        4    1    3    3  502    0 -0.36674106918E+03  0.39506824689E+01 -0.74814555135E+02  0.37431731229E+03  0.12699999809E+01 0.  1.
       -4    1    3    3    0  502  0.36674106918E+03 -0.39506824689E+01 -0.86408984450E+03  0.93870522103E+03  0.12699999809E+01 0. -1.
</event>
<event>
 5   0  0.1221315E-02  0.1018414E+04  0.7818609E-02  0.9288576E-01
        2   -1    0    0  501    0  0.00000000000E+00  0.00000000000E+00  0.62035569762E+03  0.62035569763E+03  0.25500000920E-02 0.  1.
       -2   -1    0    0    0  501  0.00000000000E+00  0.00000000000E+00 -0.41797286090E+03  0.41797286091E+03  0.25500000920E-02 0. -1.
    10030    2    1    2    0    0  0.00000000000E+00  0.00000000000E+00  0.20238283672E+03  0.10383285585E+04  0.10184141510E+04 0.  0.
        5    1    3    3  502    0  0.40608864150E+03  0.17399092796E+03  0.35929966310E+03  0.56947270845E+03  0.46999998093E+01 0.  1.
       -5    1    3    3    0  502 -0.40608864150E+03 -0.17399092796E+03 -0.15691682638E+03  0.46885585009E+03  0.46999998093E+01 0. -1.
</event>
<event>
 5   0  0.1240503E-02  0.9732674E+03  0.7818609E-02  0.9338360E-01
       -2   -1    0    0    0  501  0.00000000000E+00  0.00000000000E+00  0.53735332575E+03  0.53735332575E+03  0.25500000920E-02 0. -1.
        2   -1    0    0  501    0  0.00000000000E+00  0.00000000000E+00 -0.44070142763E+03  0.44070142764E+03  0.25500000920E-02 0.  1.
    10030    2    1    2    0    0  0.00000000000E+00  0.00000000000E+00  0.96651898117E+02  0.97805475339E+03  0.97326744075E+03 0.  0.
        1    1    3    3  502    0 -0.24813307911E+03 -0.19994209707E+03 -0.32126770979E+03  0.45250393204E+03  0.50400001928E-02 0.  1.
       -1    1    3    3    0  502  0.24813307911E+03  0.19994209707E+03  0.41791960791E+03  0.52555082136E+03  0.50400001928E-02 0. -1.
</event>
<event>
 5   0  0.7073004E-03  0.9830639E+03  0.7818609E-02  0.9327318E-01
       -1   -1    0    0    0  501  0.00000000000E+00  0.00000000000E+00  0.44871147171E+03  0.44871147174E+03  0.50400001928E-02 0.  1.
        1   -1    0    0  501    0  0.00000000000E+00  0.00000000000E+00 -0.53843872715E+03  0.53843872718E+03  0.50400001928E-02 0. -1.
    10030    2    1    2    0    0  0.00000000000E+00  0.00000000000E+00 -0.89727255442E+02  0.98715019892E+03  0.98306385085E+03 0.  0.
        1    1    3    3  502    0 -0.46003993598E+03  0.17227605018E+03 -0.61900398886E+02  0.49512366088E+03  0.50400001928E-02 0.  1.
       -1    1    3    3    0  502  0.46003993598E+03 -0.17227605018E+03 -0.27826856557E+02  0.49202653803E+03  0.50400001928E-02 0. -1.
</event>
<event>
 5   0  0.4782125E-03  0.9269804E+03  0.7818609E-02  0.9392469E-01
       -4   -1    0    0    0  501  0.00000000000E+00  0.00000000000E+00  0.41872494176E+03  0.41872686772E+03  0.12699999809E+01 0.  1.
        4   -1    0    0  501    0  0.00000000000E+00  0.00000000000E+00 -0.51303739808E+03  0.51303896999E+03  0.12699999809E+01 0. -1.
    10030    2    1    2    0    0  0.00000000000E+00  0.00000000000E+00 -0.94312456327E+02  0.93176583771E+03  0.92698044041E+03 0.  0.
        1    1    3    3  502    0  0.99371009957E+02 -0.53855148254E+02  0.40466196671E+03  0.42015030874E+03  0.50400001928E-02 0.  1.
       -1    1    3    3    0  502 -0.99371009957E+02  0.53855148254E+02 -0.49897442303E+03  0.51161552897E+03  0.50400001928E-02 0. -1.
</event>
<event>
 5   0  0.7461157E-03  0.9670353E+03  0.7818609E-02  0.9345458E-01
        1   -1    0    0  501    0  0.00000000000E+00  0.00000000000E+00  0.95716590537E+03  0.95716590538E+03  0.50400001928E-02 0.  1.
       -1   -1    0    0    0  501  0.00000000000E+00  0.00000000000E+00 -0.24425163540E+03  0.24425163545E+03  0.50400001928E-02 0. -1.
    10030    2    1    2    0    0  0.00000000000E+00  0.00000000000E+00  0.71291426997E+03  0.12014175408E+04  0.96703534118E+03 0.  0.
        2    1    3    3  502    0  0.93296056974E+02 -0.32146412128E+03  0.78994702880E+03  0.85793918423E+03  0.25500000920E-02 0.  1.
       -2    1    3    3    0  502 -0.93296056974E+02  0.32146412128E+03 -0.77032758834E+02  0.34347835661E+03  0.25500000920E-02 0. -1.
</event>
<event>
 5   0  0.1216322E-02  0.1011302E+04  0.7818609E-02  0.9296235E-01
       -2   -1    0    0    0  501  0.00000000000E+00  0.00000000000E+00  0.20228925535E+03  0.20228925537E+03  0.25500000920E-02 0. -1.
        2   -1    0    0  501    0  0.00000000000E+00  0.00000000000E+00 -0.12639470446E+04  0.12639470446E+04  0.25500000920E-02 0.  1.
    10030    2    1    2    0    0  0.00000000000E+00  0.00000000000E+00 -0.10616577893E+04  0.14662363000E+04  0.10113019460E+04 0.  0.
        2    1    3    3  502    0  0.58777313885E+02 -0.86006241734E+02 -0.12482206496E+04  0.12525600330E+04  0.25500000920E-02 0.  1.
       -2    1    3    3    0  502 -0.58777313885E+02  0.86006241734E+02  0.18656286028E+03  0.21367626702E+03  0.25500000920E-02 0. -1.
</event>
<event>
 5   0  0.1191822E-02  0.9952927E+03  0.7818609E-02  0.9313723E-01
        2   -1    0    0  501    0  0.00000000000E+00  0.00000000000E+00  0.54088400409E+03  0.54088400410E+03  0.25500000920E-02 0. -1.
       -2   -1    0    0    0  501  0.00000000000E+00  0.00000000000E+00 -0.45786502628E+03  0.45786502628E+03  0.25500000920E-02 0.  1.
    10030    2    1    2    0    0  0.00000000000E+00  0.00000000000E+00  0.83018977811E+02  0.99874903038E+03  0.99529265797E+03 0.  0.
        4    1    3    3  502    0 -0.37888784645E+03  0.25072439796E+03 -0.16225115569E+03  0.48243732685E+03  0.12699999809E+01 0.  1.
       -4    1    3    3    0  502  0.37888784645E+03 -0.25072439796E+03  0.24527013350E+03  0.51631170353E+03  0.12699999809E+01 0. -1.
</event>
<event>
 5   0  0.1221315E-02  0.9789958E+03  0.7818609E-02  0.9331887E-01
        2   -1    0    0  501    0  0.00000000000E+00  0.00000000000E+00  0.17276991813E+04  0.17276991813E+04  0.25500000920E-02 0.  1.
       -2   -1    0    0    0  501  0.00000000000E+00  0.00000000000E+00 -0.13868630401E+03  0.13868630404E+03  0.25500000920E-02 0. -1.
    10030    2    1    2    0    0  0.00000000000E+00  0.00000000000E+00  0.15890128773E+04  0.18663854854E+04  0.97899584051E+03 0.  0.
        5    1    3    3  502    0 -0.70524386397E+02 -0.29931374860E+03  0.68500765479E+02  0.31508229726E+03  0.46999998093E+01 0. -1.
       -5    1    3    3    0  502  0.70524386397E+02  0.29931374860E+03  0.15205121119E+04  0.15513031881E+04  0.46999998093E+01 0.  1.
</event>
<event>
 5   0  0.7241200E-03  0.9929196E+03  0.7818609E-02  0.9316345E-01
       -1   -1    0    0    0  501  0.00000000000E+00  0.00000000000E+00  0.11493097784E+03  0.11493097795E+03  0.50400001928E-02 0.  1.
        1   -1    0    0  501    0  0.00000000000E+00  0.00000000000E+00 -0.21445249731E+04  0.21445249731E+04  0.50400001928E-02 0. -1.
    10030    2    1    2    0    0  0.00000000000E+00  0.00000000000E+00 -0.20295939953E+04  0.22594559511E+04  0.99291963883E+03 0.  0.
        4    1    3    3  502    0 -0.46993877653E+03  0.11661188427E+03 -0.12643838847E+04  0.13539235599E+04  0.12699999809E+01 0. -1.
       -4    1    3    3    0  502  0.46993877653E+03 -0.11661188427E+03 -0.76521011054E+03  0.90553239114E+03  0.12699999809E+01 0.  1.
</event>
<event>
 5   0  0.7241200E-03  0.9446068E+03  0.7818609E-02  0.9371477E-01
       -1   -1    0    0    0  501  0.00000000000E+00  0.00000000000E+00  0.14673105680E+03  0.14673105688E+03  0.50400001928E-02 0.  1.
        1   -1    0    0  501    0  0.00000000000E+00  0.00000000000E+00 -0.15202679080E+04  0.15202679080E+04  0.50400001928E-02 0. -1.
    10030    2    1    2    0    0  0.00000000000E+00  0.00000000000E+00 -0.13735368512E+04  0.16669989648E+04  0.94460683213E+03 0.  0.
        4    1    3    3  502    0 -0.53978039387E+02 -0.14657643099E+03 -0.14733632360E+04  0.14816204362E+04  0.12699999809E+01 0. -1.
       -4    1    3    3    0  502  0.53978039387E+02  0.14657643099E+03  0.99826384867E+02  0.18537852862E+03  0.12699999809E+01 0.  1.
</event>
<event>
 5   0  0.1216322E-02  0.1014571E+04  0.7818609E-02  0.9292706E-01
       -2   -1    0    0    0  501  0.00000000000E+00  0.00000000000E+00  0.23856957324E+03  0.23856957325E+03  0.25500000920E-02 0.  1.
        2   -1    0    0  501    0  0.00000000000E+00  0.00000000000E+00 -0.10786741213E+04  0.10786741213E+04  0.25500000920E-02 0. -1.
    10030    2    1    2    0    0  0.00000000000E+00  0.00000000000E+00 -0.84010454808E+03  0.13172436946E+04  0.10145714855E+04 0.  0.
        2    1    3    3  502    0 -0.21910749346E+03 -0.36357699409E+03 -0.59448446641E+02  0.42863789162E+03  0.25500000920E-02 0.  1.
       -2    1    3    3    0  502  0.21910749346E+03  0.36357699409E+03 -0.78065610144E+03  0.88860580296E+03  0.25500000920E-02 0. -1.
</event>
<event>
 5   0  0.1240503E-02  0.1081800E+04  0.7818609E-02  0.9223114E-01
        2   -1    0    0  501    0  0.00000000000E+00  0.00000000000E+00  0.97676140878E+03  0.97676140879E+03  0.25500000920E-02 0. -1.
       -2   -1    0    0    0  501  0.00000000000E+00  0.00000000000E+00 -0.29953376401E+03  0.29953376402E+03  0.25500000920E-02 0.  1.
    10030    2    1    2    0    0  0.00000000000E+00  0.00000000000E+00  0.67722764477E+03  0.12762951728E+04  0.10818003907E+04 0.  0.
        1    1    3    3  502    0  0.44311481938E+03  0.14839674798E+03  0.17241889306E+02  0.46762123641E+03  0.50400001928E-02 0.  1.
       -1    1    3    3    0  502 -0.44311481938E+03 -0.14839674798E+03  0.65998575546E+03  0.80867393640E+03  0.50400001928E-02 0. -1.
</event>
<event>
 5   0  0.1240503E-02  0.1026669E+04  0.7818609E-02  0.9279769E-01
       -2   -1    0    0    0  501  0.00000000000E+00  0.00000000000E+00  0.26306542652E+03  0.26306542653E+03  0.25500000920E-02 0.  1.
        2   -1    0    0  501    0  0.00000000000E+00  0.00000000000E+00 -0.10016981380E+04  0.10016981380E+04  0.25500000920E-02 0. -1.
    10030    2    1    2    0    0  0.00000000000E+00  0.00000000000E+00 -0.73863271151E+03  0.12647635646E+04  0.10266686864E+04 0.  0.
        1    1    3    3  502    0 -0.13686651098E+03  0.49321528852E+03 -0.41731953685E+03  0.66041604956E+03  0.50400001928E-02 0.  1.
       -1    1    3    3    0  502  0.13686651098E+03 -0.49321528852E+03 -0.32131317466E+03  0.60434751500E+03  0.50400001928E-02 0. -1.
</event>
<event>
 5   0  0.7461157E-03  0.1005666E+04  0.7818609E-02  0.9302352E-01
       -1   -1    0    0    0  501  0.00000000000E+00  0.00000000000E+00  0.44163015871E+03  0.44163015874E+03  0.50400001928E-02 0.  1.
        1   -1    0    0  501    0  0.00000000000E+00  0.00000000000E+00 -0.57251725288E+03  0.57251725290E+03  0.50400001928E-02 0. -1.
    10030    2    1    2    0    0  0.00000000000E+00  0.00000000000E+00 -0.13088709417E+03  0.10141474116E+04  0.10056657204E+04 0.  0.
        2    1    3    3  502    0 -0.24712941856E+03  0.43552339907E+03 -0.11151589625E+03  0.51301985905E+03  0.25500000920E-02 0. -1.
       -2    1    3    3    0  502  0.24712941856E+03 -0.43552339907E+03 -0.19371197923E+02  0.50112755260E+03  0.25500000920E-02 0.  1.
</event>
<event>
 5   0  0.1221315E-02  0.9301639E+03  0.7818609E-02  0.9388641E-01
       -2   -1    0    0    0  501  0.00000000000E+00  0.00000000000E+00  0.11478388647E+03  0.11478388650E+03  0.25500000920E-02 0. -1.
        2   -1    0    0  501    0  0.00000000000E+00  0.00000000000E+00 -0.18844213996E+04  0.18844213996E+04  0.25500000920E-02 0.  1.
    10030    2    1    2    0    0  0.00000000000E+00  0.00000000000E+00 -0.17696375131E+04  0.19992052861E+04  0.93016388237E+03 0.  0.
        5    1    3    3  502    0 -0.24696212800E+03 -0.24114604813E+03 -0.15546897699E+04  0.15925526930E+04  0.46999998093E+01 0.  1.
       -5    1    3    3    0  502  0.24696212800E+03  0.24114604813E+03 -0.21494774323E+03  0.40665259314E+03  0.46999998093E+01 0. -1.
</event>
<event>
 5   0  0.7241200E-03  0.1066836E+04  0.7818609E-02  0.9238132E-01
        1   -1    0    0  501    0  0.00000000000E+00  0.00000000000E+00  0.99472447571E+03  0.99472447572E+03  0.50400001928E-02 0.  1.
       -1   -1    0    0    0  501  0.00000000000E+00  0.00000000000E+00 -0.28604384093E+03  0.28604384097E+03  0.50400001928E-02 0. -1.
    10030    2    1    2    0    0  0.00000000000E+00  0.00000000000E+00  0.70868063479E+03  0.12807683167E+04  0.10668360881E+04 0.  0.
        4    1    3    3  502    0  0.48865520205E+03  0.78089734434E+02  0.59339733849E+03  0.77266029233E+03  0.12699999809E+01 0.  1.
       -4    1    3    3    0  502 -0.48865520205E+03 -0.78089734434E+02  0.11528329630E+03  0.50810802436E+03  0.12699999809E+01 0. -1.
</event>
<event>
 5   0  0.7073004E-03  0.1027276E+04  0.7818609E-02  0.9279125E-01
        1   -1    0    0  501    0  0.00000000000E+00  0.00000000000E+00  0.51783638940E+03  0.51783638943E+03  0.50400001928E-02 0.  1.
       -1   -1    0    0    0  501  0.00000000000E+00  0.00000000000E+00 -0.50947334584E+03  0.50947334586E+03  0.50400001928E-02 0. -1.
    10030    2    1    2    0    0  0.00000000000E+00  0.00000000000E+00  0.83630435650E+01  0.10273097353E+04  0.10272756941E+04 0.  0.
        1    1    3    3  502    0  0.26680416415E+03  0.19016379845E+03  0.39976650165E+03  0.51687521523E+03  0.50400001928E-02 0.  1.
       -1    1    3    3    0  502 -0.26680416415E+03 -0.19016379845E+03 -0.39140345809E+03  0.51043452006E+03  0.50400001928E-02 0. -1.
</event>
<event>
 5   0  0.7073004E-03  0.1000996E+04  0.7818609E-02  0.9307453E-01
       -1   -1    0    0    0  501  0.00000000000E+00  0.00000000000E+00  0.30849213326E+03  0.30849213330E+03  0.50400001928E-02 0. -1.
        1   -1    0    0  501    0  0.00000000000E+00  0.00000000000E+00 -0.81200801795E+03  0.81200801796E+03  0.50400001928E-02 0.  1.
    10030    2    1    2    0    0  0.00000000000E+00  0.00000000000E+00 -0.50351588469E+03  0.11205001513E+04  0.10009956757E+04 0.  0.
        1    1    3    3  502    0 -0.44391001681E+03 -0.22800420651E+03 -0.20904396420E+03  0.54105581986E+03  0.50400001928E-02 0. -1.
       -1    1    3    3    0  502  0.44391001681E+03  0.22800420651E+03 -0.29447192049E+03  0.57944433140E+03  0.50400001928E-02 0.  1.
</event>
<event>
 5   0  0.7461157E-03  0.1012358E+04  0.7818609E-02  0.9295094E-01
        1   -1    0    0  501    0  0.00000000000E+00  0.00000000000E+00  0.53475926056E+03  0.53475926058E+03  0.50400001928E-02 0.  1.
       -1   -1    0    0    0  501  0.00000000000E+00  0.00000000000E+00 -0.47912600486E+03  0.47912600488E+03  0.50400001928E-02 0. -1.
    10030    2    1    2    0    0  0.00000000000E+00  0.00000000000E+00  0.55633255700E+02  0.10138852655E+04  0.10123577788E+04 0.  0.
        2    1    3    3  502    0 -0.10206118682E+03 -0.48871521242E+03  0.11135725463E+03  0.51152661991E+03  0.25500000920E-02 0. -1.
       -2    1    3    3    0  502  0.10206118682E+03  0.48871521242E+03 -0.55723998927E+02  0.50235864556E+03  0.25500000920E-02 0.  1.
</event>
<event>
 5   0  0.4782125E-03  0.1013282E+04  0.7818609E-02  0.9294096E-01
       -3   -1    0    0    0  501  0.00000000000E+00  0.00000000000E+00  0.14636764959E+04  0.14636764994E+04  0.10100000352E+00 0.  1.
        3   -1    0    0  501    0  0.00000000000E+00  0.00000000000E+00 -0.17537014373E+03  0.17537017282E+03  0.10100000352E+00 0. -1.
    10030    2    1    2    0    0  0.00000000000E+00  0.00000000000E+00  0.12883063522E+04  0.16390466722E+04  0.10132821604E+04 0.  0.
        3    1    3    3  502    0  0.22419524015E+02  0.19980307094E+03 -0.10807621821E+03  0.22826384155E+03  0.10100000352E+00 0. -1.
       -3    1    3    3    0  502 -0.22419524015E+02 -0.19980307094E+03  0.13963825704E+04  0.14107828306E+04  0.10100000352E+00 0.  1.
</event>
<event>
 5   0  0.7073004E-03  0.1017552E+04  0.7818609E-02  0.9289501E-01
       -1   -1    0    0    0  501  0.00000000000E+00  0.00000000000E+00  0.94152079607E+03  0.94152079609E+03  0.50400001928E-02 0.  1.
        1   -1    0    0  501    0  0.00000000000E+00  0.00000000000E+00 -0.27493058468E+03  0.27493058473E+03  0.50400001928E-02 0. -1.
    10030    2    1    2    0    0  0.00000000000E+00  0.00000000000E+00  0.66659021139E+03  0.12164513808E+04  0.10175516950E+04 0.  0.
        1    1    3    3  502    0  0.17713439047E+03  0.10340286816E+02  0.90333366391E+03  0.92059503703E+03  0.50400001928E-02 0.  1.
       -1    1    3    3    0  502 -0.17713439047E+03 -0.10340286816E+02 -0.23674345252E+03  0.29585634379E+03  0.50400001928E-02 0. -1.
</event>
<event>
 5   0  0.1245850E-02  0.1017222E+04  0.7818609E-02  0.9289856E-01
       -2   -1    0    0    0  501  0.00000000000E+00  0.00000000000E+00  0.46907931240E+03  0.46907931241E+03  0.25500000920E-02 0.  1.
        2   -1    0    0  501    0  0.00000000000E+00  0.00000000000E+00 -0.55147375845E+03  0.55147375846E+03  0.25500000920E-02 0. -1.
    10030    2    1    2    0    0  0.00000000000E+00  0.00000000000E+00 -0.82394446049E+02  0.10205530709E+04  0.10172215716E+04 0.  0.
        3    1    3    3  502    0 -0.49164875734E+03 -0.93321115701E+02 -0.13236611787E+03  0.51763706454E+03  0.10100000352E+00 0. -1.
       -3    1    3    3    0  502  0.49164875734E+03  0.93321115701E+02  0.49971671822E+02  0.50291600632E+03  0.10100000352E+00 0.  1.
</event>
<event>
 5   0  0.7224879E-03  0.9232044E+03  0.7818609E-02  0.9397031E-01
        1   -1    0    0  501    0  0.00000000000E+00  0.00000000000E+00  0.34570071002E+03  0.34570071006E+03  0.50400001928E-02 0.  1.
       -1   -1    0    0    0  501  0.00000000000E+00  0.00000000000E+00 -0.61636142090E+03  0.61636142092E+03  0.50400001928E-02 0. -1.
    10030    2    1    2    0    0  0.00000000000E+00  0.00000000000E+00 -0.27066071087E+03  0.96206213098E+03  0.92320437794E+03 0.  0.
        3    1    3    3  502    0  0.29999910834E+03  0.18783034330E+03 -0.44410723647E+03  0.56790047593E+03  0.10100000352E+00 0. -1.
       -3    1    3    3    0  502 -0.29999910834E+03 -0.18783034330E+03  0.17344652560E+03  0.39416165505E+03  0.10100000352E+00 0.  1.
</event>
<event>
 5   0  0.1191822E-02  0.9778683E+03  0.7818609E-02  0.9333157E-01
        2   -1    0    0  501    0  0.00000000000E+00  0.00000000000E+00  0.74243494194E+03  0.74243494194E+03  0.25500000920E-02 0. -1.
       -2   -1    0    0    0  501  0.00000000000E+00  0.00000000000E+00 -0.32198993908E+03  0.32198993909E+03  0.25500000920E-02 0.  1.
    10030    2    1    2    0    0  0.00000000000E+00  0.00000000000E+00  0.42044500286E+03  0.10644248810E+04  0.97786825644E+03 0.  0.
        4    1    3    3  502    0  0.27316476003E+03 -0.39885818627E+03  0.28982663971E+03  0.56365586386E+03  0.12699999809E+01 0. -1.
       -4    1    3    3    0  502 -0.27316476003E+03  0.39885818627E+03  0.13061836315E+03  0.50076901718E+03  0.12699999809E+01 0.  1.
</event>
<event>
 5   0  0.1245850E-02  0.9927637E+03  0.7818609E-02  0.9316517E-01
       -2   -1    0    0    0  501  0.00000000000E+00  0.00000000000E+00  0.75852949278E+03  0.75852949279E+03  0.25500000920E-02 0. -1.
        2   -1    0    0  501    0  0.00000000000E+00  0.00000000000E+00 -0.32483238600E+03  0.32483238601E+03  0.25500000920E-02 0.  1.
    10030    2    1    2    0    0  0.00000000000E+00  0.00000000000E+00  0.43369710678E+03  0.10833618788E+04  0.99276370804E+03 0.  0.
        3    1    3    3  502    0  0.37787556343E+03 -0.28160552939E+03  0.38697054268E+03  0.60978506601E+03  0.10100000352E+00 0.  1.
       -3    1    3    3    0  502 -0.37787556343E+03  0.28160552939E+03  0.46726564099E+02  0.47357681279E+03  0.10100000352E+00 0. -1.
</event>
<event>
 5   0  0.1216322E-02  0.9908565E+03  0.7818609E-02  0.9318630E-01
        2   -1    0    0  501    0  0.00000000000E+00  0.00000000000E+00  0.65278988598E+03  0.65278988599E+03  0.25500000920E-02 0. -1.
       -2   -1    0    0    0  501  0.00000000000E+00  0.00000000000E+00 -0.37600021070E+03  0.37600021071E+03  0.25500000920E-02 0.  1.
    10030    2    1    2    0    0  0.00000000000E+00  0.00000000000E+00  0.27678967528E+03  0.10287900967E+04  0.99085646726E+03 0.  0.
        2    1    3    3  502    0  0.16238747166E+03 -0.34296929250E+03  0.46910327894E+03  0.60337012925E+03  0.25500000920E-02 0. -1.
       -2    1    3    3    0  502 -0.16238747166E+03  0.34296929250E+03 -0.19231360366E+03  0.42541996745E+03  0.25500000920E-02 0.  1.
</event>
<event>
 5   0  0.6967681E-03  0.1028826E+04  0.7818609E-02  0.9277482E-01
        1   -1    0    0  501    0  0.00000000000E+00  0.00000000000E+00  0.87854452380E+03  0.87854452382E+03  0.50400001928E-02 0. -1.
       -1   -1    0    0    0  501  0.00000000000E+00  0.00000000000E+00 -0.30120339502E+03  0.30120339506E+03  0.50400001928E-02 0.  1.
    10030    2    1    2    0    0  0.00000000000E+00  0.00000000000E+00  0.57734112878E+03  0.11797479189E+04  0.10288257253E+04 0.  0.
        5    1    3    3  502    0 -0.21015073795E+03 -0.46937538427E+03  0.30133201765E+03  0.59607017949E+03  0.46999998093E+01 0.  1.
       -5    1    3    3    0  502  0.21015073795E+03  0.46937538427E+03  0.27600911113E+03  0.58367773938E+03  0.46999998093E+01 0. -1.
</event>
<event>
 5   0  0.7073004E-03  0.9408557E+03  0.7818609E-02  0.9375903E-01
        1   -1    0    0  501    0  0.00000000000E+00  0.00000000000E+00  0.11844267422E+04  0.11844267422E+04  0.50400001928E-02 0.  1.
       -1   -1    0    0    0  501  0.00000000000E+00  0.00000000000E+00 -0.18684343521E+03  0.18684343528E+03  0.50400001928E-02 0. -1.
    10030    2    1    2    0    0  0.00000000000E+00  0.00000000000E+00  0.99758330702E+03  0.13712701775E+04  0.94085569846E+03 0.  0.
        1    1    3    3  502    0 -0.26486413685E+03  0.23834089575E+03  0.94645834109E+03  0.10113074632E+04  0.50400001928E-02 0.  1.
       -1    1    3    3    0  502  0.26486413685E+03 -0.23834089575E+03  0.51124965930E+02  0.35996271437E+03  0.50400001928E-02 0. -1.
</event>
<event>
 5   0  0.1191822E-02  0.9957858E+03  0.7818609E-02  0.9313179E-01
       -2   -1    0    0    0  501  0.00000000000E+00  0.00000000000E+00  0.18693502558E+03  0.18693502560E+03  0.25500000920E-02 0.  1.
        2   -1    0    0  501    0  0.00000000000E+00  0.00000000000E+00 -0.13261149547E+04  0.13261149547E+04  0.25500000920E-02 0. -1.
    10030    2    1    2    0    0  0.00000000000E+00  0.00000000000E+00 -0.11391799291E+04  0.15130499803E+04  0.99578578618E+03 0.  0.
        4    1    3    3  502    0 -0.34771727845E+03  0.29084436290E+03 -0.25672287102E+03  0.52096640445E+03  0.12699999809E+01 0.  1.
       -4    1    3    3    0  502  0.34771727845E+03 -0.29084436290E+03 -0.88245705808E+03  0.99208357582E+03  0.12699999809E+01 0. -1.
</event>
<event>
 5   0  0.1191822E-02  0.9831467E+03  0.7818609E-02  0.9327225E-01
        2   -1    0    0  501    0  0.00000000000E+00  0.00000000000E+00  0.48376115216E+03  0.48376115216E+03  0.25500000920E-02 0. -1.
       -2   -1    0    0    0  501  0.00000000000E+00  0.00000000000E+00 -0.49951171972E+03  0.49951171972E+03  0.25500000920E-02 0.  1.
    10030    2    1    2    0    0  0.00000000000E+00  0.00000000000E+00 -0.15750567559E+02  0.98327287189E+03  0.98314671347E+03 0.  0.
        4    1    3    3  502    0  0.10581076156E+03 -0.13692085282E+03  0.45229191349E+03  0.48426524252E+03  0.12699999809E+01 0. -1.
       -4    1    3    3    0  502 -0.10581076156E+03  0.13692085282E+03 -0.46804248105E+03  0.49900762937E+03  0.12699999809E+01 0.  1.
</event>
<event>
 5   0  0.1221315E-02  0.9798124E+03  0.7818609E-02  0.9330968E-01
        2   -1    0    0  501    0  0.00000000000E+00  0.00000000000E+00  0.13592150209E+04  0.13592150209E+04  0.25500000920E-02 0.  1.
       -2   -1    0    0    0  501  0.00000000000E+00  0.00000000000E+00 -0.17657846949E+03  0.17657846951E+03  0.25500000920E-02 0. -1.
    10030    2    1    2    0    0  0.00000000000E+00  0.00000000000E+00  0.11826365514E+04  0.15357934904E+04  0.97981244760E+03 0.  0.
        5    1    3    3  502    0  0.23461686203E+03 -0.37150189262E+03  0.93086739413E+03  0.10293662728E+04  0.46999998093E+01 0.  1.
       -5    1    3    3    0  502 -0.23461686203E+03  0.37150189262E+03  0.25176915730E+03  0.50642721761E+03  0.46999998093E+01 0. -1.
</event>
<event>
 5   0  0.1245850E-02  0.9931015E+03  0.7818609E-02  0.9316143E-01
       -2   -1    0    0    0  501  0.00000000000E+00  0.00000000000E+00  0.20662044455E+03  0.20662044457E+03  0.25500000920E-02 0. -1.
        2   -1    0    0  501    0  0.00000000000E+00  0.00000000000E+00 -0.11933119888E+04  0.11933119888E+04  0.25500000920E-02 0.  1.
    10030    2    1    2    0    0  0.00000000000E+00  0.00000000000E+00 -0.98669154425E+03  0.13999324334E+04  0.99310151269E+03 0.  0.
        3    1    3    3  502    0  0.49176988004E+03  0.65136493123E+02 -0.46238893002E+03  0.67814741057E+03  0.10100000352E+00 0.  1.
       -3    1    3    3    0  502 -0.49176988004E+03 -0.65136493123E+02 -0.52430261423E+03  0.72178502280E+03  0.10100000352E+00 0. -1.
</event>
<event>
 5   0  0.1191822E-02  0.1024121E+04  0.7818609E-02  0.9282477E-01
        2   -1    0    0  501    0  0.00000000000E+00  0.00000000000E+00  0.99616663637E+03  0.99616663637E+03  0.25500000920E-02 0.  1.
       -2   -1    0    0    0  501  0.00000000000E+00  0.00000000000E+00 -0.26321515515E+03  0.26321515516E+03  0.25500000920E-02 0. -1.
    10030    2    1    2    0    0  0.00000000000E+00  0.00000000000E+00  0.73295148122E+03  0.12593817915E+04  0.10241213908E+04 0.  0.
        4    1    3    3  502    0  0.17667820336E+01  0.40533326539E+03  0.75125480702E+03  0.85362964775E+03  0.12699999809E+01 0.  1.
       -4    1    3    3    0  502 -0.17667820336E+01 -0.40533326539E+03 -0.18303325804E+02  0.40575214378E+03  0.12699999809E+01 0. -1.
</event>
<event>
 5   0  0.4782125E-03  0.8705747E+03  0.7818609E-02  0.9463131E-01
       -3   -1    0    0    0  501  0.00000000000E+00  0.00000000000E+00  0.63607296808E+02  0.63607376995E+02  0.10100000352E+00 0.  1.
        3   -1    0    0  501    0  0.00000000000E+00  0.00000000000E+00 -0.29788240425E+04  0.29788240442E+04  0.10100000352E+00 0. -1.
    10030    2    1    2    0    0  0.00000000000E+00  0.00000000000E+00 -0.29152167457E+04  0.30424314212E+04  0.87057468284E+03 0.  0.
        5    1    3    3  502    0  0.65591333523E+02  0.35177333224E+03 -0.59160186401E+03  0.69141995618E+03  0.46999998093E+01 0.  1.
       -5    1    3    3    0  502 -0.65591333523E+02 -0.35177333224E+03 -0.23236148817E+04  0.23510114651E+04  0.46999998093E+01 0. -1.
</event>
<event>
 5   0  0.6967681E-03  0.1001376E+04  0.7818609E-02  0.9307037E-01
        1   -1    0    0  501    0  0.00000000000E+00  0.00000000000E+00  0.54327209160E+03  0.54327209162E+03  0.50400001928E-02 0. -1.
       -1   -1    0    0    0  501  0.00000000000E+00  0.00000000000E+00 -0.46144152878E+03  0.46144152881E+03  0.50400001928E-02 0.  1.
    10030    2    1    2    0    0  0.00000000000E+00  0.00000000000E+00  0.81830562812E+02  0.10047136204E+04  0.10013756628E+04 0.  0.
        5    1    3    3  502    0  0.20235512835E+03 -0.45065603348E+03 -0.40767123292E+02  0.49570405165E+03  0.46999998093E+01 0. -1.
       -5    1    3    3    0  502 -0.20235512835E+03  0.45065603348E+03  0.12259768610E+03  0.50900956879E+03  0.46999998093E+01 0.  1.
</event>
<event>
 5   0  0.7461157E-03  0.8321668E+03  0.7818609E-02  0.9514590E-01
        1   -1    0    0  501    0  0.00000000000E+00  0.00000000000E+00  0.36613929829E+03  0.36613929833E+03  0.50400001928E-02 0. -1.
       -1   -1    0    0    0  501  0.00000000000E+00  0.00000000000E+00 -0.47284028923E+03  0.47284028925E+03  0.50400001928E-02 0.  1.
    10030    2    1    2    0    0  0.00000000000E+00  0.00000000000E+00 -0.10670099094E+03  0.83897958758E+03  0.83216683839E+03 0.  0.
        2    1    3    3  502    0 -0.20188352103E+02  0.12158258314E+03  0.34731403120E+03  0.36853348608E+03  0.25500000920E-02 0. -1.
       -2    1    3    3    0  502  0.20188352103E+02 -0.12158258314E+03 -0.45401502214E+03  0.47044610150E+03  0.25500000920E-02 0.  1.
</event>
<event>
 5   0  0.4782125E-03  0.9984886E+03  0.7818609E-02  0.9310204E-01
       -3   -1    0    0    0  501  0.00000000000E+00  0.00000000000E+00  0.11661805490E+03  0.11661809864E+03  0.10100000352E+00 0.  1.
        3   -1    0    0  501    0  0.00000000000E+00  0.00000000000E+00 -0.21372746270E+04  0.21372746293E+04  0.10100000352E+00 0. -1.
    10030    2    1    2    0    0  0.00000000000E+00  0.00000000000E+00 -0.20206565721E+04  0.22538927280E+04  0.99848858134E+03 0.  0.
        3    1    3    3  502    0 -0.13685347268E+03  0.26350235211E+03 -0.19162993054E+04  0.19391661612E+04  0.10100000352E+00 0. -1.
       -3    1    3    3    0  502  0.13685347268E+03 -0.26350235211E+03 -0.10435726665E+03  0.31472656681E+03  0.10100000352E+00 0.  1.
</event>
<event>
 5   0  0.1191822E-02  0.1007612E+04  0.7818609E-02  0.9300236E-01
       -2   -1    0    0    0  501  0.00000000000E+00  0.00000000000E+00  0.86637416448E+02  0.86637416486E+02  0.25500000920E-02 0.  1.
        2   -1    0    0  501    0  0.00000000000E+00  0.00000000000E+00 -0.29296850284E+04  0.29296850284E+04  0.25500000920E-02 0. -1.
    10030    2    1    2    0    0  0.00000000000E+00  0.00000000000E+00 -0.28430476120E+04  0.30163224449E+04  0.10076117148E+04 0.  0.
        4    1    3    3  502    0  0.25895839504E+03  0.36808149376E+03 -0.74366595344E+03  0.86924340642E+03  0.12699999809E+01 0.  1.
       -4    1    3    3    0  502 -0.25895839504E+03 -0.36808149376E+03 -0.20993816585E+04  0.21470790385E+04  0.12699999809E+01 0. -1.
</event>
<event>
 5   0  0.1245850E-02  0.7955063E+03  0.7818609E-02  0.9566544E-01
        2   -1    0    0  501    0  0.00000000000E+00  0.00000000000E+00  0.15359037360E+04  0.15359037360E+04  0.25500000920E-02 0.  1.
       -2   -1    0    0    0  501  0.00000000000E+00  0.00000000000E+00 -0.10300616473E+03  0.10300616476E+03  0.25500000920E-02 0. -1.
    10030    2    1    2    0    0  0.00000000000E+00  0.00000000000E+00  0.14328975713E+04  0.16389099008E+04  0.79550626214E+03 0.  0.
        3    1    3    3  502    0 -0.19061654256E-01  0.24614253487E+03  0.72748085712E+02  0.25666796062E+03  0.10100000352E+00 0. -1.
       -3    1    3    3    0  502  0.19061654256E-01 -0.24614253487E+03  0.13601494856E+04  0.13822419402E+04  0.10100000352E+00 0.  1.
</event>
<event>
 5   0  0.6967681E-03  0.1006125E+04  0.7818609E-02  0.9301852E-01
        1   -1    0    0  501    0  0.00000000000E+00  0.00000000000E+00  0.51112732161E+03  0.51112732164E+03  0.50400001928E-02 0. -1.
       -1   -1    0    0    0  501  0.00000000000E+00  0.00000000000E+00 -0.49512532399E+03  0.49512532402E+03  0.50400001928E-02 0.  1.
    10030    2    1    2    0    0  0.00000000000E+00  0.00000000000E+00  0.16001997623E+02  0.10062526457E+04  0.10061254012E+04 0.  0.
        5    1    3    3  502    0 -0.24038074789E+03  0.17913658473E+02 -0.43358194961E+03  0.49610402150E+03  0.46999998093E+01 0.  1.
       -5    1    3    3    0  502  0.24038074789E+03 -0.17913658473E+02  0.44958394724E+03  0.51014862416E+03  0.46999998093E+01 0. -1.
</event>
<event>
 5   0  0.1216322E-02  0.1011176E+04  0.7818609E-02  0.9296371E-01
        2   -1    0    0  501    0  0.00000000000E+00  0.00000000000E+00  0.11159252169E+04  0.11159252169E+04  0.25500000920E-02 0. -1.
       -2   -1    0    0    0  501  0.00000000000E+00  0.00000000000E+00 -0.22906504624E+03  0.22906504625E+03  0.25500000920E-02 0.  1.
    10030    2    1    2    0    0  0.00000000000E+00  0.00000000000E+00  0.88686017065E+03  0.13449902631E+04  0.10111764661E+04 0.  0.
        2    1    3    3  502    0 -0.15977158187E+03 -0.45897330787E+03  0.25799338283E+03  0.55022181100E+03  0.25500000920E-02 0.  1.
       -2    1    3    3    0  502  0.15977158187E+03  0.45897330787E+03  0.62886678782E+03  0.79476845215E+03  0.25500000920E-02 0. -1.
</event>
<event>
 5   0  0.1191822E-02  0.9184613E+03  0.7818609E-02  0.9402794E-01
        2   -1    0    0  501    0  0.00000000000E+00  0.00000000000E+00  0.81095362211E+03  0.81095362211E+03  0.25500000920E-02 0.  1.
       -2   -1    0    0    0  501  0.00000000000E+00  0.00000000000E+00 -0.26005530083E+03  0.26005530084E+03  0.25500000920E-02 0. -1.
    10030    2    1    2    0    0  0.00000000000E+00  0.00000000000E+00  0.55089832128E+03  0.10710089230E+04  0.91846129622E+03 0.  0.
        4    1    3    3  502    0  0.11558309366E+03  0.27390105629E+03  0.68359735924E+03  0.74544496956E+03  0.12699999809E+01 0.  1.
       -4    1    3    3    0  502 -0.11558309366E+03 -0.27390105629E+03 -0.13269903796E+03  0.32556395340E+03  0.12699999809E+01 0. -1.
</event>
<event>
 5   0  0.7073004E-03  0.9796728E+03  0.7818609E-02  0.9331125E-01
        1   -1    0    0  501    0  0.00000000000E+00  0.00000000000E+00  0.13701180566E+04  0.13701180566E+04  0.50400001928E-02 0. -1.
       -1   -1    0    0    0  501  0.00000000000E+00  0.00000000000E+00 -0.17512339004E+03  0.17512339012E+03  0.50400001928E-02 0.  1.
    10030    2    1    2    0    0  0.00000000000E+00  0.00000000000E+00  0.11949946665E+04  0.15452414467E+04  0.97967284109E+03 0.  0.
        1    1    3    3  502    0 -0.36909432598E+03 -0.27934272493E+03  0.85024387194E+03  0.96807934656E+03  0.50400001928E-02 0.  1.
       -1    1    3    3    0  502  0.36909432598E+03  0.27934272493E+03  0.34475079460E+03  0.57716210015E+03  0.50400001928E-02 0. -1.
</event>
<event>
 5   0  0.1216322E-02  0.1001980E+04  0.7818609E-02  0.9306375E-01
        2   -1    0    0  501    0  0.00000000000E+00  0.00000000000E+00  0.38957491316E+03  0.38957491317E+03  0.25500000920E-02 0. -1.
       -2   -1    0    0    0  501  0.00000000000E+00  0.00000000000E+00 -0.64426947146E+03  0.64426947146E+03  0.25500000920E-02 0.  1.
    10030    2    1    2    0    0  0.00000000000E+00  0.00000000000E+00 -0.25469455829E+03  0.10338443846E+04  0.10019804856E+04 0.  0.
        2    1    3    3  502    0  0.41102273203E+03  0.43177332516E+02  0.16483144176E+03  0.44494198778E+03  0.25500000920E-02 0. -1.
       -2    1    3    3    0  502 -0.41102273203E+03 -0.43177332516E+02 -0.41952600006E+03  0.58890239685E+03  0.25500000920E-02 0.  1.
</event>
<event>
 5   0  0.6967681E-03  0.9995070E+03  0.7818609E-02  0.9309086E-01
        1   -1    0    0  501    0  0.00000000000E+00  0.00000000000E+00  0.14226843249E+04  0.14226843249E+04  0.50400001928E-02 0.  1.
       -1   -1    0    0    0  501  0.00000000000E+00  0.00000000000E+00 -0.17555093074E+03  0.17555093081E+03  0.50400001928E-02 0. -1.
    10030    2    1    2    0    0  0.00000000000E+00  0.00000000000E+00  0.12471333941E+04  0.15982352557E+04  0.99950699335E+03 0.  0.
        5    1    3    3  502    0  0.22696341748E+03  0.20993879955E+03  0.12513637513E+04  0.12889996200E+04  0.46999998093E+01 0.  1.
       -5    1    3    3    0  502 -0.22696341748E+03 -0.20993879955E+03 -0.42303571621E+01  0.30923563564E+03  0.46999998093E+01 0. -1.
</event>
<event>
 5   0  0.4782125E-03  0.1003915E+04  0.7818609E-02  0.9304262E-01
       -3   -1    0    0    0  501  0.00000000000E+00  0.00000000000E+00  0.13361126758E+04  0.13361126796E+04  0.10100000352E+00 0. -1.
        3   -1    0    0  501    0  0.00000000000E+00  0.00000000000E+00 -0.18857778951E+03  0.18857781656E+03  0.10100000352E+00 0.  1.
    10030    2    1    2    0    0  0.00000000000E+00  0.00000000000E+00  0.11475348862E+04  0.15246904961E+04  0.10039147343E+04 0.  0.
        4    1    3    3  502    0 -0.41526371838E+03  0.23013544104E+03  0.32628511909E+03  0.57608147763E+03  0.12699999809E+01 0.  1.
       -4    1    3    3    0  502  0.41526371838E+03 -0.23013544104E+03  0.82124976716E+03  0.94860901850E+03  0.12699999809E+01 0. -1.
</event>
<event>
 5   0  0.7073004E-03  0.9769491E+03  0.7818609E-02  0.9334194E-01
        1   -1    0    0  501    0  0.00000000000E+00  0.00000000000E+00  0.14840897575E+04  0.14840897575E+04  0.50400001928E-02 0.  1.
       -1   -1    0    0    0  501  0.00000000000E+00  0.00000000000E+00 -0.16077691942E+03  0.16077691950E+03  0.50400001928E-02 0. -1.
    10030    2    1    2    0    0  0.00000000000E+00  0.00000000000E+00  0.13233128381E+04  0.16448666770E+04  0.97694908655E+03 0.  0.
        1    1    3    3  502    0  0.12800642893E+03  0.25047493966E+03  0.13340404385E+04  0.13633734752E+04  0.50400001928E-02 0.  1.
       -1    1    3    3    0  502 -0.12800642893E+03 -0.25047493966E+03 -0.10727600407E+02  0.28149320184E+03  0.50400001928E-02 0. -1.
</event>
<event>
 5   0  0.1221315E-02  0.8962525E+03  0.7818609E-02  0.9430278E-01
        2   -1    0    0  501    0  0.00000000000E+00  0.00000000000E+00  0.10666308316E+04  0.10666308316E+04  0.25500000920E-02 0. -1.
       -2   -1    0    0    0  501  0.00000000000E+00  0.00000000000E+00 -0.18827239880E+03  0.18827239882E+03  0.25500000920E-02 0.  1.
    10030    2    1    2    0    0  0.00000000000E+00  0.00000000000E+00  0.87835843277E+03  0.12549032304E+04  0.89625252090E+03 0.  0.
        5    1    3    3  502    0 -0.43545740547E+03 -0.34167027343E+02  0.57922754261E+03  0.72547720422E+03  0.46999998093E+01 0. -1.
       -5    1    3    3    0  502  0.43545740547E+03  0.34167027343E+02  0.29913089017E+03  0.52942602617E+03  0.46999998093E+01 0.  1.
</event>
<event>
 5   0  0.6967681E-03  0.1006540E+04  0.7818609E-02  0.9301401E-01
        1   -1    0    0  501    0  0.00000000000E+00  0.00000000000E+00  0.41875574669E+03  0.41875574673E+03  0.50400001928E-02 0.  1.
       -1   -1    0    0    0  501  0.00000000000E+00  0.00000000000E+00 -0.60484118029E+03  0.60484118031E+03  0.50400001928E-02 0. -1.
    10030    2    1    2    0    0  0.00000000000E+00  0.00000000000E+00 -0.18608543360E+03  0.10235969270E+04  0.10065400541E+04 0.  0.
        5    1    3    3  502    0  0.37408424779E+03  0.29212444555E+03 -0.26315841045E+03  0.54272475079E+03  0.46999998093E+01 0. -1.
       -5    1    3    3    0  502 -0.37408424779E+03 -0.29212444555E+03  0.77072976850E+02  0.48087217625E+03  0.46999998093E+01 0.  1.
</event>
<event>
 5   0  0.1245850E-02  0.9992022E+03  0.7818609E-02  0.9309420E-01
       -2   -1    0    0    0  501  0.00000000000E+00  0.00000000000E+00  0.12456776628E+03  0.12456776631E+03  0.25500000920E-02 0. -1.
        2   -1    0    0  501    0  0.00000000000E+00  0.00000000000E+00 -0.20037386139E+04  0.20037386139E+04  0.25500000920E-02 0.  1.
    10030    2    1    2    0    0  0.00000000000E+00  0.00000000000E+00 -0.18791708477E+04  0.21283063802E+04  0.99920216848E+03 0.  0.
        3    1    3    3  502    0  0.33174453789E+03  0.14131787887E+03 -0.20303432115E+03  0.41382137098E+03  0.10100000352E+00 0. -1.
       -3    1    3    3    0  502 -0.33174453789E+03 -0.14131787887E+03 -0.16761365265E+04  0.17144850093E+04  0.10100000352E+00 0.  1.
</event>
<event>
 5   0  0.7073004E-03  0.9930583E+03  0.7818609E-02  0.9316191E-01
        1   -1    0    0  501    0  0.00000000000E+00  0.00000000000E+00  0.42495973616E+03  0.42495973619E+03  0.50400001928E-02 0.  1.
       -1   -1    0    0    0  501  0.00000000000E+00  0.00000000000E+00 -0.58015184193E+03  0.58015184195E+03  0.50400001928E-02 0. -1.
    10030    2    1    2    0    0  0.00000000000E+00  0.00000000000E+00 -0.15519210577E+03  0.10051115781E+04  0.99305825348E+03 0.  0.
        1    1    3    3  502    0 -0.11049231830E+03 -0.46003099838E+03 -0.23010373244E+03  0.52610341149E+03  0.50400001928E-02 0.  1.
       -1    1    3    3    0  502  0.11049231830E+03  0.46003099838E+03  0.74911626673E+02  0.47900816664E+03  0.50400001928E-02 0. -1.
</event>
<event>
 5   0  0.7224879E-03  0.9931712E+03  0.7818609E-02  0.9316066E-01
       -1   -1    0    0    0  501  0.00000000000E+00  0.00000000000E+00  0.24188630620E+03  0.24188630625E+03  0.50400001928E-02 0.  1.
        1   -1    0    0  501    0  0.00000000000E+00  0.00000000000E+00 -0.10194759725E+04  0.10194759725E+04  0.50400001928E-02 0. -1.
    10030    2    1    2    0    0  0.00000000000E+00  0.00000000000E+00 -0.77758966632E+03  0.12613622788E+04  0.99317123860E+03 0.  0.
        3    1    3    3  502    0  0.11548710304E+03 -0.42952985203E+03 -0.66925153469E+03  0.80357376241E+03  0.10100000352E+00 0. -1.
       -3    1    3    3    0  502 -0.11548710304E+03  0.42952985203E+03 -0.10833813164E+03  0.45778851637E+03  0.10100000352E+00 0.  1.
</event>
<event>
 5   0  0.1245850E-02  0.1017581E+04  0.7818609E-02  0.9289470E-01
        2   -1    0    0  501    0  0.00000000000E+00  0.00000000000E+00  0.13031396615E+04  0.13031396615E+04  0.25500000920E-02 0.  1.
       -2   -1    0    0    0  501  0.00000000000E+00  0.00000000000E+00 -0.19864935115E+03  0.19864935117E+03  0.25500000920E-02 0. -1.
    10030    2    1    2    0    0  0.00000000000E+00  0.00000000000E+00  0.11044903104E+04  0.15017890127E+04  0.10175811481E+04 0.  0.
        3    1    3    3  502    0 -0.25968038603E+03  0.41052024115E+03  0.77561503510E+03  0.91517182220E+03  0.10100000352E+00 0.  1.
       -3    1    3    3    0  502  0.25968038603E+03 -0.41052024115E+03  0.32887527525E+03  0.58661719047E+03  0.10100000352E+00 0. -1.
</event>
<event>
 5   0  0.1221315E-02  0.1002710E+04  0.7818609E-02  0.9305577E-01
       -2   -1    0    0    0  501  0.00000000000E+00  0.00000000000E+00  0.31069374943E+03  0.31069374944E+03  0.25500000920E-02 0.  1.
        2   -1    0    0  501    0  0.00000000000E+00  0.00000000000E+00 -0.80901855742E+03  0.80901855742E+03  0.25500000920E-02 0. -1.
    10030    2    1    2    0    0  0.00000000000E+00  0.00000000000E+00 -0.49832480799E+03  0.11197123069E+04  0.10027103450E+04 0.  0.
        5    1    3    3  502    0  0.12927588780E+03 -0.28254844568E+03  0.19017791287E+03  0.36432898302E+03  0.46999998093E+01 0.  1.
       -5    1    3    3    0  502 -0.12927588780E+03  0.28254844568E+03 -0.68850272086E+03  0.75538332385E+03  0.46999998093E+01 0. -1.
</event>
<event>
 5   0  0.1221315E-02  0.8722717E+03  0.7818609E-02  0.9460923E-01
        2   -1    0    0  501    0  0.00000000000E+00  0.00000000000E+00  0.99798707631E+03  0.99798707631E+03  0.25500000920E-02 0. -1.
       -2   -1    0    0    0  501  0.00000000000E+00  0.00000000000E+00 -0.19059814733E+03  0.19059814735E+03  0.25500000920E-02 0.  1.
    10030    2    1    2    0    0  0.00000000000E+00  0.00000000000E+00  0.80738892898E+03  0.11885852237E+04  0.87227171871E+03 0.  0.
        5    1    3    3  502    0 -0.20567289746E+03 -0.14058052444E+03 -0.84059549608E+02  0.26296829178E+03  0.46999998093E+01 0.  1.
       -5    1    3    3    0  502  0.20567289746E+03  0.14058052444E+03  0.89144847859E+03  0.92561693188E+03  0.46999998093E+01 0. -1.
</event>
<event>
 5   0  0.7241200E-03  0.1000705E+04  0.7818609E-02  0.9307772E-01
       -1   -1    0    0    0  501  0.00000000000E+00  0.00000000000E+00  0.56815520920E+03  0.56815520922E+03  0.50400001928E-02 0.  1.
        1   -1    0    0  501    0  0.00000000000E+00  0.00000000000E+00 -0.44064150886E+03  0.44064150889E+03  0.50400001928E-02 0. -1.
    10030    2    1    2    0    0  0.00000000000E+00  0.00000000000E+00  0.12751370034E+03  0.10087967181E+04  0.10007052886E+04 0.  0.
        4    1    3    3  502    0 -0.42393998465E+03  0.18256581130E+03 -0.13092580160E+03  0.47979012543E+03  0.12699999809E+01 0. -1.
       -4    1    3    3    0  502  0.42393998465E+03 -0.18256581130E+03  0.25843950194E+03  0.52900659268E+03  0.12699999809E+01 0.  1.
</event>
<event>
 5   0  0.6967681E-03  0.8073004E+03  0.7818609E-02  0.9549510E-01
        1   -1    0    0  501    0  0.00000000000E+00  0.00000000000E+00  0.37928717238E+03  0.37928717241E+03  0.50400001928E-02 0. -1.
       -1   -1    0    0    0  501  0.00000000000E+00  0.00000000000E+00 -0.42957820129E+03  0.42957820132E+03  0.50400001928E-02 0.  1.
    10030    2    1    2    0    0  0.00000000000E+00  0.00000000000E+00 -0.50291028918E+02  0.80886537373E+03  0.80730044298E+03 0.  0.
        5    1    3    3  502    0  0.13412588110E+02  0.32588679762E+03 -0.26336533419E+03  0.41924395241E+03  0.46999998093E+01 0.  1.
       -5    1    3    3    0  502 -0.13412588110E+02 -0.32588679762E+03  0.21307430527E+03  0.38962142132E+03  0.46999998093E+01 0. -1.
</event>
<event>
 5   0  0.7241200E-03  0.1003058E+04  0.7818609E-02  0.9305197E-01
       -1   -1    0    0    0  501  0.00000000000E+00  0.00000000000E+00  0.10446262381E+04  0.10446262381E+04  0.50400001928E-02 0.  1.
        1   -1    0    0  501    0  0.00000000000E+00  0.00000000000E+00 -0.24078591489E+03  0.24078591494E+03  0.50400001928E-02 0. -1.
    10030    2    1    2    0    0  0.00000000000E+00  0.00000000000E+00  0.80384032316E+03  0.12854121530E+04  0.10030578936E+04 0.  0.
        4    1    3    3  502    0 -0.36181540881E+03  0.15720602919E+03  0.79878101557E+03  0.89088543001E+03  0.12699999809E+01 0.  1.
       -4    1    3    3    0  502  0.36181540881E+03 -0.15720602919E+03  0.50593075906E+01  0.39452672300E+03  0.12699999809E+01 0. -1.
</event>
<event>
 5   0  0.7073004E-03  0.9980653E+03  0.7818609E-02  0.9310669E-01
        1   -1    0    0  501    0  0.00000000000E+00  0.00000000000E+00  0.12289238097E+04  0.12289238097E+04  0.50400001928E-02 0. -1.
       -1   -1    0    0    0  501  0.00000000000E+00  0.00000000000E+00 -0.20264363806E+03  0.20264363812E+03  0.50400001928E-02 0.  1.
    10030    2    1    2    0    0  0.00000000000E+00  0.00000000000E+00  0.10262801716E+04  0.14315674478E+04  0.99806531198E+03 0.  0.
        1    1    3    3  502    0  0.45905054158E+03 -0.18569964127E+03  0.60181256121E+03  0.77935236918E+03  0.50400001928E-02 0.  1.
       -1    1    3    3    0  502 -0.45905054158E+03  0.18569964127E+03  0.42446761040E+03  0.65221507863E+03  0.50400001928E-02 0. -1.
</event>
<event>
 5   0  0.4782125E-03  0.9987380E+03  0.7818609E-02  0.9309930E-01
       -3   -1    0    0    0  501  0.00000000000E+00  0.00000000000E+00  0.20837196716E+03  0.20837199164E+03  0.10100000352E+00 0.  1.
        3   -1    0    0  501    0  0.00000000000E+00  0.00000000000E+00 -0.11967510359E+04  0.11967510402E+04  0.10100000352E+00 0. -1.
    10030    2    1    2    0    0  0.00000000000E+00  0.00000000000E+00 -0.98837906875E+03  0.14051230318E+04  0.99873797914E+03 0.  0.
        3    1    3    3  502    0 -0.10860730480E+03  0.34227142593E+03 -0.59651175277E+01  0.35913906567E+03  0.10100000352E+00 0.  1.
       -3    1    3    3    0  502  0.10860730480E+03 -0.34227142593E+03 -0.98241395122E+03  0.10459839661E+04  0.10100000352E+00 0. -1.
</event>
<event>
 5   0  0.7241200E-03  0.9984264E+03  0.7818609E-02  0.9310272E-01
        1   -1    0    0  501    0  0.00000000000E+00  0.00000000000E+00  0.16401568024E+04  0.16401568024E+04  0.50400001928E-02 0. -1.
       -1   -1    0    0    0  501  0.00000000000E+00  0.00000000000E+00 -0.15194510559E+03  0.15194510568E+03  0.50400001928E-02 0.  1.
    10030    2    1    2    0    0  0.00000000000E+00  0.00000000000E+00  0.14882116968E+04  0.17921019081E+04  0.99842635904E+03 0.  0.
        4    1    3    3  502    0  0.32877959991E+03 -0.25859084651E+03  0.12331926325E+04  0.13022023395E+04  0.12699999809E+01 0. -1.
       -4    1    3    3    0  502 -0.32877959991E+03  0.25859084651E+03  0.25501906424E+03  0.48989956853E+03  0.12699999809E+01 0.  1.
</event>
<event>
 5   0  0.1245850E-02  0.1020628E+04  0.7818609E-02  0.9286205E-01
       -2   -1    0    0    0  501  0.00000000000E+00  0.00000000000E+00  0.37594793808E+03  0.37594793809E+03  0.25500000920E-02 0.  1.
        2   -1    0    0  501    0  0.00000000000E+00  0.00000000000E+00 -0.69270333633E+03  0.69270333634E+03  0.25500000920E-02 0. -1.
    10030    2    1    2    0    0  0.00000000000E+00  0.00000000000E+00 -0.31675539825E+03  0.10686512744E+04  0.10206280243E+04 0.  0.
        3    1    3    3  502    0 -0.10365388475E+03  0.47075730317E+03  0.17027260683E+02  0.48233443182E+03  0.10100000352E+00 0. -1.
       -3    1    3    3    0  502  0.10365388475E+03 -0.47075730317E+03 -0.33378265894E+03  0.58631684260E+03  0.10100000352E+00 0.  1.
</event>
<event>
 5   0  0.1221315E-02  0.1025925E+04  0.7818609E-02  0.9280559E-01
        2   -1    0    0  501    0  0.00000000000E+00  0.00000000000E+00  0.10550317216E+04  0.10550317216E+04  0.25500000920E-02 0. -1.
       -2   -1    0    0    0  501  0.00000000000E+00  0.00000000000E+00 -0.24940538345E+03  0.24940538346E+03  0.25500000920E-02 0.  1.
    10030    2    1    2    0    0  0.00000000000E+00  0.00000000000E+00  0.80562633817E+03  0.13044371051E+04  0.10259251261E+04 0.  0.
        5    1    3    3  502    0 -0.25694932338E+03 -0.69030846252E+02 -0.15478331749E+03  0.30784440533E+03  0.46999998093E+01 0.  1.
       -5    1    3    3    0  502  0.25694932338E+03  0.69030846252E+02  0.96040965566E+03  0.99659269975E+03  0.46999998093E+01 0. -1.
</event>
<event>
 5   0  0.1221315E-02  0.1019083E+04  0.7818609E-02  0.9287859E-01
        2   -1    0    0  501    0  0.00000000000E+00  0.00000000000E+00  0.15345585436E+04  0.15345585436E+04  0.25500000920E-02 0. -1.
       -2   -1    0    0    0  501  0.00000000000E+00  0.00000000000E+00 -0.16919039628E+03  0.16919039630E+03  0.25500000920E-02 0.  1.
    10030    2    1    2    0    0  0.00000000000E+00  0.00000000000E+00  0.13653681473E+04  0.17037489399E+04  0.10190830548E+04 0.  0.
        5    1    3    3  502    0 -0.29419696407E+03  0.85202348451E+02  0.19347584457E+01  0.30632846283E+03  0.46999998093E+01 0.  1.
       -5    1    3    3    0  502  0.29419696407E+03 -0.85202348451E+02  0.13634333889E+04  0.13974204771E+04  0.46999998093E+01 0. -1.
</event>
<event>
 5   0  0.7073004E-03  0.1046915E+04  0.7818609E-02  0.9258535E-01
        1   -1    0    0  501    0  0.00000000000E+00  0.00000000000E+00  0.79335636630E+03  0.79335636632E+03  0.50400001928E-02 0.  1.
       -1   -1    0    0    0  501  0.00000000000E+00  0.00000000000E+00 -0.34537789373E+03  0.34537789376E+03  0.50400001928E-02 0. -1.
    10030    2    1    2    0    0  0.00000000000E+00  0.00000000000E+00  0.44797847258E+03  0.11387342601E+04  0.10469149933E+04 0.  0.
        1    1    3    3  502    0 -0.85182787956E+02  0.20941785697E+03  0.73751461861E+03  0.77138820244E+03  0.50400001928E-02 0.  1.
       -1    1    3    3    0  502  0.85182787956E+02 -0.20941785697E+03 -0.28953614603E+03  0.36734605764E+03  0.50400001928E-02 0. -1.
</event>
<event>
 5   0  0.1240503E-02  0.9746658E+03  0.7818609E-02  0.9336776E-01
        2   -1    0    0  501    0  0.00000000000E+00  0.00000000000E+00  0.87353136499E+03  0.87353136500E+03  0.25500000920E-02 0. -1.
       -2   -1    0    0    0  501  0.00000000000E+00  0.00000000000E+00 -0.27187733508E+03  0.27187733510E+03  0.25500000920E-02 0.  1.
    10030    2    1    2    0    0  0.00000000000E+00  0.00000000000E+00  0.60165402991E+03  0.11454087001E+04  0.97466584968E+03 0.  0.
        1    1    3    3  502    0  0.12942705011E+03  0.35573502805E+03 -0.59849404661E+02  0.38325020906E+03  0.50400001928E-02 0.  1.
       -1    1    3    3    0  502 -0.12942705011E+03 -0.35573502805E+03  0.66150343457E+03  0.76215849103E+03  0.50400001928E-02 0. -1.
</event>
<event>
 5   0  0.1240503E-02  0.1034461E+04  0.7818609E-02  0.9271536E-01
       -2   -1    0    0    0  501  0.00000000000E+00  0.00000000000E+00  0.28092476425E+03  0.28092476426E+03  0.25500000920E-02 0. -1.
        2   -1    0    0  501    0  0.00000000000E+00  0.00000000000E+00 -0.95231009911E+03  0.95231009911E+03  0.25500000920E-02 0.  1.
    10030    2    1    2    0    0  0.00000000000E+00  0.00000000000E+00 -0.67138533486E+03  0.12332348634E+04  0.10344611933E+04 0.  0.
        1    1    3    3  502    0 -0.38182680853E+03  0.12813296165E+03  0.51192713819E+02  0.40599317919E+03  0.50400001928E-02 0. -1.
       -1    1    3    3    0  502  0.38182680853E+03 -0.12813296165E+03 -0.72257804868E+03  0.82724168417E+03  0.50400001928E-02 0.  1.
</event>
<event>
 5   0  0.7224879E-03  0.1236243E+04  0.7818609E-02  0.9081711E-01
        1   -1    0    0  501    0  0.00000000000E+00  0.00000000000E+00  0.23593071467E+04  0.23593071467E+04  0.50400001928E-02 0.  1.
       -1   -1    0    0    0  501  0.00000000000E+00  0.00000000000E+00 -0.16194347598E+03  0.16194347606E+03  0.50400001928E-02 0. -1.
    10030    2    1    2    0    0  0.00000000000E+00  0.00000000000E+00  0.21973636707E+04  0.25212506227E+04  0.12362433423E+04 0.  0.
        3    1    3    3  502    0 -0.53840105768E+02  0.49546320884E+03  0.35298121222E+03  0.61071948936E+03  0.10100000352E+00 0. -1.
       -3    1    3    3    0  502  0.53840105768E+02 -0.49546320884E+03  0.18443824585E+04  0.19105311334E+04  0.10100000352E+00 0.  1.
</event>
<event>
 5   0  0.1191822E-02  0.9787749E+03  0.7818609E-02  0.9332135E-01
       -2   -1    0    0    0  501  0.00000000000E+00  0.00000000000E+00  0.15415503297E+03  0.15415503299E+03  0.25500000920E-02 0. -1.
        2   -1    0    0  501    0  0.00000000000E+00  0.00000000000E+00 -0.15536312744E+04  0.15536312744E+04  0.25500000920E-02 0.  1.
    10030    2    1    2    0    0  0.00000000000E+00  0.00000000000E+00 -0.13994762415E+04  0.17077863074E+04  0.97877490844E+03 0.  0.
        4    1    3    3  502    0  0.19006444788E+03 -0.38948914414E+02 -0.14836595903E+04  0.14962917179E+04  0.12699999809E+01 0.  1.
       -4    1    3    3    0  502 -0.19006444788E+03  0.38948914414E+02  0.84183348822E+02  0.21149458953E+03  0.12699999809E+01 0. -1.
</event>
<event>
 5   0  0.7461157E-03  0.9883717E+03  0.7818609E-02  0.9321391E-01
        1   -1    0    0  501    0  0.00000000000E+00  0.00000000000E+00  0.10016229383E+04  0.10016229383E+04  0.50400001928E-02 0. -1.
       -1   -1    0    0    0  501  0.00000000000E+00  0.00000000000E+00 -0.24382396247E+03  0.24382396253E+03  0.50400001928E-02 0.  1.
    10030    2    1    2    0    0  0.00000000000E+00  0.00000000000E+00  0.75779897580E+03  0.12454469008E+04  0.98837173929E+03 0.  0.
        2    1    3    3  502    0  0.94651302156E+02 -0.32942297978E+03  0.82750435876E+03  0.89567953665E+03  0.25500000920E-02 0. -1.
       -2    1    3    3    0  502 -0.94651302156E+02  0.32942297978E+03 -0.69705382964E+02  0.34976736416E+03  0.25500000920E-02 0.  1.
</event>
<event>
 5   0  0.1216322E-02  0.1001142E+04  0.7818609E-02  0.9307293E-01
        2   -1    0    0  501    0  0.00000000000E+00  0.00000000000E+00  0.35418891758E+03  0.35418891759E+03  0.25500000920E-02 0.  1.
       -2   -1    0    0    0  501  0.00000000000E+00  0.00000000000E+00 -0.70745105397E+03  0.70745105398E+03  0.25500000920E-02 0. -1.
    10030    2    1    2    0    0  0.00000000000E+00  0.00000000000E+00 -0.35326213640E+03  0.10616399716E+04  0.10011419940E+04 0.  0.
        2    1    3    3  502    0  0.32070441505E+03  0.16974371223E+03 -0.54229778128E+03  0.65249607912E+03  0.25500000920E-02 0. -1.
       -2    1    3    3    0  502 -0.32070441505E+03 -0.16974371223E+03  0.18903564489E+03  0.40914389244E+03  0.25500000920E-02 0.  1.
</event>
<event>
 5   0  0.7073004E-03  0.1012373E+04  0.7818609E-02  0.9295078E-01
       -1   -1    0    0    0  501  0.00000000000E+00  0.00000000000E+00  0.48132339129E+03  0.48132339132E+03  0.50400001928E-02 0. -1.
        1   -1    0    0  501    0  0.00000000000E+00  0.00000000000E+00 -0.53233380323E+03  0.53233380325E+03  0.50400001928E-02 0.  1.
    10030    2    1    2    0    0  0.00000000000E+00  0.00000000000E+00 -0.51010411939E+02  0.10136571946E+04  0.10123728789E+04 0.  0.
        1    1    3    3  502    0  0.19308182491E+03 -0.79675738713E+02  0.43616095657E+03  0.48359610680E+03  0.50400001928E-02 0. -1.
       -1    1    3    3    0  502 -0.19308182491E+03  0.79675738713E+02 -0.48717136851E+03  0.53006108777E+03  0.50400001928E-02 0.  1.
</event>
<event>
 5   0  0.1216322E-02  0.1168355E+04  0.7818609E-02  0.9141016E-01
        2   -1    0    0  501    0  0.00000000000E+00  0.00000000000E+00  0.21397081934E+04  0.21397081934E+04  0.25500000920E-02 0.  1.
       -2   -1    0    0    0  501  0.00000000000E+00  0.00000000000E+00 -0.15949051135E+03  0.15949051138E+03  0.25500000920E-02 0. -1.
    10030    2    1    2    0    0  0.00000000000E+00  0.00000000000E+00  0.19802176820E+04  0.22991987047E+04  0.11683546618E+04 0.  0.
        2    1    3    3  502    0  0.24829580686E+03 -0.92786892364E+02  0.20145542267E+04  0.20319175543E+04  0.25500000920E-02 0.  1.
       -2    1    3    3    0  502 -0.24829580686E+03  0.92786892364E+02 -0.34336544660E+02  0.26728115048E+03  0.25500000920E-02 0. -1.
</event>
<event>
 5   0  0.1221315E-02  0.9387318E+03  0.7818609E-02  0.9378419E-01
        2   -1    0    0  501    0  0.00000000000E+00  0.00000000000E+00  0.72969040402E+03  0.72969040402E+03  0.25500000920E-02 0. -1.
       -2   -1    0    0    0  501  0.00000000000E+00  0.00000000000E+00 -0.30191479414E+03  0.30191479415E+03  0.25500000920E-02 0.  1.
    10030    2    1    2    0    0  0.00000000000E+00  0.00000000000E+00  0.42777560987E+03  0.10316051982E+04  0.93873175748E+03 0.  0.
        5    1    3    3  502    0 -0.37432741913E+03 -0.59528916870E+02  0.51807160670E+03  0.64193846147E+03  0.46999998093E+01 0. -1.
       -5    1    3    3    0  502  0.37432741913E+03  0.59528916870E+02 -0.90295996822E+02  0.38966673670E+03  0.46999998093E+01 0.  1.
</event>
<event>
 5   0  0.1221315E-02  0.1000304E+04  0.7818609E-02  0.9308212E-01
        2   -1    0    0  501    0  0.00000000000E+00  0.00000000000E+00  0.80567044154E+03  0.80567044154E+03  0.25500000920E-02 0. -1.
       -2   -1    0    0    0  501  0.00000000000E+00  0.00000000000E+00 -0.31048897723E+03  0.31048897724E+03  0.25500000920E-02 0.  1.
    10030    2    1    2    0    0  0.00000000000E+00  0.00000000000E+00  0.49518146431E+03  0.11161594188E+04  0.10003035367E+04 0.  0.
        5    1    3    3  502    0  0.22100662904E+03  0.15922419417E+03  0.71561525123E+03  0.76571767113E+03  0.46999998093E+01 0. -1.
       -5    1    3    3    0  502 -0.22100662904E+03 -0.15922419417E+03 -0.22043378692E+03  0.35044174765E+03  0.46999998093E+01 0.  1.
</event>
<event>
 5   0  0.1221315E-02  0.9900233E+03  0.7818609E-02  0.9319555E-01
       -2   -1    0    0    0  501  0.00000000000E+00  0.00000000000E+00  0.41732035852E+03  0.41732035853E+03  0.25500000920E-02 0.  1.
        2   -1    0    0  501    0  0.00000000000E+00  0.00000000000E+00 -0.58716649395E+03  0.58716649395E+03  0.25500000920E-02 0. -1.
    10030    2    1    2    0    0  0.00000000000E+00  0.00000000000E+00 -0.16984613542E+03  0.10044868525E+04  0.99002329624E+03 0.  0.
        5    1    3    3  502    0  0.48622453828E+03  0.46093274741E+02 -0.32766416618E+01  0.48843803904E+03  0.46999998093E+01 0.  1.
       -5    1    3    3    0  502 -0.48622453828E+03 -0.46093274741E+02 -0.16656949376E+03  0.51604881344E+03  0.46999998093E+01 0. -1.
</event>
<event>
 5   0  0.7073004E-03  0.9924117E+03  0.7818609E-02  0.9316907E-01
       -1   -1    0    0    0  501  0.00000000000E+00  0.00000000000E+00  0.32302825903E+03  0.32302825907E+03  0.50400001928E-02 0. -1.
        1   -1    0    0  501    0  0.00000000000E+00  0.00000000000E+00 -0.76222515506E+03  0.76222515507E+03  0.50400001928E-02 0.  1.
    10030    2    1    2    0    0  0.00000000000E+00  0.00000000000E+00 -0.43919689603E+03  0.10852534141E+04  0.99241173886E+03 0.  0.
        1    1    3    3  502    0  0.11163810025E+03 -0.30767879793E+03  0.18824051626E+03  0.37757621762E+03  0.50400001928E-02 0. -1.
       -1    1    3    3    0  502 -0.11163810025E+03  0.30767879793E+03 -0.62743741229E+03  0.70767719653E+03  0.50400001928E-02 0.  1.
</event>
<event>
 5   0  0.7073004E-03  0.1024618E+04  0.7818609E-02  0.9281949E-01
       -1   -1    0    0    0  501  0.00000000000E+00  0.00000000000E+00  0.15483140094E+03  0.15483140102E+03  0.50400001928E-02 0. -1.
        1   -1    0    0  501    0  0.00000000000E+00  0.00000000000E+00 -0.16951363846E+04  0.16951363846E+04  0.50400001928E-02 0.  1.
    10030    2    1    2    0    0  0.00000000000E+00  0.00000000000E+00 -0.15403049836E+04  0.18499677856E+04  0.10246176678E+04 0.  0.
        1    1    3    3  502    0 -0.13878089573E+03  0.19806301897E+03  0.45277721196E+02  0.24604708607E+03  0.50400001928E-02 0. -1.
       -1    1    3    3    0  502  0.13878089573E+03 -0.19806301897E+03 -0.15855827048E+04  0.16039206995E+04  0.50400001928E-02 0.  1.
</event>
<event>
 5   0  0.7224879E-03  0.9924721E+03  0.7818609E-02  0.9316840E-01
        1   -1    0    0  501    0  0.00000000000E+00  0.00000000000E+00  0.37028244085E+03  0.37028244089E+03  0.50400001928E-02 0. -1.
       -1   -1    0    0    0  501  0.00000000000E+00  0.00000000000E+00 -0.66503350324E+03  0.66503350326E+03  0.50400001928E-02 0.  1.
    10030    2    1    2    0    0  0.00000000000E+00  0.00000000000E+00 -0.29475106239E+03  0.10353159442E+04  0.99247212325E+03 0.  0.
        3    1    3    3  502    0 -0.18703805419E+02 -0.29042318823E+03  0.27191442749E+03  0.39828749249E+03  0.10100000352E+00 0. -1.
       -3    1    3    3    0  502  0.18703805419E+02  0.29042318823E+03 -0.56666548988E+03  0.63702845166E+03  0.10100000352E+00 0.  1.
</event>
<event>
 5   0  0.1240503E-02  0.1001862E+04  0.7818609E-02  0.9306505E-01
       -2   -1    0    0    0  501  0.00000000000E+00  0.00000000000E+00  0.29487001570E+03  0.29487001571E+03  0.25500000920E-02 0.  1.
        2   -1    0    0  501    0  0.00000000000E+00  0.00000000000E+00 -0.85099147511E+03  0.85099147512E+03  0.25500000920E-02 0. -1.
    10030    2    1    2    0    0  0.00000000000E+00  0.00000000000E+00 -0.55612145942E+03  0.11458614908E+04  0.10018620057E+04 0.  0.
        1    1    3    3  502    0  0.30267842117E+02 -0.25527980833E+03  0.21367473668E+03  0.33427655605E+03  0.50400001928E-02 0.  1.
       -1    1    3    3    0  502 -0.30267842117E+02  0.25527980833E+03 -0.76979619609E+03  0.81158493477E+03  0.50400001928E-02 0. -1.
</event>
<event>
 5   0  0.6967681E-03  0.1018407E+04  0.7818609E-02  0.9288584E-01
       -1   -1    0    0    0  501  0.00000000000E+00  0.00000000000E+00  0.17580495925E+03  0.17580495932E+03  0.50400001928E-02 0.  1.
        1   -1    0    0  501    0  0.00000000000E+00  0.00000000000E+00 -0.14748629620E+04  0.14748629620E+04  0.50400001928E-02 0. -1.
    10030    2    1    2    0    0  0.00000000000E+00  0.00000000000E+00 -0.12990580028E+04  0.16506679214E+04  0.10184070365E+04 0.  0.
        5    1    3    3  502    0 -0.32314753221E+03  0.17352898722E+03 -0.77098319178E+02  0.37483713503E+03  0.46999998093E+01 0.  1.
       -5    1    3    3    0  502  0.32314753221E+03 -0.17352898722E+03 -0.12219596836E+04  0.12758307863E+04  0.46999998093E+01 0. -1.
</event>
<event>
 5   0  0.1240503E-02  0.9956558E+03  0.7818609E-02  0.9313322E-01
        2   -1    0    0  501    0  0.00000000000E+00  0.00000000000E+00  0.97440241146E+03  0.97440241147E+03  0.25500000920E-02 0. -1.
       -2   -1    0    0    0  501  0.00000000000E+00  0.00000000000E+00 -0.25434319663E+03  0.25434319665E+03  0.25500000920E-02 0.  1.
    10030    2    1    2    0    0  0.00000000000E+00  0.00000000000E+00  0.72005921483E+03  0.12287456081E+04  0.99565581231E+03 0.  0.
        1    1    3    3  502    0 -0.10726313999E+03  0.29498438279E+03  0.83689884968E+03  0.89382372530E+03  0.50400001928E-02 0. -1.
       -1    1    3    3    0  502  0.10726313999E+03 -0.29498438279E+03 -0.11683963485E+03  0.33492188281E+03  0.50400001928E-02 0.  1.
</event>
<event>
 5   0  0.1245850E-02  0.9941749E+03  0.7818609E-02  0.9314957E-01
       -2   -1    0    0    0  501  0.00000000000E+00  0.00000000000E+00  0.21757965425E+03  0.21757965427E+03  0.25500000920E-02 0.  1.
        2   -1    0    0  501    0  0.00000000000E+00  0.00000000000E+00 -0.11356573699E+04  0.11356573699E+04  0.25500000920E-02 0. -1.
    10030    2    1    2    0    0  0.00000000000E+00  0.00000000000E+00 -0.91807771567E+03  0.13532370242E+04  0.99417490998E+03 0.  0.
        3    1    3    3  502    0 -0.42690545376E+03  0.24528414835E+03 -0.36588748078E+03  0.61342174617E+03  0.10100000352E+00 0. -1.
       -3    1    3    3    0  502  0.42690545376E+03 -0.24528414835E+03 -0.55219023489E+03  0.73981527802E+03  0.10100000352E+00 0.  1.
</event>
<event>
 5   0  0.1216322E-02  0.1024867E+04  0.7818609E-02  0.9281684E-01
       -2   -1    0    0    0  501  0.00000000000E+00  0.00000000000E+00  0.13813720312E+03  0.13813720315E+03  0.25500000920E-02 0.  1.
        2   -1    0    0  501    0  0.00000000000E+00  0.00000000000E+00 -0.19009213542E+04  0.19009213542E+04  0.25500000920E-02 0. -1.
    10030    2    1    2    0    0  0.00000000000E+00  0.00000000000E+00 -0.17627841511E+04  0.20390585574E+04  0.10248667411E+04 0.  0.
        2    1    3    3  502    0  0.23769740689E+02  0.37763588098E+03 -0.15689196221E+04  0.16139029214E+04  0.25500000920E-02 0. -1.
       -2    1    3    3    0  502 -0.23769740689E+02 -0.37763588098E+03 -0.19386452902E+03  0.42515563596E+03  0.25500000920E-02 0.  1.
</event>
<event>
 5   0  0.7461157E-03  0.9310172E+03  0.7818609E-02  0.9387618E-01
        1   -1    0    0  501    0  0.00000000000E+00  0.00000000000E+00  0.46867137245E+03  0.46867137248E+03  0.50400001928E-02 0. -1.
       -1   -1    0    0    0  501  0.00000000000E+00  0.00000000000E+00 -0.46236716021E+03  0.46236716023E+03  0.50400001928E-02 0.  1.
    10030    2    1    2    0    0  0.00000000000E+00  0.00000000000E+00  0.63042122419E+01  0.93103853271E+03  0.93101718905E+03 0.  0.
        2    1    3    3  502    0 -0.90870638957E+02 -0.13450708773E+03 -0.43314750369E+03  0.46256501125E+03  0.25500000920E-02 0.  1.
       -2    1    3    3    0  502  0.90870638957E+02  0.13450708773E+03  0.43945171593E+03  0.46847352146E+03  0.25500000920E-02 0. -1.
</event>
<event>
 5   0  0.1221315E-02  0.1017086E+04  0.7818609E-02  0.9290001E-01
        2   -1    0    0  501    0  0.00000000000E+00  0.00000000000E+00  0.24003740796E+04  0.24003740796E+04  0.25500000920E-02 0.  1.
       -2   -1    0    0    0  501  0.00000000000E+00  0.00000000000E+00 -0.10773992780E+03  0.10773992783E+03  0.25500000920E-02 0. -1.
    10030    2    1    2    0    0  0.00000000000E+00  0.00000000000E+00  0.22926341518E+04  0.25081140074E+04  0.10170862895E+04 0.  0.
        5    1    3    3  502    0 -0.43931388291E+03  0.13314527368E+03  0.60678188806E+03  0.76087495773E+03  0.46999998093E+01 0. -1.
       -5    1    3    3    0  502  0.43931388291E+03 -0.13314527368E+03  0.16858522637E+04  0.17472390497E+04  0.46999998093E+01 0.  1.
</event>
<event>
 5   0  0.4782125E-03  0.7745775E+03  0.7818609E-02  0.9597562E-01
       -3   -1    0    0    0  501  0.00000000000E+00  0.00000000000E+00  0.37395242563E+03  0.37395243927E+03  0.10100000352E+00 0. -1.
        3   -1    0    0  501    0  0.00000000000E+00  0.00000000000E+00 -0.40110061625E+03  0.40110062896E+03  0.10100000352E+00 0.  1.
    10030    2    1    2    0    0  0.00000000000E+00  0.00000000000E+00 -0.27148190612E+02  0.77505306823E+03  0.77457745534E+03 0.  0.
        2    1    3    3  502    0 -0.30089940158E+03  0.26813263945E+02  0.22892396124E+03  0.37903242741E+03  0.25500000920E-02 0. -1.
       -2    1    3    3    0  502  0.30089940158E+03 -0.26813263945E+02 -0.25607215185E+03  0.39602064082E+03  0.25500000920E-02 0.  1.
</event>
<event>
 5   0  0.1221315E-02  0.9819524E+03  0.7818609E-02  0.9328564E-01
        2   -1    0    0  501    0  0.00000000000E+00  0.00000000000E+00  0.70381256557E+03  0.70381256557E+03  0.25500000920E-02 0.  1.
       -2   -1    0    0    0  501  0.00000000000E+00  0.00000000000E+00 -0.34250262250E+03  0.34250262251E+03  0.25500000920E-02 0. -1.
    10030    2    1    2    0    0  0.00000000000E+00  0.00000000000E+00  0.36130994307E+03  0.10463151881E+04  0.98195244174E+03 0.  0.
        5    1    3    3  502    0 -0.12978994558E+03 -0.25937032664E+03 -0.24143720163E+03  0.37740218421E+03  0.46999998093E+01 0. -1.
       -5    1    3    3    0  502  0.12978994558E+03  0.25937032664E+03  0.60274714470E+03  0.66891300388E+03  0.46999998093E+01 0.  1.
</event>
<event>
 5   0  0.1240503E-02  0.9769860E+03  0.7818609E-02  0.9334153E-01
       -2   -1    0    0    0  501  0.00000000000E+00  0.00000000000E+00  0.22582576268E+03  0.22582576269E+03  0.25500000920E-02 0. -1.
        2   -1    0    0  501    0  0.00000000000E+00  0.00000000000E+00 -0.10566792242E+04  0.10566792242E+04  0.25500000920E-02 0.  1.
    10030    2    1    2    0    0  0.00000000000E+00  0.00000000000E+00 -0.83085346151E+03  0.12825049869E+04  0.97698596044E+03 0.  0.
        1    1    3    3  502    0  0.11522144765E+03  0.42658754274E+03 -0.68881372980E+03  0.81836255290E+03  0.50400001928E-02 0.  1.
       -1    1    3    3    0  502 -0.11522144765E+03 -0.42658754274E+03 -0.14203973172E+03  0.46414243399E+03  0.50400001928E-02 0. -1.
</event>
<event>
 5   0  0.1191822E-02  0.1055942E+04  0.7818609E-02  0.9249231E-01
       -2   -1    0    0    0  501  0.00000000000E+00  0.00000000000E+00  0.28062720290E+03  0.28062720291E+03  0.25500000920E-02 0.  1.
        2   -1    0    0  501    0  0.00000000000E+00  0.00000000000E+00 -0.99332252883E+03  0.99332252884E+03  0.25500000920E-02 0. -1.
    10030    2    1    2    0    0  0.00000000000E+00  0.00000000000E+00 -0.71269532593E+03  0.12739497318E+04  0.10559418977E+04 0.  0.
        4    1    3    3  502    0  0.11546326252E+03 -0.25868215792E+03  0.18117445418E+03  0.33626480572E+03  0.12699999809E+01 0.  1.
       -4    1    3    3    0  502 -0.11546326252E+03  0.25868215792E+03 -0.89386978011E+03  0.93768492603E+03  0.12699999809E+01 0. -1.
</event>
<event>
 5   0  0.7461157E-03  0.9948191E+03  0.7818609E-02  0.9314245E-01
        1   -1    0    0  501    0  0.00000000000E+00  0.00000000000E+00  0.18959186572E+04  0.18959186572E+04  0.50400001928E-02 0.  1.
       -1   -1    0    0    0  501  0.00000000000E+00  0.00000000000E+00 -0.13049941711E+03  0.13049941721E+03  0.50400001928E-02 0. -1.
    10030    2    1    2    0    0  0.00000000000E+00  0.00000000000E+00  0.17654192401E+04  0.20264180744E+04  0.99481913885E+03 0.  0.
        2    1    3    3  502    0 -0.92793982196E+02 -0.22150359072E+02 -0.11168904664E+03  0.14688704737E+03  0.25500000920E-02 0. -1.
       -2    1    3    3    0  502  0.92793982196E+02  0.22150359072E+02  0.18771082867E+04  0.18795310270E+04  0.25500000920E-02 0.  1.
</event>
<event>
 5   0  0.7461157E-03  0.1012748E+04  0.7818609E-02  0.9294672E-01
       -1   -1    0    0    0  501  0.00000000000E+00  0.00000000000E+00  0.73193820038E+03  0.73193820040E+03  0.50400001928E-02 0.  1.
        1   -1    0    0  501    0  0.00000000000E+00  0.00000000000E+00 -0.35032299478E+03  0.35032299481E+03  0.50400001928E-02 0. -1.
    10030    2    1    2    0    0  0.00000000000E+00  0.00000000000E+00  0.38161520560E+03  0.10822611952E+04  0.10127483051E+04 0.  0.
        2    1    3    3  502    0  0.27310360446E+02 -0.19865452839E+03  0.68770158242E+03  0.71633996391E+03  0.25500000920E-02 0.  1.
       -2    1    3    3    0  502 -0.27310360446E+02  0.19865452839E+03 -0.30608637681E+03  0.36592123130E+03  0.25500000920E-02 0. -1.
</event>
<event>
 5   0  0.1221315E-02  0.9948343E+03  0.7818609E-02  0.9314229E-01
       -2   -1    0    0    0  501  0.00000000000E+00  0.00000000000E+00  0.35088580827E+03  0.35088580828E+03  0.25500000920E-02 0. -1.
        2   -1    0    0  501    0  0.00000000000E+00  0.00000000000E+00 -0.70514052163E+03  0.70514052164E+03  0.25500000920E-02 0.  1.
    10030    2    1    2    0    0  0.00000000000E+00  0.00000000000E+00 -0.35425471336E+03  0.10560263299E+04  0.99483426134E+03 0.  0.
        5    1    3    3  502    0 -0.33279189845E+03  0.34236098603E+03 -0.29122967620E+02  0.47836359568E+03  0.46999998093E+01 0. -1.
       -5    1    3    3    0  502  0.33279189845E+03 -0.34236098603E+03 -0.32513174574E+03  0.57766273423E+03  0.46999998093E+01 0.  1.
</event>
<event>
 5   0  0.1245850E-02  0.1043782E+04  0.7818609E-02  0.9261788E-01
        2   -1    0    0  501    0  0.00000000000E+00  0.00000000000E+00  0.58979177772E+03  0.58979177773E+03  0.25500000920E-02 0. -1.
       -2   -1    0    0    0  501  0.00000000000E+00  0.00000000000E+00 -0.46180701030E+03  0.46180701031E+03  0.25500000920E-02 0.  1.
    10030    2    1    2    0    0  0.00000000000E+00  0.00000000000E+00  0.12798476742E+03  0.10515987880E+04  0.10437815434E+04 0.  0.
        3    1    3    3  502    0  0.16565216583E+03  0.44947106964E+03  0.27267911973E+03  0.55119760071E+03  0.10100000352E+00 0. -1.
       -3    1    3    3    0  502 -0.16565216583E+03 -0.44947106964E+03 -0.14469435231E+03  0.50040118733E+03  0.10100000352E+00 0.  1.
</event>
<event>
 5   0  0.7461157E-03  0.9987450E+03  0.7818609E-02  0.9309922E-01
       -1   -1    0    0    0  501  0.00000000000E+00  0.00000000000E+00  0.71048742670E+03  0.71048742672E+03  0.50400001928E-02 0. -1.
        1   -1    0    0  501    0  0.00000000000E+00  0.00000000000E+00 -0.35098847692E+03  0.35098847695E+03  0.50400001928E-02 0.  1.
    10030    2    1    2    0    0  0.00000000000E+00  0.00000000000E+00  0.35949894978E+03  0.10614759037E+04  0.99874501209E+03 0.  0.
        2    1    3    3  502    0  0.44799038750E+03 -0.21948242929E+03  0.20363257881E+03  0.53882664301E+03  0.25500000920E-02 0. -1.
       -2    1    3    3    0  502 -0.44799038750E+03  0.21948242929E+03  0.15586637097E+03  0.52264926066E+03  0.25500000920E-02 0.  1.
</event>
<event>
 5   0  0.1191822E-02  0.1005406E+04  0.7818609E-02  0.9302635E-01
        2   -1    0    0  501    0  0.00000000000E+00  0.00000000000E+00  0.43637089518E+03  0.43637089519E+03  0.25500000920E-02 0.  1.
       -2   -1    0    0    0  501  0.00000000000E+00  0.00000000000E+00 -0.57911816461E+03  0.57911816461E+03  0.25500000920E-02 0. -1.
    10030    2    1    2    0    0  0.00000000000E+00  0.00000000000E+00 -0.14274726942E+03  0.10154890598E+04  0.10054060113E+04 0.  0.
        4    1    3    3  502    0  0.76563684582E+02 -0.30677142632E+03 -0.46611015786E+03  0.56323263219E+03  0.12699999809E+01 0. -1.
       -4    1    3    3    0  502 -0.76563684582E+02  0.30677142632E+03  0.32336288843E+03  0.45225642761E+03  0.12699999809E+01 0.  1.
</event>
<event>
 5   0  0.7461157E-03  0.1050810E+04  0.7818609E-02  0.9254509E-01
        1   -1    0    0  501    0  0.00000000000E+00  0.00000000000E+00  0.58743743420E+03  0.58743743422E+03  0.50400001928E-02 0. -1.
       -1   -1    0    0    0  501  0.00000000000E+00  0.00000000000E+00 -0.46992268359E+03  0.46992268362E+03  0.50400001928E-02 0.  1.
    10030    2    1    2    0    0  0.00000000000E+00  0.00000000000E+00  0.11751475061E+03  0.10573601178E+04  0.10508095461E+04 0.  0.
        2    1    3    3  502    0 -0.18278551583E+03 -0.45150734598E+03  0.25691327292E+03  0.55070305799E+03  0.25500000920E-02 0. -1.
       -2    1    3    3    0  502  0.18278551583E+03  0.45150734598E+03 -0.13939852231E+03  0.50665705985E+03  0.25500000920E-02 0.  1.
</event>
<event>
 5   0  0.7224879E-03  0.9931274E+03  0.7818609E-02  0.9316115E-01
       -1   -1    0    0    0  501  0.00000000000E+00  0.00000000000E+00  0.15970423961E+03  0.15970423969E+03  0.50400001928E-02 0.  1.
        1   -1    0    0  501    0  0.00000000000E+00  0.00000000000E+00 -0.15439509889E+04  0.15439509889E+04  0.50400001928E-02 0. -1.
    10030    2    1    2    0    0  0.00000000000E+00  0.00000000000E+00 -0.13842467493E+04  0.17036552286E+04  0.99312742134E+03 0.  0.
        3    1    3    3  502    0 -0.37972718957E+03 -0.31966048958E+03 -0.71637987634E+03  0.87153640459E+03  0.10100000352E+00 0. -1.
       -3    1    3    3    0  502  0.37972718957E+03  0.31966048958E+03 -0.66786687298E+03  0.83211882404E+03  0.10100000352E+00 0.  1.
</event>
<event>
 5   0  0.1240503E-02  0.9904806E+03  0.7818609E-02  0.9319048E-01
       -2   -1    0    0    0  501  0.00000000000E+00  0.00000000000E+00  0.31144496760E+03  0.31144496761E+03  0.25500000920E-02 0. -1.
        2   -1    0    0  501    0  0.00000000000E+00  0.00000000000E+00 -0.78750010311E+03  0.78750010312E+03  0.25500000920E-02 0.  1.
    10030    2    1    2    0    0  0.00000000000E+00  0.00000000000E+00 -0.47605513551E+03  0.10989450707E+04  0.99048057852E+03 0.  0.
        1    1    3    3  502    0  0.31331608446E+03 -0.36018325651E+03 -0.91825042984E+02  0.48613864853E+03  0.50400001928E-02 0. -1.
       -1    1    3    3    0  502 -0.31331608446E+03  0.36018325651E+03 -0.38423009253E+03  0.61280642219E+03  0.50400001928E-02 0.  1.
</event>
<event>
 5   0  0.7461157E-03  0.1015354E+04  0.7818609E-02  0.9291863E-01
       -1   -1    0    0    0  501  0.00000000000E+00  0.00000000000E+00  0.24778905370E+03  0.24778905375E+03  0.50400001928E-02 0.  1.
        1   -1    0    0  501    0  0.00000000000E+00  0.00000000000E+00 -0.10401429189E+04  0.10401429189E+04  0.50400001928E-02 0. -1.
    10030    2    1    2    0    0  0.00000000000E+00  0.00000000000E+00 -0.79235386521E+03  0.12879319727E+04  0.10153541838E+04 0.  0.
        2    1    3    3  502    0 -0.90950446174E+02  0.52826397675E+01 -0.10296892310E+04  0.10337116631E+04  0.25500000920E-02 0. -1.
       -2    1    3    3    0  502  0.90950446174E+02 -0.52826397675E+01  0.23733536579E+03  0.25422030959E+03  0.25500000920E-02 0.  1.
</event>
<event>
 5   0  0.1240503E-02  0.9993000E+03  0.7818609E-02  0.9309313E-01
        2   -1    0    0  501    0  0.00000000000E+00  0.00000000000E+00  0.20225167174E+04  0.20225167174E+04  0.25500000920E-02 0.  1.
       -2   -1    0    0    0  501  0.00000000000E+00  0.00000000000E+00 -0.12343539284E+03  0.12343539286E+03  0.25500000920E-02 0. -1.
    10030    2    1    2    0    0  0.00000000000E+00  0.00000000000E+00  0.18990813245E+04  0.21459521102E+04  0.99930004615E+03 0.  0.
        1    1    3    3  502    0 -0.13273436815E+03  0.24225904799E+03  0.18436206603E+04  0.18642009006E+04  0.50400001928E-02 0.  1.
       -1    1    3    3    0  502  0.13273436815E+03 -0.24225904799E+03  0.55460664267E+02  0.28175120963E+03  0.50400001928E-02 0. -1.
</event>
<event>
 5   0  0.1245850E-02  0.1043941E+04  0.7818609E-02  0.9261622E-01
       -2   -1    0    0    0  501  0.00000000000E+00  0.00000000000E+00  0.83227663448E+03  0.83227663448E+03  0.25500000920E-02 0. -1.
        2   -1    0    0  501    0  0.00000000000E+00  0.00000000000E+00 -0.32735877956E+03  0.32735877957E+03  0.25500000920E-02 0.  1.
    10030    2    1    2    0    0  0.00000000000E+00  0.00000000000E+00  0.50491785492E+03  0.11596354140E+04  0.10439407327E+04 0.  0.
        3    1    3    3  502    0  0.16470006663E+03  0.35996049260E+03 -0.12547530250E+03  0.41526103828E+03  0.10100000352E+00 0.  1.
       -3    1    3    3    0  502 -0.16470006663E+03 -0.35996049260E+03  0.63039315741E+03  0.74437437576E+03  0.10100000352E+00 0. -1.
</event>
<event>
 5   0  0.7073004E-03  0.1036217E+04  0.7818609E-02  0.9269691E-01
       -1   -1    0    0    0  501  0.00000000000E+00  0.00000000000E+00  0.91882697077E+03  0.91882697078E+03  0.50400001928E-02 0. -1.
        1   -1    0    0  501    0  0.00000000000E+00  0.00000000000E+00 -0.29215111372E+03  0.29215111377E+03  0.50400001928E-02 0.  1.
    10030    2    1    2    0    0  0.00000000000E+00  0.00000000000E+00  0.62667585704E+03  0.12109780846E+04  0.10362168168E+04 0.  0.
        1    1    3    3  502    0 -0.46049775651E+02 -0.23721985175E+03 -0.22226040763E+03  0.32831924819E+03  0.50400001928E-02 0.  1.
       -1    1    3    3    0  502  0.46049775651E+02  0.23721985175E+03  0.84893626468E+03  0.88265883636E+03  0.50400001928E-02 0. -1.
</event>
<event>
 5   0  0.7073004E-03  0.9848244E+03  0.7818609E-02  0.9325348E-01
        1   -1    0    0  501    0  0.00000000000E+00  0.00000000000E+00  0.34453968827E+03  0.34453968831E+03  0.50400001928E-02 0. -1.
       -1   -1    0    0    0  501  0.00000000000E+00  0.00000000000E+00 -0.70374985192E+03  0.70374985194E+03  0.50400001928E-02 0.  1.
    10030    2    1    2    0    0  0.00000000000E+00  0.00000000000E+00 -0.35921016365E+03  0.10482895403E+04  0.98482435923E+03 0.  0.
        1    1    3    3  502    0  0.13313824853E+02 -0.21354194635E+03  0.29247555450E+03  0.36238014679E+03  0.50400001928E-02 0. -1.
       -1    1    3    3    0  502 -0.13313824853E+02  0.21354194635E+03 -0.65168571814E+03  0.68590939346E+03  0.50400001928E-02 0.  1.
</event>
<event>
 5   0  0.1240503E-02  0.9940614E+03  0.7818609E-02  0.9315082E-01
        2   -1    0    0  501    0  0.00000000000E+00  0.00000000000E+00  0.63014218476E+03  0.63014218476E+03  0.25500000920E-02 0.  1.
       -2   -1    0    0    0  501  0.00000000000E+00  0.00000000000E+00 -0.39203774465E+03  0.39203774466E+03  0.25500000920E-02 0. -1.
    10030    2    1    2    0    0  0.00000000000E+00  0.00000000000E+00  0.23810444010E+03  0.10221799294E+04  0.99406140843E+03 0.  0.
        1    1    3    3  502    0  0.26813823900E+03 -0.23835378867E+03  0.47277213105E+03  0.59348473586E+03  0.50400001928E-02 0. -1.
       -1    1    3    3    0  502 -0.26813823900E+03  0.23835378867E+03 -0.23466769094E+03  0.42869519356E+03  0.50400001928E-02 0.  1.
</event>
<event>
 5   0  0.7461157E-03  0.9839198E+03  0.7818609E-02  0.9326359E-01
        1   -1    0    0  501    0  0.00000000000E+00  0.00000000000E+00  0.24192527598E+04  0.24192527598E+04  0.50400001928E-02 0.  1.
       -1   -1    0    0    0  501  0.00000000000E+00  0.00000000000E+00 -0.10004102307E+03  0.10004102320E+03  0.50400001928E-02 0. -1.
    10030    2    1    2    0    0  0.00000000000E+00  0.00000000000E+00  0.23192117367E+04  0.25192937830E+04  0.98391975553E+03 0.  0.
        2    1    3    3  502    0  0.24472817711E+03 -0.31110719877E+02  0.22494289466E+04  0.22629163359E+04  0.25500000920E-02 0.  1.
       -2    1    3    3    0  502 -0.24472817711E+03  0.31110719877E+02  0.69782790106E+02  0.25637744707E+03  0.25500000920E-02 0. -1.
</event>
<event>
 5   0  0.7073004E-03  0.1002436E+04  0.7818609E-02  0.9305877E-01
       -1   -1    0    0    0  501  0.00000000000E+00  0.00000000000E+00  0.23475256025E+03  0.23475256031E+03  0.50400001928E-02 0.  1.
        1   -1    0    0  501    0  0.00000000000E+00  0.00000000000E+00 -0.10701450512E+04  0.10701450512E+04  0.50400001928E-02 0. -1.
    10030    2    1    2    0    0  0.00000000000E+00  0.00000000000E+00 -0.83539249095E+03  0.13048976115E+04  0.10024356152E+04 0.  0.
        1    1    3    3  502    0  0.13950399417E+03 -0.15366312244E+03 -0.10115828576E+04  0.10326536677E+04  0.50400001928E-02 0. -1.
       -1    1    3    3    0  502 -0.13950399417E+03  0.15366312244E+03  0.17619036669E+03  0.27224394379E+03  0.50400001928E-02 0.  1.
</event>
<event>
 5   0  0.1245850E-02  0.1027375E+04  0.7818609E-02  0.9279020E-01
        2   -1    0    0  501    0  0.00000000000E+00  0.00000000000E+00  0.11571825160E+04  0.11571825160E+04  0.25500000920E-02 0.  1.
       -2   -1    0    0    0  501  0.00000000000E+00  0.00000000000E+00 -0.22803206470E+03  0.22803206472E+03  0.25500000920E-02 0. -1.
    10030    2    1    2    0    0  0.00000000000E+00  0.00000000000E+00  0.92915045133E+03  0.13852145807E+04  0.10273747483E+04 0.  0.
        3    1    3    3  502    0  0.22875236981E+03 -0.14045198187E+03  0.10550963701E+04  0.10887069239E+04  0.10100000352E+00 0.  1.
       -3    1    3    3    0  502 -0.22875236981E+03  0.14045198187E+03 -0.12594591873E+03  0.29650765682E+03  0.10100000352E+00 0. -1.
</event>
<event>
 5   0  0.7241200E-03  0.9531699E+03  0.7818609E-02  0.9361453E-01
       -1   -1    0    0    0  501  0.00000000000E+00  0.00000000000E+00  0.19310843174E+03  0.19310843180E+03  0.50400001928E-02 0.  1.
        1   -1    0    0  501    0  0.00000000000E+00  0.00000000000E+00 -0.11761952800E+04  0.11761952800E+04  0.50400001928E-02 0. -1.
    10030    2    1    2    0    0  0.00000000000E+00  0.00000000000E+00 -0.98308684828E+03  0.13693037118E+04  0.95316992398E+03 0.  0.
        4    1    3    3  502    0 -0.28007563625E+03 -0.12845510454E+03 -0.10138510340E+04  0.10596407920E+04  0.12699999809E+01 0. -1.
       -4    1    3    3    0  502  0.28007563625E+03  0.12845510454E+03  0.30764185768E+02  0.30966291985E+03  0.12699999809E+01 0.  1.
</event>
<event>
 5   0  0.7241200E-03  0.9999504E+03  0.7818609E-02  0.9308599E-01
        1   -1    0    0  501    0  0.00000000000E+00  0.00000000000E+00  0.98413727041E+03  0.98413727042E+03  0.50400001928E-02 0.  1.
       -1   -1    0    0    0  501  0.00000000000E+00  0.00000000000E+00 -0.25400441685E+03  0.25400441690E+03  0.50400001928E-02 0. -1.
    10030    2    1    2    0    0  0.00000000000E+00  0.00000000000E+00  0.73013285356E+03  0.12381416873E+04  0.99995042579E+03 0.  0.
        4    1    3    3  502    0  0.33840018003E+03  0.24305951842E+03  0.70726998108E+03  0.82086847325E+03  0.12699999809E+01 0.  1.
       -4    1    3    3    0  502 -0.33840018003E+03 -0.24305951842E+03  0.22862872481E+02  0.41727321407E+03  0.12699999809E+01 0. -1.
</event>
<event>
 5   0  0.7241200E-03  0.1060599E+04  0.7818609E-02  0.9244470E-01
        1   -1    0    0  501    0  0.00000000000E+00  0.00000000000E+00  0.80232610325E+03  0.80232610326E+03  0.50400001928E-02 0.  1.
       -1   -1    0    0    0  501  0.00000000000E+00  0.00000000000E+00 -0.35050252892E+03  0.35050252896E+03  0.50400001928E-02 0. -1.
    10030    2    1    2    0    0  0.00000000000E+00  0.00000000000E+00  0.45182357432E+03  0.11528286322E+04  0.10605985635E+04 0.  0.
        4    1    3    3  502    0  0.40289106543E+02  0.97522077582E+02 -0.33897510599E+03  0.35502042632E+03  0.12699999809E+01 0. -1.
       -4    1    3    3    0  502 -0.40289106543E+02 -0.97522077582E+02  0.79079868031E+03  0.79780820590E+03  0.12699999809E+01 0.  1.
</event>
<event>
 5   0  0.1216322E-02  0.1000454E+04  0.7818609E-02  0.9308047E-01
        2   -1    0    0  501    0  0.00000000000E+00  0.00000000000E+00  0.25115295281E+03  0.25115295283E+03  0.25500000920E-02 0.  1.
       -2   -1    0    0    0  501  0.00000000000E+00  0.00000000000E+00 -0.99631380431E+03  0.99631380431E+03  0.25500000920E-02 0. -1.
    10030    2    1    2    0    0  0.00000000000E+00  0.00000000000E+00 -0.74516085149E+03  0.12474667571E+04  0.10004542046E+04 0.  0.
        2    1    3    3  502    0  0.11207865985E+03 -0.24413660253E+03 -0.89874114698E+03  0.93802982680E+03  0.25500000920E-02 0. -1.
       -2    1    3    3    0  502 -0.11207865985E+03  0.24413660253E+03  0.15358029549E+03  0.30943693034E+03  0.25500000920E-02 0.  1.
</event>
<event>
 5   0  0.1191822E-02  0.1094886E+04  0.7818609E-02  0.9210191E-01
        2   -1    0    0  501    0  0.00000000000E+00  0.00000000000E+00  0.63009103376E+03  0.63009103377E+03  0.25500000920E-02 0.  1.
       -2   -1    0    0    0  501  0.00000000000E+00  0.00000000000E+00 -0.47563589708E+03  0.47563589708E+03  0.25500000920E-02 0. -1.
    10030    2    1    2    0    0  0.00000000000E+00  0.00000000000E+00  0.15445513668E+03  0.11057269308E+04  0.10948861385E+04 0.  0.
        4    1    3    3  502    0 -0.49659548284E+03  0.21233447653E+03 -0.13096784637E+02  0.54024637173E+03  0.12699999809E+01 0. -1.
       -4    1    3    3    0  502  0.49659548284E+03 -0.21233447653E+03  0.16755192132E+03  0.56548055912E+03  0.12699999809E+01 0.  1.
</event>
<event>
 5   0  0.1245850E-02  0.9893319E+03  0.7818609E-02  0.9320323E-01
       -2   -1    0    0    0  501  0.00000000000E+00  0.00000000000E+00  0.17818393627E+03  0.17818393629E+03  0.25500000920E-02 0. -1.
        2   -1    0    0  501    0  0.00000000000E+00  0.00000000000E+00 -0.13732684686E+04  0.13732684686E+04  0.25500000920E-02 0.  1.
    10030    2    1    2    0    0  0.00000000000E+00  0.00000000000E+00 -0.11950845323E+04  0.15514524049E+04  0.98933185797E+03 0.  0.
        3    1    3    3  502    0  0.98270339337E+02 -0.33545804795E+03 -0.11464176344E+04  0.11985251621E+04  0.10100000352E+00 0. -1.
       -3    1    3    3    0  502 -0.98270339337E+02  0.33545804795E+03 -0.48666897903E+02  0.35292724276E+03  0.10100000352E+00 0.  1.
</event>
<event>
 5   0  0.7224879E-03  0.1152824E+04  0.7818609E-02  0.9155182E-01
        1   -1    0    0  501    0  0.00000000000E+00  0.00000000000E+00  0.98184002283E+03  0.98184002284E+03  0.50400001928E-02 0.  1.
       -1   -1    0    0    0  501  0.00000000000E+00  0.00000000000E+00 -0.33839619813E+03  0.33839619817E+03  0.50400001928E-02 0. -1.
    10030    2    1    2    0    0  0.00000000000E+00  0.00000000000E+00  0.64344382470E+03  0.13202362210E+04  0.11528242380E+04 0.  0.
        3    1    3    3  502    0 -0.54721034649E+03 -0.17445809573E+03  0.37754626136E+03  0.68732523607E+03  0.10100000352E+00 0. -1.
       -3    1    3    3    0  502  0.54721034649E+03  0.17445809573E+03  0.26589756334E+03  0.63291098494E+03  0.10100000352E+00 0.  1.
</event>
<event>
 5   0  0.1221315E-02  0.1004263E+04  0.7818609E-02  0.9303881E-01
       -2   -1    0    0    0  501  0.00000000000E+00  0.00000000000E+00  0.10071150454E+03  0.10071150457E+03  0.25500000920E-02 0. -1.
        2   -1    0    0  501    0  0.00000000000E+00  0.00000000000E+00 -0.25035479930E+04  0.25035479930E+04  0.25500000920E-02 0.  1.
    10030    2    1    2    0    0  0.00000000000E+00  0.00000000000E+00 -0.24028364884E+04  0.26042594975E+04  0.10042630833E+04 0.  0.
        5    1    3    3  502    0  0.20036133286E+03  0.37580893452E+03 -0.51171859728E+03  0.66577400953E+03  0.46999998093E+01 0. -1.
       -5    1    3    3    0  502 -0.20036133286E+03 -0.37580893452E+03 -0.18911178912E+04  0.19384854880E+04  0.46999998093E+01 0.  1.
</event>
<event>
 5   0  0.4782125E-03  0.9944371E+03  0.7818609E-02  0.9314667E-01
        3   -1    0    0  501    0  0.00000000000E+00  0.00000000000E+00  0.12786052156E+04  0.12786052195E+04  0.10100000352E+00 0. -1.
       -3   -1    0    0    0  501  0.00000000000E+00  0.00000000000E+00 -0.19335622108E+03  0.19335624746E+03  0.10100000352E+00 0.  1.
    10030    2    1    2    0    0  0.00000000000E+00  0.00000000000E+00  0.10852489945E+04  0.14719614670E+04  0.99443711733E+03 0.  0.
        3    1    3    3  502    0  0.29435584748E+03  0.98498299616E+02  0.11175790546E+04  0.11598837155E+04  0.10100000352E+00 0. -1.
       -3    1    3    3    0  502 -0.29435584748E+03 -0.98498299616E+02 -0.32330060160E+02  0.31207775147E+03  0.10100000352E+00 0.  1.
</event>
<event>
 5   0  0.1216322E-02  0.9976899E+03  0.7818609E-02  0.9311082E-01
       -2   -1    0    0    0  501  0.00000000000E+00  0.00000000000E+00  0.17614019953E+03  0.17614019954E+03  0.25500000920E-02 0. -1.
        2   -1    0    0  501    0  0.00000000000E+00  0.00000000000E+00 -0.14127738272E+04  0.14127738272E+04  0.25500000920E-02 0.  1.
    10030    2    1    2    0    0  0.00000000000E+00  0.00000000000E+00 -0.12366336277E+04  0.15889140268E+04  0.99768985928E+03 0.  0.
        2    1    3    3  502    0 -0.34032031240E+03  0.32734449425E+03 -0.36214222508E+03  0.59507925870E+03  0.25500000920E-02 0. -1.
       -2    1    3    3    0  502  0.34032031240E+03 -0.32734449425E+03 -0.87449140261E+03  0.99383476806E+03  0.25500000920E-02 0.  1.
</event>
<event>
 5   0  0.7224879E-03  0.9986432E+03  0.7818609E-02  0.9310034E-01
        1   -1    0    0  501    0  0.00000000000E+00  0.00000000000E+00  0.28964825662E+03  0.28964825667E+03  0.50400001928E-02 0.  1.
       -1   -1    0    0    0  501  0.00000000000E+00  0.00000000000E+00 -0.86077536170E+03  0.86077536172E+03  0.50400001928E-02 0. -1.
    10030    2    1    2    0    0  0.00000000000E+00  0.00000000000E+00 -0.57112710508E+03  0.11504236184E+04  0.99864324540E+03 0.  0.
        3    1    3    3  502    0 -0.18002454717E+03 -0.28444542370E+03  0.13927441132E+03  0.36430126063E+03  0.10100000352E+00 0.  1.
       -3    1    3    3    0  502  0.18002454717E+03  0.28444542370E+03 -0.71040151640E+03  0.78612235775E+03  0.10100000352E+00 0. -1.
</event>
<event>
 5   0  0.1221315E-02  0.1012644E+04  0.7818609E-02  0.9294785E-01
       -2   -1    0    0    0  501  0.00000000000E+00  0.00000000000E+00  0.18333499037E+03  0.18333499039E+03  0.25500000920E-02 0.  1.
        2   -1    0    0  501    0  0.00000000000E+00  0.00000000000E+00 -0.13983258143E+04  0.13983258143E+04  0.25500000920E-02 0. -1.
    10030    2    1    2    0    0  0.00000000000E+00  0.00000000000E+00 -0.12149908240E+04  0.15816608047E+04  0.10126441620E+04 0.  0.
        5    1    3    3  502    0  0.29048701439E+02 -0.32280976513E+03 -0.12150168163E+04  0.12575125945E+04  0.46999998093E+01 0. -1.
       -5    1    3    3    0  502 -0.29048701439E+02  0.32280976513E+03  0.25992297985E-01  0.32414821023E+03  0.46999998093E+01 0.  1.
</event>
<event>
 5   0  0.6967681E-03  0.9873396E+03  0.7818609E-02  0.9322541E-01
       -1   -1    0    0    0  501  0.00000000000E+00  0.00000000000E+00  0.49836922908E+03  0.49836922910E+03  0.50400001928E-02 0. -1.
        1   -1    0    0  501    0  0.00000000000E+00  0.00000000000E+00 -0.48901467598E+03  0.48901467600E+03  0.50400001928E-02 0.  1.
    10030    2    1    2    0    0  0.00000000000E+00  0.00000000000E+00  0.93545530982E+01  0.98738390511E+03  0.98733959122E+03 0.  0.
        5    1    3    3  502    0  0.10914598839E+03 -0.47975195141E+03  0.44841193513E+02  0.49407246867E+03  0.46999998093E+01 0.  1.
       -5    1    3    3    0  502 -0.10914598839E+03  0.47975195141E+03 -0.35486640415E+02  0.49331143643E+03  0.46999998093E+01 0. -1.
</event>
<event>
 5   0  0.1221315E-02  0.1004071E+04  0.7818609E-02  0.9304091E-01
        2   -1    0    0  501    0  0.00000000000E+00  0.00000000000E+00  0.97291440869E+03  0.97291440869E+03  0.25500000920E-02 0.  1.
       -2   -1    0    0    0  501  0.00000000000E+00  0.00000000000E+00 -0.25905640718E+03  0.25905640720E+03  0.25500000920E-02 0. -1.
    10030    2    1    2    0    0  0.00000000000E+00  0.00000000000E+00  0.71385800150E+03  0.12319708159E+04  0.10040711354E+04 0.  0.
        5    1    3    3  502    0  0.27223168123E+03  0.16761848365E+03  0.83183606013E+03  0.89116741707E+03  0.46999998093E+01 0.  1.
       -5    1    3    3    0  502 -0.27223168123E+03 -0.16761848365E+03 -0.11797805863E+03  0.34080339881E+03  0.46999998093E+01 0. -1.
</event>
<event>
 5   0  0.1240503E-02  0.9893434E+03  0.7818609E-02  0.9320311E-01
       -2   -1    0    0    0  501  0.00000000000E+00  0.00000000000E+00  0.43244985772E+03  0.43244985773E+03  0.25500000920E-02 0.  1.
        2   -1    0    0  501    0  0.00000000000E+00  0.00000000000E+00 -0.56584615221E+03  0.56584615221E+03  0.25500000920E-02 0. -1.
    10030    2    1    2    0    0  0.00000000000E+00  0.00000000000E+00 -0.13339629449E+03  0.99829600994E+03  0.98934339442E+03 0.  0.
        1    1    3    3  502    0 -0.29896813423E+03  0.34782960113E+03 -0.25366573619E+03  0.52413135991E+03  0.50400001928E-02 0. -1.
       -1    1    3    3    0  502  0.29896813423E+03 -0.34782960113E+03  0.12026944171E+03  0.47416465003E+03  0.50400001928E-02 0.  1.
</event>
<event>
 5   0  0.1191822E-02  0.9322810E+03  0.7818609E-02  0.9386105E-01
        2   -1    0    0  501    0  0.00000000000E+00  0.00000000000E+00  0.93882339461E+03  0.93882339461E+03  0.25500000920E-02 0. -1.
       -2   -1    0    0    0  501  0.00000000000E+00  0.00000000000E+00 -0.23144603922E+03  0.23144603923E+03  0.25500000920E-02 0.  1.
    10030    2    1    2    0    0  0.00000000000E+00  0.00000000000E+00  0.70737735539E+03  0.11702694338E+04  0.93228097957E+03 0.  0.
        4    1    3    3  502    0 -0.13970759554E+03  0.16810546150E+03 -0.16312468503E+03  0.27274334860E+03  0.12699999809E+01 0.  1.
       -4    1    3    3    0  502  0.13970759554E+03 -0.16810546150E+03  0.87050204041E+03  0.89752608525E+03  0.12699999809E+01 0. -1.
</event>
<event>
 5   0  0.7224879E-03  0.8740400E+03  0.7818609E-02  0.9458627E-01
       -1   -1    0    0    0  501  0.00000000000E+00  0.00000000000E+00  0.16120438620E+03  0.16120438628E+03  0.50400001928E-02 0.  1.
        1   -1    0    0  501    0  0.00000000000E+00  0.00000000000E+00 -0.11847475352E+04  0.11847475352E+04  0.50400001928E-02 0. -1.
    10030    2    1    2    0    0  0.00000000000E+00  0.00000000000E+00 -0.10235431490E+04  0.13459519215E+04  0.87404004318E+03 0.  0.
        3    1    3    3  502    0  0.15224186403E+02  0.42490210863E+02 -0.11811486814E+04  0.11820107493E+04  0.10100000352E+00 0. -1.
       -3    1    3    3    0  502 -0.15224186403E+02 -0.42490210863E+02  0.15760553240E+03  0.16394117212E+03  0.10100000352E+00 0.  1.
</event>
<event>
 5   0  0.7241200E-03  0.9926365E+03  0.7818609E-02  0.9316658E-01
        1   -1    0    0  501    0  0.00000000000E+00  0.00000000000E+00  0.74452083268E+03  0.74452083269E+03  0.50400001928E-02 0. -1.
       -1   -1    0    0    0  501  0.00000000000E+00  0.00000000000E+00 -0.33085954838E+03  0.33085954841E+03  0.50400001928E-02 0.  1.
    10030    2    1    2    0    0  0.00000000000E+00  0.00000000000E+00  0.41366128430E+03  0.10753803811E+04  0.99263654272E+03 0.  0.
        4    1    3    3  502    0 -0.20862772985E+02  0.36664053992E+03  0.56853206154E+03  0.67682409731E+03  0.12699999809E+01 0. -1.
       -4    1    3    3    0  502  0.20862772985E+02 -0.36664053992E+03 -0.15487077724E+03  0.39855628379E+03  0.12699999809E+01 0.  1.
</event>
<event>
 5   0  0.1240503E-02  0.1039802E+04  0.7818609E-02  0.9265937E-01
        2   -1    0    0  501    0  0.00000000000E+00  0.00000000000E+00  0.69592927372E+03  0.69592927372E+03  0.25500000920E-02 0. -1.
       -2   -1    0    0    0  501  0.00000000000E+00  0.00000000000E+00 -0.38839717945E+03  0.38839717946E+03  0.25500000920E-02 0.  1.
    10030    2    1    2    0    0  0.00000000000E+00  0.00000000000E+00  0.30753209427E+03  0.10843264532E+04  0.10398018408E+04 0.  0.
        1    1    3    3  502    0 -0.15418672926E+03  0.48008508620E+03  0.28584544054E+03  0.57962302695E+03  0.50400001928E-02 0.  1.
       -1    1    3    3    0  502  0.15418672926E+03 -0.48008508620E+03  0.21686653731E+02  0.50470342623E+03  0.50400001928E-02 0. -1.
</event>
<event>
 5   0  0.7073004E-03  0.1027813E+04  0.7818609E-02  0.9278555E-01
       -1   -1    0    0    0  501  0.00000000000E+00  0.00000000000E+00  0.33556000585E+03  0.33556000588E+03  0.50400001928E-02 0.  1.
        1   -1    0    0  501    0  0.00000000000E+00  0.00000000000E+00 -0.78704224616E+03  0.78704224617E+03  0.50400001928E-02 0. -1.
    10030    2    1    2    0    0  0.00000000000E+00  0.00000000000E+00 -0.45148224031E+03  0.11226022521E+04  0.10278130195E+04 0.  0.
        1    1    3    3  502    0  0.12802471138E+03  0.20404896489E+03  0.27007765378E+03  0.36189535213E+03  0.50400001928E-02 0.  1.
       -1    1    3    3    0  502 -0.12802471138E+03 -0.20404896489E+03 -0.72155989410E+03  0.76070689992E+03  0.50400001928E-02 0. -1.
</event>
<event>
 5   0  0.1191822E-02  0.1000435E+04  0.7818609E-02  0.9308067E-01
       -2   -1    0    0    0  501  0.00000000000E+00  0.00000000000E+00  0.33220012208E+03  0.33220012209E+03  0.25500000920E-02 0.  1.
        2   -1    0    0  501    0  0.00000000000E+00  0.00000000000E+00 -0.75321383519E+03  0.75321383519E+03  0.25500000920E-02 0. -1.
    10030    2    1    2    0    0  0.00000000000E+00  0.00000000000E+00 -0.42101371311E+03  0.10854139573E+04  0.10004353612E+04 0.  0.
        4    1    3    3  502    0  0.23247213943E+03 -0.27741922482E+03  0.16409096700E+03  0.39740681960E+03  0.12699999809E+01 0.  1.
       -4    1    3    3    0  502 -0.23247213943E+03  0.27741922482E+03 -0.58510468011E+03  0.68800713768E+03  0.12699999809E+01 0. -1.
</event>
<event>
 5   0  0.1221315E-02  0.1027718E+04  0.7818609E-02  0.9278656E-01
        2   -1    0    0  501    0  0.00000000000E+00  0.00000000000E+00  0.19241212439E+04  0.19241212439E+04  0.25500000920E-02 0. -1.
       -2   -1    0    0    0  501  0.00000000000E+00  0.00000000000E+00 -0.13723207468E+03  0.13723207470E+03  0.25500000920E-02 0.  1.
    10030    2    1    2    0    0  0.00000000000E+00  0.00000000000E+00  0.17868891692E+04  0.20613533186E+04  0.10277181525E+04 0.  0.
        5    1    3    3  502    0  0.48010473145E+03  0.19652917660E+02  0.52829607337E+03  0.71414677866E+03  0.46999998093E+01 0.  1.
       -5    1    3    3    0  502 -0.48010473145E+03 -0.19652917660E+02  0.12585930958E+04  0.13472065399E+04  0.46999998093E+01 0. -1.
</event>
<event>
 5   0  0.1221315E-02  0.9816198E+03  0.7818609E-02  0.9328937E-01
       -2   -1    0    0    0  501  0.00000000000E+00  0.00000000000E+00  0.21395035752E+03  0.21395035753E+03  0.25500000920E-02 0. -1.
        2   -1    0    0  501    0  0.00000000000E+00  0.00000000000E+00 -0.11259357581E+04  0.11259357581E+04  0.25500000920E-02 0.  1.
    10030    2    1    2    0    0  0.00000000000E+00  0.00000000000E+00 -0.91198540062E+03  0.13398861157E+04  0.98161980014E+03 0.  0.
        5    1    3    3  502    0  0.19783002525E+02 -0.44963454562E+03 -0.72315724195E+03  0.85178699121E+03  0.46999998093E+01 0.  1.
       -5    1    3    3    0  502 -0.19783002525E+02  0.44963454562E+03 -0.18882815866E+03  0.48809912447E+03  0.46999998093E+01 0. -1.
</event>
<event>
 5   0  0.7241200E-03  0.9971682E+03  0.7818609E-02  0.9311656E-01
        1   -1    0    0  501    0  0.00000000000E+00  0.00000000000E+00  0.61199003021E+03  0.61199003023E+03  0.50400001928E-02 0.  1.
       -1   -1    0    0    0  501  0.00000000000E+00  0.00000000000E+00 -0.40619309697E+03  0.40619309700E+03  0.50400001928E-02 0. -1.
    10030    2    1    2    0    0  0.00000000000E+00  0.00000000000E+00  0.20579693325E+03  0.10181831272E+04  0.99716824200E+03 0.  0.
        4    1    3    3  502    0  0.10243754965E+03 -0.25604381079E+03  0.52702268892E+03  0.59481628438E+03  0.12699999809E+01 0.  1.
       -4    1    3    3    0  502 -0.10243754965E+03  0.25604381079E+03 -0.32122575568E+03  0.42336684286E+03  0.12699999809E+01 0. -1.
</event>
<event>
 5   0  0.7241200E-03  0.9684891E+03  0.7818609E-02  0.9343797E-01
        1   -1    0    0  501    0  0.00000000000E+00  0.00000000000E+00  0.56251285185E+03  0.56251285188E+03  0.50400001928E-02 0. -1.
       -1   -1    0    0    0  501  0.00000000000E+00  0.00000000000E+00 -0.41686652407E+03  0.41686652410E+03  0.50400001928E-02 0.  1.
    10030    2    1    2    0    0  0.00000000000E+00  0.00000000000E+00  0.14564632779E+03  0.97937937597E+03  0.96848908579E+03 0.  0.
        4    1    3    3  502    0 -0.41586285069E+03 -0.19926995913E+03  0.22227108228E+03  0.51191451837E+03  0.12699999809E+01 0. -1.
       -4    1    3    3    0  502  0.41586285069E+03  0.19926995913E+03 -0.76624754494E+02  0.46746485761E+03  0.12699999809E+01 0.  1.
</event>
<event>
 5   0  0.4782125E-03  0.1029760E+04  0.7818609E-02  0.9276494E-01
        3   -1    0    0  501    0  0.00000000000E+00  0.00000000000E+00  0.47325603841E+03  0.47325604919E+03  0.10100000352E+00 0. -1.
       -3   -1    0    0    0  501  0.00000000000E+00  0.00000000000E+00 -0.56016438512E+03  0.56016439422E+03  0.10100000352E+00 0.  1.
    10030    2    1    2    0    0  0.00000000000E+00  0.00000000000E+00 -0.86908346707E+02  0.10334204434E+04  0.10297595603E+04 0.  0.
        1    1    3    3  502    0  0.27214963002E+03 -0.26865465418E+03  0.30253291301E+03  0.48761348199E+03  0.50400001928E-02 0. -1.
       -1    1    3    3    0  502 -0.27214963002E+03  0.26865465418E+03 -0.38944125972E+03  0.54580696142E+03  0.50400001928E-02 0.  1.
</event>
<event>
 5   0  0.7073004E-03  0.9159774E+03  0.7818609E-02  0.9405826E-01
        1   -1    0    0  501    0  0.00000000000E+00  0.00000000000E+00  0.11385258073E+04  0.11385258074E+04  0.50400001928E-02 0.  1.
       -1   -1    0    0    0  501  0.00000000000E+00  0.00000000000E+00 -0.18423267297E+03  0.18423267304E+03  0.50400001928E-02 0. -1.
    10030    2    1    2    0    0  0.00000000000E+00  0.00000000000E+00  0.95429313437E+03  0.13227584804E+04  0.91597740754E+03 0.  0.
        1    1    3    3  502    0  0.44853178349E+03  0.63904150954E+01  0.34375677241E+03  0.56514627913E+03  0.50400001928E-02 0. -1.
       -1    1    3    3    0  502 -0.44853178349E+03 -0.63904150954E+01  0.61053636196E+03  0.75761220126E+03  0.50400001928E-02 0.  1.
</event>
<event>
 5   0  0.1221315E-02  0.1001657E+04  0.7818609E-02  0.9306729E-01
       -2   -1    0    0    0  501  0.00000000000E+00  0.00000000000E+00  0.27406093639E+03  0.27406093640E+03  0.25500000920E-02 0. -1.
        2   -1    0    0  501    0  0.00000000000E+00  0.00000000000E+00 -0.91523170713E+03  0.91523170713E+03  0.25500000920E-02 0.  1.
    10030    2    1    2    0    0  0.00000000000E+00  0.00000000000E+00 -0.64117077074E+03  0.11892926435E+04  0.10016571443E+04 0.  0.
        5    1    3    3  502    0 -0.16983966262E+03  0.46780428162E+02 -0.87720313873E+03  0.89472976706E+03  0.46999998093E+01 0.  1.
       -5    1    3    3    0  502  0.16983966262E+03 -0.46780428162E+02  0.23603236800E+03  0.29456287648E+03  0.46999998093E+01 0. -1.
</event>
<event>
 5   0  0.1191822E-02  0.1008889E+04  0.7818609E-02  0.9298848E-01
        2   -1    0    0  501    0  0.00000000000E+00  0.00000000000E+00  0.24113281357E+03  0.24113281359E+03  0.25500000920E-02 0. -1.
       -2   -1    0    0    0  501  0.00000000000E+00  0.00000000000E+00 -0.10552876854E+04  0.10552876854E+04  0.25500000920E-02 0.  1.
    10030    2    1    2    0    0  0.00000000000E+00  0.00000000000E+00 -0.81415487182E+03  0.12964204990E+04  0.10088894661E+04 0.  0.
        4    1    3    3  502    0 -0.21803450178E+03 -0.23316858265E+03 -0.90897755139E+03  0.96340460542E+03  0.12699999809E+01 0.  1.
       -4    1    3    3    0  502  0.21803450178E+03  0.23316858265E+03  0.94822679575E+02  0.33301589357E+03  0.12699999809E+01 0. -1.
</event>
<event>
 5   0  0.1240503E-02  0.9975551E+03  0.7818609E-02  0.9311230E-01
        2   -1    0    0  501    0  0.00000000000E+00  0.00000000000E+00  0.49672869725E+03  0.49672869725E+03  0.25500000920E-02 0. -1.
       -2   -1    0    0    0  501  0.00000000000E+00  0.00000000000E+00 -0.50083484185E+03  0.50083484186E+03  0.25500000920E-02 0.  1.
    10030    2    1    2    0    0  0.00000000000E+00  0.00000000000E+00 -0.41061446087E+01  0.99756353911E+03  0.99755508827E+03 0.  0.
        1    1    3    3  502    0  0.13663469568E+03  0.47957194774E+03  0.89354415607E+01  0.49873653893E+03  0.50400001928E-02 0.  1.
       -1    1    3    3    0  502 -0.13663469568E+03 -0.47957194774E+03 -0.13041586169E+02  0.49882700019E+03  0.50400001928E-02 0. -1.
</event>
<event>
 5   0  0.1240503E-02  0.1125218E+04  0.7818609E-02  0.9180956E-01
       -2   -1    0    0    0  501  0.00000000000E+00  0.00000000000E+00  0.20373834118E+03  0.20373834119E+03  0.25500000920E-02 0. -1.
        2   -1    0    0  501    0  0.00000000000E+00  0.00000000000E+00 -0.15536037818E+04  0.15536037818E+04  0.25500000920E-02 0.  1.
    10030    2    1    2    0    0  0.00000000000E+00  0.00000000000E+00 -0.13498654406E+04  0.17573421230E+04  0.11252175921E+04 0.  0.
        1    1    3    3  502    0 -0.42194150247E+03  0.25208458662E+01 -0.12561323939E+04  0.13251073832E+04  0.50400001928E-02 0.  1.
       -1    1    3    3    0  502  0.42194150247E+03 -0.25208458662E+01 -0.93733046760E+02  0.43223473976E+03  0.50400001928E-02 0. -1.
</event>
<event>
 5   0  0.7461157E-03  0.1003500E+04  0.7818609E-02  0.9304714E-01
        1   -1    0    0  501    0  0.00000000000E+00  0.00000000000E+00  0.89481885246E+03  0.89481885247E+03  0.50400001928E-02 0.  1.
       -1   -1    0    0    0  501  0.00000000000E+00  0.00000000000E+00 -0.28134548376E+03  0.28134548380E+03  0.50400001928E-02 0. -1.
    10030    2    1    2    0    0  0.00000000000E+00  0.00000000000E+00  0.61347336870E+03  0.11761643363E+04  0.10035003597E+04 0.  0.
        2    1    3    3  502    0  0.43692180652E+03  0.24617540551E+03  0.32527778374E+03  0.59775298569E+03  0.25500000920E-02 0.  1.
       -2    1    3    3    0  502 -0.43692180652E+03 -0.24617540551E+03  0.28819558496E+03  0.57841135059E+03  0.25500000920E-02 0. -1.
</event>
<event>
 5   0  0.6967681E-03  0.9879292E+03  0.7818609E-02  0.9321884E-01
       -1   -1    0    0    0  501  0.00000000000E+00  0.00000000000E+00  0.17953228278E+03  0.17953228285E+03  0.50400001928E-02 0.  1.
        1   -1    0    0  501    0  0.00000000000E+00  0.00000000000E+00 -0.13590928863E+04  0.13590928863E+04  0.50400001928E-02 0. -1.
    10030    2    1    2    0    0  0.00000000000E+00  0.00000000000E+00 -0.11795606035E+04  0.15386251692E+04  0.98792924535E+03 0.  0.
        5    1    3    3  502    0 -0.27046276189E+03  0.38038828476E+03 -0.33800874937E+03  0.57629624101E+03  0.46999998093E+01 0.  1.
       -5    1    3    3    0  502  0.27046276189E+03 -0.38038828476E+03 -0.84155185415E+03  0.96232892816E+03  0.46999998093E+01 0. -1.
</event>
<event>
 5   0  0.1221315E-02  0.1003814E+04  0.7818609E-02  0.9304372E-01
       -2   -1    0    0    0  501  0.00000000000E+00  0.00000000000E+00  0.36260831656E+03  0.36260831657E+03  0.25500000920E-02 0. -1.
        2   -1    0    0  501    0  0.00000000000E+00  0.00000000000E+00 -0.69471824317E+03  0.69471824317E+03  0.25500000920E-02 0.  1.
    10030    2    1    2    0    0  0.00000000000E+00  0.00000000000E+00 -0.33210992660E+03  0.10573265597E+04  0.10038139522E+04 0.  0.
        5    1    3    3  502    0 -0.32692699960E+02  0.42155305370E+03 -0.45086311998E+03  0.61812250620E+03  0.46999998093E+01 0.  1.
       -5    1    3    3    0  502  0.32692699960E+02 -0.42155305370E+03  0.11875319338E+03  0.43920405354E+03  0.46999998093E+01 0. -1.
</event>
<event>
 5   0  0.7241200E-03  0.9582716E+03  0.7818609E-02  0.9355534E-01
       -1   -1    0    0    0  501  0.00000000000E+00  0.00000000000E+00  0.10561152678E+03  0.10561152690E+03  0.50400001928E-02 0.  1.
        1   -1    0    0  501    0  0.00000000000E+00  0.00000000000E+00 -0.21737313968E+04  0.21737313968E+04  0.50400001928E-02 0. -1.
    10030    2    1    2    0    0  0.00000000000E+00  0.00000000000E+00 -0.20681198700E+04  0.22793429237E+04  0.95827155185E+03 0.  0.
        4    1    3    3  502    0 -0.19553647349E+03 -0.38355008618E+03 -0.15342689868E+04  0.15935269429E+04  0.12699999809E+01 0. -1.
       -4    1    3    3    0  502  0.19553647349E+03  0.38355008618E+03 -0.53385088319E+03  0.68581598075E+03  0.12699999809E+01 0.  1.
</event>
<event>
 5   0  0.1216322E-02  0.9263898E+03  0.7818609E-02  0.9393181E-01
        2   -1    0    0  501    0  0.00000000000E+00  0.00000000000E+00  0.52691808259E+03  0.52691808260E+03  0.25500000920E-02 0.  1.
       -2   -1    0    0    0  501  0.00000000000E+00  0.00000000000E+00 -0.40717813211E+03  0.40717813212E+03  0.25500000920E-02 0. -1.
    10030    2    1    2    0    0  0.00000000000E+00  0.00000000000E+00  0.11973995048E+03  0.93409621472E+03  0.92638981137E+03 0.  0.
        2    1    3    3  502    0  0.10198804751E+03 -0.97446333236E+02  0.50473418585E+03  0.52407437265E+03  0.25500000920E-02 0.  1.
       -2    1    3    3    0  502 -0.10198804751E+03  0.97446333236E+02 -0.38499423537E+03  0.41002184207E+03  0.25500000920E-02 0. -1.
</event>
<event>
 5   0  0.7073004E-03  0.1004367E+04  0.7818609E-02  0.9303768E-01
        1   -1    0    0  501    0  0.00000000000E+00  0.00000000000E+00  0.31413719914E+03  0.31413719918E+03  0.50400001928E-02 0.  1.
       -1   -1    0    0    0  501  0.00000000000E+00  0.00000000000E+00 -0.80279651352E+03  0.80279651353E+03  0.50400001928E-02 0. -1.
    10030    2    1    2    0    0  0.00000000000E+00  0.00000000000E+00 -0.48865931437E+03  0.11169337127E+04  0.10043669614E+04 0.  0.
        1    1    3    3  502    0 -0.38748883545E+03 -0.31114589074E+03 -0.32474511525E+03  0.59364867794E+03  0.50400001928E-02 0.  1.
       -1    1    3    3    0  502  0.38748883545E+03  0.31114589074E+03 -0.16391419912E+03  0.52328503477E+03  0.50400001928E-02 0. -1.
</event>
<event>
 5   0  0.1245850E-02  0.9648480E+03  0.7818609E-02  0.9347962E-01
       -2   -1    0    0    0  501  0.00000000000E+00  0.00000000000E+00  0.30868612831E+03  0.30868612832E+03  0.25500000920E-02 0.  1.
        2   -1    0    0  501    0  0.00000000000E+00  0.00000000000E+00 -0.75394680755E+03  0.75394680756E+03  0.25500000920E-02 0. -1.
    10030    2    1    2    0    0  0.00000000000E+00  0.00000000000E+00 -0.44526067924E+03  0.10626329359E+04  0.96484801079E+03 0.  0.
        3    1    3    3  502    0 -0.22282674084E+03 -0.31165589020E+03  0.10025754882E+03  0.39602113154E+03  0.10100000352E+00 0.  1.
       -3    1    3    3    0  502  0.22282674084E+03  0.31165589020E+03 -0.54551822806E+03  0.66661180434E+03  0.10100000352E+00 0. -1.
</event>
<event>
 5   0  0.1221315E-02  0.9681298E+03  0.7818609E-02  0.9344207E-01
       -2   -1    0    0    0  501  0.00000000000E+00  0.00000000000E+00  0.36392689042E+03  0.36392689043E+03  0.25500000920E-02 0.  1.
        2   -1    0    0  501    0  0.00000000000E+00  0.00000000000E+00 -0.64386230885E+03  0.64386230885E+03  0.25500000920E-02 0. -1.
    10030    2    1    2    0    0  0.00000000000E+00  0.00000000000E+00 -0.27993541843E+03  0.10077891993E+04  0.96812975974E+03 0.  0.
        5    1    3    3  502    0  0.33793738403E+03  0.18009991076E+02  0.22028843103E+03  0.40382560363E+03  0.46999998093E+01 0.  1.
       -5    1    3    3    0  502 -0.33793738403E+03 -0.18009991076E+02 -0.50022384946E+03  0.60396359565E+03  0.46999998093E+01 0. -1.
</event>
<event>
 5   0  0.7073004E-03  0.1024527E+04  0.7818609E-02  0.9282046E-01
        1   -1    0    0  501    0  0.00000000000E+00  0.00000000000E+00  0.12642070557E+04  0.12642070557E+04  0.50400001928E-02 0. -1.
       -1   -1    0    0    0  501  0.00000000000E+00  0.00000000000E+00 -0.20757189437E+03  0.20757189443E+03  0.50400001928E-02 0.  1.
    10030    2    1    2    0    0  0.00000000000E+00  0.00000000000E+00  0.10566351613E+04  0.14717789501E+04  0.10245269220E+04 0.  0.
        1    1    3    3  502    0 -0.40833102489E+03  0.20864276178E+03  0.85636552001E+03  0.97140513269E+03  0.50400001928E-02 0. -1.
       -1    1    3    3    0  502  0.40833102489E+03 -0.20864276178E+03  0.20026964131E+03  0.50037381744E+03  0.50400001928E-02 0.  1.
</event>
<event>
 5   0  0.7241200E-03  0.9971906E+03  0.7818609E-02  0.9311631E-01
       -1   -1    0    0    0  501  0.00000000000E+00  0.00000000000E+00  0.30827046388E+03  0.30827046392E+03  0.50400001928E-02 0.  1.
        1   -1    0    0  501    0  0.00000000000E+00  0.00000000000E+00 -0.80642586444E+03  0.80642586445E+03  0.50400001928E-02 0. -1.
    10030    2    1    2    0    0  0.00000000000E+00  0.00000000000E+00 -0.49815540056E+03  0.11146963284E+04  0.99719060434E+03 0.  0.
        4    1    3    3  502    0  0.13667194077E+02 -0.34124575512E+03  0.15699134399E+03  0.37587677844E+03  0.12699999809E+01 0.  1.
       -4    1    3    3    0  502 -0.13667194077E+02  0.34124575512E+03 -0.65514674455E+03  0.73881954994E+03  0.12699999809E+01 0. -1.
</event>
<event>
 5   0  0.6967681E-03  0.1001028E+04  0.7818609E-02  0.9307418E-01
        1   -1    0    0  501    0  0.00000000000E+00  0.00000000000E+00  0.46920578764E+03  0.46920578767E+03  0.50400001928E-02 0. -1.
       -1   -1    0    0    0  501  0.00000000000E+00  0.00000000000E+00 -0.53391093667E+03  0.53391093669E+03  0.50400001928E-02 0.  1.
    10030    2    1    2    0    0  0.00000000000E+00  0.00000000000E+00 -0.64705149026E+02  0.10031167244E+04  0.10010276751E+04 0.  0.
        5    1    3    3  502    0 -0.80682355092E+02  0.41238519055E+03  0.24009866358E+03  0.48398413823E+03  0.46999998093E+01 0. -1.
       -5    1    3    3    0  502  0.80682355092E+02 -0.41238519055E+03 -0.30480381261E+03  0.51913258613E+03  0.46999998093E+01 0.  1.
</event>
<event>
 5   0  0.6967681E-03  0.1001404E+04  0.7818609E-02  0.9307007E-01
       -1   -1    0    0    0  501  0.00000000000E+00  0.00000000000E+00  0.39245480361E+03  0.39245480364E+03  0.50400001928E-02 0.  1.
        1   -1    0    0  501    0  0.00000000000E+00  0.00000000000E+00 -0.63880566357E+03  0.63880566359E+03  0.50400001928E-02 0. -1.
    10030    2    1    2    0    0  0.00000000000E+00  0.00000000000E+00 -0.24635085996E+03  0.10312604672E+04  0.10014037173E+04 0.  0.
        5    1    3    3  502    0  0.21968906368E+03  0.32345802886E+03  0.19886512647E+03  0.43870013638E+03  0.46999998093E+01 0.  1.
       -5    1    3    3    0  502 -0.21968906368E+03 -0.32345802886E+03 -0.44521598643E+03  0.59256033086E+03  0.46999998093E+01 0. -1.
</event>
<event>
 5   0  0.1221315E-02  0.1014295E+04  0.7818609E-02  0.9293004E-01
       -2   -1    0    0    0  501  0.00000000000E+00  0.00000000000E+00  0.26373067035E+03  0.26373067036E+03  0.25500000920E-02 0. -1.
        2   -1    0    0  501    0  0.00000000000E+00  0.00000000000E+00 -0.97523104887E+03  0.97523104887E+03  0.25500000920E-02 0.  1.
    10030    2    1    2    0    0  0.00000000000E+00  0.00000000000E+00 -0.71150037852E+03  0.12389617192E+04  0.10142945100E+04 0.  0.
        5    1    3    3  502    0 -0.31141531859E+03 -0.39480660838E+03 -0.27542324580E+03  0.57335138702E+03  0.46999998093E+01 0. -1.
       -5    1    3    3    0  502  0.31141531859E+03  0.39480660838E+03 -0.43607713272E+03  0.66561033222E+03  0.46999998093E+01 0.  1.
</event>
<event>
 5   0  0.1221315E-02  0.9392479E+03  0.7818609E-02  0.9377807E-01
       -2   -1    0    0    0  501  0.00000000000E+00  0.00000000000E+00  0.13083188197E+03  0.13083188200E+03  0.25500000920E-02 0. -1.
        2   -1    0    0  501    0  0.00000000000E+00  0.00000000000E+00 -0.16857257722E+04  0.16857257722E+04  0.25500000920E-02 0.  1.
    10030    2    1    2    0    0  0.00000000000E+00  0.00000000000E+00 -0.15548938902E+04  0.18165576542E+04  0.93924794446E+03 0.  0.
        5    1    3    3  502    0 -0.19222081996E+03  0.31216161788E+03 -0.20983916488E+03  0.42243139611E+03  0.46999998093E+01 0. -1.
       -5    1    3    3    0  502  0.19222081996E+03 -0.31216161788E+03 -0.13450547254E+04  0.13941262581E+04  0.46999998093E+01 0.  1.
</event>
<event>
 5   0  0.1245850E-02  0.9963207E+03  0.7818609E-02  0.9312589E-01
       -2   -1    0    0    0  501  0.00000000000E+00  0.00000000000E+00  0.54401069806E+03  0.54401069806E+03  0.25500000920E-02 0.  1.
        2   -1    0    0  501    0  0.00000000000E+00  0.00000000000E+00 -0.45617436423E+03  0.45617436424E+03  0.25500000920E-02 0. -1.
    10030    2    1    2    0    0  0.00000000000E+00  0.00000000000E+00  0.87836333822E+02  0.10001850623E+04  0.99632070003E+03 0.  0.
        3    1    3    3  502    0  0.95176814635E+02 -0.24138356871E+03  0.47081933591E+03  0.53758302666E+03  0.10100000352E+00 0.  1.
       -3    1    3    3    0  502 -0.95176814635E+02  0.24138356871E+03 -0.38298300209E+03  0.46260203564E+03  0.10100000352E+00 0. -1.
</event>
<event>
 5   0  0.1221315E-02  0.9999060E+03  0.7818609E-02  0.9308648E-01
       -2   -1    0    0    0  501  0.00000000000E+00  0.00000000000E+00  0.45778445594E+03  0.45778445595E+03  0.25500000920E-02 0. -1.
        2   -1    0    0  501    0  0.00000000000E+00  0.00000000000E+00 -0.54600583984E+03  0.54600583985E+03  0.25500000920E-02 0.  1.
    10030    2    1    2    0    0  0.00000000000E+00  0.00000000000E+00 -0.88221383901E+02  0.10037902958E+04  0.99990596826E+03 0.  0.
        5    1    3    3  502    0  0.45263494116E+03 -0.15992928380E+03  0.95984755011E+02  0.48958240264E+03  0.46999998093E+01 0. -1.
       -5    1    3    3    0  502 -0.45263494116E+03  0.15992928380E+03 -0.18420613891E+03  0.51420789316E+03  0.46999998093E+01 0.  1.
</event>
<event>
 5   0  0.7461157E-03  0.9836697E+03  0.7818609E-02  0.9326639E-01
       -1   -1    0    0    0  501  0.00000000000E+00  0.00000000000E+00  0.23348083233E+03  0.23348083238E+03  0.50400001928E-02 0.  1.
        1   -1    0    0  501    0  0.00000000000E+00  0.00000000000E+00 -0.10360657824E+04  0.10360657824E+04  0.50400001928E-02 0. -1.
    10030    2    1    2    0    0  0.00000000000E+00  0.00000000000E+00 -0.80258495004E+03  0.12695466148E+04  0.98366966255E+03 0.  0.
        2    1    3    3  502    0 -0.22251659972E+03  0.30662360196E+03  0.34980482754E+01  0.37887188703E+03  0.25500000920E-02 0.  1.
       -2    1    3    3    0  502  0.22251659972E+03 -0.30662360196E+03 -0.80608299831E+03  0.89067472772E+03  0.25500000920E-02 0. -1.
</event>
<event>
 5   0  0.1245850E-02  0.9769513E+03  0.7818609E-02  0.9334192E-01
       -2   -1    0    0    0  501  0.00000000000E+00  0.00000000000E+00  0.16065527816E+03  0.16065527818E+03  0.25500000920E-02 0. -1.
        2   -1    0    0  501    0  0.00000000000E+00  0.00000000000E+00 -0.14852200633E+04  0.14852200633E+04  0.25500000920E-02 0.  1.
    10030    2    1    2    0    0  0.00000000000E+00  0.00000000000E+00 -0.13245647851E+04  0.16458753414E+04  0.97695126267E+03 0.  0.
        3    1    3    3  502    0 -0.41150424457E+03 -0.54500195607E+02 -0.10960815681E+04  0.11720498406E+04  0.10100000352E+00 0.  1.
       -3    1    3    3    0  502  0.41150424457E+03  0.54500195607E+02 -0.22848321698E+03  0.47382550086E+03  0.10100000352E+00 0. -1.
</event>
<event>
 5   0  0.1191822E-02  0.9852089E+03  0.7818609E-02  0.9324918E-01
       -2   -1    0    0    0  501  0.00000000000E+00  0.00000000000E+00  0.15015554669E+03  0.15015554671E+03  0.25500000920E-02 0.  1.
        2   -1    0    0  501    0  0.00000000000E+00  0.00000000000E+00 -0.16160519328E+04  0.16160519328E+04  0.25500000920E-02 0. -1.
    10030    2    1    2    0    0  0.00000000000E+00  0.00000000000E+00 -0.14658963861E+04  0.17662074795E+04  0.98520893515E+03 0.  0.
        4    1    3    3  502    0  0.23399348189E+03  0.43264588548E+03 -0.78112334703E+03  0.92308759496E+03  0.12699999809E+01 0.  1.
       -4    1    3    3    0  502 -0.23399348189E+03 -0.43264588548E+03 -0.68477303907E+03  0.84311988455E+03  0.12699999809E+01 0. -1.
</event>
<event>
 5   0  0.1245850E-02  0.9839229E+03  0.7818609E-02  0.9326356E-01
       -2   -1    0    0    0  501  0.00000000000E+00  0.00000000000E+00  0.17341200779E+03  0.17341200781E+03  0.25500000920E-02 0. -1.
        2   -1    0    0  501    0  0.00000000000E+00  0.00000000000E+00 -0.13956706996E+04  0.13956706996E+04  0.25500000920E-02 0.  1.
    10030    2    1    2    0    0  0.00000000000E+00  0.00000000000E+00 -0.12222586918E+04  0.15690827074E+04  0.98392287959E+03 0.  0.
        3    1    3    3  502    0 -0.28307408352E+03 -0.27515132824E+03 -0.10793011995E+04  0.11492302988E+04  0.10100000352E+00 0.  1.
       -3    1    3    3    0  502  0.28307408352E+03  0.27515132824E+03 -0.14295749224E+03  0.41985240857E+03  0.10100000352E+00 0. -1.
</event>
<event>
 5   0  0.7461157E-03  0.9932557E+03  0.7818609E-02  0.9315973E-01
       -1   -1    0    0    0  501  0.00000000000E+00  0.00000000000E+00  0.65068237058E+03  0.65068237060E+03  0.50400001928E-02 0. -1.
        1   -1    0    0  501    0  0.00000000000E+00  0.00000000000E+00 -0.37904705397E+03  0.37904705401E+03  0.50400001928E-02 0.  1.
    10030    2    1    2    0    0  0.00000000000E+00  0.00000000000E+00  0.27163531660E+03  0.10297294246E+04  0.99325572874E+03 0.  0.
        2    1    3    3  502    0  0.40389596520E+03  0.17938736588E+03 -0.99057411479E+02  0.45290633526E+03  0.25500000920E-02 0.  1.
       -2    1    3    3    0  502 -0.40389596520E+03 -0.17938736588E+03  0.37069272808E+03  0.57682308935E+03  0.25500000920E-02 0. -1.
</event>
<event>
 5   0  0.1216322E-02  0.1002647E+04  0.7818609E-02  0.9305646E-01
        2   -1    0    0  501    0  0.00000000000E+00  0.00000000000E+00  0.20484185092E+04  0.20484185092E+04  0.25500000920E-02 0. -1.
       -2   -1    0    0    0  501  0.00000000000E+00  0.00000000000E+00 -0.12269231906E+03  0.12269231909E+03  0.25500000920E-02 0.  1.
    10030    2    1    2    0    0  0.00000000000E+00  0.00000000000E+00  0.19257261901E+04  0.21711108283E+04  0.10026469315E+04 0.  0.
        2    1    3    3  502    0  0.49638954815E+03 -0.55463066785E+02  0.10559109805E+04  0.11680867836E+04  0.25500000920E-02 0. -1.
       -2    1    3    3    0  502 -0.49638954815E+03  0.55463066785E+02  0.86981520961E+03  0.10030240447E+04  0.25500000920E-02 0.  1.
</event>
<event>
 5   0  0.7241200E-03  0.9972153E+03  0.7818609E-02  0.9311604E-01
       -1   -1    0    0    0  501  0.00000000000E+00  0.00000000000E+00  0.69189897813E+03  0.69189897815E+03  0.50400001928E-02 0.  1.
        1   -1    0    0  501    0  0.00000000000E+00  0.00000000000E+00 -0.35931488212E+03  0.35931488216E+03  0.50400001928E-02 0. -1.
    10030    2    1    2    0    0  0.00000000000E+00  0.00000000000E+00  0.33258409601E+03  0.10512138603E+04  0.99721532238E+03 0.  0.
        4    1    3    3  502    0 -0.14452899344E+03  0.15143248724E+03 -0.31074698940E+03  0.37468084079E+03  0.12699999809E+01 0. -1.
       -4    1    3    3    0  502  0.14452899344E+03 -0.15143248724E+03  0.64333108541E+03  0.67653301951E+03  0.12699999809E+01 0.  1.
</event>
<event>
 5   0  0.7241200E-03  0.9889577E+03  0.7818609E-02  0.9320739E-01
        1   -1    0    0  501    0  0.00000000000E+00  0.00000000000E+00  0.19755574491E+04  0.19755574491E+04  0.50400001928E-02 0.  1.
       -1   -1    0    0    0  501  0.00000000000E+00  0.00000000000E+00 -0.12376726293E+03  0.12376726304E+03  0.50400001928E-02 0. -1.
    10030    2    1    2    0    0  0.00000000000E+00  0.00000000000E+00  0.18517901862E+04  0.20993247122E+04  0.98895771064E+03 0.  0.
        4    1    3    3  502    0  0.10482654975E+03  0.26858088742E+03  0.17786640132E+04  0.18018800136E+04  0.12699999809E+01 0.  1.
       -4    1    3    3    0  502 -0.10482654975E+03 -0.26858088742E+03  0.73126172950E+02  0.29744469854E+03  0.12699999809E+01 0. -1.
</event>
<event>
 5   0  0.1191822E-02  0.9979505E+03  0.7818609E-02  0.9310796E-01
       -2   -1    0    0    0  501  0.00000000000E+00  0.00000000000E+00  0.89196854420E+03  0.89196854421E+03  0.25500000920E-02 0.  1.
        2   -1    0    0  501    0  0.00000000000E+00  0.00000000000E+00 -0.27913125692E+03  0.27913125693E+03  0.25500000920E-02 0. -1.
    10030    2    1    2    0    0  0.00000000000E+00  0.00000000000E+00  0.61283728728E+03  0.11710998011E+04  0.99795050155E+03 0.  0.
        4    1    3    3  502    0 -0.35409076697E+03  0.17397905913E+03 -0.52078370744E+02  0.39794817988E+03  0.12699999809E+01 0. -1.
       -4    1    3    3    0  502  0.35409076697E+03 -0.17397905913E+03  0.66491565803E+03  0.77315162126E+03  0.12699999809E+01 0.  1.
</event>
<event>
 5   0  0.7224879E-03  0.9853638E+03  0.7818609E-02  0.9324745E-01
       -1   -1    0    0    0  501  0.00000000000E+00  0.00000000000E+00  0.15238807590E+03  0.15238807598E+03  0.50400001928E-02 0.  1.
        1   -1    0    0  501    0  0.00000000000E+00  0.00000000000E+00 -0.15928769320E+04  0.15928769320E+04  0.50400001928E-02 0. -1.
    10030    2    1    2    0    0  0.00000000000E+00  0.00000000000E+00 -0.14404888561E+04  0.17452650080E+04  0.98536379250E+03 0.  0.
        3    1    3    3  502    0  0.30569791173E+03  0.29532058321E+03 -0.27897322561E+03  0.50842062401E+03  0.10100000352E+00 0.  1.
       -3    1    3    3    0  502 -0.30569791173E+03 -0.29532058321E+03 -0.11615156305E+04  0.12368443840E+04  0.10100000352E+00 0. -1.
</event>
<event>
 5   0  0.4782125E-03  0.9827371E+03  0.7818609E-02  0.9327684E-01
        4   -1    0    0  501    0  0.00000000000E+00  0.00000000000E+00  0.29156195386E+03  0.29156471981E+03  0.12699999809E+01 0. -1.
       -4   -1    0    0    0  501  0.00000000000E+00  0.00000000000E+00 -0.82809480240E+03  0.82809577626E+03  0.12699999809E+01 0.  1.
    10030    2    1    2    0    0  0.00000000000E+00  0.00000000000E+00 -0.53653284853E+03  0.11196604961E+04  0.98273705990E+03 0.  0.
        1    1    3    3  502    0 -0.54915723853E+02  0.48623421252E+03 -0.21726843875E+03  0.53539239877E+03  0.50400001928E-02 0. -1.
       -1    1    3    3    0  502  0.54915723853E+02 -0.48623421252E+03 -0.31926440978E+03  0.58426809731E+03  0.50400001928E-02 0.  1.
</event>
<event>
 5   0  0.1240503E-02  0.9973657E+03  0.7818609E-02  0.9311439E-01
       -2   -1    0    0    0  501  0.00000000000E+00  0.00000000000E+00  0.21308791800E+03  0.21308791801E+03  0.25500000920E-02 0.  1.
        2   -1    0    0  501    0  0.00000000000E+00  0.00000000000E+00 -0.11670514546E+04  0.11670514546E+04  0.25500000920E-02 0. -1.
    10030    2    1    2    0    0  0.00000000000E+00  0.00000000000E+00 -0.95396353663E+03  0.13801393726E+04  0.99736565948E+03 0.  0.
        1    1    3    3  502    0  0.25997908611E+02  0.10930622499E+03 -0.11493086760E+04  0.11547875020E+04  0.50400001928E-02 0. -1.
       -1    1    3    3    0  502 -0.25997908611E+02 -0.10930622499E+03  0.19534513939E+03  0.22535187060E+03  0.50400001928E-02 0.  1.
</event>
<event>
 5   0  0.1245850E-02  0.7607230E+03  0.7818609E-02  0.9618676E-01
       -2   -1    0    0    0  501  0.00000000000E+00  0.00000000000E+00  0.59240866564E+03  0.59240866565E+03  0.25500000920E-02 0. -1.
        2   -1    0    0  501    0  0.00000000000E+00  0.00000000000E+00 -0.24421465244E+03  0.24421465245E+03  0.25500000920E-02 0.  1.
    10030    2    1    2    0    0  0.00000000000E+00  0.00000000000E+00  0.34819401320E+03  0.83662331810E+03  0.76072301501E+03 0.  0.
        3    1    3    3  502    0  0.29956926709E+03  0.20980848920E+03  0.59206062265E+02  0.37049523065E+03  0.10100000352E+00 0.  1.
       -3    1    3    3    0  502 -0.29956926709E+03 -0.20980848920E+03  0.28898795094E+03  0.46612808745E+03  0.10100000352E+00 0. -1.
</event>
<event>
 5   0  0.1191822E-02  0.1131735E+04  0.7818609E-02  0.9174801E-01
        2   -1    0    0  501    0  0.00000000000E+00  0.00000000000E+00  0.64675784576E+03  0.64675784577E+03  0.25500000920E-02 0.  1.
       -2   -1    0    0    0  501  0.00000000000E+00  0.00000000000E+00 -0.49509393722E+03  0.49509393723E+03  0.25500000920E-02 0. -1.
    10030    2    1    2    0    0  0.00000000000E+00  0.00000000000E+00  0.15166390854E+03  0.11418517830E+04  0.11317347539E+04 0.  0.
        4    1    3    3  502    0  0.45475218336E+03 -0.32791499468E+03  0.15317545727E+03  0.58119886925E+03  0.12699999809E+01 0.  1.
       -4    1    3    3    0  502 -0.45475218336E+03  0.32791499468E+03 -0.15115487301E+01  0.56065291374E+03  0.12699999809E+01 0. -1.
</event>
<event>
 5   0  0.7073004E-03  0.9848051E+03  0.7818609E-02  0.9325369E-01
       -1   -1    0    0    0  501  0.00000000000E+00  0.00000000000E+00  0.63476291315E+03  0.63476291317E+03  0.50400001928E-02 0.  1.
        1   -1    0    0  501    0  0.00000000000E+00  0.00000000000E+00 -0.38196982663E+03  0.38196982666E+03  0.50400001928E-02 0. -1.
    10030    2    1    2    0    0  0.00000000000E+00  0.00000000000E+00  0.25279308652E+03  0.10167327398E+04  0.98480511760E+03 0.  0.
        1    1    3    3  502    0  0.30054164785E+03  0.19328373451E+03 -0.22337365497E+03  0.42140203355E+03  0.50400001928E-02 0. -1.
       -1    1    3    3    0  502 -0.30054164785E+03 -0.19328373451E+03  0.47616674149E+03  0.59533070628E+03  0.50400001928E-02 0.  1.
</event>
<event>
 5   0  0.1191822E-02  0.9757422E+03  0.7818609E-02  0.9335558E-01
       -2   -1    0    0    0  501  0.00000000000E+00  0.00000000000E+00  0.22481551354E+03  0.22481551356E+03  0.25500000920E-02 0. -1.
        2   -1    0    0  501    0  0.00000000000E+00  0.00000000000E+00 -0.10587268838E+04  0.10587268838E+04  0.25500000920E-02 0.  1.
    10030    2    1    2    0    0  0.00000000000E+00  0.00000000000E+00 -0.83391137028E+03  0.12835423974E+04  0.97574223666E+03 0.  0.
        4    1    3    3  502    0 -0.16746936526E+03  0.80512291804E+02 -0.10103521302E+04  0.10272980373E+04  0.12699999809E+01 0.  1.
       -4    1    3    3    0  502  0.16746936526E+03 -0.80512291804E+02  0.17644075993E+03  0.25624436013E+03  0.12699999809E+01 0. -1.
</event>
<event>
 5   0  0.7224879E-03  0.1006674E+04  0.7818609E-02  0.9301255E-01
        1   -1    0    0  501    0  0.00000000000E+00  0.00000000000E+00  0.10439546018E+04  0.10439546018E+04  0.50400001928E-02 0.  1.
       -1   -1    0    0    0  501  0.00000000000E+00  0.00000000000E+00 -0.24268112453E+03  0.24268112458E+03  0.50400001928E-02 0. -1.
    10030    2    1    2    0    0  0.00000000000E+00  0.00000000000E+00  0.80127347731E+03  0.12866357264E+04  0.10066738832E+04 0.  0.
        3    1    3    3  502    0  0.37033415927E+03  0.13504966085E+03  0.60337274969E+00  0.39419053093E+03  0.10100000352E+00 0.  1.
       -3    1    3    3    0  502 -0.37033415927E+03 -0.13504966085E+03  0.80067010456E+03  0.89244519549E+03  0.10100000352E+00 0. -1.
</event>
<event>
 5   0  0.1245850E-02  0.9936904E+03  0.7818609E-02  0.9315492E-01
       -2   -1    0    0    0  501  0.00000000000E+00  0.00000000000E+00  0.30316206262E+03  0.30316206263E+03  0.25500000920E-02 0. -1.
        2   -1    0    0  501    0  0.00000000000E+00  0.00000000000E+00 -0.81426795986E+03  0.81426795987E+03  0.25500000920E-02 0.  1.
    10030    2    1    2    0    0  0.00000000000E+00  0.00000000000E+00 -0.51110589724E+03  0.11174300225E+04  0.99369040298E+03 0.  0.
        3    1    3    3  502    0 -0.49400525523E+03 -0.10324739892E+02 -0.31406449420E+03  0.58547784686E+03  0.10100000352E+00 0.  1.
       -3    1    3    3    0  502  0.49400525523E+03  0.10324739892E+02 -0.19704140304E+03  0.53195217563E+03  0.10100000352E+00 0. -1.
</event>
<event>
 5   0  0.1245850E-02  0.1014159E+04  0.7818609E-02  0.9293150E-01
       -2   -1    0    0    0  501  0.00000000000E+00  0.00000000000E+00  0.23197028884E+03  0.23197028886E+03  0.25500000920E-02 0.  1.
        2   -1    0    0  501    0  0.00000000000E+00  0.00000000000E+00 -0.11084599149E+04  0.11084599149E+04  0.25500000920E-02 0. -1.
    10030    2    1    2    0    0  0.00000000000E+00  0.00000000000E+00 -0.87648962609E+03  0.13404302038E+04  0.10141592905E+04 0.  0.
        3    1    3    3  502    0  0.50624789409E+03  0.16392115166E+02 -0.46991430984E+03  0.69092336804E+03  0.10100000352E+00 0. -1.
       -3    1    3    3    0  502 -0.50624789409E+03 -0.16392115166E+02 -0.40657531625E+03  0.64950683575E+03  0.10100000352E+00 0.  1.
</event>
<event>
 5   0  0.7241200E-03  0.9700890E+03  0.7818609E-02  0.9341973E-01
       -1   -1    0    0    0  501  0.00000000000E+00  0.00000000000E+00  0.29693953944E+03  0.29693953948E+03  0.50400001928E-02 0. -1.
        1   -1    0    0  501    0  0.00000000000E+00  0.00000000000E+00 -0.79231004011E+03  0.79231004012E+03  0.50400001928E-02 0.  1.
    10030    2    1    2    0    0  0.00000000000E+00  0.00000000000E+00 -0.49537050067E+03  0.10892495796E+04  0.97008902362E+03 0.  0.
        4    1    3    3  502    0 -0.11614410307E+02 -0.44393110976E+03 -0.28640839029E+02  0.44500745533E+03  0.12699999809E+01 0. -1.
       -4    1    3    3    0  502  0.11614410307E+02  0.44393110976E+03 -0.46672966164E+03  0.64424212428E+03  0.12699999809E+01 0.  1.
</event>
<event>
 5   0  0.7073004E-03  0.9629069E+03  0.7818609E-02  0.9350190E-01
        1   -1    0    0  501    0  0.00000000000E+00  0.00000000000E+00  0.24224528121E+03  0.24224528126E+03  0.50400001928E-02 0. -1.
       -1   -1    0    0    0  501  0.00000000000E+00  0.00000000000E+00 -0.95687067115E+03  0.95687067116E+03  0.50400001928E-02 0.  1.
    10030    2    1    2    0    0  0.00000000000E+00  0.00000000000E+00 -0.71462538993E+03  0.11991159524E+04  0.96290685916E+03 0.  0.
        1    1    3    3  502    0 -0.20505951800E+03  0.84038399419E+02 -0.88957902486E+03  0.91676752778E+03  0.50400001928E-02 0.  1.
       -1    1    3    3    0  502  0.20505951800E+03 -0.84038399419E+02  0.17495363493E+03  0.28234842464E+03  0.50400001928E-02 0. -1.
</event>
<event>
 5   0  0.1240503E-02  0.1014503E+04  0.7818609E-02  0.9292779E-01
       -2   -1    0    0    0  501  0.00000000000E+00  0.00000000000E+00  0.32678111040E+03  0.32678111041E+03  0.25500000920E-02 0.  1.
        2   -1    0    0  501    0  0.00000000000E+00  0.00000000000E+00 -0.78738995274E+03  0.78738995274E+03  0.25500000920E-02 0. -1.
    10030    2    1    2    0    0  0.00000000000E+00  0.00000000000E+00 -0.46060884234E+03  0.11141710632E+04  0.10145031554E+04 0.  0.
        1    1    3    3  502    0  0.39996718142E+03  0.20781005728E+03 -0.48585639734E+03  0.66273313256E+03  0.50400001928E-02 0. -1.
       -1    1    3    3    0  502 -0.39996718142E+03 -0.20781005728E+03  0.25247555000E+02  0.45143793059E+03  0.50400001928E-02 0.  1.
</event>
<event>
 5   0  0.7241200E-03  0.9980728E+03  0.7818609E-02  0.9310661E-01
       -1   -1    0    0    0  501  0.00000000000E+00  0.00000000000E+00  0.20309449880E+03  0.20309449887E+03  0.50400001928E-02 0.  1.
        1   -1    0    0  501    0  0.00000000000E+00  0.00000000000E+00 -0.12262140580E+04  0.12262140580E+04  0.50400001928E-02 0. -1.
    10030    2    1    2    0    0  0.00000000000E+00  0.00000000000E+00 -0.10231195592E+04  0.14293085569E+04  0.99807280213E+03 0.  0.
        4    1    3    3  502    0  0.60385165343E+02  0.37238672702E+02 -0.12189532165E+04  0.12210166435E+04  0.12699999809E+01 0. -1.
       -4    1    3    3    0  502 -0.60385165343E+02 -0.37238672702E+02  0.19583365728E+03  0.20829191334E+03  0.12699999809E+01 0.  1.
</event>
<event>
 5   0  0.1221315E-02  0.1012423E+04  0.7818609E-02  0.9295024E-01
        2   -1    0    0  501    0  0.00000000000E+00  0.00000000000E+00  0.11887147660E+04  0.11887147660E+04  0.25500000920E-02 0.  1.
       -2   -1    0    0    0  501  0.00000000000E+00  0.00000000000E+00 -0.21556900931E+03  0.21556900932E+03  0.25500000920E-02 0. -1.
    10030    2    1    2    0    0  0.00000000000E+00  0.00000000000E+00  0.97314575673E+03  0.14042837754E+04  0.10124229639E+04 0.  0.
        5    1    3    3  502    0 -0.12024902356E+03  0.31416573083E+02  0.11671919733E+04  0.11737998217E+04  0.46999998093E+01 0.  1.
       -5    1    3    3    0  502  0.12024902356E+03 -0.31416573083E+02 -0.19404621661E+03  0.23048395369E+03  0.46999998093E+01 0. -1.
</event>
<event>
 5   0  0.7461157E-03  0.1019196E+04  0.7818609E-02  0.9287738E-01
        1   -1    0    0  501    0  0.00000000000E+00  0.00000000000E+00  0.15987529634E+04  0.15987529634E+04  0.50400001928E-02 0. -1.
       -1   -1    0    0    0  501  0.00000000000E+00  0.00000000000E+00 -0.16243282139E+03  0.16243282146E+03  0.50400001928E-02 0.  1.
    10030    2    1    2    0    0  0.00000000000E+00  0.00000000000E+00  0.14363201420E+04  0.17611857849E+04  0.10191956723E+04 0.  0.
        2    1    3    3  502    0  0.43124246192E+03 -0.14907321365E+03  0.11102980111E+04  0.12003976664E+04  0.25500000920E-02 0. -1.
       -2    1    3    3    0  502 -0.43124246192E+03  0.14907321365E+03  0.32602213091E+03  0.56078811849E+03  0.25500000920E-02 0.  1.
</event>
<event>
 5   0  0.6967681E-03  0.9673669E+03  0.7818609E-02  0.9345079E-01
       -1   -1    0    0    0  501  0.00000000000E+00  0.00000000000E+00  0.22901889320E+03  0.22901889326E+03  0.50400001928E-02 0.  1.
        1   -1    0    0  501    0  0.00000000000E+00  0.00000000000E+00 -0.10215301309E+04  0.10215301309E+04  0.50400001928E-02 0. -1.
    10030    2    1    2    0    0  0.00000000000E+00  0.00000000000E+00 -0.79251123773E+03  0.12505490242E+04  0.96736694176E+03 0.  0.
        5    1    3    3  502    0 -0.28518602499E+03 -0.31267367933E+03 -0.93546586130E+02  0.43343852202E+03  0.46999998093E+01 0.  1.
       -5    1    3    3    0  502  0.28518602499E+03  0.31267367933E+03 -0.69896465160E+03  0.81711050218E+03  0.46999998093E+01 0. -1.
</event>
<event>
 5   0  0.7073004E-03  0.9912646E+03  0.7818609E-02  0.9318178E-01
        1   -1    0    0  501    0  0.00000000000E+00  0.00000000000E+00  0.77736137246E+03  0.77736137247E+03  0.50400001928E-02 0. -1.
       -1   -1    0    0    0  501  0.00000000000E+00  0.00000000000E+00 -0.31600669790E+03  0.31600669795E+03  0.50400001928E-02 0.  1.
    10030    2    1    2    0    0  0.00000000000E+00  0.00000000000E+00  0.46135467455E+03  0.10933680704E+04  0.99126464765E+03 0.  0.
        1    1    3    3  502    0 -0.90528615579E+02  0.42332947885E+03 -0.35528598432E+02  0.43435648865E+03  0.50400001928E-02 0.  1.
       -1    1    3    3    0  502  0.90528615579E+02 -0.42332947885E+03  0.49688327298E+03  0.65901158177E+03  0.50400001928E-02 0. -1.
</event>
<event>
 5   0  0.1221315E-02  0.9601930E+03  0.7818609E-02  0.9353315E-01
        2   -1    0    0  501    0  0.00000000000E+00  0.00000000000E+00  0.13024660956E+04  0.13024660956E+04  0.25500000920E-02 0.  1.
       -2   -1    0    0    0  501  0.00000000000E+00  0.00000000000E+00 -0.17696633796E+03  0.17696633798E+03  0.25500000920E-02 0. -1.
    10030    2    1    2    0    0  0.00000000000E+00  0.00000000000E+00  0.11254997576E+04  0.14794324336E+04  0.96019301242E+03 0.  0.
        5    1    3    3  502    0 -0.33320541660E+03 -0.97007911768E+02  0.10738434302E+04  0.11285380752E+04  0.46999998093E+01 0.  1.
       -5    1    3    3    0  502  0.33320541660E+03  0.97007911768E+02  0.51656327468E+02  0.35089435841E+03  0.46999998093E+01 0. -1.
</event>
<event>
 5   0  0.7461157E-03  0.1012497E+04  0.7818609E-02  0.9294944E-01
        1   -1    0    0  501    0  0.00000000000E+00  0.00000000000E+00  0.10832285345E+04  0.10832285345E+04  0.50400001928E-02 0. -1.
       -1   -1    0    0    0  501  0.00000000000E+00  0.00000000000E+00 -0.23659580326E+03  0.23659580332E+03  0.50400001928E-02 0.  1.
    10030    2    1    2    0    0  0.00000000000E+00  0.00000000000E+00  0.84663273127E+03  0.13198243379E+04  0.10124965685E+04 0.  0.
        2    1    3    3  502    0 -0.86526096908E+02 -0.16707958274E+03 -0.18932407052E+03  0.26691938128E+03  0.25500000920E-02 0.  1.
       -2    1    3    3    0  502  0.86526096908E+02  0.16707958274E+03  0.10359568018E+04  0.10529049566E+04  0.25500000920E-02 0. -1.
</event>
<event>
 5   0  0.7224879E-03  0.1001786E+04  0.7818609E-02  0.9306588E-01
        1   -1    0    0  501    0  0.00000000000E+00  0.00000000000E+00  0.45367453663E+03  0.45367453666E+03  0.50400001928E-02 0.  1.
       -1   -1    0    0    0  501  0.00000000000E+00  0.00000000000E+00 -0.55302574413E+03  0.55302574415E+03  0.50400001928E-02 0. -1.
    10030    2    1    2    0    0  0.00000000000E+00  0.00000000000E+00 -0.99351207493E+02  0.10067002808E+04  0.10017858019E+04 0.  0.
        3    1    3    3  502    0 -0.20684408660E+03 -0.21244079246E+03  0.35601035030E+03  0.46331301102E+03  0.10100000352E+00 0.  1.
       -3    1    3    3    0  502  0.20684408660E+03  0.21244079246E+03 -0.45536155779E+03  0.54338726979E+03  0.10100000352E+00 0. -1.
</event>
<event>
 5   0  0.1245850E-02  0.1007440E+04  0.7818609E-02  0.9300422E-01
        2   -1    0    0  501    0  0.00000000000E+00  0.00000000000E+00  0.16995565881E+04  0.16995565881E+04  0.25500000920E-02 0.  1.
       -2   -1    0    0    0  501  0.00000000000E+00  0.00000000000E+00 -0.14929420377E+03  0.14929420380E+03  0.25500000920E-02 0. -1.
    10030    2    1    2    0    0  0.00000000000E+00  0.00000000000E+00  0.15502623843E+04  0.18488507919E+04  0.10074402168E+04 0.  0.
        3    1    3    3  502    0  0.19051244506E+03  0.43332616306E+03  0.45903286876E+03  0.65937678160E+03  0.10100000352E+00 0. -1.
       -3    1    3    3    0  502 -0.19051244506E+03 -0.43332616306E+03  0.10912295155E+04  0.11894740103E+04  0.10100000352E+00 0.  1.
</event>
<event>
 5   0  0.1221315E-02  0.9954049E+03  0.7818609E-02  0.9313599E-01
        2   -1    0    0  501    0  0.00000000000E+00  0.00000000000E+00  0.88981901635E+03  0.88981901635E+03  0.25500000920E-02 0.  1.
       -2   -1    0    0    0  501  0.00000000000E+00  0.00000000000E+00 -0.27837991832E+03  0.27837991833E+03  0.25500000920E-02 0. -1.
    10030    2    1    2    0    0  0.00000000000E+00  0.00000000000E+00  0.61143909802E+03  0.11681989347E+04  0.99540493288E+03 0.  0.
        5    1    3    3  502    0 -0.17081561614E+03  0.12723747982E+03 -0.22215971829E+03  0.30780575273E+03  0.46999998093E+01 0. -1.
       -5    1    3    3    0  502  0.17081561614E+03 -0.12723747982E+03  0.83359881631E+03  0.86039318195E+03  0.46999998093E+01 0.  1.
</event>
<event>
 5   0  0.1240503E-02  0.9942509E+03  0.7818609E-02  0.9314873E-01
       -2   -1    0    0    0  501  0.00000000000E+00  0.00000000000E+00  0.38994142651E+03  0.38994142652E+03  0.25500000920E-02 0. -1.
        2   -1    0    0  501    0  0.00000000000E+00  0.00000000000E+00 -0.63377134764E+03  0.63377134764E+03  0.25500000920E-02 0.  1.
    10030    2    1    2    0    0  0.00000000000E+00  0.00000000000E+00 -0.24382992113E+03  0.10237127742E+04  0.99425088058E+03 0.  0.
        1    1    3    3  502    0  0.25833110055E+03  0.39973354754E+03  0.25907520100E+02  0.47664773802E+03  0.50400001928E-02 0. -1.
       -1    1    3    3    0  502 -0.25833110055E+03 -0.39973354754E+03 -0.26973744123E+03  0.54706503614E+03  0.50400001928E-02 0.  1.
</event>
<event>
 5   0  0.7241200E-03  0.1002822E+04  0.7818609E-02  0.9305455E-01
       -1   -1    0    0    0  501  0.00000000000E+00  0.00000000000E+00  0.27637762815E+03  0.27637762820E+03  0.50400001928E-02 0.  1.
        1   -1    0    0  501    0  0.00000000000E+00  0.00000000000E+00 -0.90967208815E+03  0.90967208816E+03  0.50400001928E-02 0. -1.
    10030    2    1    2    0    0  0.00000000000E+00  0.00000000000E+00 -0.63329446000E+03  0.11860497164E+04  0.10028220463E+04 0.  0.
        4    1    3    3  502    0 -0.53715656091E+02  0.30386198976E+03  0.15077685248E+03  0.34344250272E+03  0.12699999809E+01 0.  1.
       -4    1    3    3    0  502  0.53715656091E+02 -0.30386198976E+03 -0.78407131248E+03  0.84260721364E+03  0.12699999809E+01 0. -1.
</event>
<event>
 5   0  0.7224879E-03  0.1020777E+04  0.7818609E-02  0.9286046E-01
       -1   -1    0    0    0  501  0.00000000000E+00  0.00000000000E+00  0.59557300947E+03  0.59557300949E+03  0.50400001928E-02 0. -1.
        1   -1    0    0  501    0  0.00000000000E+00  0.00000000000E+00 -0.43738779962E+03  0.43738779965E+03  0.50400001928E-02 0.  1.
    10030    2    1    2    0    0  0.00000000000E+00  0.00000000000E+00  0.15818520985E+03  0.10329608091E+04  0.10207768966E+04 0.  0.
        3    1    3    3  502    0 -0.47609102591E+02 -0.99176631864E+02 -0.42524729097E+03  0.43924696884E+03  0.10100000352E+00 0.  1.
       -3    1    3    3    0  502  0.47609102591E+02  0.99176631864E+02  0.58343250081E+03  0.59371384030E+03  0.10100000352E+00 0. -1.
</event>
<event>
 5   0  0.7073004E-03  0.1014467E+04  0.7818609E-02  0.9292818E-01
        1   -1    0    0  501    0  0.00000000000E+00  0.00000000000E+00  0.86092305295E+03  0.86092305296E+03  0.50400001928E-02 0.  1.
       -1   -1    0    0    0  501  0.00000000000E+00  0.00000000000E+00 -0.29884893182E+03  0.29884893187E+03  0.50400001928E-02 0. -1.
    10030    2    1    2    0    0  0.00000000000E+00  0.00000000000E+00  0.56207412112E+03  0.11597719848E+04  0.10144672194E+04 0.  0.
        1    1    3    3  502    0  0.22678070630E+03  0.14939175343E+03  0.77081389943E+03  0.81725237982E+03  0.50400001928E-02 0.  1.
       -1    1    3    3    0  502 -0.22678070630E+03 -0.14939175343E+03 -0.20873977831E+03  0.34251960501E+03  0.50400001928E-02 0. -1.
</event>
<event>
 5   0  0.1216322E-02  0.9980672E+03  0.7818609E-02  0.9310667E-01
        2   -1    0    0  501    0  0.00000000000E+00  0.00000000000E+00  0.38798958376E+03  0.38798958377E+03  0.25500000920E-02 0.  1.
       -2   -1    0    0    0  501  0.00000000000E+00  0.00000000000E+00 -0.64185884012E+03  0.64185884012E+03  0.25500000920E-02 0. -1.
    10030    2    1    2    0    0  0.00000000000E+00  0.00000000000E+00 -0.25386925635E+03  0.10298484239E+04  0.99806722062E+03 0.  0.
        2    1    3    3  502    0  0.40877363236E+03  0.18048376693E+03 -0.35619019114E+03  0.57143829493E+03  0.25500000920E-02 0. -1.
       -2    1    3    3    0  502 -0.40877363236E+03 -0.18048376693E+03  0.10232093478E+03  0.45841012897E+03  0.25500000920E-02 0.  1.
</event>
<event>
 5   0  0.7073004E-03  0.1028835E+04  0.7818609E-02  0.9277472E-01
       -1   -1    0    0    0  501  0.00000000000E+00  0.00000000000E+00  0.36604699667E+03  0.36604699670E+03  0.50400001928E-02 0. -1.
        1   -1    0    0  501    0  0.00000000000E+00  0.00000000000E+00 -0.72292732849E+03  0.72292732850E+03  0.50400001928E-02 0.  1.
    10030    2    1    2    0    0  0.00000000000E+00  0.00000000000E+00 -0.35688033182E+03  0.10889743252E+04  0.10288350255E+04 0.  0.
        1    1    3    3  502    0 -0.13465067689E+03  0.96431435599E+02  0.33705567880E+03  0.37554807574E+03  0.50400001928E-02 0. -1.
       -1    1    3    3    0  502  0.13465067689E+03 -0.96431435599E+02 -0.69393601062E+03  0.71342624946E+03  0.50400001928E-02 0.  1.
</event>
<event>
 5   0  0.4782125E-03  0.1018214E+04  0.7818609E-02  0.9288790E-01
       -4   -1    0    0    0  501  0.00000000000E+00  0.00000000000E+00  0.24851461246E+03  0.24851785751E+03  0.12699999809E+01 0. -1.
        4   -1    0    0  501    0  0.00000000000E+00  0.00000000000E+00 -0.10429462430E+04  0.10429470162E+04  0.12699999809E+01 0.  1.
    10030    2    1    2    0    0  0.00000000000E+00  0.00000000000E+00 -0.79443163053E+03  0.12914648737E+04  0.10182140760E+04 0.  0.
        4    1    3    3  502    0  0.34036668341E+03  0.36342232115E+03 -0.26260731597E+03  0.56292937211E+03  0.12699999809E+01 0. -1.
       -4    1    3    3    0  502 -0.34036668341E+03 -0.36342232115E+03 -0.53182431456E+03  0.72853550163E+03  0.12699999809E+01 0.  1.
</event>
<event>
 5   0  0.7241200E-03  0.9882340E+03  0.7818609E-02  0.9321545E-01
       -1   -1    0    0    0  501  0.00000000000E+00  0.00000000000E+00  0.33650823470E+03  0.33650823473E+03  0.50400001928E-02 0.  1.
        1   -1    0    0  501    0  0.00000000000E+00  0.00000000000E+00 -0.72554420087E+03  0.72554420089E+03  0.50400001928E-02 0. -1.
    10030    2    1    2    0    0  0.00000000000E+00  0.00000000000E+00 -0.38903596618E+03  0.10620524356E+04  0.98823397687E+03 0.  0.
        4    1    3    3  502    0  0.47864017723E+02  0.32356629910E+03 -0.59253903648E+03  0.67682363786E+03  0.12699999809E+01 0. -1.
       -4    1    3    3    0  502 -0.47864017723E+02 -0.32356629910E+03  0.20350307031E+03  0.38522879777E+03  0.12699999809E+01 0.  1.
</event>
<event>
 5   0  0.1240503E-02  0.1026660E+04  0.7818609E-02  0.9279778E-01
        2   -1    0    0  501    0  0.00000000000E+00  0.00000000000E+00  0.91568962797E+03  0.91568962797E+03  0.25500000920E-02 0.  1.
       -2   -1    0    0    0  501  0.00000000000E+00  0.00000000000E+00 -0.28776988711E+03  0.28776988712E+03  0.25500000920E-02 0. -1.
    10030    2    1    2    0    0  0.00000000000E+00  0.00000000000E+00  0.62791974086E+03  0.12034595151E+04  0.10266604129E+04 0.  0.
        1    1    3    3  502    0 -0.10846636815E+03  0.13656608064E+03 -0.25197826748E+03  0.30644460300E+03  0.50400001928E-02 0. -1.
       -1    1    3    3    0  502  0.10846636815E+03 -0.13656608064E+03  0.87989800834E+03  0.89701491209E+03  0.50400001928E-02 0.  1.
</event>
<event>
 5   0  0.1245850E-02  0.1001954E+04  0.7818609E-02  0.9306404E-01
        2   -1    0    0  501    0  0.00000000000E+00  0.00000000000E+00  0.10517272659E+04  0.10517272659E+04  0.25500000920E-02 0. -1.
       -2   -1    0    0    0  501  0.00000000000E+00  0.00000000000E+00 -0.23863400062E+03  0.23863400063E+03  0.25500000920E-02 0.  1.
    10030    2    1    2    0    0  0.00000000000E+00  0.00000000000E+00  0.81309326525E+03  0.12903612665E+04  0.10019538613E+04 0.  0.
        3    1    3    3  502    0  0.39393162751E+02  0.34411261585E+03  0.87269059471E+03  0.93891117682E+03  0.10100000352E+00 0. -1.
       -3    1    3    3    0  502 -0.39393162751E+02 -0.34411261585E+03 -0.59597329459E+02  0.35145008969E+03  0.10100000352E+00 0.  1.
</event>
<event>
 5   0  0.7461157E-03  0.1003867E+04  0.7818609E-02  0.9304314E-01
        1   -1    0    0  501    0  0.00000000000E+00  0.00000000000E+00  0.40475372390E+03  0.40475372393E+03  0.50400001928E-02 0.  1.
       -1   -1    0    0    0  501  0.00000000000E+00  0.00000000000E+00 -0.62244593581E+03  0.62244593583E+03  0.50400001928E-02 0. -1.
    10030    2    1    2    0    0  0.00000000000E+00  0.00000000000E+00 -0.21769221191E+03  0.10271996598E+04  0.10038671435E+04 0.  0.
        2    1    3    3  502    0  0.17155816121E+02 -0.31595078973E+03  0.28984852207E+03  0.42910533592E+03  0.25500000920E-02 0.  1.
       -2    1    3    3    0  502 -0.17155816121E+02  0.31595078973E+03 -0.50754073398E+03  0.59809432384E+03  0.25500000920E-02 0. -1.
</event>
<event>
 5   0  0.4782125E-03  0.9860136E+03  0.7818609E-02  0.9324019E-01
        3   -1    0    0  501    0  0.00000000000E+00  0.00000000000E+00  0.22361874836E+03  0.22361877117E+03  0.10100000352E+00 0. -1.
       -3   -1    0    0    0  501  0.00000000000E+00  0.00000000000E+00 -0.10869200740E+04  0.10869200787E+04  0.10100000352E+00 0.  1.
    10030    2    1    2    0    0  0.00000000000E+00  0.00000000000E+00 -0.86330132561E+03  0.13105388498E+04  0.98601363992E+03 0.  0.
        4    1    3    3  502    0 -0.68410746105E+02  0.15771129863E+03 -0.10457903528E+04  0.10598263814E+04  0.12699999809E+01 0.  1.
       -4    1    3    3    0  502  0.68410746105E+02 -0.15771129863E+03  0.18248902715E+03  0.25071246843E+03  0.12699999809E+01 0. -1.
</event>
<event>
 5   0  0.6967681E-03  0.9825780E+03  0.7818609E-02  0.9327862E-01
        1   -1    0    0  501    0  0.00000000000E+00  0.00000000000E+00  0.23625831914E+03  0.23625831919E+03  0.50400001928E-02 0. -1.
       -1   -1    0    0    0  501  0.00000000000E+00  0.00000000000E+00 -0.10216144031E+04  0.10216144031E+04  0.50400001928E-02 0.  1.
    10030    2    1    2    0    0  0.00000000000E+00  0.00000000000E+00 -0.78535608398E+03  0.12578727223E+04  0.98257804113E+03 0.  0.
        5    1    3    3  502    0 -0.32374372552E+03  0.27545759516E+03 -0.70796518475E+03  0.82578670331E+03  0.46999998093E+01 0.  1.
       -5    1    3    3    0  502  0.32374372552E+03 -0.27545759516E+03 -0.77390899231E+02  0.43208601901E+03  0.46999998093E+01 0. -1.
</event>
<event>
 5   0  0.1221315E-02  0.9986144E+03  0.7818609E-02  0.9310066E-01
        2   -1    0    0  501    0  0.00000000000E+00  0.00000000000E+00  0.19020084462E+03  0.19020084464E+03  0.25500000920E-02 0. -1.
       -2   -1    0    0    0  501  0.00000000000E+00  0.00000000000E+00 -0.13107601520E+04  0.13107601520E+04  0.25500000920E-02 0.  1.
    10030    2    1    2    0    0  0.00000000000E+00  0.00000000000E+00 -0.11205593074E+04  0.15009609966E+04  0.99861441611E+03 0.  0.
        5    1    3    3  502    0 -0.27622824826E+03  0.33833585334E+03 -0.92385593523E+03  0.10219124590E+04  0.46999998093E+01 0.  1.
       -5    1    3    3    0  502  0.27622824826E+03 -0.33833585334E+03 -0.19670337213E+03  0.47904853762E+03  0.46999998093E+01 0. -1.
</event>
<event>
 5   0  0.1240503E-02  0.1008544E+04  0.7818609E-02  0.9299224E-01
        2   -1    0    0  501    0  0.00000000000E+00  0.00000000000E+00  0.86619169022E+03  0.86619169023E+03  0.25500000920E-02 0.  1.
       -2   -1    0    0    0  501  0.00000000000E+00  0.00000000000E+00 -0.29357256461E+03  0.29357256462E+03  0.25500000920E-02 0. -1.
    10030    2    1    2    0    0  0.00000000000E+00  0.00000000000E+00  0.57261912562E+03  0.11597642548E+04  0.10085437342E+04 0.  0.
        1    1    3    3  502    0  0.22882042800E+03  0.42752840886E+03  0.44544551228E+03  0.65845351627E+03  0.50400001928E-02 0. -1.
       -1    1    3    3    0  502 -0.22882042800E+03 -0.42752840886E+03  0.12717361334E+03  0.50131073857E+03  0.50400001928E-02 0.  1.
</event>
<event>
 5   0  0.6967681E-03  0.9956033E+03  0.7818609E-02  0.9313380E-01
       -1   -1    0    0    0  501  0.00000000000E+00  0.00000000000E+00  0.31327252225E+03  0.31327252229E+03  0.50400001928E-02 0. -1.
        1   -1    0    0  501    0  0.00000000000E+00  0.00000000000E+00 -0.79102527608E+03  0.79102527610E+03  0.50400001928E-02 0.  1.
    10030    2    1    2    0    0  0.00000000000E+00  0.00000000000E+00 -0.47775275383E+03  0.11042977984E+04  0.99560330139E+03 0.  0.
        5    1    3    3  502    0  0.39313716603E+03  0.30531650547E+03 -0.23547686850E+03  0.55067816865E+03  0.46999998093E+01 0.  1.
       -5    1    3    3    0  502 -0.39313716603E+03 -0.30531650547E+03 -0.24227588533E+03  0.55361962974E+03  0.46999998093E+01 0. -1.
</event>
<event>
 5   0  0.7241200E-03  0.1013454E+04  0.7818609E-02  0.9293910E-01
       -1   -1    0    0    0  501  0.00000000000E+00  0.00000000000E+00  0.28440516522E+03  0.28440516527E+03  0.50400001928E-02 0.  1.
        1   -1    0    0  501    0  0.00000000000E+00  0.00000000000E+00 -0.90283981043E+03  0.90283981044E+03  0.50400001928E-02 0. -1.
    10030    2    1    2    0    0  0.00000000000E+00  0.00000000000E+00 -0.61843464521E+03  0.11872449757E+04  0.10134541045E+04 0.  0.
        4    1    3    3  502    0 -0.24395772551E+03 -0.14464580389E+03  0.18271226503E+03  0.33737688882E+03  0.12699999809E+01 0.  1.
       -4    1    3    3    0  502  0.24395772551E+03  0.14464580389E+03 -0.80114691024E+03  0.84986808688E+03  0.12699999809E+01 0. -1.
</event>
<event>
 5   0  0.1191822E-02  0.1056127E+04  0.7818609E-02  0.9249042E-01
       -2   -1    0    0    0  501  0.00000000000E+00  0.00000000000E+00  0.24747643180E+03  0.24747643181E+03  0.25500000920E-02 0.  1.
        2   -1    0    0  501    0  0.00000000000E+00  0.00000000000E+00 -0.11267773201E+04  0.11267773201E+04  0.25500000920E-02 0. -1.
    10030    2    1    2    0    0  0.00000000000E+00  0.00000000000E+00 -0.87930088832E+03  0.13742537519E+04  0.10561265656E+04 0.  0.
        4    1    3    3  502    0 -0.84301822649E+01  0.38254239056E+03 -0.91319372653E+03  0.99011824729E+03  0.12699999809E+01 0. -1.
       -4    1    3    3    0  502  0.84301822649E+01 -0.38254239056E+03  0.33892838208E+02  0.38413550465E+03  0.12699999809E+01 0.  1.
</event>
<event>
 5   0  0.1240503E-02  0.1004640E+04  0.7818609E-02  0.9303470E-01
        2   -1    0    0  501    0  0.00000000000E+00  0.00000000000E+00  0.24053615569E+04  0.24053615569E+04  0.25500000920E-02 0. -1.
       -2   -1    0    0    0  501  0.00000000000E+00  0.00000000000E+00 -0.10490124324E+03  0.10490124327E+03  0.25500000920E-02 0.  1.
    10030    2    1    2    0    0  0.00000000000E+00  0.00000000000E+00  0.23004603137E+04  0.25102628002E+04  0.10046400705E+04 0.  0.
        1    1    3    3  502    0 -0.12959560401E+02  0.40414045747E+03  0.40552641866E+03  0.57266843446E+03  0.50400001928E-02 0.  1.
       -1    1    3    3    0  502  0.12959560401E+02 -0.40414045747E+03  0.18949338950E+04  0.19375943657E+04  0.50400001928E-02 0. -1.
</event>
<event>
 5   0  0.1221315E-02  0.9858209E+03  0.7818609E-02  0.9324234E-01
       -2   -1    0    0    0  501  0.00000000000E+00  0.00000000000E+00  0.39844965969E+03  0.39844965970E+03  0.25500000920E-02 0. -1.
        2   -1    0    0  501    0  0.00000000000E+00  0.00000000000E+00 -0.60976512282E+03  0.60976512282E+03  0.25500000920E-02 0.  1.
    10030    2    1    2    0    0  0.00000000000E+00  0.00000000000E+00 -0.21131546312E+03  0.10082147825E+04  0.98582088776E+03 0.  0.
        5    1    3    3  502    0  0.44296688621E+03 -0.21565468578E+03 -0.90766413995E+02  0.50098626497E+03  0.46999998093E+01 0.  1.
       -5    1    3    3    0  502 -0.44296688621E+03  0.21565468578E+03 -0.12054904913E+03  0.50722851756E+03  0.46999998093E+01 0. -1.
</event>
<event>
 5   0  0.1221315E-02  0.1004879E+04  0.7818609E-02  0.9303210E-01
        2   -1    0    0  501    0  0.00000000000E+00  0.00000000000E+00  0.23210018606E+04  0.23210018606E+04  0.25500000920E-02 0. -1.
       -2   -1    0    0    0  501  0.00000000000E+00  0.00000000000E+00 -0.10876568710E+03  0.10876568713E+03  0.25500000920E-02 0.  1.
    10030    2    1    2    0    0  0.00000000000E+00  0.00000000000E+00  0.22122361735E+04  0.24297675477E+04  0.10048788229E+04 0.  0.
        5    1    3    3  502    0 -0.44847393292E+03  0.18402981176E+03  0.14253216512E+04  0.15055097939E+04  0.46999998093E+01 0. -1.
       -5    1    3    3    0  502  0.44847393292E+03 -0.18402981176E+03  0.78691452232E+03  0.92425775386E+03  0.46999998093E+01 0.  1.
</event>
<event>
 5   0  0.1221315E-02  0.9753431E+03  0.7818609E-02  0.9336009E-01
       -2   -1    0    0    0  501  0.00000000000E+00  0.00000000000E+00  0.50111692319E+03  0.50111692319E+03  0.25500000920E-02 0.  1.
        2   -1    0    0  501    0  0.00000000000E+00  0.00000000000E+00 -0.47458694463E+03  0.47458694463E+03  0.25500000920E-02 0. -1.
    10030    2    1    2    0    0  0.00000000000E+00  0.00000000000E+00  0.26529978561E+02  0.97570386783E+03  0.97534311805E+03 0.  0.
        5    1    3    3  502    0 -0.15031970753E+03 -0.13576739391E+03 -0.43048972577E+03  0.47578597470E+03  0.46999998093E+01 0. -1.
       -5    1    3    3    0  502  0.15031970753E+03  0.13576739391E+03  0.45701970434E+03  0.49991789313E+03  0.46999998093E+01 0.  1.
</event>
<event>
 5   0  0.6967681E-03  0.9103313E+03  0.7818609E-02  0.9412758E-01
        1   -1    0    0  501    0  0.00000000000E+00  0.00000000000E+00  0.95312511458E+03  0.95312511459E+03  0.50400001928E-02 0.  1.
       -1   -1    0    0    0  501  0.00000000000E+00  0.00000000000E+00 -0.21736470705E+03  0.21736470711E+03  0.50400001928E-02 0. -1.
    10030    2    1    2    0    0  0.00000000000E+00  0.00000000000E+00  0.73576040753E+03  0.11704898217E+04  0.91033128333E+03 0.  0.
        5    1    3    3  502    0  0.17091680895E+03 -0.24816504124E+03  0.80647262712E+03  0.86094055054E+03  0.46999998093E+01 0.  1.
       -5    1    3    3    0  502 -0.17091680895E+03  0.24816504124E+03 -0.70712219598E+02  0.30954927115E+03  0.46999998093E+01 0. -1.
</event>
<event>
 5   0  0.1240503E-02  0.1011869E+04  0.7818609E-02  0.9295622E-01
       -2   -1    0    0    0  501  0.00000000000E+00  0.00000000000E+00  0.44683867131E+03  0.44683867132E+03  0.25500000920E-02 0. -1.
        2   -1    0    0  501    0  0.00000000000E+00  0.00000000000E+00 -0.57284641765E+03  0.57284641765E+03  0.25500000920E-02 0.  1.
    10030    2    1    2    0    0  0.00000000000E+00  0.00000000000E+00 -0.12600774633E+03  0.10196850890E+04  0.10118694227E+04 0.  0.
        1    1    3    3  502    0  0.12883454035E+02  0.23207939610E+03  0.38984793743E+03  0.45388131029E+03  0.50400001928E-02 0. -1.
       -1    1    3    3    0  502 -0.12883454035E+02 -0.23207939610E+03 -0.51585568377E+03  0.56580377869E+03  0.50400001928E-02 0.  1.
</event>
<event>
 5   0  0.7461157E-03  0.1014994E+04  0.7818609E-02  0.9292250E-01
       -1   -1    0    0    0  501  0.00000000000E+00  0.00000000000E+00  0.59712780109E+03  0.59712780111E+03  0.50400001928E-02 0.  1.
        1   -1    0    0  501    0  0.00000000000E+00  0.00000000000E+00 -0.43132048668E+03  0.43132048671E+03  0.50400001928E-02 0. -1.
    10030    2    1    2    0    0  0.00000000000E+00  0.00000000000E+00  0.16580731441E+03  0.10284482878E+04  0.10149944902E+04 0.  0.
        2    1    3    3  502    0 -0.76964795856E+02 -0.11341786299E+03 -0.41221039810E+03  0.43440143157E+03  0.25500000920E-02 0. -1.
       -2    1    3    3    0  502  0.76964795856E+02  0.11341786299E+03  0.57801771250E+03  0.59404685625E+03  0.25500000920E-02 0.  1.
</event>
<event>
 5   0  0.7461157E-03  0.1001575E+04  0.7818609E-02  0.9306819E-01
       -1   -1    0    0    0  501  0.00000000000E+00  0.00000000000E+00  0.73868220449E+03  0.73868220450E+03  0.50400001928E-02 0.  1.
        1   -1    0    0  501    0  0.00000000000E+00  0.00000000000E+00 -0.33950720357E+03  0.33950720360E+03  0.50400001928E-02 0. -1.
    10030    2    1    2    0    0  0.00000000000E+00  0.00000000000E+00  0.39917500092E+03  0.10781894081E+04  0.10015746195E+04 0.  0.
        2    1    3    3  502    0  0.23024837612E+03  0.30272612006E+03 -0.15110936025E+03  0.40925720181E+03  0.25500000920E-02 0. -1.
       -2    1    3    3    0  502 -0.23024837612E+03 -0.30272612006E+03  0.55028436117E+03  0.66893220630E+03  0.25500000920E-02 0.  1.
</event>
<event>
 5   0  0.7224879E-03  0.1050963E+04  0.7818609E-02  0.9254350E-01
        1   -1    0    0  501    0  0.00000000000E+00  0.00000000000E+00  0.39386769447E+03  0.39386769450E+03  0.50400001928E-02 0. -1.
       -1   -1    0    0    0  501  0.00000000000E+00  0.00000000000E+00 -0.70107489843E+03  0.70107489845E+03  0.50400001928E-02 0.  1.
    10030    2    1    2    0    0  0.00000000000E+00  0.00000000000E+00 -0.30720720396E+03  0.10949425929E+04  0.10509628993E+04 0.  0.
        3    1    3    3  502    0  0.60381219361E+02 -0.42955850587E+03 -0.46260275890E+03  0.63416695306E+03  0.10100000352E+00 0.  1.
       -3    1    3    3    0  502 -0.60381219361E+02  0.42955850587E+03  0.15539555493E+03  0.46077563988E+03  0.10100000352E+00 0. -1.
</event>
<event>
 5   0  0.1240503E-02  0.1007030E+04  0.7818609E-02  0.9300868E-01
       -2   -1    0    0    0  501  0.00000000000E+00  0.00000000000E+00  0.19035963870E+03  0.19035963871E+03  0.25500000920E-02 0. -1.
        2   -1    0    0  501    0  0.00000000000E+00  0.00000000000E+00 -0.13318339840E+04  0.13318339840E+04  0.25500000920E-02 0.  1.
    10030    2    1    2    0    0  0.00000000000E+00  0.00000000000E+00 -0.11414743453E+04  0.15221936227E+04  0.10070301605E+04 0.  0.
        1    1    3    3  502    0  0.49763885448E+03 -0.57978743166E+02 -0.49483495210E+03  0.70417866624E+03  0.50400001928E-02 0.  1.
       -1    1    3    3    0  502 -0.49763885448E+03  0.57978743166E+02 -0.64663939324E+03  0.81801495650E+03  0.50400001928E-02 0. -1.
</event>
<event>
 5   0  0.7241200E-03  0.9870771E+03  0.7818609E-02  0.9322833E-01
       -1   -1    0    0    0  501  0.00000000000E+00  0.00000000000E+00  0.14781979377E+03  0.14781979386E+03  0.50400001928E-02 0. -1.
        1   -1    0    0  501    0  0.00000000000E+00  0.00000000000E+00 -0.16478193838E+04  0.16478193838E+04  0.50400001928E-02 0.  1.
    10030    2    1    2    0    0  0.00000000000E+00  0.00000000000E+00 -0.14999995900E+04  0.17956391777E+04  0.98707714302E+03 0.  0.
        4    1    3    3  502    0 -0.11270260999E+03 -0.22610856888E+03  0.21266823803E+02  0.25353669145E+03  0.12699999809E+01 0. -1.
       -4    1    3    3    0  502  0.11270260999E+03  0.22610856888E+03 -0.15212664138E+04  0.15421024862E+04  0.12699999809E+01 0.  1.
</event>
<event>
 5   0  0.7241200E-03  0.6264410E+03  0.7818609E-02  0.9852019E-01
        1   -1    0    0  501    0  0.00000000000E+00  0.00000000000E+00  0.68856208389E+03  0.68856208390E+03  0.50400001928E-02 0.  1.
       -1   -1    0    0    0  501  0.00000000000E+00  0.00000000000E+00 -0.14248108857E+03  0.14248108866E+03  0.50400001928E-02 0. -1.
    10030    2    1    2    0    0  0.00000000000E+00  0.00000000000E+00  0.54608099532E+03  0.83104317256E+03  0.62644097983E+03 0.  0.
        4    1    3    3  502    0 -0.25203102509E+02  0.10971869041E+03 -0.11471137426E+03  0.16072865235E+03  0.12699999809E+01 0. -1.
       -4    1    3    3    0  502  0.25203102509E+02 -0.10971869041E+03  0.66079236958E+03  0.67031452021E+03  0.12699999809E+01 0.  1.
</event>
<event>
 5   0  0.6967681E-03  0.1008721E+04  0.7818609E-02  0.9299032E-01
        1   -1    0    0  501    0  0.00000000000E+00  0.00000000000E+00  0.89878809473E+03  0.89878809474E+03  0.50400001928E-02 0.  1.
       -1   -1    0    0    0  501  0.00000000000E+00  0.00000000000E+00 -0.28302481732E+03  0.28302481737E+03  0.50400001928E-02 0. -1.
    10030    2    1    2    0    0  0.00000000000E+00  0.00000000000E+00  0.61576327741E+03  0.11818129121E+04  0.10087206479E+04 0.  0.
        5    1    3    3  502    0  0.18202066459E+03 -0.36813225461E+03  0.65086993118E+03  0.76961460260E+03  0.46999998093E+01 0.  1.
       -5    1    3    3    0  502 -0.18202066459E+03  0.36813225461E+03 -0.35106653775E+02  0.41219830951E+03  0.46999998093E+01 0. -1.
</event>
<event>
 5   0  0.1216322E-02  0.1009615E+04  0.7818609E-02  0.9298062E-01
       -2   -1    0    0    0  501  0.00000000000E+00  0.00000000000E+00  0.11103595718E+03  0.11103595720E+03  0.25500000920E-02 0. -1.
        2   -1    0    0  501    0  0.00000000000E+00  0.00000000000E+00 -0.22950271232E+04  0.22950271232E+04  0.25500000920E-02 0.  1.
    10030    2    1    2    0    0  0.00000000000E+00  0.00000000000E+00 -0.21839911660E+04  0.24060630804E+04  0.10096148442E+04 0.  0.
        2    1    3    3  502    0 -0.28125707633E+03  0.31569232433E+03 -0.43473286713E+03  0.60643206742E+03  0.25500000920E-02 0.  1.
       -2    1    3    3    0  502  0.28125707633E+03 -0.31569232433E+03 -0.17492582989E+04  0.17996310130E+04  0.25500000920E-02 0. -1.
</event>
<event>
 5   0  0.1191822E-02  0.1032858E+04  0.7818609E-02  0.9273223E-01
        2   -1    0    0  501    0  0.00000000000E+00  0.00000000000E+00  0.13048239791E+04  0.13048239791E+04  0.25500000920E-02 0. -1.
       -2   -1    0    0    0  501  0.00000000000E+00  0.00000000000E+00 -0.20439442887E+03  0.20439442889E+03  0.25500000920E-02 0.  1.
    10030    2    1    2    0    0  0.00000000000E+00  0.00000000000E+00  0.11004295502E+04  0.15092184079E+04  0.10328576901E+04 0.  0.
        4    1    3    3  502    0 -0.23681557108E+01  0.22005671624E+03  0.12328759764E+04  0.12523639059E+04  0.12699999809E+01 0. -1.
       -4    1    3    3    0  502  0.23681557108E+01 -0.22005671624E+03 -0.13244642624E+03  0.25685450210E+03  0.12699999809E+01 0.  1.
</event>
<event>
 5   0  0.1221315E-02  0.9925032E+03  0.7818609E-02  0.9316806E-01
        2   -1    0    0  501    0  0.00000000000E+00  0.00000000000E+00  0.13015774435E+04  0.13015774435E+04  0.25500000920E-02 0.  1.
       -2   -1    0    0    0  501  0.00000000000E+00  0.00000000000E+00 -0.18920553322E+03  0.18920553324E+03  0.25500000920E-02 0. -1.
    10030    2    1    2    0    0  0.00000000000E+00  0.00000000000E+00  0.11123719102E+04  0.14907829767E+04  0.99250320752E+03 0.  0.
        5    1    3    3  502    0 -0.24294170882E+03  0.21346101197E+03  0.11215158679E+04  0.11672215769E+04  0.46999998093E+01 0.  1.
       -5    1    3    3    0  502  0.24294170882E+03 -0.21346101197E+03 -0.91439576613E+01  0.32356139985E+03  0.46999998093E+01 0. -1.
</event>
<event>
 5   0  0.1245850E-02  0.9718576E+03  0.7818609E-02  0.9339961E-01
        2   -1    0    0  501    0  0.00000000000E+00  0.00000000000E+00  0.56883137186E+03  0.56883137187E+03  0.25500000920E-02 0.  1.
       -2   -1    0    0    0  501  0.00000000000E+00  0.00000000000E+00 -0.41510862460E+03  0.41510862460E+03  0.25500000920E-02 0. -1.
    10030    2    1    2    0    0  0.00000000000E+00  0.00000000000E+00  0.15372274727E+03  0.98393999647E+03  0.97185762004E+03 0.  0.
        3    1    3    3  502    0 -0.23585554752E+03 -0.38054975833E+03  0.26810347523E+03  0.52184810194E+03  0.10100000352E+00 0.  1.
       -3    1    3    3    0  502  0.23585554752E+03  0.38054975833E+03 -0.11438072797E+03  0.46209189453E+03  0.10100000352E+00 0. -1.
</event>
<event>
 5   0  0.1221315E-02  0.9991290E+03  0.7818609E-02  0.9309501E-01
       -2   -1    0    0    0  501  0.00000000000E+00  0.00000000000E+00  0.12641344575E+03  0.12641344578E+03  0.25500000920E-02 0. -1.
        2   -1    0    0  501    0  0.00000000000E+00  0.00000000000E+00 -0.19741942690E+04  0.19741942690E+04  0.25500000920E-02 0.  1.
    10030    2    1    2    0    0  0.00000000000E+00  0.00000000000E+00 -0.18477808232E+04  0.21006077148E+04  0.99912902100E+03 0.  0.
        5    1    3    3  502    0  0.25235423791E+03  0.20563298436E+03 -0.17205317378E+04  0.17510622880E+04  0.46999998093E+01 0.  1.
       -5    1    3    3    0  502 -0.25235423791E+03 -0.20563298436E+03 -0.12724908546E+03  0.34954542680E+03  0.46999998093E+01 0. -1.
</event>
<event>
 5   0  0.1216322E-02  0.9975912E+03  0.7818609E-02  0.9311191E-01
       -2   -1    0    0    0  501  0.00000000000E+00  0.00000000000E+00  0.44012987718E+03  0.44012987718E+03  0.25500000920E-02 0. -1.
        2   -1    0    0  501    0  0.00000000000E+00  0.00000000000E+00 -0.56528101595E+03  0.56528101595E+03  0.25500000920E-02 0.  1.
    10030    2    1    2    0    0  0.00000000000E+00  0.00000000000E+00 -0.12515113877E+03  0.10054108931E+04  0.99759122716E+03 0.  0.
        2    1    3    3  502    0  0.34149219953E+03  0.34247552985E+03  0.60408211397E+02  0.48739672023E+03  0.25500000920E-02 0.  1.
       -2    1    3    3    0  502 -0.34149219953E+03 -0.34247552985E+03 -0.18555935017E+03  0.51801417290E+03  0.25500000920E-02 0. -1.
</event>
<event>
 5   0  0.7073004E-03  0.1016375E+04  0.7818609E-02  0.9290765E-01
       -1   -1    0    0    0  501  0.00000000000E+00  0.00000000000E+00  0.53553039027E+03  0.53553039030E+03  0.50400001928E-02 0. -1.
        1   -1    0    0  501    0  0.00000000000E+00  0.00000000000E+00 -0.48224070211E+03  0.48224070214E+03  0.50400001928E-02 0.  1.
    10030    2    1    2    0    0  0.00000000000E+00  0.00000000000E+00  0.53289688160E+02  0.10177710924E+04  0.10163750320E+04 0.  0.
        1    1    3    3  502    0  0.10664001232E+03  0.49686930108E+03  0.28479526255E+02  0.50898160872E+03  0.50400001928E-02 0. -1.
       -1    1    3    3    0  502 -0.10664001232E+03 -0.49686930108E+03  0.24810161905E+02  0.50878948371E+03  0.50400001928E-02 0.  1.
</event>
<event>
 5   0  0.7241200E-03  0.9946700E+03  0.7818609E-02  0.9314410E-01
        1   -1    0    0  501    0  0.00000000000E+00  0.00000000000E+00  0.33091722934E+03  0.33091722938E+03  0.50400001928E-02 0.  1.
       -1   -1    0    0    0  501  0.00000000000E+00  0.00000000000E+00 -0.74744401938E+03  0.74744401940E+03  0.50400001928E-02 0. -1.
    10030    2    1    2    0    0  0.00000000000E+00  0.00000000000E+00 -0.41652679004E+03  0.10783612488E+04  0.99467000359E+03 0.  0.
        4    1    3    3  502    0  0.48558044058E+03  0.81718828658E+02 -0.13257398199E+03  0.50994490372E+03  0.12699999809E+01 0.  1.
       -4    1    3    3    0  502 -0.48558044058E+03 -0.81718828658E+02 -0.28395280805E+03  0.56841634506E+03  0.12699999809E+01 0. -1.
</event>
<event>
 5   0  0.1191822E-02  0.1053331E+04  0.7818609E-02  0.9251912E-01
        2   -1    0    0  501    0  0.00000000000E+00  0.00000000000E+00  0.35964988033E+03  0.35964988034E+03  0.25500000920E-02 0. -1.
       -2   -1    0    0    0  501  0.00000000000E+00  0.00000000000E+00 -0.77123988343E+03  0.77123988343E+03  0.25500000920E-02 0.  1.
    10030    2    1    2    0    0  0.00000000000E+00  0.00000000000E+00 -0.41159000309E+03  0.11308897638E+04  0.10533305878E+04 0.  0.
        4    1    3    3  502    0 -0.30526417450E+03  0.42419589688E+03 -0.27575715203E+03  0.59090777196E+03  0.12699999809E+01 0. -1.
       -4    1    3    3    0  502  0.30526417450E+03 -0.42419589688E+03 -0.13583285106E+03  0.53998199182E+03  0.12699999809E+01 0.  1.
</event>
<event>
 5   0  0.1191822E-02  0.9896060E+03  0.7818609E-02  0.9320019E-01
        2   -1    0    0  501    0  0.00000000000E+00  0.00000000000E+00  0.36038131598E+03  0.36038131599E+03  0.25500000920E-02 0.  1.
       -2   -1    0    0    0  501  0.00000000000E+00  0.00000000000E+00 -0.67936379270E+03  0.67936379271E+03  0.25500000920E-02 0. -1.
    10030    2    1    2    0    0  0.00000000000E+00  0.00000000000E+00 -0.31898247672E+03  0.10397451087E+04  0.98960601787E+03 0.  0.
        4    1    3    3  502    0 -0.38900846870E+03  0.17248800171E+02  0.16126875165E+03  0.42146688243E+03  0.12699999809E+01 0.  1.
       -4    1    3    3    0  502  0.38900846870E+03 -0.17248800171E+02 -0.48025122837E+03  0.61827822627E+03  0.12699999809E+01 0. -1.
</event>
<event>
 5   0  0.7461157E-03  0.9995812E+03  0.7818609E-02  0.9309004E-01
        1   -1    0    0  501    0  0.00000000000E+00  0.00000000000E+00  0.66960260981E+03  0.66960260983E+03  0.50400001928E-02 0. -1.
       -1   -1    0    0    0  501  0.00000000000E+00  0.00000000000E+00 -0.37304313257E+03  0.37304313260E+03  0.50400001928E-02 0.  1.
    10030    2    1    2    0    0  0.00000000000E+00  0.00000000000E+00  0.29655947724E+03  0.10426457424E+04  0.99958122265E+03 0.  0.
        2    1    3    3  502    0  0.34957250767E+03 -0.14000425002E+03  0.49105343957E+03  0.61881791237E+03  0.25500000920E-02 0. -1.
       -2    1    3    3    0  502 -0.34957250767E+03  0.14000425002E+03 -0.19449396234E+03  0.42382783006E+03  0.25500000920E-02 0.  1.
</event>
<event>
 5   0  0.4782125E-03  0.9909049E+03  0.7818609E-02  0.9318577E-01
        4   -1    0    0  501    0  0.00000000000E+00  0.00000000000E+00  0.15638507224E+04  0.15638512381E+04  0.12699999809E+01 0.  1.
       -4   -1    0    0    0  501  0.00000000000E+00  0.00000000000E+00 -0.15696400996E+03  0.15696914768E+03  0.12699999809E+01 0. -1.
    10030    2    1    2    0    0  0.00000000000E+00  0.00000000000E+00  0.14068867125E+04  0.17208203858E+04  0.99090492905E+03 0.  0.
        5    1    3    3  502    0  0.10731775604E+02 -0.29020376986E+02  0.15621353056E+04  0.15624487692E+04  0.46999998093E+01 0.  1.
       -5    1    3    3    0  502 -0.10731775604E+02  0.29020376986E+02 -0.15524859312E+03  0.15837161662E+03  0.46999998093E+01 0. -1.
</event>
<event>
 5   0  0.1216322E-02  0.9924871E+03  0.7818609E-02  0.9316823E-01
        2   -1    0    0  501    0  0.00000000000E+00  0.00000000000E+00  0.18256602617E+04  0.18256602617E+04  0.25500000920E-02 0.  1.
       -2   -1    0    0    0  501  0.00000000000E+00  0.00000000000E+00 -0.13488690044E+03  0.13488690046E+03  0.25500000920E-02 0. -1.
    10030    2    1    2    0    0  0.00000000000E+00  0.00000000000E+00  0.16907733613E+04  0.19605471622E+04  0.99248708602E+03 0.  0.
        2    1    3    3  502    0  0.13865675435E+03 -0.27678209195E+03  0.79242574850E+02  0.31955188565E+03  0.25500000920E-02 0. -1.
       -2    1    3    3    0  502 -0.13865675435E+03  0.27678209195E+03  0.16115307864E+04  0.16409952765E+04  0.25500000920E-02 0.  1.
</event>
<event>
 5   0  0.1245850E-02  0.1001000E+04  0.7818609E-02  0.9307449E-01
       -2   -1    0    0    0  501  0.00000000000E+00  0.00000000000E+00  0.18826914508E+03  0.18826914510E+03  0.25500000920E-02 0.  1.
        2   -1    0    0  501    0  0.00000000000E+00  0.00000000000E+00 -0.13305425524E+04  0.13305425524E+04  0.25500000920E-02 0. -1.
    10030    2    1    2    0    0  0.00000000000E+00  0.00000000000E+00 -0.11422734073E+04  0.15188116975E+04  0.10009997180E+04 0.  0.
        3    1    3    3  502    0  0.36681523402E+03 -0.18483292094E+03 -0.13722360982E+03  0.43306691615E+03  0.10100000352E+00 0.  1.
       -3    1    3    3    0  502 -0.36681523402E+03  0.18483292094E+03 -0.10050497975E+04  0.10857447813E+04  0.10100000352E+00 0. -1.
</event>
<event>
 5   0  0.4782125E-03  0.1002908E+04  0.7818609E-02  0.9305361E-01
       -3   -1    0    0    0  501  0.00000000000E+00  0.00000000000E+00  0.12336254571E+04  0.12336254613E+04  0.10100000352E+00 0.  1.
        3   -1    0    0  501    0  0.00000000000E+00  0.00000000000E+00 -0.20383512315E+03  0.20383514817E+03  0.10100000352E+00 0. -1.
    10030    2    1    2    0    0  0.00000000000E+00  0.00000000000E+00  0.10297903340E+04  0.14374606095E+04  0.10029082070E+04 0.  0.
        3    1    3    3  502    0 -0.47240994565E+03 -0.15782624912E+02  0.27490553423E+03  0.54680280810E+03  0.10100000352E+00 0. -1.
       -3    1    3    3    0  502  0.47240994565E+03  0.15782624912E+02  0.75488479977E+03  0.89065780136E+03  0.10100000352E+00 0.  1.
</event>
<event>
 5   0  0.1216322E-02  0.9646609E+03  0.7818609E-02  0.9348176E-01
        2   -1    0    0  501    0  0.00000000000E+00  0.00000000000E+00  0.11557708754E+04  0.11557708754E+04  0.25500000920E-02 0. -1.
       -2   -1    0    0    0  501  0.00000000000E+00  0.00000000000E+00 -0.20128787816E+03  0.20128787818E+03  0.25500000920E-02 0.  1.
    10030    2    1    2    0    0  0.00000000000E+00  0.00000000000E+00  0.95448299720E+03  0.13570587535E+04  0.96466090862E+03 0.  0.
        2    1    3    3  502    0  0.24622162321E+03  0.26069065508E+03  0.93103850689E+03  0.99770607230E+03  0.25500000920E-02 0. -1.
       -2    1    3    3    0  502 -0.24622162321E+03 -0.26069065508E+03  0.23444490310E+02  0.35935268124E+03  0.25500000920E-02 0.  1.
</event>
<event>
 5   0  0.1240503E-02  0.9886568E+03  0.7818609E-02  0.9321074E-01
        2   -1    0    0  501    0  0.00000000000E+00  0.00000000000E+00  0.44611481332E+03  0.44611481333E+03  0.25500000920E-02 0. -1.
       -2   -1    0    0    0  501  0.00000000000E+00  0.00000000000E+00 -0.54775260934E+03  0.54775260935E+03  0.25500000920E-02 0.  1.
    10030    2    1    2    0    0  0.00000000000E+00  0.00000000000E+00 -0.10163779602E+03  0.99386742268E+03  0.98865677173E+03 0.  0.
        1    1    3    3  502    0  0.25219418898E+03 -0.58337153140E+02  0.37253654067E+03  0.45363929124E+03  0.50400001928E-02 0. -1.
       -1    1    3    3    0  502 -0.25219418898E+03  0.58337153140E+02 -0.47417433670E+03  0.54022813144E+03  0.50400001928E-02 0.  1.
</event>
<event>
 5   0  0.7224879E-03  0.1055635E+04  0.7818609E-02  0.9249545E-01
       -1   -1    0    0    0  501  0.00000000000E+00  0.00000000000E+00  0.45877418309E+03  0.45877418312E+03  0.50400001928E-02 0. -1.
        1   -1    0    0  501    0  0.00000000000E+00  0.00000000000E+00 -0.60725189015E+03  0.60725189017E+03  0.50400001928E-02 0.  1.
    10030    2    1    2    0    0  0.00000000000E+00  0.00000000000E+00 -0.14847770706E+03  0.10660260733E+04  0.10556353345E+04 0.  0.
        3    1    3    3  502    0  0.15501696501E+03 -0.30328107605E+03 -0.48142208464E+03  0.58972612653E+03  0.10100000352E+00 0.  1.
       -3    1    3    3    0  502 -0.15501696501E+03  0.30328107605E+03  0.33294437757E+03  0.47629994677E+03  0.10100000352E+00 0. -1.
</event>
<event>
 5   0  0.1221315E-02  0.9554046E+03  0.7818609E-02  0.9358856E-01
       -2   -1    0    0    0  501  0.00000000000E+00  0.00000000000E+00  0.35443943650E+03  0.35443943651E+03  0.25500000920E-02 0.  1.
        2   -1    0    0  501    0  0.00000000000E+00  0.00000000000E+00 -0.64383209951E+03  0.64383209952E+03  0.25500000920E-02 0. -1.
    10030    2    1    2    0    0  0.00000000000E+00  0.00000000000E+00 -0.28939266301E+03  0.99827153603E+03  0.95540459819E+03 0.  0.
        5    1    3    3  502    0  0.27421597381E+03 -0.36593760104E+03 -0.39607927926E+00  0.45730402909E+03  0.46999998093E+01 0.  1.
       -5    1    3    3    0  502 -0.27421597381E+03  0.36593760104E+03 -0.28899658374E+03  0.54096750693E+03  0.46999998093E+01 0. -1.
</event>
<event>
 5   0  0.1191822E-02  0.9957282E+03  0.7818609E-02  0.9313242E-01
        2   -1    0    0  501    0  0.00000000000E+00  0.00000000000E+00  0.90217118166E+03  0.90217118167E+03  0.25500000920E-02 0.  1.
       -2   -1    0    0    0  501  0.00000000000E+00  0.00000000000E+00 -0.27474680677E+03  0.27474680678E+03  0.25500000920E-02 0. -1.
    10030    2    1    2    0    0  0.00000000000E+00  0.00000000000E+00  0.62742437489E+03  0.11769179885E+04  0.99572817843E+03 0.  0.
        4    1    3    3  502    0 -0.38721178214E+03  0.22172018266E+03  0.57474832552E+03  0.72761944327E+03  0.12699999809E+01 0.  1.
       -4    1    3    3    0  502  0.38721178214E+03 -0.22172018266E+03  0.52676049368E+02  0.44929854518E+03  0.12699999809E+01 0. -1.
</event>
<event>
 5   0  0.1216322E-02  0.9925556E+03  0.7818609E-02  0.9316748E-01
       -2   -1    0    0    0  501  0.00000000000E+00  0.00000000000E+00  0.27336223237E+03  0.27336223238E+03  0.25500000920E-02 0.  1.
        2   -1    0    0  501    0  0.00000000000E+00  0.00000000000E+00 -0.90097181386E+03  0.90097181386E+03  0.25500000920E-02 0. -1.
    10030    2    1    2    0    0  0.00000000000E+00  0.00000000000E+00 -0.62760958149E+03  0.11743340462E+04  0.99255562333E+03 0.  0.
        2    1    3    3  502    0 -0.25520630831E+03  0.36517248450E+03 -0.55103692076E+02  0.44890713976E+03  0.25500000920E-02 0.  1.
       -2    1    3    3    0  502  0.25520630831E+03 -0.36517248450E+03 -0.57250588941E+03  0.72542690649E+03  0.25500000920E-02 0. -1.
</event>
<event>
 5   0  0.7224879E-03  0.9885955E+03  0.7818609E-02  0.9321142E-01
       -1   -1    0    0    0  501  0.00000000000E+00  0.00000000000E+00  0.31222464801E+03  0.31222464805E+03  0.50400001928E-02 0.  1.
        1   -1    0    0  501    0  0.00000000000E+00  0.00000000000E+00 -0.78254632469E+03  0.78254632471E+03  0.50400001928E-02 0. -1.
    10030    2    1    2    0    0  0.00000000000E+00  0.00000000000E+00 -0.47032167668E+03  0.10947709728E+04  0.98859546997E+03 0.  0.
        3    1    3    3  502    0 -0.33998234493E+02 -0.27566366267E+03  0.21763444185E+03  0.35286129760E+03  0.10100000352E+00 0.  1.
       -3    1    3    3    0  502  0.33998234493E+02  0.27566366267E+03 -0.68795611854E+03  0.74190967516E+03  0.10100000352E+00 0. -1.
</event>
<event>
 5   0  0.6967681E-03  0.9805528E+03  0.7818609E-02  0.9330135E-01
       -1   -1    0    0    0  501  0.00000000000E+00  0.00000000000E+00  0.10467717468E+04  0.10467717468E+04  0.50400001928E-02 0.  1.
        1   -1    0    0  501    0  0.00000000000E+00  0.00000000000E+00 -0.22963070301E+03  0.22963070306E+03  0.50400001928E-02 0. -1.
    10030    2    1    2    0    0  0.00000000000E+00  0.00000000000E+00  0.81714104378E+03  0.12764024499E+04  0.98055276685E+03 0.  0.
        5    1    3    3  502    0 -0.23749981876E+03 -0.29678050556E+03  0.55339512375E+01  0.38018093982E+03  0.46999998093E+01 0. -1.
       -5    1    3    3    0  502  0.23749981876E+03  0.29678050556E+03  0.81160709254E+03  0.89622151004E+03  0.46999998093E+01 0.  1.
</event>
<event>
 5   0  0.1240503E-02  0.1027982E+04  0.7818609E-02  0.9278376E-01
       -2   -1    0    0    0  501  0.00000000000E+00  0.00000000000E+00  0.18182869360E+03  0.18182869361E+03  0.25500000920E-02 0. -1.
        2   -1    0    0  501    0  0.00000000000E+00  0.00000000000E+00 -0.14529440234E+04  0.14529440234E+04  0.25500000920E-02 0.  1.
    10030    2    1    2    0    0  0.00000000000E+00  0.00000000000E+00 -0.12711153298E+04  0.16347727170E+04  0.10279823222E+04 0.  0.
        1    1    3    3  502    0  0.30301633332E+03 -0.26519482185E+03 -0.11435490741E+04  0.12123743962E+04  0.50400001928E-02 0.  1.
       -1    1    3    3    0  502 -0.30301633332E+03  0.26519482185E+03 -0.12756625576E+03  0.42239832082E+03  0.50400001928E-02 0. -1.
</event>
<event>
 5   0  0.1221315E-02  0.1017582E+04  0.7818609E-02  0.9289468E-01
        2   -1    0    0  501    0  0.00000000000E+00  0.00000000000E+00  0.19528201205E+04  0.19528201205E+04  0.25500000920E-02 0. -1.
       -2   -1    0    0    0  501  0.00000000000E+00  0.00000000000E+00 -0.13256129609E+03  0.13256129611E+03  0.25500000920E-02 0.  1.
    10030    2    1    2    0    0  0.00000000000E+00  0.00000000000E+00  0.18202588244E+04  0.20853814166E+04  0.10175821662E+04 0.  0.
        5    1    3    3  502    0 -0.19343618241E+03 -0.27570735909E+03  0.16916121314E+04  0.17248205117E+04  0.46999998093E+01 0. -1.
       -5    1    3    3    0  502  0.19343618241E+03  0.27570735909E+03  0.12864669301E+03  0.36056090489E+03  0.46999998093E+01 0.  1.
</event>
<event>
 5   0  0.1221315E-02  0.1019149E+04  0.7818609E-02  0.9287788E-01
        2   -1    0    0  501    0  0.00000000000E+00  0.00000000000E+00  0.29337828678E+04  0.29337828678E+04  0.25500000920E-02 0. -1.
       -2   -1    0    0    0  501  0.00000000000E+00  0.00000000000E+00 -0.88509075659E+02  0.88509075695E+02  0.25500000920E-02 0.  1.
    10030    2    1    2    0    0  0.00000000000E+00  0.00000000000E+00  0.28452737922E+04  0.30222919435E+04  0.10191494687E+04 0.  0.
        5    1    3    3  502    0  0.16857354731E+03 -0.23334691000E+03  0.26694770925E+04  0.26849577014E+04  0.46999998093E+01 0. -1.
       -5    1    3    3    0  502 -0.16857354731E+03  0.23334691000E+03  0.17579669968E+03  0.33733424207E+03  0.46999998093E+01 0.  1.
</event>
<event>
 5   0  0.7241200E-03  0.8473337E+03  0.7818609E-02  0.9493923E-01
       -1   -1    0    0    0  501  0.00000000000E+00  0.00000000000E+00  0.13402241495E+03  0.13402241505E+03  0.50400001928E-02 0.  1.
        1   -1    0    0  501    0  0.00000000000E+00  0.00000000000E+00 -0.13392804099E+04  0.13392804099E+04  0.50400001928E-02 0. -1.
    10030    2    1    2    0    0  0.00000000000E+00  0.00000000000E+00 -0.12052579949E+04  0.14733028249E+04  0.84733368847E+03 0.  0.
        4    1    3    3  502    0  0.39440100337E+02 -0.31421214572E+03 -0.11327871242E+03  0.33633089900E+03  0.12699999809E+01 0.  1.
       -4    1    3    3    0  502 -0.39440100337E+02  0.31421214572E+03 -0.10919792825E+04  0.11369719259E+04  0.12699999809E+01 0. -1.
</event>
<event>
 5   0  0.7241200E-03  0.6442381E+03  0.7818609E-02  0.9817652E-01
        1   -1    0    0  501    0  0.00000000000E+00  0.00000000000E+00  0.10437195801E+04  0.10437195801E+04  0.50400001928E-02 0. -1.
       -1   -1    0    0    0  501  0.00000000000E+00  0.00000000000E+00 -0.99414319908E+02  0.99414320036E+02  0.50400001928E-02 0.  1.
    10030    2    1    2    0    0  0.00000000000E+00  0.00000000000E+00  0.94430526021E+03  0.11431339002E+04  0.64423806877E+03 0.  0.
        4    1    3    3  502    0 -0.18178678741E+03  0.20909763474E+03  0.18063916588E+03  0.33075727971E+03  0.12699999809E+01 0.  1.
       -4    1    3    3    0  502  0.18178678741E+03 -0.20909763474E+03  0.76366609433E+03  0.81237662045E+03  0.12699999809E+01 0. -1.
</event>
<event>
 5   0  0.7461157E-03  0.9874678E+03  0.7818609E-02  0.9322398E-01
       -1   -1    0    0    0  501  0.00000000000E+00  0.00000000000E+00  0.57487536119E+03  0.57487536121E+03  0.50400001928E-02 0. -1.
        1   -1    0    0  501    0  0.00000000000E+00  0.00000000000E+00 -0.42404527098E+03  0.42404527101E+03  0.50400001928E-02 0.  1.
    10030    2    1    2    0    0  0.00000000000E+00  0.00000000000E+00  0.15083009021E+03  0.99892063222E+03  0.98746782902E+03 0.  0.
        2    1    3    3  502    0  0.30125811477E+03 -0.22442190828E+03 -0.24869369981E+03  0.45052214259E+03  0.25500000920E-02 0.  1.
       -2    1    3    3    0  502 -0.30125811477E+03  0.22442190828E+03  0.39952379002E+03  0.54839848963E+03  0.25500000920E-02 0. -1.
</event>
<event>
 5   0  0.1240503E-02  0.9864598E+03  0.7818609E-02  0.9323521E-01
       -2   -1    0    0    0  501  0.00000000000E+00  0.00000000000E+00  0.16753572197E+03  0.16753572199E+03  0.25500000920E-02 0. -1.
        2   -1    0    0  501    0  0.00000000000E+00  0.00000000000E+00 -0.14520828868E+04  0.14520828868E+04  0.25500000920E-02 0.  1.
    10030    2    1    2    0    0  0.00000000000E+00  0.00000000000E+00 -0.12845471648E+04  0.16196186088E+04  0.98645984168E+03 0.  0.
        1    1    3    3  502    0  0.42940161402E+03  0.21524431730E+03 -0.45826998671E+03  0.66387291178E+03  0.50400001928E-02 0. -1.
       -1    1    3    3    0  502 -0.42940161402E+03 -0.21524431730E+03 -0.82627717809E+03  0.95574569698E+03  0.50400001928E-02 0.  1.
</event>
<event>
 5   0  0.1221315E-02  0.9816505E+03  0.7818609E-02  0.9328902E-01
       -2   -1    0    0    0  501  0.00000000000E+00  0.00000000000E+00  0.10391441729E+04  0.10391441729E+04  0.25500000920E-02 0. -1.
        2   -1    0    0  501    0  0.00000000000E+00  0.00000000000E+00 -0.23183446000E+03  0.23183446002E+03  0.25500000920E-02 0.  1.
    10030    2    1    2    0    0  0.00000000000E+00  0.00000000000E+00  0.80730971294E+03  0.12709786330E+04  0.98165050442E+03 0.  0.
        5    1    3    3  502    0  0.15397955011E+03 -0.19189287374E+03 -0.14619632364E+03  0.28623073191E+03  0.46999998093E+01 0.  1.
       -5    1    3    3    0  502 -0.15397955011E+03  0.19189287374E+03  0.95350603658E+03  0.98474790105E+03  0.46999998093E+01 0. -1.
</event>
<event>
 5   0  0.1245850E-02  0.1005434E+04  0.7818609E-02  0.9302605E-01
        2   -1    0    0  501    0  0.00000000000E+00  0.00000000000E+00  0.18281892519E+04  0.18281892519E+04  0.25500000920E-02 0. -1.
       -2   -1    0    0    0  501  0.00000000000E+00  0.00000000000E+00 -0.13823745485E+03  0.13823745487E+03  0.25500000920E-02 0.  1.
    10030    2    1    2    0    0  0.00000000000E+00  0.00000000000E+00  0.16899517971E+04  0.19664267068E+04  0.10054336959E+04 0.  0.
        3    1    3    3  502    0 -0.33560145712E+03  0.12945416874E+03  0.15811009177E+03  0.39291924252E+03  0.10100000352E+00 0. -1.
       -3    1    3    3    0  502  0.33560145712E+03 -0.12945416874E+03  0.15318417053E+04  0.15735074643E+04  0.10100000352E+00 0.  1.
</event>
<event>
 5   0  0.7241200E-03  0.1004908E+04  0.7818609E-02  0.9303178E-01
        1   -1    0    0  501    0  0.00000000000E+00  0.00000000000E+00  0.50510313737E+03  0.50510313739E+03  0.50400001928E-02 0. -1.
       -1   -1    0    0    0  501  0.00000000000E+00  0.00000000000E+00 -0.49981877553E+03  0.49981877555E+03  0.50400001928E-02 0.  1.
    10030    2    1    2    0    0  0.00000000000E+00  0.00000000000E+00  0.52843618424E+01  0.10049219129E+04  0.10049080190E+04 0.  0.
        4    1    3    3  502    0 -0.80925240073E+02 -0.32214563039E+03 -0.37436663513E+03  0.50047846313E+03  0.12699999809E+01 0.  1.
       -4    1    3    3    0  502  0.80925240073E+02  0.32214563039E+03  0.37965099697E+03  0.50444344982E+03  0.12699999809E+01 0. -1.
</event>
<event>
 5   0  0.1240503E-02  0.1021753E+04  0.7818609E-02  0.9285003E-01
       -2   -1    0    0    0  501  0.00000000000E+00  0.00000000000E+00  0.39059533345E+03  0.39059533346E+03  0.25500000920E-02 0.  1.
        2   -1    0    0  501    0  0.00000000000E+00  0.00000000000E+00 -0.66819758132E+03  0.66819758132E+03  0.25500000920E-02 0. -1.
    10030    2    1    2    0    0  0.00000000000E+00  0.00000000000E+00 -0.27760224787E+03  0.10587929148E+04  0.10217531152E+04 0.  0.
        1    1    3    3  502    0  0.21562183879E+02 -0.24619672428E+03  0.32452845884E+03  0.40791724093E+03  0.50400001928E-02 0.  1.
       -1    1    3    3    0  502 -0.21562183879E+02  0.24619672428E+03 -0.60213070671E+03  0.65087567385E+03  0.50400001928E-02 0. -1.
</event>
<event>
 5   0  0.7241200E-03  0.1002175E+04  0.7818609E-02  0.9306162E-01
        1   -1    0    0  501    0  0.00000000000E+00  0.00000000000E+00  0.45314269466E+03  0.45314269469E+03  0.50400001928E-02 0.  1.
       -1   -1    0    0    0  501  0.00000000000E+00  0.00000000000E+00 -0.55410536370E+03  0.55410536373E+03  0.50400001928E-02 0. -1.
    10030    2    1    2    0    0  0.00000000000E+00  0.00000000000E+00 -0.10096266904E+03  0.10072480584E+04  0.10021752295E+04 0.  0.
        4    1    3    3  502    0  0.24626239963E+03 -0.17626580311E+03  0.35075412436E+03  0.46340573094E+03  0.12699999809E+01 0.  1.
       -4    1    3    3    0  502 -0.24626239963E+03  0.17626580311E+03 -0.45171679340E+03  0.54384232747E+03  0.12699999809E+01 0. -1.
</event>
<event>
 5   0  0.1245850E-02  0.9998814E+03  0.7818609E-02  0.9308675E-01
        2   -1    0    0  501    0  0.00000000000E+00  0.00000000000E+00  0.87674256250E+03  0.87674256250E+03  0.25500000920E-02 0.  1.
       -2   -1    0    0    0  501  0.00000000000E+00  0.00000000000E+00 -0.28507876112E+03  0.28507876113E+03  0.25500000920E-02 0. -1.
    10030    2    1    2    0    0  0.00000000000E+00  0.00000000000E+00  0.59166380138E+03  0.11618213236E+04  0.99988136005E+03 0.  0.
        3    1    3    3  502    0  0.37559088325E+03 -0.32962316565E+03  0.31309512743E+03  0.58970205353E+03  0.10100000352E+00 0.  1.
       -3    1    3    3    0  502 -0.37559088325E+03  0.32962316565E+03  0.27856867396E+03  0.57211927010E+03  0.10100000352E+00 0. -1.
</event>
<event>
 5   0  0.1191822E-02  0.9155455E+03  0.7818609E-02  0.9406355E-01
       -2   -1    0    0    0  501  0.00000000000E+00  0.00000000000E+00  0.21113710263E+03  0.21113710265E+03  0.25500000920E-02 0. -1.
        2   -1    0    0  501    0  0.00000000000E+00  0.00000000000E+00 -0.99251098071E+03  0.99251098072E+03  0.25500000920E-02 0.  1.
    10030    2    1    2    0    0  0.00000000000E+00  0.00000000000E+00 -0.78137387808E+03  0.12036480834E+04  0.91554550473E+03 0.  0.
        4    1    3    3  502    0 -0.94010862942E+02 -0.25206210492E+03 -0.87761686884E+03  0.91792501244E+03  0.12699999809E+01 0.  1.
       -4    1    3    3    0  502  0.94010862942E+02  0.25206210492E+03  0.96242990760E+02  0.28572307092E+03  0.12699999809E+01 0. -1.
</event>
<event>
 5   0  0.7073004E-03  0.9944567E+03  0.7818609E-02  0.9314646E-01
       -1   -1    0    0    0  501  0.00000000000E+00  0.00000000000E+00  0.58531912935E+03  0.58531912937E+03  0.50400001928E-02 0. -1.
        1   -1    0    0  501    0  0.00000000000E+00  0.00000000000E+00 -0.42239527316E+03  0.42239527319E+03  0.50400001928E-02 0.  1.
    10030    2    1    2    0    0  0.00000000000E+00  0.00000000000E+00  0.16292385619E+03  0.10077144026E+04  0.99445670304E+03 0.  0.
        1    1    3    3  502    0  0.27866596803E+03 -0.32412327442E+03 -0.17594307784E+03  0.46224083055E+03  0.50400001928E-02 0.  1.
       -1    1    3    3    0  502 -0.27866596803E+03  0.32412327442E+03  0.33886693403E+03  0.54547357202E+03  0.50400001928E-02 0. -1.
</event>
<event>
 5   0  0.1240503E-02  0.1000277E+04  0.7818609E-02  0.9308241E-01
       -2   -1    0    0    0  501  0.00000000000E+00  0.00000000000E+00  0.22626170936E+03  0.22626170938E+03  0.25500000920E-02 0.  1.
        2   -1    0    0  501    0  0.00000000000E+00  0.00000000000E+00 -0.11055273095E+04  0.11055273095E+04  0.25500000920E-02 0. -1.
    10030    2    1    2    0    0  0.00000000000E+00  0.00000000000E+00 -0.87926560014E+03  0.13317890189E+04  0.10002769593E+04 0.  0.
        1    1    3    3  502    0  0.27744056164E+03  0.38973050078E+03 -0.63383481354E+03  0.79410937493E+03  0.50400001928E-02 0. -1.
       -1    1    3    3    0  502 -0.27744056164E+03 -0.38973050078E+03 -0.24543078660E+03  0.53767964395E+03  0.50400001928E-02 0.  1.
</event>
<event>
 5   0  0.6967681E-03  0.9848142E+03  0.7818609E-02  0.9325359E-01
       -1   -1    0    0    0  501  0.00000000000E+00  0.00000000000E+00  0.62999826969E+03  0.62999826971E+03  0.50400001928E-02 0.  1.
        1   -1    0    0  501    0  0.00000000000E+00  0.00000000000E+00 -0.38486576751E+03  0.38486576754E+03  0.50400001928E-02 0. -1.
    10030    2    1    2    0    0  0.00000000000E+00  0.00000000000E+00  0.24513250218E+03  0.10148640372E+04  0.98481423146E+03 0.  0.
        5    1    3    3  502    0  0.21796041768E+03  0.11129274426E+03  0.56286180312E+03  0.61378197922E+03  0.46999998093E+01 0.  1.
       -5    1    3    3    0  502 -0.21796041768E+03 -0.11129274426E+03 -0.31772930094E+03  0.40108205803E+03  0.46999998093E+01 0. -1.
</event>
<event>
 5   0  0.6967681E-03  0.9958959E+03  0.7818609E-02  0.9313058E-01
       -1   -1    0    0    0  501  0.00000000000E+00  0.00000000000E+00  0.64998857280E+03  0.64998857282E+03  0.50400001928E-02 0. -1.
        1   -1    0    0  501    0  0.00000000000E+00  0.00000000000E+00 -0.38147154928E+03  0.38147154931E+03  0.50400001928E-02 0.  1.
    10030    2    1    2    0    0  0.00000000000E+00  0.00000000000E+00  0.26851702352E+03  0.10314601221E+04  0.99589587389E+03 0.  0.
        5    1    3    3  502    0  0.70679619552E+02 -0.30535732265E+03  0.53497468253E+03  0.62004734018E+03  0.46999998093E+01 0. -1.
       -5    1    3    3    0  502 -0.70679619552E+02  0.30535732265E+03 -0.26645765901E+03  0.41141278196E+03  0.46999998093E+01 0.  1.
</event>
<event>
 5   0  0.7241200E-03  0.1005904E+04  0.7818609E-02  0.9302092E-01
        1   -1    0    0  501    0  0.00000000000E+00  0.00000000000E+00  0.12382599937E+04  0.12382599937E+04  0.50400001928E-02 0.  1.
       -1   -1    0    0    0  501  0.00000000000E+00  0.00000000000E+00 -0.20428742680E+03  0.20428742686E+03  0.50400001928E-02 0. -1.
    10030    2    1    2    0    0  0.00000000000E+00  0.00000000000E+00  0.10339725669E+04  0.14425474206E+04  0.10059044644E+04 0.  0.
        4    1    3    3  502    0 -0.34460733965E+03  0.81945590001E+02  0.10290352406E+04  0.10882942789E+04  0.12699999809E+01 0.  1.
       -4    1    3    3    0  502  0.34460733965E+03 -0.81945590001E+02  0.49373262861E+01  0.35425314162E+03  0.12699999809E+01 0. -1.
</event>
<event>
 5   0  0.7224879E-03  0.9871042E+03  0.7818609E-02  0.9322803E-01
        1   -1    0    0  501    0  0.00000000000E+00  0.00000000000E+00  0.54389429155E+03  0.54389429157E+03  0.50400001928E-02 0. -1.
       -1   -1    0    0    0  501  0.00000000000E+00  0.00000000000E+00 -0.44786949611E+03  0.44786949614E+03  0.50400001928E-02 0.  1.
    10030    2    1    2    0    0  0.00000000000E+00  0.00000000000E+00  0.96024795440E+02  0.99176378771E+03  0.98710417347E+03 0.  0.
        3    1    3    3  502    0  0.38022090933E+03 -0.27439963121E+03  0.20278682405E+03  0.51086750113E+03  0.10100000352E+00 0. -1.
       -3    1    3    3    0  502 -0.38022090933E+03  0.27439963121E+03 -0.10676202862E+03  0.48089628659E+03  0.10100000352E+00 0.  1.
</event>
<event>
 5   0  0.7224879E-03  0.1112927E+04  0.7818609E-02  0.9192683E-01
        1   -1    0    0  501    0  0.00000000000E+00  0.00000000000E+00  0.54635095570E+03  0.54635095572E+03  0.50400001928E-02 0. -1.
       -1   -1    0    0    0  501  0.00000000000E+00  0.00000000000E+00 -0.56676310722E+03  0.56676310725E+03  0.50400001928E-02 0.  1.
    10030    2    1    2    0    0  0.00000000000E+00  0.00000000000E+00 -0.20412151526E+02  0.11131140630E+04  0.11129268894E+04 0.  0.
        3    1    3    3  502    0  0.64153316637E+02  0.54377305443E+03 -0.10945366877E+03  0.55837702188E+03  0.10100000352E+00 0.  1.
       -3    1    3    3    0  502 -0.64153316637E+02 -0.54377305443E+03  0.89041517246E+02  0.55473704108E+03  0.10100000352E+00 0. -1.
</event>
<event>
 5   0  0.7241200E-03  0.9968874E+03  0.7818609E-02  0.9311965E-01
        1   -1    0    0  501    0  0.00000000000E+00  0.00000000000E+00  0.72521634304E+03  0.72521634305E+03  0.50400001928E-02 0.  1.
       -1   -1    0    0    0  501  0.00000000000E+00  0.00000000000E+00 -0.34258208425E+03  0.34258208428E+03  0.50400001928E-02 0. -1.
    10030    2    1    2    0    0  0.00000000000E+00  0.00000000000E+00  0.38263425879E+03  0.10677984273E+04  0.99688740860E+03 0.  0.
        4    1    3    3  502    0 -0.16658797696E+03  0.29596918080E+03 -0.19945570814E+03  0.39386990550E+03  0.12699999809E+01 0. -1.
       -4    1    3    3    0  502  0.16658797696E+03 -0.29596918080E+03  0.58208996693E+03  0.67392852184E+03  0.12699999809E+01 0.  1.
</event>
<event>
 5   0  0.7224879E-03  0.1013547E+04  0.7818609E-02  0.9293810E-01
       -1   -1    0    0    0  501  0.00000000000E+00  0.00000000000E+00  0.48728025038E+03  0.48728025040E+03  0.50400001928E-02 0. -1.
        1   -1    0    0  501    0  0.00000000000E+00  0.00000000000E+00 -0.52704663051E+03  0.52704663054E+03  0.50400001928E-02 0.  1.
    10030    2    1    2    0    0  0.00000000000E+00  0.00000000000E+00 -0.39766380135E+02  0.10143268809E+04  0.10135470667E+04 0.  0.
        3    1    3    3  502    0 -0.17237902297E+03  0.33252824716E+03  0.32174412770E+03  0.49377004428E+03  0.10100000352E+00 0. -1.
       -3    1    3    3    0  502  0.17237902297E+03 -0.33252824716E+03 -0.36151050784E+03  0.52055683666E+03  0.10100000352E+00 0.  1.
</event>
<event>
 5   0  0.7073004E-03  0.9994615E+03  0.7818609E-02  0.9309136E-01
       -1   -1    0    0    0  501  0.00000000000E+00  0.00000000000E+00  0.34870735826E+03  0.34870735830E+03  0.50400001928E-02 0. -1.
        1   -1    0    0  501    0  0.00000000000E+00  0.00000000000E+00 -0.71616166615E+03  0.71616166616E+03  0.50400001928E-02 0.  1.
    10030    2    1    2    0    0  0.00000000000E+00  0.00000000000E+00 -0.36745430789E+03  0.10648690245E+04  0.99946154046E+03 0.  0.
        1    1    3    3  502    0  0.26183732825E+03 -0.42562872600E+03 -0.17999904372E+03  0.53114805340E+03  0.50400001928E-02 0.  1.
       -1    1    3    3    0  502 -0.26183732825E+03  0.42562872600E+03 -0.18745526417E+03  0.53372097106E+03  0.50400001928E-02 0. -1.
</event>
<event>
 5   0  0.6967681E-03  0.9993781E+03  0.7818609E-02  0.9309227E-01
       -1   -1    0    0    0  501  0.00000000000E+00  0.00000000000E+00  0.13049455215E+03  0.13049455225E+03  0.50400001928E-02 0.  1.
        1   -1    0    0  501    0  0.00000000000E+00  0.00000000000E+00 -0.19134065600E+04  0.19134065600E+04  0.50400001928E-02 0. -1.
    10030    2    1    2    0    0  0.00000000000E+00  0.00000000000E+00 -0.17829120079E+04  0.20439011123E+04  0.99937807108E+03 0.  0.
        5    1    3    3  502    0  0.10087043795E+03  0.27219029792E+03 -0.17232272575E+04  0.17475115663E+04  0.46999998093E+01 0. -1.
       -5    1    3    3    0  502 -0.10087043795E+03 -0.27219029792E+03 -0.59684750419E+02  0.29638954598E+03  0.46999998093E+01 0.  1.
</event>
<event>
 5   0  0.1245850E-02  0.8831523E+03  0.7818609E-02  0.9446890E-01
        2   -1    0    0  501    0  0.00000000000E+00  0.00000000000E+00  0.99700303337E+03  0.99700303338E+03  0.25500000920E-02 0.  1.
       -2   -1    0    0    0  501  0.00000000000E+00  0.00000000000E+00 -0.19557565020E+03  0.19557565022E+03  0.25500000920E-02 0. -1.
    10030    2    1    2    0    0  0.00000000000E+00  0.00000000000E+00  0.80142738317E+03  0.11925786836E+04  0.88315234591E+03 0.  0.
        3    1    3    3  502    0 -0.18088505272E+03 -0.49873689690E+02 -0.13906572461E+03  0.23355100767E+03  0.10100000352E+00 0. -1.
       -3    1    3    3    0  502  0.18088505272E+03  0.49873689690E+02  0.94049310778E+03  0.95902767593E+03  0.10100000352E+00 0.  1.
</event>
<event>
 5   0  0.1216322E-02  0.9904033E+03  0.7818609E-02  0.9319133E-01
       -2   -1    0    0    0  501  0.00000000000E+00  0.00000000000E+00  0.27856099717E+03  0.27856099718E+03  0.25500000920E-02 0.  1.
        2   -1    0    0  501    0  0.00000000000E+00  0.00000000000E+00 -0.88032659103E+03  0.88032659104E+03  0.25500000920E-02 0. -1.
    10030    2    1    2    0    0  0.00000000000E+00  0.00000000000E+00 -0.60176559386E+03  0.11588875882E+04  0.99040325735E+03 0.  0.
        2    1    3    3  502    0 -0.40110341046E+03  0.31033329220E+02  0.36990640083E+02  0.40399915949E+03  0.25500000920E-02 0.  1.
       -2    1    3    3    0  502  0.40110341046E+03 -0.31033329220E+02 -0.63875623395E+03  0.75488842872E+03  0.25500000920E-02 0. -1.
</event>
<event>
 5   0  0.6967681E-03  0.1012257E+04  0.7818609E-02  0.9295202E-01
       -1   -1    0    0    0  501  0.00000000000E+00  0.00000000000E+00  0.33725583388E+03  0.33725583392E+03  0.50400001928E-02 0. -1.
        1   -1    0    0  501    0  0.00000000000E+00  0.00000000000E+00 -0.75956072500E+03  0.75956072501E+03  0.50400001928E-02 0.  1.
    10030    2    1    2    0    0  0.00000000000E+00  0.00000000000E+00 -0.42230489111E+03  0.10968165589E+04  0.10122574489E+04 0.  0.
        5    1    3    3  502    0  0.11760625697E+03  0.25378653555E+03 -0.66817489298E+03  0.72437463713E+03  0.46999998093E+01 0.  1.
       -5    1    3    3    0  502 -0.11760625697E+03 -0.25378653555E+03  0.24587000187E+03  0.37244192181E+03  0.46999998093E+01 0. -1.
</event>
<event>
 5   0  0.1245850E-02  0.1018428E+04  0.7818609E-02  0.9288561E-01
        2   -1    0    0  501    0  0.00000000000E+00  0.00000000000E+00  0.48805877461E+03  0.48805877461E+03  0.25500000920E-02 0.  1.
       -2   -1    0    0    0  501  0.00000000000E+00  0.00000000000E+00 -0.53128664900E+03  0.53128664901E+03  0.25500000920E-02 0. -1.
    10030    2    1    2    0    0  0.00000000000E+00  0.00000000000E+00 -0.43227874393E+02  0.10193454236E+04  0.10184284185E+04 0.  0.
        3    1    3    3  502    0  0.29352483061E+03  0.63540024794E+02  0.38998004366E+03  0.49221804679E+03  0.10100000352E+00 0.  1.
       -3    1    3    3    0  502 -0.29352483061E+03 -0.63540024794E+02 -0.43320791805E+03  0.52712737683E+03  0.10100000352E+00 0. -1.
</event>
<event>
 5   0  0.1240503E-02  0.1005270E+04  0.7818609E-02  0.9302783E-01
       -2   -1    0    0    0  501  0.00000000000E+00  0.00000000000E+00  0.59506949172E+03  0.59506949172E+03  0.25500000920E-02 0.  1.
        2   -1    0    0  501    0  0.00000000000E+00  0.00000000000E+00 -0.42455880162E+03  0.42455880163E+03  0.25500000920E-02 0. -1.
    10030    2    1    2    0    0  0.00000000000E+00  0.00000000000E+00  0.17051069009E+03  0.10196282934E+04  0.10052700936E+04 0.  0.
        1    1    3    3  502    0 -0.42462383206E+03  0.17574864810E+03 -0.12124280536E+03  0.47528181528E+03  0.50400001928E-02 0. -1.
       -1    1    3    3    0  502  0.42462383206E+03 -0.17574864810E+03  0.29175349545E+03  0.54434647807E+03  0.50400001928E-02 0.  1.
</event>
<event>
 5   0  0.1191822E-02  0.9857454E+03  0.7818609E-02  0.9324319E-01
       -2   -1    0    0    0  501  0.00000000000E+00  0.00000000000E+00  0.13835206604E+03  0.13835206606E+03  0.25500000920E-02 0.  1.
        2   -1    0    0  501    0  0.00000000000E+00  0.00000000000E+00 -0.17558357101E+04  0.17558357101E+04  0.25500000920E-02 0. -1.
    10030    2    1    2    0    0  0.00000000000E+00  0.00000000000E+00 -0.16174836441E+04  0.18941877762E+04  0.98574539947E+03 0.  0.
        4    1    3    3  502    0  0.27574416960E+03  0.39959808260E+03 -0.64559522196E+03  0.80777984514E+03  0.12699999809E+01 0.  1.
       -4    1    3    3    0  502 -0.27574416960E+03 -0.39959808260E+03 -0.97188842212E+03  0.10864079310E+04  0.12699999809E+01 0. -1.
</event>
<event>
 5   0  0.1216322E-02  0.1069790E+04  0.7818609E-02  0.9235147E-01
        2   -1    0    0  501    0  0.00000000000E+00  0.00000000000E+00  0.78675013722E+03  0.78675013722E+03  0.25500000920E-02 0. -1.
       -2   -1    0    0    0  501  0.00000000000E+00  0.00000000000E+00 -0.36366405965E+03  0.36366405966E+03  0.25500000920E-02 0.  1.
    10030    2    1    2    0    0  0.00000000000E+00  0.00000000000E+00  0.42308607757E+03  0.11504141969E+04  0.10697901642E+04 0.  0.
        2    1    3    3  502    0 -0.27769787292E+03  0.32282736621E+03  0.55963422730E+03  0.70322406484E+03  0.25500000920E-02 0. -1.
       -2    1    3    3    0  502  0.27769787292E+03 -0.32282736621E+03 -0.13654814973E+03  0.44719013204E+03  0.25500000920E-02 0.  1.
</event>
<event>
 5   0  0.6967681E-03  0.9824895E+03  0.7818609E-02  0.9327961E-01
        1   -1    0    0  501    0  0.00000000000E+00  0.00000000000E+00  0.81732765930E+03  0.81732765931E+03  0.50400001928E-02 0. -1.
       -1   -1    0    0    0  501  0.00000000000E+00  0.00000000000E+00 -0.29525659318E+03  0.29525659323E+03  0.50400001928E-02 0.  1.
    10030    2    1    2    0    0  0.00000000000E+00  0.00000000000E+00  0.52207106612E+03  0.11125842525E+04  0.98248945080E+03 0.  0.
        5    1    3    3  502    0 -0.14861038802E+03  0.46156119710E+03  0.17204553012E+03  0.51453429480E+03  0.46999998093E+01 0. -1.
       -5    1    3    3    0  502  0.14861038802E+03 -0.46156119710E+03  0.35002553600E+03  0.59804995774E+03  0.46999998093E+01 0.  1.
</event>
<event>
 5   0  0.1216322E-02  0.1014714E+04  0.7818609E-02  0.9292553E-01
       -2   -1    0    0    0  501  0.00000000000E+00  0.00000000000E+00  0.51083515542E+03  0.51083515542E+03  0.25500000920E-02 0. -1.
        2   -1    0    0  501    0  0.00000000000E+00  0.00000000000E+00 -0.50390222066E+03  0.50390222067E+03  0.25500000920E-02 0.  1.
    10030    2    1    2    0    0  0.00000000000E+00  0.00000000000E+00  0.69329347517E+01  0.10147373761E+04  0.10147136921E+04 0.  0.
        2    1    3    3  502    0  0.13641222390E+03 -0.32545730504E+03 -0.36106942942E+03  0.50487808935E+03  0.25500000920E-02 0.  1.
       -2    1    3    3    0  502 -0.13641222390E+03  0.32545730504E+03  0.36800236417E+03  0.50985928674E+03  0.25500000920E-02 0. -1.
</event>
<event>
 5   0  0.6967681E-03  0.9504871E+03  0.7818609E-02  0.9364581E-01
       -1   -1    0    0    0  501  0.00000000000E+00  0.00000000000E+00  0.38653151275E+03  0.38653151278E+03  0.50400001928E-02 0. -1.
        1   -1    0    0  501    0  0.00000000000E+00  0.00000000000E+00 -0.58431571538E+03  0.58431571540E+03  0.50400001928E-02 0.  1.
    10030    2    1    2    0    0  0.00000000000E+00  0.00000000000E+00 -0.19778420263E+03  0.97084722818E+03  0.95048711178E+03 0.  0.
        5    1    3    3  502    0 -0.31789385015E+03 -0.37261828605E+02 -0.45768479870E+03  0.55851804698E+03  0.46999998093E+01 0.  1.
       -5    1    3    3    0  502  0.31789385015E+03  0.37261828605E+02  0.25990059608E+03  0.41232918121E+03  0.46999998093E+01 0. -1.
</event>
<event>
 5   0  0.7461157E-03  0.9875368E+03  0.7818609E-02  0.9322321E-01
       -1   -1    0    0    0  501  0.00000000000E+00  0.00000000000E+00  0.16767232031E+03  0.16767232039E+03  0.50400001928E-02 0. -1.
        1   -1    0    0  501    0  0.00000000000E+00  0.00000000000E+00 -0.14540696562E+04  0.14540696562E+04  0.50400001928E-02 0.  1.
    10030    2    1    2    0    0  0.00000000000E+00  0.00000000000E+00 -0.12863973359E+04  0.16217419766E+04  0.98753680078E+03 0.  0.
        2    1    3    3  502    0  0.42728036786E+03  0.15237220570E+03 -0.32298290947E+03  0.55686960920E+03  0.25500000920E-02 0. -1.
       -2    1    3    3    0  502 -0.42728036786E+03 -0.15237220570E+03 -0.96341442643E+03  0.10648723674E+04  0.25500000920E-02 0.  1.
</event>
<event>
 5   0  0.7461157E-03  0.1038279E+04  0.7818609E-02  0.9267530E-01
       -1   -1    0    0    0  501  0.00000000000E+00  0.00000000000E+00  0.28181856727E+03  0.28181856732E+03  0.50400001928E-02 0. -1.
        1   -1    0    0  501    0  0.00000000000E+00  0.00000000000E+00 -0.95630893635E+03  0.95630893636E+03  0.50400001928E-02 0.  1.
    10030    2    1    2    0    0  0.00000000000E+00  0.00000000000E+00 -0.67449036907E+03  0.12381275037E+04  0.10382786030E+04 0.  0.
        2    1    3    3  502    0  0.38222383876E+03 -0.11389770985E+03 -0.73353276729E+03  0.83494794563E+03  0.25500000920E-02 0. -1.
       -2    1    3    3    0  502 -0.38222383876E+03  0.11389770985E+03  0.59042398212E+02  0.40317955804E+03  0.25500000920E-02 0.  1.
</event>
<event>
 5   0  0.7241200E-03  0.1050560E+04  0.7818609E-02  0.9254766E-01
        1   -1    0    0  501    0  0.00000000000E+00  0.00000000000E+00  0.68716993074E+03  0.68716993076E+03  0.50400001928E-02 0. -1.
       -1   -1    0    0    0  501  0.00000000000E+00  0.00000000000E+00 -0.40152967608E+03  0.40152967611E+03  0.50400001928E-02 0.  1.
    10030    2    1    2    0    0  0.00000000000E+00  0.00000000000E+00  0.28564025467E+03  0.10886996069E+04  0.10505600787E+04 0.  0.
        4    1    3    3  502    0  0.40834603680E+03 -0.28914152644E+03 -0.22885493170E+02  0.50087390307E+03  0.12699999809E+01 0.  1.
       -4    1    3    3    0  502 -0.40834603680E+03  0.28914152644E+03  0.30852574784E+03  0.58782570380E+03  0.12699999809E+01 0. -1.
</event>
<event>
 5   0  0.1240503E-02  0.9959935E+03  0.7818609E-02  0.9312950E-01
        2   -1    0    0  501    0  0.00000000000E+00  0.00000000000E+00  0.90035144389E+03  0.90035144389E+03  0.25500000920E-02 0.  1.
       -2   -1    0    0    0  501  0.00000000000E+00  0.00000000000E+00 -0.27544885014E+03  0.27544885015E+03  0.25500000920E-02 0. -1.
    10030    2    1    2    0    0  0.00000000000E+00  0.00000000000E+00  0.62490259375E+03  0.11758002940E+04  0.99599351393E+03 0.  0.
        1    1    3    3  502    0 -0.59925453667E+02 -0.40186675084E+03 -0.27477462486E+02  0.40723820596E+03  0.50400001928E-02 0. -1.
       -1    1    3    3    0  502  0.59925453667E+02  0.40186675084E+03  0.65238005624E+03  0.76856208808E+03  0.50400001928E-02 0.  1.
</event>
<event>
 5   0  0.1191822E-02  0.1002658E+04  0.7818609E-02  0.9305634E-01
       -2   -1    0    0    0  501  0.00000000000E+00  0.00000000000E+00  0.11111599347E+03  0.11111599350E+03  0.25500000920E-02 0. -1.
        2   -1    0    0  501    0  0.00000000000E+00  0.00000000000E+00 -0.22618776759E+04  0.22618776759E+04  0.25500000920E-02 0.  1.
    10030    2    1    2    0    0  0.00000000000E+00  0.00000000000E+00 -0.21507616824E+04  0.23729936694E+04  0.10026580376E+04 0.  0.
        4    1    3    3  502    0  0.18137844412E+03  0.43267604691E+03 -0.65718725006E+03  0.80746727246E+03  0.12699999809E+01 0.  1.
       -4    1    3    3    0  502 -0.18137844412E+03 -0.43267604691E+03 -0.14935744324E+04  0.15655263969E+04  0.12699999809E+01 0. -1.
</event>
<event>
 5   0  0.7224879E-03  0.1022157E+04  0.7818609E-02  0.9284571E-01
        1   -1    0    0  501    0  0.00000000000E+00  0.00000000000E+00  0.49199538797E+03  0.49199538800E+03  0.50400001928E-02 0. -1.
       -1   -1    0    0    0  501  0.00000000000E+00  0.00000000000E+00 -0.53090225561E+03  0.53090225564E+03  0.50400001928E-02 0.  1.
    10030    2    1    2    0    0  0.00000000000E+00  0.00000000000E+00 -0.38906867642E+02  0.10228976436E+04  0.10221574463E+04 0.  0.
        3    1    3    3  502    0  0.27791291269E+03  0.34814188938E+03  0.23125360998E+03  0.50191294515E+03  0.10100000352E+00 0. -1.
       -3    1    3    3    0  502 -0.27791291269E+03 -0.34814188938E+03 -0.27016047762E+03  0.52098469848E+03  0.10100000352E+00 0.  1.
</event>
<event>
 5   0  0.1245850E-02  0.1000168E+04  0.7818609E-02  0.9308360E-01
       -2   -1    0    0    0  501  0.00000000000E+00  0.00000000000E+00  0.11298294912E+03  0.11298294915E+03  0.25500000920E-02 0.  1.
        2   -1    0    0  501    0  0.00000000000E+00  0.00000000000E+00 -0.22134688523E+04  0.22134688523E+04  0.25500000920E-02 0. -1.
    10030    2    1    2    0    0  0.00000000000E+00  0.00000000000E+00 -0.21004859032E+04  0.23264518015E+04  0.10001684633E+04 0.  0.
        3    1    3    3  502    0  0.26896640031E+03 -0.14815293561E+03 -0.19683503679E+04  0.19921584771E+04  0.10100000352E+00 0. -1.
       -3    1    3    3    0  502 -0.26896640031E+03  0.14815293561E+03 -0.13213553529E+03  0.33429332436E+03  0.10100000352E+00 0.  1.
</event>
<event>
 5   0  0.7224879E-03  0.1007157E+04  0.7818609E-02  0.9300730E-01
       -1   -1    0    0    0  501  0.00000000000E+00  0.00000000000E+00  0.23122817947E+03  0.23122817952E+03  0.50400001928E-02 0.  1.
        1   -1    0    0  501    0  0.00000000000E+00  0.00000000000E+00 -0.10967148284E+04  0.10967148285E+04  0.50400001928E-02 0. -1.
    10030    2    1    2    0    0  0.00000000000E+00  0.00000000000E+00 -0.86548664898E+03  0.13279430080E+04  0.10071571342E+04 0.  0.
        3    1    3    3  502    0  0.36460157508E+02 -0.41757482478E+03 -0.80073010284E+03  0.90380682956E+03  0.10100000352E+00 0. -1.
       -3    1    3    3    0  502 -0.36460157508E+02  0.41757482478E+03 -0.64756546138E+02  0.42413617842E+03  0.10100000352E+00 0.  1.
</event>
<event>
 5   0  0.7461157E-03  0.1004354E+04  0.7818609E-02  0.9303783E-01
        1   -1    0    0  501    0  0.00000000000E+00  0.00000000000E+00  0.10323587910E+04  0.10323587910E+04  0.50400001928E-02 0. -1.
       -1   -1    0    0    0  501  0.00000000000E+00  0.00000000000E+00 -0.24427706710E+03  0.24427706715E+03  0.50400001928E-02 0.  1.
    10030    2    1    2    0    0  0.00000000000E+00  0.00000000000E+00  0.78808172392E+03  0.12766358582E+04  0.10043536782E+04 0.  0.
        2    1    3    3  502    0 -0.12214295984E+03  0.24539323483E+03 -0.14079681710E+03  0.30815659340E+03  0.25500000920E-02 0.  1.
       -2    1    3    3    0  502  0.12214295984E+03 -0.24539323483E+03  0.92887854102E+03  0.96847926479E+03  0.25500000920E-02 0. -1.
</event>
<event>
 5   0  0.1216322E-02  0.1005596E+04  0.7818609E-02  0.9302429E-01
       -2   -1    0    0    0  501  0.00000000000E+00  0.00000000000E+00  0.33621243172E+03  0.33621243173E+03  0.25500000920E-02 0.  1.
        2   -1    0    0  501    0  0.00000000000E+00  0.00000000000E+00 -0.75192219382E+03  0.75192219382E+03  0.25500000920E-02 0. -1.
    10030    2    1    2    0    0  0.00000000000E+00  0.00000000000E+00 -0.41570976209E+03  0.10881346256E+04  0.10055955236E+04 0.  0.
        2    1    3    3  502    0 -0.10243099923E+03  0.87652840124E+02 -0.73199993763E+03  0.74431111686E+03  0.25500000920E-02 0. -1.
       -2    1    3    3    0  502  0.10243099923E+03 -0.87652840124E+02  0.31629017554E+03  0.34382350870E+03  0.25500000920E-02 0.  1.
</event>
<event>
 5   0  0.6967681E-03  0.9864480E+03  0.7818609E-02  0.9323535E-01
        1   -1    0    0  501    0  0.00000000000E+00  0.00000000000E+00  0.27257085027E+03  0.27257085031E+03  0.50400001928E-02 0.  1.
       -1   -1    0    0    0  501  0.00000000000E+00  0.00000000000E+00 -0.89250154464E+03  0.89250154465E+03  0.50400001928E-02 0. -1.
    10030    2    1    2    0    0  0.00000000000E+00  0.00000000000E+00 -0.61993069437E+03  0.11650723950E+04  0.98644798124E+03 0.  0.
        5    1    3    3  502    0  0.38437532711E+03 -0.15963766932E+03 -0.62249225285E+03  0.74883060329E+03  0.46999998093E+01 0. -1.
       -5    1    3    3    0  502 -0.38437532711E+03  0.15963766932E+03  0.25615584816E+01  0.41624179168E+03  0.46999998093E+01 0.  1.
</event>
<event>
 5   0  0.7073004E-03  0.8727158E+03  0.7818609E-02  0.9460346E-01
        1   -1    0    0  501    0  0.00000000000E+00  0.00000000000E+00  0.66440814736E+03  0.66440814737E+03  0.50400001928E-02 0.  1.
       -1   -1    0    0    0  501  0.00000000000E+00  0.00000000000E+00 -0.28658323617E+03  0.28658323622E+03  0.50400001928E-02 0. -1.
    10030    2    1    2    0    0  0.00000000000E+00  0.00000000000E+00  0.37782491118E+03  0.95099138359E+03  0.87271584617E+03 0.  0.
        1    1    3    3  502    0 -0.11492352473E+03 -0.97124836440E+01 -0.26967371753E+03  0.29330131746E+03  0.50400001928E-02 0. -1.
       -1    1    3    3    0  502  0.11492352473E+03  0.97124836440E+01  0.64749862871E+03  0.65769006613E+03  0.50400001928E-02 0.  1.
</event>
<event>
 5   0  0.1191822E-02  0.9652619E+03  0.7818609E-02  0.9347487E-01
        2   -1    0    0  501    0  0.00000000000E+00  0.00000000000E+00  0.26424189187E+03  0.26424189188E+03  0.25500000920E-02 0.  1.
       -2   -1    0    0    0  501  0.00000000000E+00  0.00000000000E+00 -0.88151296358E+03  0.88151296358E+03  0.25500000920E-02 0. -1.
    10030    2    1    2    0    0  0.00000000000E+00  0.00000000000E+00 -0.61727107171E+03  0.11457548555E+04  0.96526194002E+03 0.  0.
        4    1    3    3  502    0 -0.31296506675E+03  0.34956456773E+03 -0.44286772482E+03  0.64519450912E+03  0.12699999809E+01 0. -1.
       -4    1    3    3    0  502  0.31296506675E+03 -0.34956456773E+03 -0.17440334689E+03  0.50056034634E+03  0.12699999809E+01 0.  1.
</event>
<event>
 5   0  0.7073004E-03  0.9728426E+03  0.7818609E-02  0.9338843E-01
        1   -1    0    0  501    0  0.00000000000E+00  0.00000000000E+00  0.60938548117E+03  0.60938548119E+03  0.50400001928E-02 0. -1.
       -1   -1    0    0    0  501  0.00000000000E+00  0.00000000000E+00 -0.38826928260E+03  0.38826928263E+03  0.50400001928E-02 0.  1.
    10030    2    1    2    0    0  0.00000000000E+00  0.00000000000E+00  0.22111619857E+03  0.99765476382E+03  0.97284256409E+03 0.  0.
        1    1    3    3  502    0 -0.38048204730E+03  0.23337565605E+03  0.30881467983E+03  0.54276817488E+03  0.50400001928E-02 0.  1.
       -1    1    3    3    0  502  0.38048204730E+03 -0.23337565605E+03 -0.87698481261E+02  0.45488658894E+03  0.50400001928E-02 0. -1.
</event>
<event>
 5   0  0.1191822E-02  0.9935261E+03  0.7818609E-02  0.9315674E-01
        2   -1    0    0  501    0  0.00000000000E+00  0.00000000000E+00  0.70917238905E+03  0.70917238905E+03  0.25500000920E-02 0.  1.
       -2   -1    0    0    0  501  0.00000000000E+00  0.00000000000E+00 -0.34797398577E+03  0.34797398577E+03  0.25500000920E-02 0. -1.
    10030    2    1    2    0    0  0.00000000000E+00  0.00000000000E+00  0.36119840328E+03  0.10571463748E+04  0.99352613014E+03 0.  0.
        4    1    3    3  502    0 -0.23755202247E+03  0.41187670623E+03  0.27516631777E+02  0.47626900218E+03  0.12699999809E+01 0. -1.
       -4    1    3    3    0  502  0.23755202247E+03 -0.41187670623E+03  0.33368177151E+03  0.58087737265E+03  0.12699999809E+01 0.  1.
</event>
<event>
 5   0  0.1221315E-02  0.9863893E+03  0.7818609E-02  0.9323600E-01
        2   -1    0    0  501    0  0.00000000000E+00  0.00000000000E+00  0.54918222352E+03  0.54918222353E+03  0.25500000920E-02 0. -1.
       -2   -1    0    0    0  501  0.00000000000E+00  0.00000000000E+00 -0.44291480759E+03  0.44291480760E+03  0.25500000920E-02 0.  1.
    10030    2    1    2    0    0  0.00000000000E+00  0.00000000000E+00  0.10626741593E+03  0.99209703113E+03  0.98638925151E+03 0.  0.
        5    1    3    3  502    0  0.28846965808E+03  0.39966479944E+03  0.36541176592E+02  0.49427122426E+03  0.46999998093E+01 0.  1.
       -5    1    3    3    0  502 -0.28846965808E+03 -0.39966479944E+03  0.69726239339E+02  0.49782580688E+03  0.46999998093E+01 0. -1.
</event>
<event>
 5   0  0.7241200E-03  0.9764159E+03  0.7818609E-02  0.9334796E-01
        1   -1    0    0  501    0  0.00000000000E+00  0.00000000000E+00  0.67742337575E+03  0.67742337577E+03  0.50400001928E-02 0.  1.
       -1   -1    0    0    0  501  0.00000000000E+00  0.00000000000E+00 -0.35184347628E+03  0.35184347632E+03  0.50400001928E-02 0. -1.
    10030    2    1    2    0    0  0.00000000000E+00  0.00000000000E+00  0.32557989947E+03  0.10292668521E+04  0.97641588572E+03 0.  0.
        4    1    3    3  502    0 -0.48442151051E+03 -0.59926951479E+02  0.15279277359E+03  0.51147109783E+03  0.12699999809E+01 0.  1.
       -4    1    3    3    0  502  0.48442151051E+03  0.59926951479E+02  0.17278712588E+03  0.51779575426E+03  0.12699999809E+01 0. -1.
</event>
<event>
 5   0  0.1221315E-02  0.9992696E+03  0.7818609E-02  0.9309346E-01
       -2   -1    0    0    0  501  0.00000000000E+00  0.00000000000E+00  0.23271312295E+03  0.23271312296E+03  0.25500000920E-02 0.  1.
        2   -1    0    0  501    0  0.00000000000E+00  0.00000000000E+00 -0.10727153109E+04  0.10727153109E+04  0.25500000920E-02 0. -1.
    10030    2    1    2    0    0  0.00000000000E+00  0.00000000000E+00 -0.84000218797E+03  0.13054284339E+04  0.99926959334E+03 0.  0.
        5    1    3    3  502    0 -0.40381959717E+03 -0.27093923046E+03 -0.56972021661E+03  0.74905376901E+03  0.46999998093E+01 0. -1.
       -5    1    3    3    0  502  0.40381959717E+03  0.27093923046E+03 -0.27028197136E+03  0.55637466486E+03  0.46999998093E+01 0.  1.
</event>
<event>
 5   0  0.4782125E-03  0.1023234E+04  0.7818609E-02  0.9283422E-01
        4   -1    0    0  501    0  0.00000000000E+00  0.00000000000E+00  0.64145196263E+03  0.64145321985E+03  0.12699999809E+01 0. -1.
       -4   -1    0    0    0  501  0.00000000000E+00  0.00000000000E+00 -0.40805939595E+03  0.40806137225E+03  0.12699999809E+01 0.  1.
    10030    2    1    2    0    0  0.00000000000E+00  0.00000000000E+00  0.23339256668E+03  0.10495145921E+04  0.10232344740E+04 0.  0.
        3    1    3    3  502    0 -0.34865553845E+03 -0.63017425295E+02 -0.26186329950E+03  0.44057267075E+03  0.10100000352E+00 0.  1.
       -3    1    3    3    0  502  0.34865553845E+03  0.63017425295E+02  0.49525586619E+03  0.60894192135E+03  0.10100000352E+00 0. -1.
</event>
<event>
 5   0  0.1216322E-02  0.9924130E+03  0.7818609E-02  0.9316905E-01
        2   -1    0    0  501    0  0.00000000000E+00  0.00000000000E+00  0.10463248127E+04  0.10463248127E+04  0.25500000920E-02 0.  1.
       -2   -1    0    0    0  501  0.00000000000E+00  0.00000000000E+00 -0.23531975962E+03  0.23531975964E+03  0.25500000920E-02 0. -1.
    10030    2    1    2    0    0  0.00000000000E+00  0.00000000000E+00  0.81100505309E+03  0.12816445724E+04  0.99241302577E+03 0.  0.
        2    1    3    3  502    0 -0.34615184213E+03 -0.10482462217E+03 -0.33230053026E+02  0.36319903035E+03  0.25500000920E-02 0. -1.
       -2    1    3    3    0  502  0.34615184213E+03  0.10482462217E+03  0.84423510612E+03  0.91844554200E+03  0.25500000920E-02 0.  1.
</event>
<event>
 5   0  0.7224879E-03  0.1014088E+04  0.7818609E-02  0.9293227E-01
       -1   -1    0    0    0  501  0.00000000000E+00  0.00000000000E+00  0.24493859081E+03  0.24493859086E+03  0.50400001928E-02 0.  1.
        1   -1    0    0  501    0  0.00000000000E+00  0.00000000000E+00 -0.10496248910E+04  0.10496248910E+04  0.50400001928E-02 0. -1.
    10030    2    1    2    0    0  0.00000000000E+00  0.00000000000E+00 -0.80468630015E+03  0.12945634818E+04  0.10140880469E+04 0.  0.
        3    1    3    3  502    0  0.43545144751E+03 -0.23540864122E+02 -0.73258378372E+03  0.85255565554E+03  0.10100000352E+00 0. -1.
       -3    1    3    3    0  502 -0.43545144751E+03  0.23540864122E+02 -0.72102516429E+02  0.44200782629E+03  0.10100000352E+00 0.  1.
</event>
</LesHouchesEvents>
