<LesHouchesEvents version="3.0">
<header>
<!--
#*********************************************************************
#                                                                    *
#                        MadGraph5_aMC@NLO                           *
#                                                                    *
#                           Going Beyond                             *
#                                                                    *
#                   http://madgraph.hep.uiuc.edu                     *
#                   http://madgraph.phys.ucl.ac.be                   *
#                   http://amcatnlo.cern.ch                          *
#                                                                    *
#                     The MadGraph5_aMC@NLO team                     *
#                                                                    *
#....................................................................*
#                                                                    *
# This file contains all the information necessary to reproduce      *
# the events generated:                                              *
#                                                                    *
# 1. software version                                                *
# 2. proc_card          : code generation info including model       *
# 3. param_card         : model primary parameters in the LH format  *
# 4. run_card           : running parameters (collider and cuts)     *
# 5. pythia_card        : present only if pythia has been run        *
# 6. pgs_card           : present only if pgs has been run           *
# 7. delphes_cards      : present only if delphes has been run       *
#                                                                    *
#                                                                    *
#*********************************************************************
-->
<MGVersion>
#5.2.2.3
</MGVersion>
<MG5ProcCard>
#************************************************************
#*                     MadGraph5_aMC@NLO                    *
#*                                                          *
#*                *                       *                 *
#*                  *        * *        *                   *
#*                    * * * * 5 * * * *                     *
#*                  *        * *        *                   *
#*                *                       *                 *
#*                                                          *
#*                                                          *
#*         VERSION 2.2.3                 2015-02-10         *
#*                                                          *
#*    The MadGraph5_aMC@NLO Development Team - Find us at   *
#*    https://server06.fynu.ucl.ac.be/projects/madgraph     *
#*                                                          *
#************************************************************
#*                                                          *
#*               Command File for MadGraph5_aMC@NLO         *
#*                                                          *
#*     run as ./bin/mg5_aMC  filename                       *
#*                                                          *
#************************************************************
set group_subprocesses Auto
set ignore_six_quark_processes False
set loop_optimized_output True
set gauge unitary
set complex_mass_scheme False
import model sm
define p = g u c d s u~ c~ d~ s~
define j = g u c d s u~ c~ d~ s~
define l+ = e+ mu+
define l- = e- mu-
define vl = ve vm vt
define vl~ = ve~ vm~ vt~
import model Zprime_UFO
generate p p > zph, zph > j j
add process p p > zph, zph > b b~
output Dijet_signal
</MG5ProcCard>
<MGProcCard>
#*********************************************************************
#                        MadGraph/MadEvent                           *
#                   http://madgraph.hep.uiuc.edu                     *
#                                                                    *
#                          proc_card.dat                             *
#*********************************************************************
#                                                                    *
#            This Files is generated by MADGRAPH 5                   *
#                                                                    *
# WARNING: This Files is generated for MADEVENT (compatibility issue)*
#          This files is NOT a valid MG4 proc_card.dat               *
#          Running this in MG4 will NEVER reproduce the result of MG5*
#                                                                    *
#*********************************************************************
#*********************************************************************
# Process(es) requested : mg2 input                                  *
#*********************************************************************
# Begin PROCESS # This is TAG. Do not modify this line
p p > zph , zph > j j           #Process
# Be carefull the coupling are here in MG5 convention
          
end_coup           # End the couplings input

done               # this tells MG there are no more procs
# End PROCESS  # This is TAG. Do not modify this line
#*********************************************************************
# Model information                                                  *
#*********************************************************************
# Begin MODEL  # This is TAG. Do not modify this line
Zprime_UFO
# End   MODEL  # This is TAG. Do not modify this line
#*********************************************************************
# Start multiparticle definitions                                    *
#*********************************************************************
# Begin MULTIPARTICLES # This is TAG. Do not modify this line

# End  MULTIPARTICLES # This is TAG. Do not modify this line
</MGProcCard>
<MGRunCard>
#*********************************************************************
#                       MadGraph5_aMC@NLO                            *
#                                                                    *
#                     run_card.dat MadEvent                          *
#                                                                    *
#  This file is used to set the parameters of the run.               *
#                                                                    *
#  Some notation/conventions:                                        *
#                                                                    *
#   Lines starting with a '# ' are info or comments                  *
#                                                                    *
#   mind the format:   value    = variable     ! comment             *
#*********************************************************************
#
#*******************                                                 
# Running parameters
#*******************                                                 
#                                                                    
#*********************************************************************
# Tag name for the run (one word)                                    *
#*********************************************************************
  tag_1     = run_tag ! name of the run 
#*********************************************************************
# Run to generate the grid pack                                      *
#*********************************************************************
  .false.     = gridpack  !True = setting up the grid pack
#*********************************************************************
# Number of events and rnd seed                                      *
# Warning: Do not generate more than 1M events in a single run       *
# If you want to run Pythia, avoid more than 50k events in a run.    *
#*********************************************************************
  2000 = nevents ! Number of unweighted events requested 
 2010 = iseed   ! rnd seed (0=assigned automatically=default))
#*********************************************************************
# Collider type and energy                                           *
# lpp: 0=No PDF, 1=proton, -1=antiproton, 2=photon from proton,      *
#                                         3=photon from electron     *
#*********************************************************************
        1     = lpp1    ! beam 1 type 
        1     = lpp2    ! beam 2 type
     4000     = ebeam1  ! beam 1 total energy in GeV
     4000     = ebeam2  ! beam 2 total energy in GeV
#*********************************************************************
# Beam polarization from -100 (left-handed) to 100 (right-handed)    *
#*********************************************************************
        0     = polbeam1 ! beam polarization for beam 1
        0     = polbeam2 ! beam polarization for beam 2
#*********************************************************************
# PDF CHOICE: this automatically fixes also alpha_s and its evol.    *
#*********************************************************************
 'nn23lo1'    = pdlabel     ! PDF set                                     
 230000    = lhaid     ! if pdlabel=lhapdf, this is the lhapdf number
#*********************************************************************
# Renormalization and factorization scales                           *
#*********************************************************************
 F        = fixed_ren_scale  ! if .true. use fixed ren scale
 F        = fixed_fac_scale  ! if .true. use fixed fac scale
 91.1880  = scale            ! fixed ren scale
 91.1880  = dsqrt_q2fact1    ! fixed fact scale for pdf1
 91.1880  = dsqrt_q2fact2    ! fixed fact scale for pdf2
 1        = scalefact        ! scale factor for event-by-event scales
#*********************************************************************
# Matching - Warning! ickkw > 1 is still beta
#*********************************************************************
 0        = ickkw            ! 0 no matching, 1 MLM, 2 CKKW matching
 1        = highestmult      ! for ickkw=2, highest mult group
 1        = ktscheme         ! for ickkw=1, 1 Durham kT, 2 Pythia pTE
 1        = alpsfact         ! scale factor for QCD emission vx
 F        = chcluster        ! cluster only according to channel diag
 T        = pdfwgt           ! for ickkw=1, perform pdf reweighting
 5        = asrwgtflavor     ! highest quark flavor for a_s reweight
 T        = clusinfo         ! include clustering tag in output
 3.0      = lhe_version       ! Change the way clustering information pass to shower.        
#*********************************************************************
#**********************************************************
#
#**********************************************************
# Automatic ptj and mjj cuts if xqcut > 0
# (turn off for VBF and single top processes)
#**********************************************************
   T  = auto_ptj_mjj  ! Automatic setting of ptj and mjj
#**********************************************************
#                                                                    
#**********************************
# BW cutoff (M+/-bwcutoff*Gamma)
#**********************************
  15  = bwcutoff      ! (M+/-bwcutoff*Gamma)
#**********************************************************
# Apply pt/E/eta/dr/mij cuts on decay products or not
# (note that etmiss/ptll/ptheavy/ht/sorted cuts always apply)
#**********************************************************
   T  = cut_decays    ! Cut decay products 
#*************************************************************
# Number of helicities to sum per event (0 = all helicities)
# 0 gives more stable result, but longer run time (needed for
# long decay chains e.g.).
# Use >=2 if most helicities contribute, e.g. pure QCD.
#*************************************************************
   0  = nhel          ! Number of helicities used per event
#*******************                                                 
# Standard Cuts
#*******************                                                 
#                                                                    
#*********************************************************************
# Minimum and maximum pt's (for max, -1 means no cut)                *
#*********************************************************************
 20  = ptj       ! minimum pt for the jets 
  0  = ptb       ! minimum pt for the b 
 10  = pta       ! minimum pt for the photons 
 10  = ptl       ! minimum pt for the charged leptons 
  0  = misset    ! minimum missing Et (sum of neutrino's momenta)
  0  = ptheavy   ! minimum pt for one heavy final state
 1.0 = ptonium   ! minimum pt for the quarkonium states
 -1  = ptjmax    ! maximum pt for the jets
 -1  = ptbmax    ! maximum pt for the b
 -1  = ptamax    ! maximum pt for the photons
 -1  = ptlmax    ! maximum pt for the charged leptons
 -1  = missetmax ! maximum missing Et (sum of neutrino's momenta)
#*********************************************************************
# Minimum and maximum E's (in the center of mass frame)              *
#*********************************************************************
  0  = ej     ! minimum E for the jets 
  0  = eb     ! minimum E for the b 
  0  = ea     ! minimum E for the photons 
  0  = el     ! minimum E for the charged leptons 
 -1   = ejmax ! maximum E for the jets
 -1   = ebmax ! maximum E for the b
 -1   = eamax ! maximum E for the photons
 -1   = elmax ! maximum E for the charged leptons
#*********************************************************************
# Maximum and minimum absolute rapidity (for max, -1 means no cut)   *
#*********************************************************************
   5  = etaj    ! max rap for the jets 
  -1  = etab    ! max rap for the b
 2.5  = etaa    ! max rap for the photons 
 2.5  = etal    ! max rap for the charged leptons 
 0.6  = etaonium ! max rap for the quarkonium states
   0  = etajmin ! min rap for the jets
   0  = etabmin ! min rap for the b
   0  = etaamin ! min rap for the photons
   0  = etalmin ! main rap for the charged leptons
#*********************************************************************
# Minimum and maximum DeltaR distance                                *
#*********************************************************************
 0.4 = drjj    ! min distance between jets 
 0   = drbb    ! min distance between b's 
 0.4 = drll    ! min distance between leptons 
 0.4 = draa    ! min distance between gammas 
 0   = drbj    ! min distance between b and jet 
 0.4 = draj    ! min distance between gamma and jet 
 0.4 = drjl    ! min distance between jet and lepton 
 0   = drab    ! min distance between gamma and b 
 0   = drbl    ! min distance between b and lepton 
 0.4 = dral    ! min distance between gamma and lepton 
 -1  = drjjmax ! max distance between jets
 -1  = drbbmax ! max distance between b's
 -1  = drllmax ! max distance between leptons
 -1  = draamax ! max distance between gammas
 -1  = drbjmax ! max distance between b and jet
 -1  = drajmax ! max distance between gamma and jet
 -1  = drjlmax ! max distance between jet and lepton
 -1  = drabmax ! max distance between gamma and b
 -1  = drblmax ! max distance between b and lepton
 -1  = dralmax ! maxdistance between gamma and lepton
#*********************************************************************
# Minimum and maximum invariant mass for pairs                       *
# WARNING: for four lepton final state mmll cut require to have      *
#          different lepton masses for each flavor!                  *           
#*********************************************************************
 0   = mmjj    ! min invariant mass of a jet pair 
 0   = mmbb    ! min invariant mass of a b pair 
 0   = mmaa    ! min invariant mass of gamma gamma pair
 0   = mmll    ! min invariant mass of l+l- (same flavour) lepton pair
 -1  = mmjjmax ! max invariant mass of a jet pair
 -1  = mmbbmax ! max invariant mass of a b pair
 -1  = mmaamax ! max invariant mass of gamma gamma pair
 -1  = mmllmax ! max invariant mass of l+l- (same flavour) lepton pair
#*********************************************************************
# Minimum and maximum invariant mass for all letpons                 *
#*********************************************************************
 0   = mmnl    ! min invariant mass for all letpons (l+- and vl) 
 -1  = mmnlmax ! max invariant mass for all letpons (l+- and vl) 
#*********************************************************************
# Minimum and maximum pt for 4-momenta sum of leptons                *
#*********************************************************************
 0   = ptllmin  ! Minimum pt for 4-momenta sum of leptons(l and vl)
 -1  = ptllmax  ! Maximum pt for 4-momenta sum of leptons(l and vl)
#*********************************************************************
# Inclusive cuts                                                     *
#*********************************************************************
 0  = xptj ! minimum pt for at least one jet  
 0  = xptb ! minimum pt for at least one b 
 0  = xpta ! minimum pt for at least one photon 
 0  = xptl ! minimum pt for at least one charged lepton 
#*********************************************************************
# Control the pt's of the jets sorted by pt                          *
#*********************************************************************
 0   = ptj1min ! minimum pt for the leading jet in pt
 0   = ptj2min ! minimum pt for the second jet in pt
 0   = ptj3min ! minimum pt for the third jet in pt
 0   = ptj4min ! minimum pt for the fourth jet in pt
 -1  = ptj1max ! maximum pt for the leading jet in pt 
 -1  = ptj2max ! maximum pt for the second jet in pt
 -1  = ptj3max ! maximum pt for the third jet in pt
 -1  = ptj4max ! maximum pt for the fourth jet in pt
 0   = cutuse  ! reject event if fails any (0) / all (1) jet pt cuts
#*********************************************************************
# Control the pt's of leptons sorted by pt                           *
#*********************************************************************
 0   = ptl1min ! minimum pt for the leading lepton in pt
 0   = ptl2min ! minimum pt for the second lepton in pt
 0   = ptl3min ! minimum pt for the third lepton in pt
 0   = ptl4min ! minimum pt for the fourth lepton in pt
 -1  = ptl1max ! maximum pt for the leading lepton in pt 
 -1  = ptl2max ! maximum pt for the second lepton in pt
 -1  = ptl3max ! maximum pt for the third lepton in pt
 -1  = ptl4max ! maximum pt for the fourth lepton in pt
#*********************************************************************
# Control the Ht(k)=Sum of k leading jets                            *
#*********************************************************************
 0   = htjmin ! minimum jet HT=Sum(jet pt)
 -1  = htjmax ! maximum jet HT=Sum(jet pt)
 0   = ihtmin  !inclusive Ht for all partons (including b)
 -1  = ihtmax  !inclusive Ht for all partons (including b)
 0   = ht2min ! minimum Ht for the two leading jets
 0   = ht3min ! minimum Ht for the three leading jets
 0   = ht4min ! minimum Ht for the four leading jets
 -1  = ht2max ! maximum Ht for the two leading jets
 -1  = ht3max ! maximum Ht for the three leading jets
 -1  = ht4max ! maximum Ht for the four leading jets
#***********************************************************************
# Photon-isolation cuts, according to hep-ph/9801442                   *
# When ptgmin=0, all the other parameters are ignored                  *
# When ptgmin>0, pta and draj are not going to be used                 *
#***********************************************************************
   0 = ptgmin ! Min photon transverse momentum
 0.4 = R0gamma ! Radius of isolation code
 1.0 = xn ! n parameter of eq.(3.4) in hep-ph/9801442
 1.0 = epsgamma ! epsilon_gamma parameter of eq.(3.4) in hep-ph/9801442
 .true. = isoEM ! isolate photons from EM energy (photons and leptons)
#*********************************************************************
# WBF cuts                                                           *
#*********************************************************************
 0   = xetamin ! minimum rapidity for two jets in the WBF case  
 0   = deltaeta ! minimum rapidity for two jets in the WBF case 
#*********************************************************************
# KT DURHAM CUT                                                      *
#*********************************************************************
 -1    =  ktdurham        
 0.4  =  dparameter 
#*********************************************************************
# maximal pdg code for quark to be considered as a light jet         *
# (otherwise b cuts are applied)                                     *
#*********************************************************************
 4 = maxjetflavor    ! Maximum jet pdg code
#*********************************************************************
# Jet measure cuts                                                   *
#*********************************************************************
 0   = xqcut   ! minimum kt jet measure between partons
#*********************************************************************
#
#*********************************************************************
# Store info for systematics studies                                 *
# WARNING: If use_syst is T, matched Pythia output is                *
#          meaningful ONLY if plotted taking matchscale              *
#          reweighting into account!                                 *
#*********************************************************************
   F  = use_syst      ! Enable systematics studies
#
#**************************************
# Parameter of the systematics study
#  will be used by SysCalc (if installed)
#**************************************                                  
#
0.5 1 2 = sys_scalefact  # factorization/renormalization scale factor
0.5 1 2 = sys_alpsfact  # \alpha_s emission scale factors
30 50 = sys_matchscale # variation of merging scale
# PDF sets and number of members (0 or none for all members).
CT10nlo.LHgrid = sys_pdf # matching scales
# MSTW2008nlo68cl.LHgrid 1  = sys_pdf
</MGRunCard>
<slha>
######################################################################
## PARAM_CARD AUTOMATICALY GENERATED BY MG5 FOLLOWING UFO MODEL   ####
######################################################################
##                                                                  ##
##  Width set on Auto will be computed following the information    ##
##        present in the decay.py files of the model.               ##
##        See  arXiv:1402.1178 for more details.                    ##
##                                                                  ##
######################################################################

###################################
## INFORMATION FOR CKMBLOCK
###################################
Block ckmblock 
    1 2.277360e-01 # cabi 

###################################
## INFORMATION FOR FRBLOCK
###################################
Block frblock 
    1 1.000000e+00 # gz 

###################################
## INFORMATION FOR MASS
###################################
Block mass 
    1 5.040000e-03 # MD 
    2 2.550000e-03 # MU 
    3 1.010000e-01 # MS 
    4 1.270000e+00 # MC 
    5 4.700000e+00 # MB 
    6 1.720000e+02 # MT 
   11 5.110000e-04 # Me 
   13 1.056600e-01 # MM 
   15 1.777000e+00 # MTA 
   23 9.118760e+01 # MZ 
   25 1.200000e+02 # MH 
  10030 2.900000e+03 # MZph 
  10031 3.000000e+02 # MZpl 
## Dependent parameters, given by model restrictions.
## Those values should be edited following the 
## analytical expression. MG5 ignores those values 
## but they are important for interfacing the output of MG5
## to external program such as Pythia.
  12 0.000000 # ve : 0.0 
  14 0.000000 # vm : 0.0 
  16 0.000000 # vt : 0.0 
  21 0.000000 # g : 0.0 
  22 0.000000 # a : 0.0 
  24 79.824360 # w+ : cmath.sqrt(MZ__exp__2/2. + cmath.sqrt(MZ__exp__4/4. - (aEW*cmath.pi*MZ__exp__2)/(Gf*sqrt__2))) 

###################################
## INFORMATION FOR SMINPUTS
###################################
Block sminputs 
    1 1.279000e+02 # aEWM1 
    2 1.166370e-05 # Gf 
    3 1.184000e-01 # aS 

###################################
## INFORMATION FOR YUKAWA
###################################
Block yukawa 
    1 5.040000e-03 # ymdo 
    2 2.550000e-03 # ymup 
    3 1.010000e-01 # yms 
    4 1.270000e+00 # ymc 
    5 4.700000e+00 # ymb 
    6 1.720000e+02 # ymt 
   11 5.110000e-04 # yme 
   13 1.056600e-01 # ymm 
   15 1.777000e+00 # ymtau 

###################################
## INFORMATION FOR DECAY
###################################
DECAY   6 1.508336e+00 # WT 
DECAY  23 2.495200e+00 # WZ 
DECAY  24 2.085000e+00 # WW 
DECAY  25 5.753088e-03 # WH 
## Dependent parameters, given by model restrictions.
## Those values should be edited following the 
## analytical expression. MG5 ignores those values 
## but they are important for interfacing the output of MG5
## to external program such as Pythia.
DECAY  1 0.000000 # d : 0.0 
DECAY  2 0.000000 # u : 0.0 
DECAY  3 0.000000 # s : 0.0 
DECAY  4 0.000000 # c : 0.0 
DECAY  5 0.000000 # b : 0.0 
DECAY  11 0.000000 # e- : 0.0 
DECAY  12 0.000000 # ve : 0.0 
DECAY  13 0.000000 # mu- : 0.0 
DECAY  14 0.000000 # vm : 0.0 
DECAY  15 0.000000 # ta- : 0.0 
DECAY  16 0.000000 # vt : 0.0 
DECAY  21 0.000000 # g : 0.0 
DECAY  22 0.000000 # a : 0.0 
DECAY  10030 0.308725 # zph : (gz__exp__2*MZph*(5 + cmath.sqrt(1 - (4*MT__exp__2)/MZph__exp__2)))/(144.*cmath.pi) 
DECAY  10031 0.132629 # zpl : (5*gz__exp__2*MZpl)/(144.*cmath.pi) 
#===========================================================
# QUANTUM NUMBERS OF NEW STATE(S) (NON SM PDG CODE)
#===========================================================

Block QNUMBERS 10030  # zph 
        1 0  # 3 times electric charge
        2 3  # number of spin states (2S+1)
        3 1  # colour rep (1: singlet, 3: triplet, 8: octet)
        4 0  # Particle/Antiparticle distinction (0=own anti)
Block QNUMBERS 10031  # zpl 
        1 0  # 3 times electric charge
        2 3  # number of spin states (2S+1)
        3 1  # colour rep (1: singlet, 3: triplet, 8: octet)
        4 0  # Particle/Antiparticle distinction (0=own anti)
</slha>
## END BANNER##
<MGGenerationInfo>
#  Number of Events        :         3915
#  Integrated weight (pb)  :  0.17276E-02
#  Max wgt                 :  0.67337E-06
#  Average wgt             :  0.44128E-06
</MGGenerationInfo>
</header>
<init>
     2212     2212  0.40000000000E+04  0.40000000000E+04 0 0  247000  247000 2   1
  0.17289859120E-02  0.46523291911E-05  0.67336880000E-06   0
</init>
<event>
 5   0  0.6513041E-06  0.2918000E+04  0.7818609E-02  0.8267542E-01
       -2   -1    0    0    0  501  0.00000000000E+00  0.00000000000E+00  0.10377033596E+04  0.10377033596E+04  0.25500000920E-02 0.  1.
        2   -1    0    0  501    0  0.00000000000E+00  0.00000000000E+00 -0.20513381880E+04  0.20513381880E+04  0.25500000920E-02 0. -1.
    10030    2    1    2    0    0  0.00000000000E+00  0.00000000000E+00 -0.10136348284E+04  0.30890415475E+04  0.29179996774E+04 0.  0.
        1    1    3    3  502    0  0.11751180874E+03 -0.72243253006E+03  0.82928983202E+03  0.11060919542E+04  0.50400001928E-02 0.  1.
       -1    1    3    3    0  502 -0.11751180874E+03  0.72243253006E+03 -0.18429246604E+04  0.19829495933E+04  0.50400001928E-02 0. -1.
</event>
<event>
 5   0  0.6513041E-06  0.2888850E+04  0.7818609E-02  0.8276203E-01
        2   -1    0    0  501    0  0.00000000000E+00  0.00000000000E+00  0.13487528766E+04  0.13487528766E+04  0.25500000920E-02 0.  1.
       -2   -1    0    0    0  501  0.00000000000E+00  0.00000000000E+00 -0.15468836808E+04  0.15468836808E+04  0.25500000920E-02 0. -1.
    10030    2    1    2    0    0  0.00000000000E+00  0.00000000000E+00 -0.19813080423E+03  0.28956365573E+04  0.28888501617E+04 0.  0.
        1    1    3    3  502    0 -0.48424851268E+03 -0.11915790069E+04 -0.75788158231E+03  0.14928970643E+04  0.50400001928E-02 0. -1.
       -1    1    3    3    0  502  0.48424851268E+03  0.11915790069E+04  0.55975077807E+03  0.14027394930E+04  0.50400001928E-02 0.  1.
</event>
<event>
 5   0  0.6612533E-06  0.2864632E+04  0.7818609E-02  0.8283479E-01
       -2   -1    0    0    0  501  0.00000000000E+00  0.00000000000E+00  0.79940619825E+03  0.79940619826E+03  0.25500000920E-02 0.  1.
        2   -1    0    0  501    0  0.00000000000E+00  0.00000000000E+00 -0.25663154773E+04  0.25663154773E+04  0.25500000920E-02 0. -1.
    10030    2    1    2    0    0  0.00000000000E+00  0.00000000000E+00 -0.17669092790E+04  0.33657216756E+04  0.28646315639E+04 0.  0.
        3    1    3    3  502    0 -0.74559245115E+03 -0.11247427130E+04 -0.31927839384E+03  0.13866841661E+04  0.10100000352E+00 0.  1.
       -3    1    3    3    0  502  0.74559245115E+03  0.11247427130E+04 -0.14476308852E+04  0.19790375094E+04  0.10100000352E+00 0. -1.
</event>
<event>
 5   0  0.6513041E-06  0.2883318E+04  0.7818609E-02  0.8277858E-01
       -2   -1    0    0    0  501  0.00000000000E+00  0.00000000000E+00  0.76222220209E+03  0.76222220209E+03  0.25500000920E-02 0.  1.
        2   -1    0    0  501    0  0.00000000000E+00  0.00000000000E+00 -0.27267379681E+04  0.27267379681E+04  0.25500000920E-02 0. -1.
    10030    2    1    2    0    0  0.00000000000E+00  0.00000000000E+00 -0.19645157660E+04  0.34889601702E+04  0.28833176853E+04 0.  0.
        1    1    3    3  502    0  0.12067696025E+04  0.31151817375E+03 -0.18590593578E+04  0.22381774152E+04  0.50400001928E-02 0. -1.
       -1    1    3    3    0  502 -0.12067696025E+04 -0.31151817375E+03 -0.10545640812E+03  0.12507827549E+04  0.50400001928E-02 0.  1.
</event>
<event>
 5   0  0.6612533E-06  0.2885076E+04  0.7818609E-02  0.8277332E-01
       -2   -1    0    0    0  501  0.00000000000E+00  0.00000000000E+00  0.11235035594E+04  0.11235035594E+04  0.25500000920E-02 0. -1.
        2   -1    0    0  501    0  0.00000000000E+00  0.00000000000E+00 -0.18521662828E+04  0.18521662828E+04  0.25500000920E-02 0.  1.
    10030    2    1    2    0    0  0.00000000000E+00  0.00000000000E+00 -0.72866272342E+03  0.29756698423E+04  0.28850756742E+04 0.  0.
        3    1    3    3  502    0  0.51054486009E+03 -0.45311153046E+03  0.94637974393E+03  0.11668764901E+04  0.10100000352E+00 0. -1.
       -3    1    3    3    0  502 -0.51054486009E+03  0.45311153046E+03 -0.16750424674E+04  0.18087933522E+04  0.10100000352E+00 0.  1.
</event>
<event>
 5   0  0.2474769E-06  0.2920458E+04  0.7818609E-02  0.8266816E-01
        1   -1    0    0  501    0  0.00000000000E+00  0.00000000000E+00  0.22949065548E+04  0.22949065548E+04  0.50400001928E-02 0.  1.
       -1   -1    0    0    0  501  0.00000000000E+00  0.00000000000E+00 -0.92913119345E+03  0.92913119346E+03  0.50400001928E-02 0. -1.
    10030    2    1    2    0    0  0.00000000000E+00  0.00000000000E+00  0.13657753614E+04  0.32240377483E+04  0.29204583655E+04 0.  0.
        1    1    3    3  502    0 -0.92988312532E+03 -0.17984975960E+03  0.19098321175E+04  0.21317803076E+04  0.50400001928E-02 0.  1.
       -1    1    3    3    0  502  0.92988312532E+03  0.17984975960E+03 -0.54405675614E+03  0.10922574407E+04  0.50400001928E-02 0. -1.
</event>
<event>
 5   0  0.2508094E-06  0.2890790E+04  0.7818609E-02  0.8275623E-01
        1   -1    0    0  501    0  0.00000000000E+00  0.00000000000E+00  0.13842768651E+04  0.13842768651E+04  0.50400001928E-02 0. -1.
       -1   -1    0    0    0  501  0.00000000000E+00  0.00000000000E+00 -0.15092111864E+04  0.15092111864E+04  0.50400001928E-02 0.  1.
    10030    2    1    2    0    0  0.00000000000E+00  0.00000000000E+00 -0.12493432128E+03  0.28934880516E+04  0.28907896015E+04 0.  0.
        3    1    3    3  502    0 -0.38006451220E+03  0.54522703391E+03  0.12222591394E+04  0.13912724270E+04  0.10100000352E+00 0. -1.
       -3    1    3    3    0  502  0.38006451220E+03 -0.54522703391E+03 -0.13471934607E+04  0.15022156246E+04  0.10100000352E+00 0.  1.
</event>
<event>
 5   0  0.6513041E-06  0.2953006E+04  0.7818609E-02  0.8257279E-01
        2   -1    0    0  501    0  0.00000000000E+00  0.00000000000E+00  0.15838585908E+04  0.15838585908E+04  0.25500000920E-02 0.  1.
       -2   -1    0    0    0  501  0.00000000000E+00  0.00000000000E+00 -0.13764240322E+04  0.13764240322E+04  0.25500000920E-02 0. -1.
    10030    2    1    2    0    0  0.00000000000E+00  0.00000000000E+00  0.20743455855E+03  0.29602826230E+04  0.29530059451E+04 0.  0.
        1    1    3    3  502    0 -0.49001468940E+03  0.27579201439E+03 -0.12648887768E+04  0.13842395922E+04  0.50400001928E-02 0. -1.
       -1    1    3    3    0  502  0.49001468940E+03 -0.27579201439E+03  0.14723233353E+04  0.15760430308E+04  0.50400001928E-02 0.  1.
</event>
<event>
 5   0  0.2429358E-06  0.3052167E+04  0.7818609E-02  0.8228989E-01
        1   -1    0    0  501    0  0.00000000000E+00  0.00000000000E+00  0.14399643230E+04  0.14399643230E+04  0.50400001928E-02 0.  1.
       -1   -1    0    0    0  501  0.00000000000E+00  0.00000000000E+00 -0.16173528245E+04  0.16173528245E+04  0.50400001928E-02 0. -1.
    10030    2    1    2    0    0  0.00000000000E+00  0.00000000000E+00 -0.17738850148E+03  0.30573171475E+04  0.30521666829E+04 0.  0.
        2    1    3    3  502    0 -0.59456047582E+02 -0.51232474659E+02 -0.16153299115E+04  0.16172354531E+04  0.25500000920E-02 0. -1.
       -2    1    3    3    0  502  0.59456047582E+02  0.51232474659E+02  0.14379414100E+04  0.14400816944E+04  0.25500000920E-02 0.  1.
</event>
<event>
 5   0  0.6513041E-06  0.2957761E+04  0.7818609E-02  0.8255897E-01
        2   -1    0    0  501    0  0.00000000000E+00  0.00000000000E+00  0.19893603377E+04  0.19893603377E+04  0.25500000920E-02 0.  1.
       -2   -1    0    0    0  501  0.00000000000E+00  0.00000000000E+00 -0.10993919824E+04  0.10993919824E+04  0.25500000920E-02 0. -1.
    10030    2    1    2    0    0  0.00000000000E+00  0.00000000000E+00  0.88996835523E+03  0.30887523201E+04  0.29577605078E+04 0.  0.
        1    1    3    3  502    0  0.14078507523E+04  0.43194597132E+03  0.58689106255E+03  0.15852640733E+04  0.50400001928E-02 0.  1.
       -1    1    3    3    0  502 -0.14078507523E+04 -0.43194597132E+03  0.30307729268E+03  0.15034882468E+04  0.50400001928E-02 0. -1.
</event>
<event>
 5   0  0.2429358E-06  0.2897325E+04  0.7818609E-02  0.8273674E-01
        1   -1    0    0  501    0  0.00000000000E+00  0.00000000000E+00  0.16042313402E+04  0.16042313402E+04  0.50400001928E-02 0.  1.
       -1   -1    0    0    0  501  0.00000000000E+00  0.00000000000E+00 -0.13081802495E+04  0.13081802496E+04  0.50400001928E-02 0. -1.
    10030    2    1    2    0    0  0.00000000000E+00  0.00000000000E+00  0.29605109068E+03  0.29124115898E+04  0.28973254943E+04 0.  0.
        2    1    3    3  502    0 -0.10734787468E+04  0.95566108837E+03  0.33057239044E+03  0.14747619608E+04  0.25500000920E-02 0. -1.
       -2    1    3    3    0  502  0.10734787468E+04 -0.95566108837E+03 -0.34521299757E+02  0.14376496290E+04  0.25500000920E-02 0.  1.
</event>
<event>
 5   0  0.6733688E-06  0.2853015E+04  0.7818609E-02  0.8286996E-01
        2   -1    0    0  501    0  0.00000000000E+00  0.00000000000E+00  0.23364469263E+04  0.23364469263E+04  0.25500000920E-02 0. -1.
       -2   -1    0    0    0  501  0.00000000000E+00  0.00000000000E+00 -0.87094801057E+03  0.87094801058E+03  0.25500000920E-02 0.  1.
    10030    2    1    2    0    0  0.00000000000E+00  0.00000000000E+00  0.14654989157E+04  0.32073949369E+04  0.28530151085E+04 0.  0.
        5    1    3    3  502    0 -0.65493381182E+03  0.73916241944E+02 -0.68950132134E+03  0.95385327531E+03  0.46999998093E+01 0.  1.
       -5    1    3    3    0  502  0.65493381182E+03 -0.73916241944E+02  0.21550002371E+04  0.22535416616E+04  0.46999998093E+01 0. -1.
</event>
<event>
 5   0  0.2348684E-06  0.2884416E+04  0.7818609E-02  0.8277529E-01
        1   -1    0    0  501    0  0.00000000000E+00  0.00000000000E+00  0.13184346919E+04  0.13184346919E+04  0.50400001928E-02 0. -1.
       -1   -1    0    0    0  501  0.00000000000E+00  0.00000000000E+00 -0.15776004796E+04  0.15776004796E+04  0.50400001928E-02 0.  1.
    10030    2    1    2    0    0  0.00000000000E+00  0.00000000000E+00 -0.25916578773E+03  0.28960351715E+04  0.28844155056E+04 0.  0.
        5    1    3    3  502    0 -0.92947333144E+03  0.11027317258E+04 -0.12779264582E+03  0.14478573767E+04  0.46999998093E+01 0.  1.
       -5    1    3    3    0  502  0.92947333144E+03 -0.11027317258E+04 -0.13137314191E+03  0.14481777948E+04  0.46999998093E+01 0. -1.
</event>
<event>
 5   0  0.2474769E-06  0.2919403E+04  0.7818609E-02  0.8267128E-01
        1   -1    0    0  501    0  0.00000000000E+00  0.00000000000E+00  0.22865845914E+04  0.22865845914E+04  0.50400001928E-02 0.  1.
       -1   -1    0    0    0  501  0.00000000000E+00  0.00000000000E+00 -0.93183899270E+03  0.93183899271E+03  0.50400001928E-02 0. -1.
    10030    2    1    2    0    0  0.00000000000E+00  0.00000000000E+00  0.13547455987E+04  0.32184235841E+04  0.29194031461E+04 0.  0.
        1    1    3    3  502    0 -0.24294530181E+00 -0.13431114200E+04  0.13075708978E+04  0.18744839285E+04  0.50400001928E-02 0.  1.
       -1    1    3    3    0  502  0.24294530181E+00  0.13431114200E+04  0.47174700943E+02  0.13439396556E+04  0.50400001928E-02 0. -1.
</event>
<event>
 5   0  0.2508094E-06  0.2900065E+04  0.7818609E-02  0.8272858E-01
       -1   -1    0    0    0  501  0.00000000000E+00  0.00000000000E+00  0.10848323082E+04  0.10848323082E+04  0.50400001928E-02 0.  1.
        1   -1    0    0  501    0  0.00000000000E+00  0.00000000000E+00 -0.19381738910E+04  0.19381738910E+04  0.50400001928E-02 0. -1.
    10030    2    1    2    0    0  0.00000000000E+00  0.00000000000E+00 -0.85334158284E+03  0.30230061992E+04  0.29000645896E+04 0.  0.
        3    1    3    3  502    0  0.49299590950E+01  0.47179133524E+03 -0.18559209361E+04  0.19149553258E+04  0.10100000352E+00 0. -1.
       -3    1    3    3    0  502 -0.49299590950E+01 -0.47179133524E+03  0.10025793532E+04  0.11080508735E+04  0.10100000352E+00 0.  1.
</event>
<event>
 5   0  0.2508094E-06  0.2893935E+04  0.7818609E-02  0.8274684E-01
       -1   -1    0    0    0  501  0.00000000000E+00  0.00000000000E+00  0.10677622056E+04  0.10677622056E+04  0.50400001928E-02 0. -1.
        1   -1    0    0  501    0  0.00000000000E+00  0.00000000000E+00 -0.19608440600E+04  0.19608440600E+04  0.50400001928E-02 0.  1.
    10030    2    1    2    0    0  0.00000000000E+00  0.00000000000E+00 -0.89308185441E+03  0.30286062657E+04  0.28939351606E+04 0.  0.
        3    1    3    3  502    0  0.66492051328E+02  0.63684140874E+03 -0.18045099326E+04  0.19147439202E+04  0.10100000352E+00 0.  1.
       -3    1    3    3    0  502 -0.66492051328E+02 -0.63684140874E+03  0.91142807820E+03  0.11138623455E+04  0.10100000352E+00 0. -1.
</event>
<event>
 5   0  0.6513041E-06  0.2852753E+04  0.7818609E-02  0.8287075E-01
        2   -1    0    0  501    0  0.00000000000E+00  0.00000000000E+00  0.26911851305E+04  0.26911851305E+04  0.25500000920E-02 0.  1.
       -2   -1    0    0    0  501  0.00000000000E+00  0.00000000000E+00 -0.75600526111E+03  0.75600526112E+03  0.25500000920E-02 0. -1.
    10030    2    1    2    0    0  0.00000000000E+00  0.00000000000E+00  0.19351798694E+04  0.34471903916E+04  0.28527531385E+04 0.  0.
        1    1    3    3  502    0 -0.53338533294E+03 -0.12125383055E+04  0.16067737321E+04  0.20824194779E+04  0.50400001928E-02 0.  1.
       -1    1    3    3    0  502  0.53338533294E+03  0.12125383055E+04  0.32840613722E+03  0.13647709137E+04  0.50400001928E-02 0. -1.
</event>
<event>
 5   0  0.2336512E-06  0.2424152E+04  0.7818609E-02  0.8430516E-01
       -1   -1    0    0    0  501  0.00000000000E+00  0.00000000000E+00  0.21452999572E+04  0.21452999572E+04  0.50400001928E-02 0. -1.
        1   -1    0    0  501    0  0.00000000000E+00  0.00000000000E+00 -0.68481265420E+03  0.68481265421E+03  0.50400001928E-02 0.  1.
    10030    2    1    2    0    0  0.00000000000E+00  0.00000000000E+00  0.14604873030E+04  0.28301126114E+04  0.24241522706E+04 0.  0.
        4    1    3    3  502    0  0.47098644431E+03  0.39918741107E+03 -0.48747768187E+03  0.78664790288E+03  0.12699999809E+01 0.  1.
       -4    1    3    3    0  502 -0.47098644431E+03 -0.39918741107E+03  0.19479649849E+04  0.20434647085E+04  0.12699999809E+01 0. -1.
</event>
<event>
 5   0  0.2474769E-06  0.2899905E+04  0.7818609E-02  0.8272906E-01
        1   -1    0    0  501    0  0.00000000000E+00  0.00000000000E+00  0.11835963015E+04  0.11835963016E+04  0.50400001928E-02 0.  1.
       -1   -1    0    0    0  501  0.00000000000E+00  0.00000000000E+00 -0.17762488340E+04  0.17762488340E+04  0.50400001928E-02 0. -1.
    10030    2    1    2    0    0  0.00000000000E+00  0.00000000000E+00 -0.59265253243E+03  0.29598451355E+04  0.28999045160E+04 0.  0.
        1    1    3    3  502    0 -0.73152285624E+03  0.75847574203E+03 -0.13128798387E+04  0.16834680309E+04  0.50400001928E-02 0. -1.
       -1    1    3    3    0  502  0.73152285624E+03 -0.75847574203E+03  0.72022730623E+03  0.12763771046E+04  0.50400001928E-02 0.  1.
</event>
<event>
 5   0  0.6615403E-06  0.2900657E+04  0.7818609E-02  0.8272682E-01
       -2   -1    0    0    0  501  0.00000000000E+00  0.00000000000E+00  0.18964171394E+04  0.18964171394E+04  0.25500000920E-02 0.  1.
        2   -1    0    0  501    0  0.00000000000E+00  0.00000000000E+00 -0.11091722964E+04  0.11091722964E+04  0.25500000920E-02 0. -1.
    10030    2    1    2    0    0  0.00000000000E+00  0.00000000000E+00  0.78724484303E+03  0.30055894358E+04  0.29006574106E+04 0.  0.
        2    1    3    3  502    0  0.12405828341E+04  0.52152345903E+03 -0.16669922076E+03  0.13560313849E+04  0.25500000920E-02 0. -1.
       -2    1    3    3    0  502 -0.12405828341E+04 -0.52152345903E+03  0.95394406379E+03  0.16495580509E+04  0.25500000920E-02 0.  1.
</event>
<event>
 5   0  0.2508094E-06  0.2713174E+04  0.7818609E-02  0.8330743E-01
       -1   -1    0    0    0  501  0.00000000000E+00  0.00000000000E+00  0.10782352955E+04  0.10782352956E+04  0.50400001928E-02 0. -1.
        1   -1    0    0  501    0  0.00000000000E+00  0.00000000000E+00 -0.17067963727E+04  0.17067963727E+04  0.50400001928E-02 0.  1.
    10030    2    1    2    0    0  0.00000000000E+00  0.00000000000E+00 -0.62856107719E+03  0.27850316683E+04  0.27131738547E+04 0.  0.
        3    1    3    3  502    0 -0.21383629378E+03 -0.13283891738E+04 -0.49202645975E+03  0.14326317757E+04  0.10100000352E+00 0.  1.
       -3    1    3    3    0  502  0.21383629378E+03  0.13283891738E+04 -0.13653461744E+03  0.13523998926E+04  0.10100000352E+00 0. -1.
</event>
<event>
 5   0  0.6612533E-06  0.2861183E+04  0.7818609E-02  0.8284521E-01
        2   -1    0    0  501    0  0.00000000000E+00  0.00000000000E+00  0.21036643362E+04  0.21036643362E+04  0.25500000920E-02 0. -1.
       -2   -1    0    0    0  501  0.00000000000E+00  0.00000000000E+00 -0.97286977087E+03  0.97286977087E+03  0.25500000920E-02 0.  1.
    10030    2    1    2    0    0  0.00000000000E+00  0.00000000000E+00  0.11307945653E+04  0.30765341071E+04  0.28611825812E+04 0.  0.
        3    1    3    3  502    0 -0.84531245188E+03 -0.69427601401E+03 -0.42596069405E+03  0.11738887716E+04  0.10100000352E+00 0.  1.
       -3    1    3    3    0  502  0.84531245188E+03  0.69427601401E+03  0.15567552594E+04  0.19026453355E+04  0.10100000352E+00 0. -1.
</event>
<event>
 5   0  0.2474769E-06  0.2932368E+04  0.7818609E-02  0.8263312E-01
       -1   -1    0    0    0  501  0.00000000000E+00  0.00000000000E+00  0.12660880227E+04  0.12660880227E+04  0.50400001928E-02 0.  1.
        1   -1    0    0  501    0  0.00000000000E+00  0.00000000000E+00 -0.16979042263E+04  0.16979042263E+04  0.50400001928E-02 0. -1.
    10030    2    1    2    0    0  0.00000000000E+00  0.00000000000E+00 -0.43181620362E+03  0.29639922491E+04  0.29323684657E+04 0.  0.
        1    1    3    3  502    0  0.11865212500E+03  0.25146035017E+03  0.12391951221E+04  0.12700059784E+04  0.50400001928E-02 0.  1.
       -1    1    3    3    0  502 -0.11865212500E+03 -0.25146035017E+03 -0.16710113257E+04  0.16939862707E+04  0.50400001928E-02 0. -1.
</event>
<event>
 5   0  0.6615403E-06  0.2811319E+04  0.7818609E-02  0.8299763E-01
        2   -1    0    0  501    0  0.00000000000E+00  0.00000000000E+00  0.16862282842E+04  0.16862282842E+04  0.25500000920E-02 0.  1.
       -2   -1    0    0    0  501  0.00000000000E+00  0.00000000000E+00 -0.11717743636E+04  0.11717743636E+04  0.25500000920E-02 0. -1.
    10030    2    1    2    0    0  0.00000000000E+00  0.00000000000E+00  0.51445392066E+03  0.28580026478E+04  0.28113193164E+04 0.  0.
        2    1    3    3  502    0 -0.52305972085E+03 -0.12209045441E+04  0.72495354278E+03  0.15131943089E+04  0.25500000920E-02 0.  1.
       -2    1    3    3    0  502  0.52305972085E+03  0.12209045441E+04 -0.21049962212E+03  0.13448083389E+04  0.25500000920E-02 0. -1.
</event>
<event>
 5   0  0.2429358E-06  0.2889005E+04  0.7818609E-02  0.8276156E-01
        1   -1    0    0  501    0  0.00000000000E+00  0.00000000000E+00  0.16535573582E+04  0.16535573582E+04  0.50400001928E-02 0.  1.
       -1   -1    0    0    0  501  0.00000000000E+00  0.00000000000E+00 -0.12618778287E+04  0.12618778287E+04  0.50400001928E-02 0. -1.
    10030    2    1    2    0    0  0.00000000000E+00  0.00000000000E+00  0.39167952953E+03  0.29154351869E+04  0.28890049282E+04 0.  0.
        2    1    3    3  502    0 -0.13380534944E+04  0.85774269308E+01  0.74499338352E+03  0.15314946515E+04  0.25500000920E-02 0.  1.
       -2    1    3    3    0  502  0.13380534944E+04 -0.85774269308E+01 -0.35331385399E+03  0.13839405354E+04  0.25500000920E-02 0. -1.
</event>
<event>
 5   0  0.6612533E-06  0.2880113E+04  0.7818609E-02  0.8278819E-01
       -2   -1    0    0    0  501  0.00000000000E+00  0.00000000000E+00  0.20734636245E+04  0.20734636245E+04  0.25500000920E-02 0. -1.
        2   -1    0    0  501    0  0.00000000000E+00  0.00000000000E+00 -0.10001440474E+04  0.10001440474E+04  0.25500000920E-02 0.  1.
    10030    2    1    2    0    0  0.00000000000E+00  0.00000000000E+00  0.10733195771E+04  0.30736076718E+04  0.28801127072E+04 0.  0.
        3    1    3    3  502    0 -0.84255556387E+03 -0.95779815197E+03  0.12497466583E+04  0.17858174314E+04  0.10100000352E+00 0. -1.
       -3    1    3    3    0  502  0.84255556387E+03  0.95779815197E+03 -0.17642708128E+03  0.12877902404E+04  0.10100000352E+00 0.  1.
</event>
<event>
 5   0  0.6733688E-06  0.2901015E+04  0.7818609E-02  0.8272576E-01
       -2   -1    0    0    0  501  0.00000000000E+00  0.00000000000E+00  0.87359411129E+03  0.87359411129E+03  0.25500000920E-02 0. -1.
        2   -1    0    0  501    0  0.00000000000E+00  0.00000000000E+00 -0.24084084383E+04  0.24084084383E+04  0.25500000920E-02 0.  1.
    10030    2    1    2    0    0  0.00000000000E+00  0.00000000000E+00 -0.15348143270E+04  0.32820025496E+04  0.29010146013E+04 0.  0.
        5    1    3    3  502    0 -0.11438542666E+04 -0.82311827024E+03 -0.37874483190E+03  0.14592450129E+04  0.46999998093E+01 0. -1.
       -5    1    3    3    0  502  0.11438542666E+04  0.82311827024E+03 -0.11560694951E+04  0.18227575367E+04  0.46999998093E+01 0.  1.
</event>
<event>
 5   0  0.2429358E-06  0.2909424E+04  0.7818609E-02  0.8270079E-01
        1   -1    0    0  501    0  0.00000000000E+00  0.00000000000E+00  0.10772857513E+04  0.10772857513E+04  0.50400001928E-02 0. -1.
       -1   -1    0    0    0  501  0.00000000000E+00  0.00000000000E+00 -0.19643687641E+04  0.19643687641E+04  0.50400001928E-02 0.  1.
    10030    2    1    2    0    0  0.00000000000E+00  0.00000000000E+00 -0.88708301279E+03  0.30416545155E+04  0.29094236405E+04 0.  0.
        2    1    3    3  502    0 -0.32758724882E+03  0.11204104026E+04 -0.13510694281E+04  0.17855031435E+04  0.25500000920E-02 0.  1.
       -2    1    3    3    0  502  0.32758724882E+03 -0.11204104026E+04  0.46398641534E+03  0.12561513720E+04  0.25500000920E-02 0. -1.
</event>
<event>
 5   0  0.6612533E-06  0.2921002E+04  0.7818609E-02  0.8266656E-01
       -2   -1    0    0    0  501  0.00000000000E+00  0.00000000000E+00  0.12566355010E+04  0.12566355010E+04  0.25500000920E-02 0.  1.
        2   -1    0    0  501    0  0.00000000000E+00  0.00000000000E+00 -0.16974395908E+04  0.16974395908E+04  0.25500000920E-02 0. -1.
    10030    2    1    2    0    0  0.00000000000E+00  0.00000000000E+00 -0.44080408983E+03  0.29540750918E+04  0.29210017807E+04 0.  0.
        3    1    3    3  502    0  0.69033994436E+03  0.17545677495E+03  0.10690673839E+04  0.12846242252E+04  0.10100000352E+00 0.  1.
       -3    1    3    3    0  502 -0.69033994436E+03 -0.17545677495E+03 -0.15098714737E+04  0.16694508666E+04  0.10100000352E+00 0. -1.
</event>
<event>
 5   0  0.6513041E-06  0.2810218E+04  0.7818609E-02  0.8300103E-01
        2   -1    0    0  501    0  0.00000000000E+00  0.00000000000E+00  0.14024624174E+04  0.14024624175E+04  0.25500000920E-02 0. -1.
       -2   -1    0    0    0  501  0.00000000000E+00  0.00000000000E+00 -0.14077608859E+04  0.14077608859E+04  0.25500000920E-02 0.  1.
    10030    2    1    2    0    0  0.00000000000E+00  0.00000000000E+00 -0.52984684210E+01  0.28102233033E+04  0.28102183084E+04 0.  0.
        1    1    3    3  502    0 -0.72777429811E+03 -0.26649273317E+03  0.11693843884E+04  0.14029018689E+04  0.50400001928E-02 0. -1.
       -1    1    3    3    0  502  0.72777429811E+03  0.26649273317E+03 -0.11746828568E+04  0.14073214345E+04  0.50400001928E-02 0.  1.
</event>
<event>
 5   0  0.2348684E-06  0.3021491E+04  0.7818609E-02  0.8237620E-01
       -1   -1    0    0    0  501  0.00000000000E+00  0.00000000000E+00  0.11635861067E+04  0.11635861067E+04  0.50400001928E-02 0.  1.
        1   -1    0    0  501    0  0.00000000000E+00  0.00000000000E+00 -0.19614810991E+04  0.19614810991E+04  0.50400001928E-02 0. -1.
    10030    2    1    2    0    0  0.00000000000E+00  0.00000000000E+00 -0.79789499241E+03  0.31250672058E+04  0.30214911256E+04 0.  0.
        5    1    3    3  502    0 -0.87488685509E+03  0.35848179753E+03 -0.16176406746E+04  0.18736914502E+04  0.46999998093E+01 0. -1.
       -5    1    3    3    0  502  0.87488685509E+03 -0.35848179753E+03  0.81974568217E+03  0.12513757556E+04  0.46999998093E+01 0.  1.
</event>
<event>
 5   0  0.6612533E-06  0.2886499E+04  0.7818609E-02  0.8276906E-01
       -2   -1    0    0    0  501  0.00000000000E+00  0.00000000000E+00  0.82828739187E+03  0.82828739187E+03  0.25500000920E-02 0.  1.
        2   -1    0    0  501    0  0.00000000000E+00  0.00000000000E+00 -0.25147899109E+04  0.25147899109E+04  0.25500000920E-02 0. -1.
    10030    2    1    2    0    0  0.00000000000E+00  0.00000000000E+00 -0.16865025191E+04  0.33430773028E+04  0.28864987625E+04 0.  0.
        3    1    3    3  502    0 -0.13427482147E+04 -0.48205326947E+03 -0.10959904984E+04  0.17990395509E+04  0.10100000352E+00 0.  1.
       -3    1    3    3    0  502  0.13427482147E+04  0.48205326947E+03 -0.59051202066E+03  0.15440377520E+04  0.10100000352E+00 0. -1.
</event>
<event>
 5   0  0.2336512E-06  0.2888459E+04  0.7818609E-02  0.8276319E-01
        1   -1    0    0  501    0  0.00000000000E+00  0.00000000000E+00  0.12488278873E+04  0.12488278873E+04  0.50400001928E-02 0.  1.
       -1   -1    0    0    0  501  0.00000000000E+00  0.00000000000E+00 -0.16702055114E+04  0.16702055114E+04  0.50400001928E-02 0. -1.
    10030    2    1    2    0    0  0.00000000000E+00  0.00000000000E+00 -0.42137762403E+03  0.29190333987E+04  0.28884592572E+04 0.  0.
        4    1    3    3  502    0 -0.12745764582E+04 -0.53216528971E+02 -0.89492307011E+03  0.15582894664E+04  0.12699999809E+01 0. -1.
       -4    1    3    3    0  502  0.12745764582E+04  0.53216528971E+02  0.47354544608E+03  0.13607439323E+04  0.12699999809E+01 0.  1.
</event>
<event>
 5   0  0.2474769E-06  0.2944650E+04  0.7818609E-02  0.8259715E-01
       -1   -1    0    0    0  501  0.00000000000E+00  0.00000000000E+00  0.13562181737E+04  0.13562181737E+04  0.50400001928E-02 0. -1.
        1   -1    0    0  501    0  0.00000000000E+00  0.00000000000E+00 -0.15983715576E+04  0.15983715576E+04  0.50400001928E-02 0.  1.
    10030    2    1    2    0    0  0.00000000000E+00  0.00000000000E+00 -0.24215338395E+03  0.29545897313E+04  0.29446497617E+04 0.  0.
        1    1    3    3  502    0  0.27900831577E+03  0.20270744676E+03 -0.15572730067E+04  0.15950031870E+04  0.50400001928E-02 0.  1.
       -1    1    3    3    0  502 -0.27900831577E+03 -0.20270744676E+03  0.13151196227E+04  0.13595865443E+04  0.50400001928E-02 0. -1.
</event>
<event>
 5   0  0.2508094E-06  0.2892484E+04  0.7818609E-02  0.8275117E-01
       -1   -1    0    0    0  501  0.00000000000E+00  0.00000000000E+00  0.99566705706E+03  0.99566705707E+03  0.50400001928E-02 0.  1.
        1   -1    0    0  501    0  0.00000000000E+00  0.00000000000E+00 -0.21007176634E+04  0.21007176634E+04  0.50400001928E-02 0. -1.
    10030    2    1    2    0    0  0.00000000000E+00  0.00000000000E+00 -0.11050506064E+04  0.30963847205E+04  0.28924836205E+04 0.  0.
        3    1    3    3  502    0  0.83601891297E+03 -0.10865037226E+04 -0.10456469167E+04  0.17241796445E+04  0.10100000352E+00 0. -1.
       -3    1    3    3    0  502 -0.83601891297E+03  0.10865037226E+04 -0.59403689690E+02  0.13722050760E+04  0.10100000352E+00 0.  1.
</event>
<event>
 5   0  0.6393633E-06  0.3188673E+04  0.7818609E-02  0.8191815E-01
        2   -1    0    0  501    0  0.00000000000E+00  0.00000000000E+00  0.20206304442E+04  0.20206304442E+04  0.25500000920E-02 0.  1.
       -2   -1    0    0    0  501  0.00000000000E+00  0.00000000000E+00 -0.12579780029E+04  0.12579780030E+04  0.25500000920E-02 0. -1.
    10030    2    1    2    0    0  0.00000000000E+00  0.00000000000E+00  0.76265244122E+03  0.32786084471E+04  0.31886728593E+04 0.  0.
        4    1    3    3  502    0 -0.14817837540E+04 -0.58655175874E+03  0.42934435624E+03  0.16504739466E+04  0.12699999809E+01 0.  1.
       -4    1    3    3    0  502  0.14817837540E+04  0.58655175874E+03  0.33330808498E+03  0.16281345005E+04  0.12699999809E+01 0. -1.
</event>
<event>
 5   0  0.6393633E-06  0.2855513E+04  0.7818609E-02  0.8286238E-01
        2   -1    0    0  501    0  0.00000000000E+00  0.00000000000E+00  0.15608483759E+04  0.15608483759E+04  0.25500000920E-02 0. -1.
       -2   -1    0    0    0  501  0.00000000000E+00  0.00000000000E+00 -0.13060129567E+04  0.13060129567E+04  0.25500000920E-02 0.  1.
    10030    2    1    2    0    0  0.00000000000E+00  0.00000000000E+00  0.25483541918E+03  0.28668613326E+04  0.28555127052E+04 0.  0.
        4    1    3    3  502    0 -0.10633149857E+04 -0.43291831512E+03  0.97957223209E+03  0.15091787161E+04  0.12699999809E+01 0. -1.
       -4    1    3    3    0  502  0.10633149857E+04  0.43291831512E+03 -0.72473681292E+03  0.13576826165E+04  0.12699999809E+01 0.  1.
</event>
<event>
 5   0  0.2429358E-06  0.2892151E+04  0.7818609E-02  0.8275217E-01
       -1   -1    0    0    0  501  0.00000000000E+00  0.00000000000E+00  0.99113971269E+03  0.99113971270E+03  0.50400001928E-02 0. -1.
        1   -1    0    0  501    0  0.00000000000E+00  0.00000000000E+00 -0.21098279831E+04  0.21098279831E+04  0.50400001928E-02 0.  1.
    10030    2    1    2    0    0  0.00000000000E+00  0.00000000000E+00 -0.11186882704E+04  0.31009676958E+04  0.28921509650E+04 0.  0.
        2    1    3    3  502    0 -0.80685283249E+03  0.72682906942E+03 -0.15831937088E+04  0.19198422615E+04  0.25500000920E-02 0.  1.
       -2    1    3    3    0  502  0.80685283249E+03 -0.72682906942E+03  0.46450543833E+03  0.11811254344E+04  0.25500000920E-02 0. -1.
</event>
<event>
 5   0  0.2348684E-06  0.2850927E+04  0.7818609E-02  0.8287630E-01
       -1   -1    0    0    0  501  0.00000000000E+00  0.00000000000E+00  0.12592231742E+04  0.12592231742E+04  0.50400001928E-02 0.  1.
        1   -1    0    0  501    0  0.00000000000E+00  0.00000000000E+00 -0.16136500356E+04  0.16136500356E+04  0.50400001928E-02 0. -1.
    10030    2    1    2    0    0  0.00000000000E+00  0.00000000000E+00 -0.35442686135E+03  0.28728732098E+04  0.28509265300E+04 0.  0.
        5    1    3    3  502    0 -0.32973698538E+03 -0.68726323750E+03  0.10365781328E+04  0.12866909312E+04  0.46999998093E+01 0.  1.
       -5    1    3    3    0  502  0.32973698538E+03  0.68726323750E+03 -0.13910049941E+04  0.15861822786E+04  0.46999998093E+01 0. -1.
</event>
<event>
 5   0  0.2348684E-06  0.3012134E+04  0.7818609E-02  0.8240274E-01
        1   -1    0    0  501    0  0.00000000000E+00  0.00000000000E+00  0.24142369013E+04  0.24142369013E+04  0.50400001928E-02 0.  1.
       -1   -1    0    0    0  501  0.00000000000E+00  0.00000000000E+00 -0.93952567563E+03  0.93952567564E+03  0.50400001928E-02 0. -1.
    10030    2    1    2    0    0  0.00000000000E+00  0.00000000000E+00  0.14747112257E+04  0.33537625770E+04  0.30121338323E+04 0.  0.
        5    1    3    3  502    0 -0.68481214224E+02 -0.76227074903E+03 -0.70685854414E+03  0.10418337022E+04  0.46999998093E+01 0. -1.
       -5    1    3    3    0  502  0.68481214224E+02  0.76227074903E+03  0.21815697698E+04  0.23119288748E+04  0.46999998093E+01 0.  1.
</event>
<event>
 5   0  0.6615403E-06  0.2847493E+04  0.7818609E-02  0.8288673E-01
       -2   -1    0    0    0  501  0.00000000000E+00  0.00000000000E+00  0.10049317319E+04  0.10049317319E+04  0.25500000920E-02 0.  1.
        2   -1    0    0  501    0  0.00000000000E+00  0.00000000000E+00 -0.20171065132E+04  0.20171065132E+04  0.25500000920E-02 0. -1.
    10030    2    1    2    0    0  0.00000000000E+00  0.00000000000E+00 -0.10121747813E+04  0.30220382452E+04  0.28474931725E+04 0.  0.
        2    1    3    3  502    0  0.32626775936E+03 -0.93548340492E+03 -0.15912479106E+04  0.18744731966E+04  0.25500000920E-02 0. -1.
       -2    1    3    3    0  502 -0.32626775936E+03  0.93548340492E+03  0.57907312929E+03  0.11475650486E+04  0.25500000920E-02 0.  1.
</event>
<event>
 5   0  0.6612533E-06  0.2926985E+04  0.7818609E-02  0.8264894E-01
        2   -1    0    0  501    0  0.00000000000E+00  0.00000000000E+00  0.14606588534E+04  0.14606588534E+04  0.25500000920E-02 0.  1.
       -2   -1    0    0    0  501  0.00000000000E+00  0.00000000000E+00 -0.14663315042E+04  0.14663315042E+04  0.25500000920E-02 0. -1.
    10030    2    1    2    0    0  0.00000000000E+00  0.00000000000E+00 -0.56726507944E+01  0.29269903575E+04  0.29269848606E+04 0.  0.
        3    1    3    3  502    0  0.45130113040E+03 -0.53498489870E+03 -0.12881124576E+04  0.14659861069E+04  0.10100000352E+00 0. -1.
       -3    1    3    3    0  502 -0.45130113040E+03  0.53498489870E+03  0.12824398068E+04  0.14610042506E+04  0.10100000352E+00 0.  1.
</event>
<event>
 5   0  0.6513041E-06  0.2913499E+04  0.7818609E-02  0.8268873E-01
        2   -1    0    0  501    0  0.00000000000E+00  0.00000000000E+00  0.17344839421E+04  0.17344839421E+04  0.25500000920E-02 0.  1.
       -2   -1    0    0    0  501  0.00000000000E+00  0.00000000000E+00 -0.12234869477E+04  0.12234869477E+04  0.25500000920E-02 0. -1.
    10030    2    1    2    0    0  0.00000000000E+00  0.00000000000E+00  0.51099699443E+03  0.29579708899E+04  0.29134985596E+04 0.  0.
        1    1    3    3  502    0 -0.54801580154E+03 -0.10721113593E+04 -0.57700231508E+03  0.13351688123E+04  0.50400001928E-02 0. -1.
       -1    1    3    3    0  502  0.54801580154E+03  0.10721113593E+04  0.10879993095E+04  0.16228020776E+04  0.50400001928E-02 0.  1.
</event>
<event>
 5   0  0.6615403E-06  0.2877243E+04  0.7818609E-02  0.8279681E-01
       -2   -1    0    0    0  501  0.00000000000E+00  0.00000000000E+00  0.14727855391E+04  0.14727855391E+04  0.25500000920E-02 0. -1.
        2   -1    0    0  501    0  0.00000000000E+00  0.00000000000E+00 -0.14052500843E+04  0.14052500843E+04  0.25500000920E-02 0.  1.
    10030    2    1    2    0    0  0.00000000000E+00  0.00000000000E+00  0.67535454853E+02  0.28780356234E+04  0.28772431270E+04 0.  0.
        2    1    3    3  502    0 -0.45308107173E+03 -0.10017322783E+04 -0.89432509615E+03  0.14172393561E+04  0.25500000920E-02 0.  1.
       -2    1    3    3    0  502  0.45308107173E+03  0.10017322783E+04  0.96186055100E+03  0.14607962673E+04  0.25500000920E-02 0. -1.
</event>
<event>
 5   0  0.6612533E-06  0.2961734E+04  0.7818609E-02  0.8254743E-01
        2   -1    0    0  501    0  0.00000000000E+00  0.00000000000E+00  0.15760948450E+04  0.15760948450E+04  0.25500000920E-02 0.  1.
       -2   -1    0    0    0  501  0.00000000000E+00  0.00000000000E+00 -0.13913925412E+04  0.13913925412E+04  0.25500000920E-02 0. -1.
    10030    2    1    2    0    0  0.00000000000E+00  0.00000000000E+00  0.18470230378E+03  0.29674873862E+04  0.29617336893E+04 0.  0.
        3    1    3    3  502    0  0.19497013326E+03 -0.75039859993E+02 -0.13765536322E+04  0.13923161444E+04  0.10100000352E+00 0. -1.
       -3    1    3    3    0  502 -0.19497013326E+03  0.75039859993E+02  0.15612559359E+04  0.15751712418E+04  0.10100000352E+00 0.  1.
</event>
<event>
 5   0  0.2348684E-06  0.2907437E+04  0.7818609E-02  0.8270668E-01
       -1   -1    0    0    0  501  0.00000000000E+00  0.00000000000E+00  0.21590206588E+04  0.21590206588E+04  0.50400001928E-02 0.  1.
        1   -1    0    0  501    0  0.00000000000E+00  0.00000000000E+00 -0.97882205975E+03  0.97882205977E+03  0.50400001928E-02 0. -1.
    10030    2    1    2    0    0  0.00000000000E+00  0.00000000000E+00  0.11801985990E+04  0.31378427186E+04  0.29074367049E+04 0.  0.
        5    1    3    3  502    0  0.13546131935E+04  0.52435347605E+03  0.52761949856E+03  0.15454215920E+04  0.46999998093E+01 0. -1.
       -5    1    3    3    0  502 -0.13546131935E+04 -0.52435347605E+03  0.65257910048E+03  0.15924211265E+04  0.46999998093E+01 0.  1.
</event>
<event>
 5   0  0.6733688E-06  0.2881728E+04  0.7818609E-02  0.8278335E-01
       -2   -1    0    0    0  501  0.00000000000E+00  0.00000000000E+00  0.14626604571E+04  0.14626604571E+04  0.25500000920E-02 0.  1.
        2   -1    0    0  501    0  0.00000000000E+00  0.00000000000E+00 -0.14193927320E+04  0.14193927320E+04  0.25500000920E-02 0. -1.
    10030    2    1    2    0    0  0.00000000000E+00  0.00000000000E+00  0.43267725087E+02  0.28820531891E+04  0.28817283857E+04 0.  0.
        5    1    3    3  502    0 -0.10749949742E+04  0.54712553240E+03 -0.76655837851E+03  0.14291936120E+04  0.46999998093E+01 0.  1.
       -5    1    3    3    0  502  0.10749949742E+04 -0.54712553240E+03  0.80982610359E+03  0.14528595771E+04  0.46999998093E+01 0. -1.
</event>
<event>
 5   0  0.2348684E-06  0.2886621E+04  0.7818609E-02  0.8276869E-01
        1   -1    0    0  501    0  0.00000000000E+00  0.00000000000E+00  0.25404869136E+04  0.25404869136E+04  0.50400001928E-02 0. -1.
       -1   -1    0    0    0  501  0.00000000000E+00  0.00000000000E+00 -0.81997852324E+03  0.81997852325E+03  0.50400001928E-02 0.  1.
    10030    2    1    2    0    0  0.00000000000E+00  0.00000000000E+00  0.17205083904E+04  0.33604654369E+04  0.28866206594E+04 0.  0.
        5    1    3    3  502    0  0.56514647774E+03  0.13280556150E+04  0.85955582147E+03  0.16798751615E+04  0.46999998093E+01 0. -1.
       -5    1    3    3    0  502 -0.56514647774E+03 -0.13280556150E+04  0.86095256890E+03  0.16805902754E+04  0.46999998093E+01 0.  1.
</event>
<event>
 5   0  0.2508094E-06  0.2877006E+04  0.7818609E-02  0.8279752E-01
       -1   -1    0    0    0  501  0.00000000000E+00  0.00000000000E+00  0.94660098754E+03  0.94660098755E+03  0.50400001928E-02 0.  1.
        1   -1    0    0  501    0  0.00000000000E+00  0.00000000000E+00 -0.21860225734E+04  0.21860225734E+04  0.50400001928E-02 0. -1.
    10030    2    1    2    0    0  0.00000000000E+00  0.00000000000E+00 -0.12394215858E+04  0.31326235609E+04  0.28770061708E+04 0.  0.
        3    1    3    3  502    0 -0.12277573206E+04  0.68068188011E+03 -0.96157322223E+03  0.17015695496E+04  0.10100000352E+00 0. -1.
       -3    1    3    3    0  502  0.12277573206E+04 -0.68068188011E+03 -0.27784836360E+03  0.14310540114E+04  0.10100000352E+00 0.  1.
</event>
<event>
 5   0  0.6612533E-06  0.2895715E+04  0.7818609E-02  0.8274153E-01
        2   -1    0    0  501    0  0.00000000000E+00  0.00000000000E+00  0.10935719791E+04  0.10935719791E+04  0.25500000920E-02 0. -1.
       -2   -1    0    0    0  501  0.00000000000E+00  0.00000000000E+00 -0.19169216248E+04  0.19169216248E+04  0.25500000920E-02 0.  1.
    10030    2    1    2    0    0  0.00000000000E+00  0.00000000000E+00 -0.82334964575E+03  0.30104936039E+04  0.28957153002E+04 0.  0.
        3    1    3    3  502    0  0.10744219551E+03  0.12428975189E+04 -0.11756163307E+04  0.17141796391E+04  0.10100000352E+00 0.  1.
       -3    1    3    3    0  502 -0.10744219551E+03 -0.12428975189E+04  0.35226668496E+03  0.12963139648E+04  0.10100000352E+00 0. -1.
</event>
<event>
 5   0  0.2474769E-06  0.2903064E+04  0.7818609E-02  0.8271967E-01
       -1   -1    0    0    0  501  0.00000000000E+00  0.00000000000E+00  0.18349129556E+04  0.18349129556E+04  0.50400001928E-02 0.  1.
        1   -1    0    0  501    0  0.00000000000E+00  0.00000000000E+00 -0.11482532394E+04  0.11482532394E+04  0.50400001928E-02 0. -1.
    10030    2    1    2    0    0  0.00000000000E+00  0.00000000000E+00  0.68665971621E+03  0.29831661950E+04  0.29030637232E+04 0.  0.
        1    1    3    3  502    0  0.79406775170E+03  0.12068307747E+04  0.48851027085E+03  0.15250004583E+04  0.50400001928E-02 0. -1.
       -1    1    3    3    0  502 -0.79406775170E+03 -0.12068307747E+04  0.19814944536E+03  0.14581657367E+04  0.50400001928E-02 0.  1.
</event>
<event>
 5   0  0.2508094E-06  0.2343059E+04  0.7818609E-02  0.8461135E-01
       -1   -1    0    0    0  501  0.00000000000E+00  0.00000000000E+00  0.20686599549E+04  0.20686599549E+04  0.50400001928E-02 0.  1.
        1   -1    0    0  501    0  0.00000000000E+00  0.00000000000E+00 -0.66346371549E+03  0.66346371551E+03  0.50400001928E-02 0. -1.
    10030    2    1    2    0    0  0.00000000000E+00  0.00000000000E+00  0.14051962394E+04  0.27321236704E+04  0.23430585309E+04 0.  0.
        3    1    3    3  502    0  0.44888677662E+02 -0.33152661227E+03  0.20117748418E+04  0.20394025872E+04  0.10100000352E+00 0.  1.
       -3    1    3    3    0  502 -0.44888677662E+02  0.33152661227E+03 -0.60657860245E+03  0.69272108325E+03  0.10100000352E+00 0. -1.
</event>
<event>
 5   0  0.2336512E-06  0.2829765E+04  0.7818609E-02  0.8294087E-01
       -1   -1    0    0    0  501  0.00000000000E+00  0.00000000000E+00  0.89484506031E+03  0.89484506032E+03  0.50400001928E-02 0.  1.
        1   -1    0    0  501    0  0.00000000000E+00  0.00000000000E+00 -0.22371392188E+04  0.22371392188E+04  0.50400001928E-02 0. -1.
    10030    2    1    2    0    0  0.00000000000E+00  0.00000000000E+00 -0.13422941585E+04  0.31319842791E+04  0.28297653466E+04 0.  0.
        4    1    3    3  502    0 -0.12327001404E+04 -0.28946494106E+02  0.96866719285E+02  0.12368396460E+04  0.12699999809E+01 0.  1.
       -4    1    3    3    0  502  0.12327001404E+04  0.28946494106E+02 -0.14391608778E+04  0.18951446332E+04  0.12699999809E+01 0. -1.
</event>
<event>
 5   0  0.2348684E-06  0.2908564E+04  0.7818609E-02  0.8270334E-01
        1   -1    0    0  501    0  0.00000000000E+00  0.00000000000E+00  0.21646133950E+04  0.21646133950E+04  0.50400001928E-02 0.  1.
       -1   -1    0    0    0  501  0.00000000000E+00  0.00000000000E+00 -0.97705015742E+03  0.97705015743E+03  0.50400001928E-02 0. -1.
    10030    2    1    2    0    0  0.00000000000E+00  0.00000000000E+00  0.11875632376E+04  0.31416635524E+04  0.29085638094E+04 0.  0.
        5    1    3    3  502    0 -0.79500997183E+03 -0.10127060269E+04  0.13242163263E+04  0.18469394471E+04  0.46999998093E+01 0.  1.
       -5    1    3    3    0  502  0.79500997183E+03  0.10127060269E+04 -0.13665308875E+03  0.12947241053E+04  0.46999998093E+01 0. -1.
</event>
<event>
 5   0  0.6393633E-06  0.2881785E+04  0.7818609E-02  0.8278318E-01
        2   -1    0    0  501    0  0.00000000000E+00  0.00000000000E+00  0.15480857644E+04  0.15480857644E+04  0.25500000920E-02 0.  1.
       -2   -1    0    0    0  501  0.00000000000E+00  0.00000000000E+00 -0.13411214487E+04  0.13411214487E+04  0.25500000920E-02 0. -1.
    10030    2    1    2    0    0  0.00000000000E+00  0.00000000000E+00  0.20696431571E+03  0.28892072132E+04  0.28817848797E+04 0.  0.
        4    1    3    3  502    0 -0.51758410113E+03  0.12488009257E+04 -0.39657332344E+03  0.14087828319E+04  0.12699999809E+01 0. -1.
       -4    1    3    3    0  502  0.51758410113E+03 -0.12488009257E+04  0.60353763915E+03  0.14804243812E+04  0.12699999809E+01 0.  1.
</event>
<event>
 5   0  0.6513041E-06  0.2720891E+04  0.7818609E-02  0.8328258E-01
       -2   -1    0    0    0  501  0.00000000000E+00  0.00000000000E+00  0.19239613054E+04  0.19239613054E+04  0.25500000920E-02 0.  1.
        2   -1    0    0  501    0  0.00000000000E+00  0.00000000000E+00 -0.96197970992E+03  0.96197970992E+03  0.25500000920E-02 0. -1.
    10030    2    1    2    0    0  0.00000000000E+00  0.00000000000E+00  0.96198159552E+03  0.28859410154E+04  0.27208908383E+04 0.  0.
        1    1    3    3  502    0  0.90868425029E+03 -0.96914399912E+03  0.17018911680E+03  0.13393698120E+04  0.50400001928E-02 0. -1.
       -1    1    3    3    0  502 -0.90868425029E+03  0.96914399912E+03  0.79179247871E+03  0.15465712034E+04  0.50400001928E-02 0.  1.
</event>
<event>
 5   0  0.2336512E-06  0.2893303E+04  0.7818609E-02  0.8274873E-01
       -1   -1    0    0    0  501  0.00000000000E+00  0.00000000000E+00  0.10360100357E+04  0.10360100357E+04  0.50400001928E-02 0. -1.
        1   -1    0    0  501    0  0.00000000000E+00  0.00000000000E+00 -0.20200581331E+04  0.20200581331E+04  0.50400001928E-02 0.  1.
    10030    2    1    2    0    0  0.00000000000E+00  0.00000000000E+00 -0.98404809744E+03  0.30560681688E+04  0.28933029558E+04 0.  0.
        4    1    3    3  502    0 -0.96073897626E+03  0.41729662271E+03 -0.15459763499E+04  0.18674047069E+04  0.12699999809E+01 0.  1.
       -4    1    3    3    0  502  0.96073897626E+03 -0.41729662271E+03  0.56192825249E+03  0.11886634619E+04  0.12699999809E+01 0. -1.
</event>
<event>
 5   0  0.6615403E-06  0.2889786E+04  0.7818609E-02  0.8275923E-01
        2   -1    0    0  501    0  0.00000000000E+00  0.00000000000E+00  0.13702276477E+04  0.13702276477E+04  0.25500000920E-02 0.  1.
       -2   -1    0    0    0  501  0.00000000000E+00  0.00000000000E+00 -0.15236264873E+04  0.15236264873E+04  0.25500000920E-02 0. -1.
    10030    2    1    2    0    0  0.00000000000E+00  0.00000000000E+00 -0.15339883956E+03  0.28938541350E+04  0.28897855545E+04 0.  0.
        2    1    3    3  502    0 -0.14109264151E+04  0.19672899610E+03 -0.31849224054E+03  0.14597441400E+04  0.25500000920E-02 0.  1.
       -2    1    3    3    0  502  0.14109264151E+04 -0.19672899610E+03  0.16509340098E+03  0.14341099951E+04  0.25500000920E-02 0. -1.
</event>
<event>
 5   0  0.2348684E-06  0.2917486E+04  0.7818609E-02  0.8267694E-01
       -1   -1    0    0    0  501  0.00000000000E+00  0.00000000000E+00  0.13482954257E+04  0.13482954257E+04  0.50400001928E-02 0.  1.
        1   -1    0    0  501    0  0.00000000000E+00  0.00000000000E+00 -0.15782380287E+04  0.15782380288E+04  0.50400001928E-02 0. -1.
    10030    2    1    2    0    0  0.00000000000E+00  0.00000000000E+00 -0.22994260309E+03  0.29265334544E+04  0.29174859827E+04 0.  0.
        5    1    3    3  502    0 -0.98182117025E+03 -0.55089302057E+03  0.81551142502E+03  0.13901571511E+04  0.46999998093E+01 0.  1.
       -5    1    3    3    0  502  0.98182117025E+03  0.55089302057E+03 -0.10454540281E+04  0.15363763033E+04  0.46999998093E+01 0. -1.
</event>
<event>
 5   0  0.6615403E-06  0.2896210E+04  0.7818609E-02  0.8274006E-01
       -2   -1    0    0    0  501  0.00000000000E+00  0.00000000000E+00  0.10688480693E+04  0.10688480693E+04  0.25500000920E-02 0. -1.
        2   -1    0    0  501    0  0.00000000000E+00  0.00000000000E+00 -0.19619323672E+04  0.19619323672E+04  0.25500000920E-02 0.  1.
    10030    2    1    2    0    0  0.00000000000E+00  0.00000000000E+00 -0.89308429790E+03  0.30307804365E+04  0.28962096766E+04 0.  0.
        2    1    3    3  502    0 -0.10433830687E+04 -0.44779088249E+03 -0.13871051326E+04  0.17925472243E+04  0.25500000920E-02 0.  1.
       -2    1    3    3    0  502  0.10433830687E+04  0.44779088249E+03  0.49402083474E+03  0.12382332121E+04  0.25500000920E-02 0. -1.
</event>
<event>
 5   0  0.2336512E-06  0.2843390E+04  0.7818609E-02  0.8289923E-01
        1   -1    0    0  501    0  0.00000000000E+00  0.00000000000E+00  0.13130900506E+04  0.13130900506E+04  0.50400001928E-02 0.  1.
       -1   -1    0    0    0  501  0.00000000000E+00  0.00000000000E+00 -0.15392823778E+04  0.15392823778E+04  0.50400001928E-02 0. -1.
    10030    2    1    2    0    0  0.00000000000E+00  0.00000000000E+00 -0.22619232723E+03  0.28523724284E+04  0.28433897906E+04 0.  0.
        4    1    3    3  502    0  0.54454081195E+03  0.11408275304E+04  0.53949922410E+03  0.13744355844E+04  0.12699999809E+01 0.  1.
       -4    1    3    3    0  502 -0.54454081195E+03 -0.11408275304E+04 -0.76569155133E+03  0.14779368439E+04  0.12699999809E+01 0. -1.
</event>
<event>
 5   0  0.2336512E-06  0.2900807E+04  0.7818609E-02  0.8272638E-01
       -1   -1    0    0    0  501  0.00000000000E+00  0.00000000000E+00  0.12032484910E+04  0.12032484910E+04  0.50400001928E-02 0.  1.
        1   -1    0    0  501    0  0.00000000000E+00  0.00000000000E+00 -0.17483252066E+04  0.17483252066E+04  0.50400001928E-02 0. -1.
    10030    2    1    2    0    0  0.00000000000E+00  0.00000000000E+00 -0.54507671561E+03  0.29515736976E+04  0.29008065545E+04 0.  0.
        4    1    3    3  502    0  0.11872912085E+04  0.21733857998E+03  0.54575745354E+03  0.13246694996E+04  0.12699999809E+01 0.  1.
       -4    1    3    3    0  502 -0.11872912085E+04 -0.21733857998E+03 -0.10908341692E+04  0.16269041980E+04  0.12699999809E+01 0. -1.
</event>
<event>
 5   0  0.2336512E-06  0.2926912E+04  0.7818609E-02  0.8264915E-01
       -1   -1    0    0    0  501  0.00000000000E+00  0.00000000000E+00  0.22032853453E+04  0.22032853453E+04  0.50400001928E-02 0. -1.
        1   -1    0    0  501    0  0.00000000000E+00  0.00000000000E+00 -0.97205015505E+03  0.97205015506E+03  0.50400001928E-02 0.  1.
    10030    2    1    2    0    0  0.00000000000E+00  0.00000000000E+00  0.12312351903E+04  0.31753355004E+04  0.29269122717E+04 0.  0.
        4    1    3    3  502    0 -0.87630920074E+03  0.11216948376E+04  0.24678364806E+03  0.14446525208E+04  0.12699999809E+01 0. -1.
       -4    1    3    3    0  502  0.87630920074E+03 -0.11216948376E+04  0.98445154221E+03  0.17306829796E+04  0.12699999809E+01 0.  1.
</event>
<event>
 5   0  0.6615403E-06  0.2940227E+04  0.7818609E-02  0.8261008E-01
        2   -1    0    0  501    0  0.00000000000E+00  0.00000000000E+00  0.23495082492E+04  0.23495082492E+04  0.25500000920E-02 0.  1.
       -2   -1    0    0    0  501  0.00000000000E+00  0.00000000000E+00 -0.91986620203E+03  0.91986620203E+03  0.25500000920E-02 0. -1.
    10030    2    1    2    0    0  0.00000000000E+00  0.00000000000E+00  0.14296420471E+04  0.32693744512E+04  0.29402266782E+04 0.  0.
        2    1    3    3  502    0 -0.10334859000E+03  0.13260318340E+04  0.14111799484E+04  0.19391931835E+04  0.25500000920E-02 0. -1.
       -2    1    3    3    0  502  0.10334859000E+03 -0.13260318340E+04  0.18462098718E+02  0.13301812677E+04  0.25500000920E-02 0.  1.
</event>
<event>
 5   0  0.2159500E-06  0.2892069E+04  0.7818609E-02  0.8275241E-01
       -3   -1    0    0    0  501  0.00000000000E+00  0.00000000000E+00  0.92026891505E+03  0.92026892059E+03  0.10100000352E+00 0. -1.
        3   -1    0    0  501    0  0.00000000000E+00  0.00000000000E+00 -0.22721786794E+04  0.22721786816E+04  0.10100000352E+00 0.  1.
    10030    2    1    2    0    0  0.00000000000E+00  0.00000000000E+00 -0.13519097643E+04  0.31924476022E+04  0.28920687547E+04 0.  0.
        4    1    3    3  502    0 -0.29772262023E+03 -0.14128768568E+04 -0.76255035805E+03  0.16328944952E+04  0.12699999809E+01 0. -1.
       -4    1    3    3    0  502  0.29772262023E+03  0.14128768568E+04 -0.58935940628E+03  0.15595531070E+04  0.12699999809E+01 0.  1.
</event>
<event>
 5   0  0.6733688E-06  0.2734774E+04  0.7818609E-02  0.8323809E-01
        2   -1    0    0  501    0  0.00000000000E+00  0.00000000000E+00  0.16912585176E+04  0.16912585176E+04  0.25500000920E-02 0. -1.
       -2   -1    0    0    0  501  0.00000000000E+00  0.00000000000E+00 -0.11055358998E+04  0.11055358998E+04  0.25500000920E-02 0.  1.
    10030    2    1    2    0    0  0.00000000000E+00  0.00000000000E+00  0.58572261780E+03  0.27967944175E+04  0.27347738533E+04 0.  0.
        5    1    3    3  502    0 -0.99687511289E+03  0.73503125721E+03 -0.29966944995E+03  0.12743056184E+04  0.46999998093E+01 0.  1.
       -5    1    3    3    0  502  0.99687511289E+03 -0.73503125721E+03  0.88539206775E+03  0.15224887991E+04  0.46999998093E+01 0. -1.
</event>
<event>
 5   0  0.6733688E-06  0.2847043E+04  0.7818609E-02  0.8288810E-01
        2   -1    0    0  501    0  0.00000000000E+00  0.00000000000E+00  0.11476129628E+04  0.11476129628E+04  0.25500000920E-02 0. -1.
       -2   -1    0    0    0  501  0.00000000000E+00  0.00000000000E+00 -0.17657642215E+04  0.17657642215E+04  0.25500000920E-02 0.  1.
    10030    2    1    2    0    0  0.00000000000E+00  0.00000000000E+00 -0.61815125868E+03  0.29133771843E+04  0.28470433154E+04 0.  0.
        5    1    3    3  502    0  0.49917205831E+03  0.10356419650E+04  0.54992588203E+03  0.12744283382E+04  0.46999998093E+01 0. -1.
       -5    1    3    3    0  502 -0.49917205831E+03 -0.10356419650E+04 -0.11680771407E+04  0.16389488461E+04  0.46999998093E+01 0.  1.
</event>
<event>
 5   0  0.6393633E-06  0.2889811E+04  0.7818609E-02  0.8275915E-01
       -2   -1    0    0    0  501  0.00000000000E+00  0.00000000000E+00  0.12192256245E+04  0.12192256245E+04  0.25500000920E-02 0. -1.
        2   -1    0    0  501    0  0.00000000000E+00  0.00000000000E+00 -0.17123594879E+04  0.17123594879E+04  0.25500000920E-02 0.  1.
    10030    2    1    2    0    0  0.00000000000E+00  0.00000000000E+00 -0.49313386336E+03  0.29315851124E+04  0.28898114583E+04 0.  0.
        4    1    3    3  502    0  0.36551963722E+03  0.12620177401E+04 -0.85647118503E+03  0.15683870330E+04  0.12699999809E+01 0.  1.
       -4    1    3    3    0  502 -0.36551963722E+03 -0.12620177401E+04  0.36333732167E+03  0.13631980794E+04  0.12699999809E+01 0. -1.
</event>
<event>
 5   0  0.2336512E-06  0.2898885E+04  0.7818609E-02  0.8273209E-01
        1   -1    0    0  501    0  0.00000000000E+00  0.00000000000E+00  0.22747817126E+04  0.22747817126E+04  0.50400001928E-02 0. -1.
       -1   -1    0    0    0  501  0.00000000000E+00  0.00000000000E+00 -0.92355416720E+03  0.92355416721E+03  0.50400001928E-02 0.  1.
    10030    2    1    2    0    0  0.00000000000E+00  0.00000000000E+00  0.13512275454E+04  0.31983358798E+04  0.28988853928E+04 0.  0.
        4    1    3    3  502    0 -0.20921189078E+03 -0.14325322608E+04  0.75334914702E+03  0.16320094497E+04  0.12699999809E+01 0.  1.
       -4    1    3    3    0  502  0.20921189078E+03  0.14325322608E+04  0.59787839835E+03  0.15663264301E+04  0.12699999809E+01 0. -1.
</event>
<event>
 5   0  0.2429358E-06  0.2916648E+04  0.7818609E-02  0.8267941E-01
        1   -1    0    0  501    0  0.00000000000E+00  0.00000000000E+00  0.27938424833E+04  0.27938424833E+04  0.50400001928E-02 0.  1.
       -1   -1    0    0    0  501  0.00000000000E+00  0.00000000000E+00 -0.76121271766E+03  0.76121271767E+03  0.50400001928E-02 0. -1.
    10030    2    1    2    0    0  0.00000000000E+00  0.00000000000E+00  0.20326297656E+04  0.35550552009E+04  0.29166476849E+04 0.  0.
        2    1    3    3  502    0  0.66779618129E+03  0.59957510099E+03  0.24173775798E+04  0.25785958203E+04  0.25500000920E-02 0.  1.
       -2    1    3    3    0  502 -0.66779618129E+03 -0.59957510099E+03 -0.38474781416E+03  0.97645938061E+03  0.25500000920E-02 0. -1.
</event>
<event>
 5   0  0.6615403E-06  0.2903735E+04  0.7818609E-02  0.8271767E-01
       -2   -1    0    0    0  501  0.00000000000E+00  0.00000000000E+00  0.12343384918E+04  0.12343384918E+04  0.25500000920E-02 0. -1.
        2   -1    0    0  501    0  0.00000000000E+00  0.00000000000E+00 -0.17077313386E+04  0.17077313386E+04  0.25500000920E-02 0.  1.
    10030    2    1    2    0    0  0.00000000000E+00  0.00000000000E+00 -0.47339284678E+03  0.29420698304E+04  0.29037345092E+04 0.  0.
        2    1    3    3  502    0 -0.11413050240E+04  0.53815501648E+03 -0.96432123143E+03  0.15881131625E+04  0.25500000920E-02 0.  1.
       -2    1    3    3    0  502  0.11413050240E+04 -0.53815501648E+03  0.49092838465E+03  0.13539566679E+04  0.25500000920E-02 0. -1.
</event>
<event>
 5   0  0.2429358E-06  0.2869529E+04  0.7818609E-02  0.8282002E-01
        1   -1    0    0  501    0  0.00000000000E+00  0.00000000000E+00  0.19755550112E+04  0.19755550112E+04  0.50400001928E-02 0. -1.
       -1   -1    0    0    0  501  0.00000000000E+00  0.00000000000E+00 -0.10420101951E+04  0.10420101951E+04  0.50400001928E-02 0.  1.
    10030    2    1    2    0    0  0.00000000000E+00  0.00000000000E+00  0.93354481618E+03  0.30175652063E+04  0.28695285067E+04 0.  0.
        2    1    3    3  502    0  0.37655590569E+03 -0.98961352827E+03  0.14849253885E+04  0.18237688162E+04  0.25500000920E-02 0. -1.
       -2    1    3    3    0  502 -0.37655590569E+03  0.98961352827E+03 -0.55138057235E+03  0.11937963901E+04  0.25500000920E-02 0.  1.
</event>
<event>
 5   0  0.6612533E-06  0.2913727E+04  0.7818609E-02  0.8268805E-01
        2   -1    0    0  501    0  0.00000000000E+00  0.00000000000E+00  0.17325190882E+04  0.17325190882E+04  0.25500000920E-02 0. -1.
       -2   -1    0    0    0  501  0.00000000000E+00  0.00000000000E+00 -0.12250669750E+04  0.12250669750E+04  0.25500000920E-02 0.  1.
    10030    2    1    2    0    0  0.00000000000E+00  0.00000000000E+00  0.50745211324E+03  0.29575860632E+04  0.29137274536E+04 0.  0.
        3    1    3    3  502    0 -0.35550432536E+02 -0.23257006121E+03 -0.12056564258E+04  0.12283973681E+04  0.10100000352E+00 0.  1.
       -3    1    3    3    0  502  0.35550432536E+02  0.23257006121E+03  0.17131085391E+04  0.17291886951E+04  0.10100000352E+00 0. -1.
</event>
<event>
 5   0  0.6733688E-06  0.2868533E+04  0.7818609E-02  0.8282302E-01
       -2   -1    0    0    0  501  0.00000000000E+00  0.00000000000E+00  0.19820576210E+04  0.19820576211E+04  0.25500000920E-02 0. -1.
        2   -1    0    0  501    0  0.00000000000E+00  0.00000000000E+00 -0.10378713684E+04  0.10378713684E+04  0.25500000920E-02 0.  1.
    10030    2    1    2    0    0  0.00000000000E+00  0.00000000000E+00  0.94418625265E+03  0.30199289895E+04  0.28685333224E+04 0.  0.
        5    1    3    3  502    0  0.83388718965E+03 -0.35167887786E+03 -0.69931013952E+03  0.11437231481E+04  0.46999998093E+01 0.  1.
       -5    1    3    3    0  502 -0.83388718965E+03  0.35167887786E+03  0.16434963922E+04  0.18762058414E+04  0.46999998093E+01 0. -1.
</event>
<event>
 5   0  0.2348684E-06  0.2903013E+04  0.7818609E-02  0.8271981E-01
        1   -1    0    0  501    0  0.00000000000E+00  0.00000000000E+00  0.16888311110E+04  0.16888311110E+04  0.50400001928E-02 0. -1.
       -1   -1    0    0    0  501  0.00000000000E+00  0.00000000000E+00 -0.12475325168E+04  0.12475325168E+04  0.50400001928E-02 0.  1.
    10030    2    1    2    0    0  0.00000000000E+00  0.00000000000E+00  0.44129859420E+03  0.29363636277E+04  0.29030134180E+04 0.  0.
        5    1    3    3  502    0 -0.41538870370E+03  0.13035918952E+03  0.16212255991E+04  0.16786708512E+04  0.46999998093E+01 0. -1.
       -5    1    3    3    0  502  0.41538870370E+03 -0.13035918952E+03 -0.11799270049E+04  0.12576927766E+04  0.46999998093E+01 0.  1.
</event>
<event>
 5   0  0.2508094E-06  0.2967819E+04  0.7818609E-02  0.8252981E-01
       -1   -1    0    0    0  501  0.00000000000E+00  0.00000000000E+00  0.90846857259E+03  0.90846857260E+03  0.50400001928E-02 0. -1.
        1   -1    0    0  501    0  0.00000000000E+00  0.00000000000E+00 -0.24238449395E+04  0.24238449395E+04  0.50400001928E-02 0.  1.
    10030    2    1    2    0    0  0.00000000000E+00  0.00000000000E+00 -0.15153763669E+04  0.33323135121E+04  0.29678186955E+04 0.  0.
        3    1    3    3  502    0  0.97474697011E+03  0.31139979422E+03 -0.19643288102E+04  0.22148790424E+04  0.10100000352E+00 0.  1.
       -3    1    3    3    0  502 -0.97474697011E+03 -0.31139979422E+03  0.44895244330E+03  0.11174344697E+04  0.10100000352E+00 0. -1.
</event>
<event>
 5   0  0.6612533E-06  0.2827885E+04  0.7818609E-02  0.8294663E-01
       -2   -1    0    0    0  501  0.00000000000E+00  0.00000000000E+00  0.11077628649E+04  0.11077628649E+04  0.25500000920E-02 0. -1.
        2   -1    0    0  501    0  0.00000000000E+00  0.00000000000E+00 -0.18047482397E+04  0.18047482397E+04  0.25500000920E-02 0.  1.
    10030    2    1    2    0    0  0.00000000000E+00  0.00000000000E+00 -0.69698537487E+03  0.29125111046E+04  0.28278847787E+04 0.  0.
        3    1    3    3  502    0  0.95186199109E+02  0.96817480103E+03 -0.14052637781E+04  0.17091486636E+04  0.10100000352E+00 0.  1.
       -3    1    3    3    0  502 -0.95186199109E+02 -0.96817480103E+03  0.70827840325E+03  0.12033624411E+04  0.10100000352E+00 0. -1.
</event>
<event>
 5   0  0.6513041E-06  0.2853083E+04  0.7818609E-02  0.8286975E-01
       -2   -1    0    0    0  501  0.00000000000E+00  0.00000000000E+00  0.12072768503E+04  0.12072768503E+04  0.25500000920E-02 0. -1.
        2   -1    0    0  501    0  0.00000000000E+00  0.00000000000E+00 -0.16856288257E+04  0.16856288257E+04  0.25500000920E-02 0.  1.
    10030    2    1    2    0    0  0.00000000000E+00  0.00000000000E+00 -0.47835197545E+03  0.28929056760E+04  0.28530830057E+04 0.  0.
        1    1    3    3  502    0 -0.56591181862E+03  0.36514750952E+03 -0.15142784846E+04  0.16572954532E+04  0.50400001928E-02 0.  1.
       -1    1    3    3    0  502  0.56591181862E+03 -0.36514750952E+03  0.10359265092E+04  0.12356102228E+04  0.50400001928E-02 0. -1.
</event>
<event>
 5   0  0.6513041E-06  0.2846552E+04  0.7818609E-02  0.8288960E-01
       -2   -1    0    0    0  501  0.00000000000E+00  0.00000000000E+00  0.16295221618E+04  0.16295221618E+04  0.25500000920E-02 0.  1.
        2   -1    0    0  501    0  0.00000000000E+00  0.00000000000E+00 -0.12431339446E+04  0.12431339446E+04  0.25500000920E-02 0. -1.
    10030    2    1    2    0    0  0.00000000000E+00  0.00000000000E+00  0.38638821720E+03  0.28726561063E+04  0.28465518177E+04 0.  0.
        1    1    3    3  502    0  0.75664678063E+03  0.92502228824E+03  0.97328598754E+03  0.15412547479E+04  0.50400001928E-02 0.  1.
       -1    1    3    3    0  502 -0.75664678063E+03 -0.92502228824E+03 -0.58689777034E+03  0.13314013584E+04  0.50400001928E-02 0. -1.
</event>
<event>
 5   0  0.6615403E-06  0.2892055E+04  0.7818609E-02  0.8275245E-01
       -2   -1    0    0    0  501  0.00000000000E+00  0.00000000000E+00  0.11007689206E+04  0.11007689206E+04  0.25500000920E-02 0. -1.
        2   -1    0    0  501    0  0.00000000000E+00  0.00000000000E+00 -0.18995775015E+04  0.18995775016E+04  0.25500000920E-02 0.  1.
    10030    2    1    2    0    0  0.00000000000E+00  0.00000000000E+00 -0.79880858096E+03  0.30003464221E+04  0.28920552387E+04 0.  0.
        2    1    3    3  502    0  0.88914223661E+03 -0.55933684888E+03 -0.14303777788E+04  0.17746583382E+04  0.25500000920E-02 0.  1.
       -2    1    3    3    0  502 -0.88914223661E+03  0.55933684888E+03  0.63156919780E+03  0.12256880839E+04  0.25500000920E-02 0. -1.
</event>
<event>
 5   0  0.2474769E-06  0.2876996E+04  0.7818609E-02  0.8279755E-01
       -1   -1    0    0    0  501  0.00000000000E+00  0.00000000000E+00  0.10282416364E+04  0.10282416364E+04  0.50400001928E-02 0. -1.
        1   -1    0    0  501    0  0.00000000000E+00  0.00000000000E+00 -0.20124417605E+04  0.20124417605E+04  0.50400001928E-02 0.  1.
    10030    2    1    2    0    0  0.00000000000E+00  0.00000000000E+00 -0.98420012405E+03  0.30406833969E+04  0.28769959395E+04 0.  0.
        1    1    3    3  502    0 -0.64523368729E+03  0.11143375060E+04  0.18563424178E+03  0.13009745041E+04  0.50400001928E-02 0. -1.
       -1    1    3    3    0  502  0.64523368729E+03 -0.11143375060E+04 -0.11698343658E+04  0.17397088929E+04  0.50400001928E-02 0.  1.
</event>
<event>
 5   0  0.6513041E-06  0.2816627E+04  0.7818609E-02  0.8298125E-01
        2   -1    0    0  501    0  0.00000000000E+00  0.00000000000E+00  0.17456209171E+04  0.17456209171E+04  0.25500000920E-02 0.  1.
       -2   -1    0    0    0  501  0.00000000000E+00  0.00000000000E+00 -0.11361841595E+04  0.11361841595E+04  0.25500000920E-02 0. -1.
    10030    2    1    2    0    0  0.00000000000E+00  0.00000000000E+00  0.60943675766E+03  0.28818050766E+04  0.28166269433E+04 0.  0.
        1    1    3    3  502    0 -0.18322068788E+03 -0.27340004887E+03  0.17057221902E+04  0.17371832365E+04  0.50400001928E-02 0.  1.
       -1    1    3    3    0  502  0.18322068788E+03  0.27340004887E+03 -0.10962854325E+04  0.11446218401E+04  0.50400001928E-02 0. -1.
</event>
<event>
 5   0  0.6393633E-06  0.2908036E+04  0.7818609E-02  0.8270491E-01
        2   -1    0    0  501    0  0.00000000000E+00  0.00000000000E+00  0.18197098260E+04  0.18197098260E+04  0.25500000920E-02 0. -1.
       -2   -1    0    0    0  501  0.00000000000E+00  0.00000000000E+00 -0.11618161619E+04  0.11618161619E+04  0.25500000920E-02 0.  1.
    10030    2    1    2    0    0  0.00000000000E+00  0.00000000000E+00  0.65789366413E+03  0.29815259879E+04  0.29080359598E+04 0.  0.
        4    1    3    3  502    0 -0.84685410879E+03 -0.10735887281E+04  0.83582095430E+03  0.16026081615E+04  0.12699999809E+01 0. -1.
       -4    1    3    3    0  502  0.84685410879E+03  0.10735887281E+04 -0.17792729017E+03  0.13789178265E+04  0.12699999809E+01 0.  1.
</event>
<event>
 5   0  0.6612533E-06  0.2866636E+04  0.7818609E-02  0.8282874E-01
        2   -1    0    0  501    0  0.00000000000E+00  0.00000000000E+00  0.22583012011E+04  0.22583012011E+04  0.25500000920E-02 0.  1.
       -2   -1    0    0    0  501  0.00000000000E+00  0.00000000000E+00 -0.90971062077E+03  0.90971062078E+03  0.25500000920E-02 0. -1.
    10030    2    1    2    0    0  0.00000000000E+00  0.00000000000E+00  0.13485905803E+04  0.31680118219E+04  0.28666360687E+04 0.  0.
        3    1    3    3  502    0 -0.29400134683E+03 -0.26011993966E+03 -0.84914513995E+03  0.93549273319E+03  0.10100000352E+00 0. -1.
       -3    1    3    3    0  502  0.29400134683E+03  0.26011993966E+03  0.21977357203E+04  0.22325190887E+04  0.10100000352E+00 0.  1.
</event>
<event>
 5   0  0.2348684E-06  0.2924475E+04  0.7818609E-02  0.8265633E-01
       -1   -1    0    0    0  501  0.00000000000E+00  0.00000000000E+00  0.76946006371E+03  0.76946006373E+03  0.50400001928E-02 0.  1.
        1   -1    0    0  501    0  0.00000000000E+00  0.00000000000E+00 -0.27787511341E+04  0.27787511341E+04  0.50400001928E-02 0. -1.
    10030    2    1    2    0    0  0.00000000000E+00  0.00000000000E+00 -0.20092910704E+04  0.35482111979E+04  0.29244746706E+04 0.  0.
        5    1    3    3  502    0 -0.11358759229E+04 -0.65718718951E+03 -0.17871950444E+04  0.22172499478E+04  0.46999998093E+01 0. -1.
       -5    1    3    3    0  502  0.11358759229E+04  0.65718718951E+03 -0.22209602601E+03  0.13309612500E+04  0.46999998093E+01 0.  1.
</event>
<event>
 5   0  0.2429358E-06  0.2899640E+04  0.7818609E-02  0.8272984E-01
        1   -1    0    0  501    0  0.00000000000E+00  0.00000000000E+00  0.21026669157E+04  0.21026669157E+04  0.50400001928E-02 0.  1.
       -1   -1    0    0    0  501  0.00000000000E+00  0.00000000000E+00 -0.99967262252E+03  0.99967262253E+03  0.50400001928E-02 0. -1.
    10030    2    1    2    0    0  0.00000000000E+00  0.00000000000E+00  0.11029942931E+04  0.31023395382E+04  0.28996403569E+04 0.  0.
        2    1    3    3  502    0  0.90196532650E+03 -0.10054477006E+04  0.11151167530E+04  0.17515569936E+04  0.25500000920E-02 0.  1.
       -2    1    3    3    0  502 -0.90196532650E+03  0.10054477006E+04 -0.12122459858E+02  0.13507825446E+04  0.25500000920E-02 0. -1.
</event>
<event>
 5   0  0.6513041E-06  0.2948096E+04  0.7818609E-02  0.8258710E-01
       -2   -1    0    0    0  501  0.00000000000E+00  0.00000000000E+00  0.10706661119E+04  0.10706661119E+04  0.25500000920E-02 0.  1.
        2   -1    0    0  501    0  0.00000000000E+00  0.00000000000E+00 -0.20294066990E+04  0.20294066990E+04  0.25500000920E-02 0. -1.
    10030    2    1    2    0    0  0.00000000000E+00  0.00000000000E+00 -0.95874058710E+03  0.31000728110E+04  0.29480956430E+04 0.  0.
        1    1    3    3  502    0 -0.11807876552E+04 -0.13671383025E+03  0.43727025831E+03  0.12665525796E+04  0.50400001928E-02 0.  1.
       -1    1    3    3    0  502  0.11807876552E+04  0.13671383025E+03 -0.13960108454E+04  0.18335202313E+04  0.50400001928E-02 0. -1.
</event>
<event>
 5   0  0.6393633E-06  0.2882013E+04  0.7818609E-02  0.8278249E-01
        2   -1    0    0  501    0  0.00000000000E+00  0.00000000000E+00  0.20639086287E+04  0.20639086287E+04  0.25500000920E-02 0. -1.
       -2   -1    0    0    0  501  0.00000000000E+00  0.00000000000E+00 -0.10061003077E+04  0.10061003077E+04  0.25500000920E-02 0.  1.
    10030    2    1    2    0    0  0.00000000000E+00  0.00000000000E+00  0.10578083210E+04  0.30700089364E+04  0.28820125652E+04 0.  0.
        4    1    3    3  502    0 -0.10649080964E+04 -0.36515512601E+03 -0.42928866454E+03  0.12048476627E+04  0.12699999809E+01 0.  1.
       -4    1    3    3    0  502  0.10649080964E+04  0.36515512601E+03  0.14870969856E+04  0.18651612738E+04  0.12699999809E+01 0. -1.
</event>
<event>
 5   0  0.6612533E-06  0.2895229E+04  0.7818609E-02  0.8274299E-01
       -2   -1    0    0    0  501  0.00000000000E+00  0.00000000000E+00  0.15802602387E+04  0.15802602387E+04  0.25500000920E-02 0. -1.
        2   -1    0    0  501    0  0.00000000000E+00  0.00000000000E+00 -0.13261025970E+04  0.13261025970E+04  0.25500000920E-02 0.  1.
    10030    2    1    2    0    0  0.00000000000E+00  0.00000000000E+00  0.25415764170E+03  0.29063628357E+04  0.28952286310E+04 0.  0.
        3    1    3    3  502    0 -0.12169280075E+04 -0.74605783763E+03  0.36898506667E+03  0.14743358037E+04  0.10100000352E+00 0. -1.
       -3    1    3    3    0  502  0.12169280075E+04  0.74605783763E+03 -0.11482742497E+03  0.14320270320E+04  0.10100000352E+00 0.  1.
</event>
<event>
 5   0  0.2474769E-06  0.2897093E+04  0.7818609E-02  0.8273743E-01
       -1   -1    0    0    0  501  0.00000000000E+00  0.00000000000E+00  0.12671842598E+04  0.12671842598E+04  0.50400001928E-02 0. -1.
        1   -1    0    0  501    0  0.00000000000E+00  0.00000000000E+00 -0.16558656091E+04  0.16558656091E+04  0.50400001928E-02 0.  1.
    10030    2    1    2    0    0  0.00000000000E+00  0.00000000000E+00 -0.38868134932E+03  0.29230498689E+04  0.28970929127E+04 0.  0.
        1    1    3    3  502    0 -0.96409731396E+03  0.58427957578E+03 -0.11121172335E+04  0.15835627536E+04  0.50400001928E-02 0.  1.
       -1    1    3    3    0  502  0.96409731396E+03 -0.58427957578E+03  0.72343588422E+03  0.13394871153E+04  0.50400001928E-02 0. -1.
</event>
<event>
 5   0  0.6615403E-06  0.2884728E+04  0.7818609E-02  0.8277436E-01
        2   -1    0    0  501    0  0.00000000000E+00  0.00000000000E+00  0.22897112939E+04  0.22897112939E+04  0.25500000920E-02 0.  1.
       -2   -1    0    0    0  501  0.00000000000E+00  0.00000000000E+00 -0.90859213908E+03  0.90859213909E+03  0.25500000920E-02 0. -1.
    10030    2    1    2    0    0  0.00000000000E+00  0.00000000000E+00  0.13811191549E+04  0.31983034330E+04  0.28847278433E+04 0.  0.
        2    1    3    3  502    0 -0.20091052302E+03  0.11139445066E+03  0.22692982024E+04  0.22808963356E+04  0.25500000920E-02 0.  1.
       -2    1    3    3    0  502  0.20091052302E+03 -0.11139445066E+03 -0.88817904760E+03  0.91740709747E+03  0.25500000920E-02 0. -1.
</event>
<event>
 5   0  0.2474769E-06  0.2865759E+04  0.7818609E-02  0.8283139E-01
       -1   -1    0    0    0  501  0.00000000000E+00  0.00000000000E+00  0.16827293881E+04  0.16827293881E+04  0.50400001928E-02 0. -1.
        1   -1    0    0  501    0  0.00000000000E+00  0.00000000000E+00 -0.12201269894E+04  0.12201269894E+04  0.50400001928E-02 0.  1.
    10030    2    1    2    0    0  0.00000000000E+00  0.00000000000E+00  0.46260239865E+03  0.29028563776E+04  0.28657589168E+04 0.  0.
        1    1    3    3  502    0 -0.70668117720E+03 -0.38806184043E+03 -0.96858056260E+03  0.12602137059E+04  0.50400001928E-02 0.  1.
       -1    1    3    3    0  502  0.70668117720E+03  0.38806184043E+03  0.14311829613E+04  0.16426426717E+04  0.50400001928E-02 0. -1.
</event>
<event>
 5   0  0.2429358E-06  0.3131017E+04  0.7818609E-02  0.8207277E-01
       -1   -1    0    0    0  501  0.00000000000E+00  0.00000000000E+00  0.17972333226E+04  0.17972333226E+04  0.50400001928E-02 0. -1.
        1   -1    0    0  501    0  0.00000000000E+00  0.00000000000E+00 -0.13636606895E+04  0.13636606895E+04  0.50400001928E-02 0.  1.
    10030    2    1    2    0    0  0.00000000000E+00  0.00000000000E+00  0.43357263311E+03  0.31608940122E+04  0.31310167243E+04 0.  0.
        2    1    3    3  502    0 -0.15561627510E+04  0.50694776449E+02  0.52122671863E+02  0.15578604690E+04  0.25500000920E-02 0.  1.
       -2    1    3    3    0  502  0.15561627510E+04 -0.50694776449E+02  0.38144996124E+03  0.16030335432E+04  0.25500000920E-02 0. -1.
</event>
<event>
 5   0  0.6733688E-06  0.2904207E+04  0.7818609E-02  0.8271627E-01
       -2   -1    0    0    0  501  0.00000000000E+00  0.00000000000E+00  0.92933718185E+03  0.92933718185E+03  0.25500000920E-02 0.  1.
        2   -1    0    0  501    0  0.00000000000E+00  0.00000000000E+00 -0.22689344787E+04  0.22689344787E+04  0.25500000920E-02 0. -1.
    10030    2    1    2    0    0  0.00000000000E+00  0.00000000000E+00 -0.13395972969E+04  0.31982716606E+04  0.29042074129E+04 0.  0.
        5    1    3    3  502    0  0.12899703064E+03 -0.62592146188E+03 -0.21057286787E+04  0.22005756676E+04  0.46999998093E+01 0. -1.
       -5    1    3    3    0  502 -0.12899703064E+03  0.62592146188E+03  0.76613138180E+03  0.99769599305E+03  0.46999998093E+01 0.  1.
</event>
<event>
 5   0  0.2474769E-06  0.2947482E+04  0.7818609E-02  0.8258889E-01
       -1   -1    0    0    0  501  0.00000000000E+00  0.00000000000E+00  0.81440033279E+03  0.81440033281E+03  0.50400001928E-02 0.  1.
        1   -1    0    0  501    0  0.00000000000E+00  0.00000000000E+00 -0.26668861145E+04  0.26668861146E+04  0.50400001928E-02 0. -1.
    10030    2    1    2    0    0  0.00000000000E+00  0.00000000000E+00 -0.18524857818E+04  0.34812864474E+04  0.29474822742E+04 0.  0.
        1    1    3    3  502    0 -0.53488939678E+03 -0.12994469582E+04 -0.14507970329E+04  0.20197725354E+04  0.50400001928E-02 0. -1.
       -1    1    3    3    0  502  0.53488939678E+03  0.12994469582E+04 -0.40168874886E+03  0.14615139120E+04  0.50400001928E-02 0.  1.
</event>
<event>
 5   0  0.6393633E-06  0.2841726E+04  0.7818609E-02  0.8290430E-01
        2   -1    0    0  501    0  0.00000000000E+00  0.00000000000E+00  0.97410811220E+03  0.97410811221E+03  0.25500000920E-02 0.  1.
       -2   -1    0    0    0  501  0.00000000000E+00  0.00000000000E+00 -0.20725128593E+04  0.20725128593E+04  0.25500000920E-02 0. -1.
    10030    2    1    2    0    0  0.00000000000E+00  0.00000000000E+00 -0.10984047471E+04  0.30466209715E+04  0.28417259466E+04 0.  0.
        4    1    3    3  502    0 -0.13425214953E+04  0.45574994674E+03 -0.44875607476E+03  0.14870963677E+04  0.12699999809E+01 0.  1.
       -4    1    3    3    0  502  0.13425214953E+04 -0.45574994674E+03 -0.64964867233E+03  0.15595246038E+04  0.12699999809E+01 0. -1.
</event>
<event>
 5   0  0.2159500E-06  0.2916390E+04  0.7818609E-02  0.8268018E-01
        3   -1    0    0  501    0  0.00000000000E+00  0.00000000000E+00  0.11117997434E+04  0.11117997480E+04  0.10100000352E+00 0. -1.
       -3   -1    0    0    0  501  0.00000000000E+00  0.00000000000E+00 -0.19125138688E+04  0.19125138714E+04  0.10100000352E+00 0.  1.
    10030    2    1    2    0    0  0.00000000000E+00  0.00000000000E+00 -0.80071412536E+03  0.30243136194E+04  0.29163898502E+04 0.  0.
        4    1    3    3  502    0 -0.48982369332E+03  0.75878438290E+03 -0.15875589708E+04  0.18264791509E+04  0.12699999809E+01 0.  1.
       -4    1    3    3    0  502  0.48982369332E+03 -0.75878438290E+03  0.78684484541E+03  0.11978344685E+04  0.12699999809E+01 0. -1.
</event>
<event>
 5   0  0.6612533E-06  0.2900811E+04  0.7818609E-02  0.8272636E-01
        2   -1    0    0  501    0  0.00000000000E+00  0.00000000000E+00  0.11872346962E+04  0.11872346962E+04  0.25500000920E-02 0.  1.
       -2   -1    0    0    0  501  0.00000000000E+00  0.00000000000E+00 -0.17719122671E+04  0.17719122671E+04  0.25500000920E-02 0. -1.
    10030    2    1    2    0    0  0.00000000000E+00  0.00000000000E+00 -0.58467757097E+03  0.29591469633E+04  0.29008107295E+04 0.  0.
        3    1    3    3  502    0 -0.14830578689E+03  0.14311424054E+04 -0.47908452021E+03  0.15164712917E+04  0.10100000352E+00 0. -1.
       -3    1    3    3    0  502  0.14830578689E+03 -0.14311424054E+04 -0.10559305076E+03  0.14426756716E+04  0.10100000352E+00 0.  1.
</event>
<event>
 5   0  0.6612533E-06  0.2798470E+04  0.7818609E-02  0.8303743E-01
        2   -1    0    0  501    0  0.00000000000E+00  0.00000000000E+00  0.19146159905E+04  0.19146159905E+04  0.25500000920E-02 0.  1.
       -2   -1    0    0    0  501  0.00000000000E+00  0.00000000000E+00 -0.10225855872E+04  0.10225855872E+04  0.25500000920E-02 0. -1.
    10030    2    1    2    0    0  0.00000000000E+00  0.00000000000E+00  0.89203040326E+03  0.29372015777E+04  0.27984700941E+04 0.  0.
        3    1    3    3  502    0  0.13803223213E+03 -0.55694920741E+02 -0.10142527152E+04  0.10251162869E+04  0.10100000352E+00 0. -1.
       -3    1    3    3    0  502 -0.13803223213E+03  0.55694920741E+02  0.19062831184E+04  0.19120852907E+04  0.10100000352E+00 0.  1.
</event>
<event>
 5   0  0.2508094E-06  0.2916032E+04  0.7818609E-02  0.8268123E-01
        1   -1    0    0  501    0  0.00000000000E+00  0.00000000000E+00  0.17902086260E+04  0.17902086260E+04  0.50400001928E-02 0.  1.
       -1   -1    0    0    0  501  0.00000000000E+00  0.00000000000E+00 -0.11874656265E+04  0.11874656265E+04  0.50400001928E-02 0. -1.
    10030    2    1    2    0    0  0.00000000000E+00  0.00000000000E+00  0.60274299944E+03  0.29776742525E+04  0.29160323782E+04 0.  0.
        3    1    3    3  502    0  0.10977122760E+03  0.71680917272E+03 -0.99025669867E+03  0.12273848019E+04  0.10100000352E+00 0. -1.
       -3    1    3    3    0  502 -0.10977122760E+03 -0.71680917272E+03  0.15929996981E+04  0.17502894506E+04  0.10100000352E+00 0.  1.
</event>
<event>
 5   0  0.6615403E-06  0.2898772E+04  0.7818609E-02  0.8273243E-01
       -2   -1    0    0    0  501  0.00000000000E+00  0.00000000000E+00  0.13156774687E+04  0.13156774687E+04  0.25500000920E-02 0.  1.
        2   -1    0    0  501    0  0.00000000000E+00  0.00000000000E+00 -0.15966828644E+04  0.15966828644E+04  0.25500000920E-02 0. -1.
    10030    2    1    2    0    0  0.00000000000E+00  0.00000000000E+00 -0.28100539569E+03  0.29123603332E+04  0.28987719258E+04 0.  0.
        2    1    3    3  502    0  0.49530869718E+03 -0.39119184411E+01  0.12280034544E+04  0.13241368859E+04  0.25500000920E-02 0.  1.
       -2    1    3    3    0  502 -0.49530869718E+03  0.39119184411E+01 -0.15090088501E+04  0.15882234472E+04  0.25500000920E-02 0. -1.
</event>
<event>
 5   0  0.6393633E-06  0.2860759E+04  0.7818609E-02  0.8284649E-01
       -2   -1    0    0    0  501  0.00000000000E+00  0.00000000000E+00  0.14071849317E+04  0.14071849317E+04  0.25500000920E-02 0.  1.
        2   -1    0    0  501    0  0.00000000000E+00  0.00000000000E+00 -0.14539563233E+04  0.14539563233E+04  0.25500000920E-02 0. -1.
    10030    2    1    2    0    0  0.00000000000E+00  0.00000000000E+00 -0.46771391601E+02  0.28611412550E+04  0.28607589409E+04 0.  0.
        4    1    3    3  502    0  0.11289166360E+04 -0.64862735991E+03  0.56898865025E+03  0.14208870188E+04  0.12699999809E+01 0.  1.
       -4    1    3    3    0  502 -0.11289166360E+04  0.64862735991E+03 -0.61576004185E+03  0.14402542363E+04  0.12699999809E+01 0. -1.
</event>
<event>
 5   0  0.6393633E-06  0.2905077E+04  0.7818609E-02  0.8271369E-01
       -2   -1    0    0    0  501  0.00000000000E+00  0.00000000000E+00  0.82183662790E+03  0.82183662790E+03  0.25500000920E-02 0. -1.
        2   -1    0    0  501    0  0.00000000000E+00  0.00000000000E+00 -0.25672598939E+04  0.25672598939E+04  0.25500000920E-02 0.  1.
    10030    2    1    2    0    0  0.00000000000E+00  0.00000000000E+00 -0.17454232660E+04  0.33890965218E+04  0.29050770827E+04 0.  0.
        4    1    3    3  502    0 -0.48501697099E+03 -0.35277853554E+03 -0.24160697069E+04  0.24893952275E+04  0.12699999809E+01 0.  1.
       -4    1    3    3    0  502  0.48501697099E+03  0.35277853554E+03  0.67064644092E+03  0.89970129427E+03  0.12699999809E+01 0. -1.
</event>
<event>
 5   0  0.2336512E-06  0.2882281E+04  0.7818609E-02  0.8278169E-01
        1   -1    0    0  501    0  0.00000000000E+00  0.00000000000E+00  0.12695282332E+04  0.12695282332E+04  0.50400001928E-02 0.  1.
       -1   -1    0    0    0  501  0.00000000000E+00  0.00000000000E+00 -0.16359506379E+04  0.16359506379E+04  0.50400001928E-02 0. -1.
    10030    2    1    2    0    0  0.00000000000E+00  0.00000000000E+00 -0.36642240465E+03  0.29054788711E+04  0.28822807101E+04 0.  0.
        4    1    3    3  502    0  0.71795544753E+03 -0.23355749199E+03 -0.14206394592E+04  0.16087968215E+04  0.12699999809E+01 0. -1.
       -4    1    3    3    0  502 -0.71795544753E+03  0.23355749199E+03  0.10542170546E+04  0.12966820496E+04  0.12699999809E+01 0.  1.
</event>
<event>
 5   0  0.2348684E-06  0.2869375E+04  0.7818609E-02  0.8282048E-01
       -1   -1    0    0    0  501  0.00000000000E+00  0.00000000000E+00  0.18269575287E+04  0.18269575287E+04  0.50400001928E-02 0.  1.
        1   -1    0    0  501    0  0.00000000000E+00  0.00000000000E+00 -0.11266428172E+04  0.11266428173E+04  0.50400001928E-02 0. -1.
    10030    2    1    2    0    0  0.00000000000E+00  0.00000000000E+00  0.70031471149E+03  0.29536003460E+04  0.28693752471E+04 0.  0.
        5    1    3    3  502    0  0.40130470151E+02 -0.14029387847E+04  0.44006905923E+02  0.14042102357E+04  0.46999998093E+01 0.  1.
       -5    1    3    3    0  502 -0.40130470151E+02  0.14029387847E+04  0.65630780557E+03  0.15493901103E+04  0.46999998093E+01 0. -1.
</event>
<event>
 5   0  0.2474769E-06  0.2914772E+04  0.7818609E-02  0.8268496E-01
       -1   -1    0    0    0  501  0.00000000000E+00  0.00000000000E+00  0.90912720297E+03  0.90912720298E+03  0.50400001928E-02 0.  1.
        1   -1    0    0  501    0  0.00000000000E+00  0.00000000000E+00 -0.23362775577E+04  0.23362775577E+04  0.50400001928E-02 0. -1.
    10030    2    1    2    0    0  0.00000000000E+00  0.00000000000E+00 -0.14271503547E+04  0.32454047606E+04  0.29147716764E+04 0.  0.
        1    1    3    3  502    0  0.75440268459E+02  0.15704720893E+03  0.89748993701E+03  0.91424463192E+03  0.50400001928E-02 0.  1.
       -1    1    3    3    0  502 -0.75440268459E+02 -0.15704720893E+03 -0.23246402917E+04  0.23311601287E+04  0.50400001928E-02 0. -1.
</event>
<event>
 5   0  0.2336512E-06  0.2895575E+04  0.7818609E-02  0.8274195E-01
        1   -1    0    0  501    0  0.00000000000E+00  0.00000000000E+00  0.15698362399E+04  0.15698362399E+04  0.50400001928E-02 0. -1.
       -1   -1    0    0    0  501  0.00000000000E+00  0.00000000000E+00 -0.13352273113E+04  0.13352273113E+04  0.50400001928E-02 0.  1.
    10030    2    1    2    0    0  0.00000000000E+00  0.00000000000E+00  0.23460892857E+03  0.29050635512E+04  0.28955747075E+04 0.  0.
        4    1    3    3  502    0  0.12787176978E+04  0.52951385652E+03 -0.30903837665E+03  0.14181009153E+04  0.12699999809E+01 0.  1.
       -4    1    3    3    0  502 -0.12787176978E+04 -0.52951385652E+03  0.54364730522E+03  0.14869626358E+04  0.12699999809E+01 0. -1.
</event>
<event>
 5   0  0.2474769E-06  0.3036776E+04  0.7818609E-02  0.8233306E-01
       -1   -1    0    0    0  501  0.00000000000E+00  0.00000000000E+00  0.10745498231E+04  0.10745498231E+04  0.50400001928E-02 0.  1.
        1   -1    0    0  501    0  0.00000000000E+00  0.00000000000E+00 -0.21455520236E+04  0.21455520237E+04  0.50400001928E-02 0. -1.
    10030    2    1    2    0    0  0.00000000000E+00  0.00000000000E+00 -0.10710022006E+04  0.32201018468E+04  0.30367762825E+04 0.  0.
        1    1    3    3  502    0 -0.62284751543E+03  0.64177346145E+03 -0.18366429382E+04  0.20428092143E+04  0.50400001928E-02 0. -1.
       -1    1    3    3    0  502  0.62284751543E+03 -0.64177346145E+03  0.76564073769E+03  0.11772926325E+04  0.50400001928E-02 0.  1.
</event>
<event>
 5   0  0.6615403E-06  0.2900010E+04  0.7818609E-02  0.8272875E-01
        2   -1    0    0  501    0  0.00000000000E+00  0.00000000000E+00  0.19320713651E+04  0.19320713651E+04  0.25500000920E-02 0. -1.
       -2   -1    0    0    0  501  0.00000000000E+00  0.00000000000E+00 -0.10882177593E+04  0.10882177593E+04  0.25500000920E-02 0.  1.
    10030    2    1    2    0    0  0.00000000000E+00  0.00000000000E+00  0.84385360581E+03  0.30202891244E+04  0.29000099115E+04 0.  0.
        2    1    3    3  502    0  0.57332034893E+03 -0.99692400966E+03 -0.49785621731E+03  0.12531618078E+04  0.25500000920E-02 0.  1.
       -2    1    3    3    0  502 -0.57332034893E+03  0.99692400966E+03  0.13417098231E+04  0.17671273166E+04  0.25500000920E-02 0. -1.
</event>
<event>
 5   0  0.2336512E-06  0.2883534E+04  0.7818609E-02  0.8277794E-01
       -1   -1    0    0    0  501  0.00000000000E+00  0.00000000000E+00  0.94206534396E+03  0.94206534398E+03  0.50400001928E-02 0. -1.
        1   -1    0    0  501    0  0.00000000000E+00  0.00000000000E+00 -0.22065259794E+04  0.22065259794E+04  0.50400001928E-02 0.  1.
    10030    2    1    2    0    0  0.00000000000E+00  0.00000000000E+00 -0.12644606354E+04  0.31485913234E+04  0.28835337042E+04 0.  0.
        4    1    3    3  502    0  0.63637592233E+03 -0.39032231037E+03 -0.19790450605E+04  0.21151706278E+04  0.12699999809E+01 0.  1.
       -4    1    3    3    0  502 -0.63637592233E+03  0.39032231037E+03  0.71458442507E+03  0.10334206955E+04  0.12699999809E+01 0. -1.
</event>
<event>
 5   0  0.6393633E-06  0.3225877E+04  0.7818609E-02  0.8182016E-01
        2   -1    0    0  501    0  0.00000000000E+00  0.00000000000E+00  0.24908860745E+04  0.24908860745E+04  0.25500000920E-02 0.  1.
       -2   -1    0    0    0  501  0.00000000000E+00  0.00000000000E+00 -0.10444355188E+04  0.10444355188E+04  0.25500000920E-02 0. -1.
    10030    2    1    2    0    0  0.00000000000E+00  0.00000000000E+00  0.14464505557E+04  0.35353215933E+04  0.32258765565E+04 0.  0.
        4    1    3    3  502    0  0.47272684043E+03  0.14073769676E+04  0.14140826271E+04  0.20503199467E+04  0.12699999809E+01 0.  1.
       -4    1    3    3    0  502 -0.47272684043E+03 -0.14073769676E+04  0.32367928617E+02  0.14850016466E+04  0.12699999809E+01 0. -1.
</event>
<event>
 5   0  0.2474769E-06  0.2921278E+04  0.7818609E-02  0.8266575E-01
        1   -1    0    0  501    0  0.00000000000E+00  0.00000000000E+00  0.18646861809E+04  0.18646861809E+04  0.50400001928E-02 0. -1.
       -1   -1    0    0    0  501  0.00000000000E+00  0.00000000000E+00 -0.11441420753E+04  0.11441420753E+04  0.50400001928E-02 0.  1.
    10030    2    1    2    0    0  0.00000000000E+00  0.00000000000E+00  0.72054410562E+03  0.30088282562E+04  0.29212777456E+04 0.  0.
        1    1    3    3  502    0 -0.94527171240E+03  0.14846820026E+03 -0.77638015624E+03  0.12322124670E+04  0.50400001928E-02 0.  1.
       -1    1    3    3    0  502  0.94527171240E+03 -0.14846820026E+03  0.14969242619E+04  0.17766157892E+04  0.50400001928E-02 0. -1.
</event>
<event>
 5   0  0.2508094E-06  0.3077676E+04  0.7818609E-02  0.8221891E-01
        1   -1    0    0  501    0  0.00000000000E+00  0.00000000000E+00  0.17891203961E+04  0.17891203961E+04  0.50400001928E-02 0.  1.
       -1   -1    0    0    0  501  0.00000000000E+00  0.00000000000E+00 -0.13235682386E+04  0.13235682386E+04  0.50400001928E-02 0. -1.
    10030    2    1    2    0    0  0.00000000000E+00  0.00000000000E+00  0.46555215746E+03  0.31126886347E+04  0.30776763516E+04 0.  0.
        3    1    3    3  502    0  0.11776290294E+04 -0.77720191362E+03 -0.38835218147E+03  0.14634446940E+04  0.10100000352E+00 0. -1.
       -3    1    3    3    0  502 -0.11776290294E+04  0.77720191362E+03  0.85390433893E+03  0.16492439406E+04  0.10100000352E+00 0.  1.
</event>
<event>
 5   0  0.6615403E-06  0.2852754E+04  0.7818609E-02  0.8287075E-01
       -2   -1    0    0    0  501  0.00000000000E+00  0.00000000000E+00  0.14383895859E+04  0.14383895859E+04  0.25500000920E-02 0. -1.
        2   -1    0    0  501    0  0.00000000000E+00  0.00000000000E+00 -0.14144642477E+04  0.14144642477E+04  0.25500000920E-02 0.  1.
    10030    2    1    2    0    0  0.00000000000E+00  0.00000000000E+00  0.23925338277E+02  0.28528538336E+04  0.28527535074E+04 0.  0.
        2    1    3    3  502    0  0.13043568495E+04 -0.41611455092E+02  0.58771926221E+03  0.14312554752E+04  0.25500000920E-02 0. -1.
       -2    1    3    3    0  502 -0.13043568495E+04  0.41611455092E+02 -0.56379392393E+03  0.14215983584E+04  0.25500000920E-02 0.  1.
</event>
<event>
 5   0  0.6513041E-06  0.2887393E+04  0.7818609E-02  0.8276638E-01
       -2   -1    0    0    0  501  0.00000000000E+00  0.00000000000E+00  0.74415727175E+03  0.74415727176E+03  0.25500000920E-02 0. -1.
        2   -1    0    0  501    0  0.00000000000E+00  0.00000000000E+00 -0.28008329407E+04  0.28008329407E+04  0.25500000920E-02 0.  1.
    10030    2    1    2    0    0  0.00000000000E+00  0.00000000000E+00 -0.20566756689E+04  0.35449902124E+04  0.28873934264E+04 0.  0.
        1    1    3    3  502    0 -0.37609444326E+03  0.13549805884E+04 -0.62703004354E+03  0.15396707767E+04  0.50400001928E-02 0.  1.
       -1    1    3    3    0  502  0.37609444326E+03 -0.13549805884E+04 -0.14296456254E+04  0.20053194357E+04  0.50400001928E-02 0. -1.
</event>
<event>
 5   0  0.6733688E-06  0.2908694E+04  0.7818609E-02  0.8270295E-01
        2   -1    0    0  501    0  0.00000000000E+00  0.00000000000E+00  0.18889001091E+04  0.18889001091E+04  0.25500000920E-02 0. -1.
       -2   -1    0    0    0  501  0.00000000000E+00  0.00000000000E+00 -0.11197658150E+04  0.11197658150E+04  0.25500000920E-02 0.  1.
    10030    2    1    2    0    0  0.00000000000E+00  0.00000000000E+00  0.76913429413E+03  0.30086659241E+04  0.29086943945E+04 0.  0.
        5    1    3    3  502    0  0.18217278518E+03 -0.12986495506E+04 -0.26587479775E+03  0.13380542130E+04  0.46999998093E+01 0.  1.
       -5    1    3    3    0  502 -0.18217278518E+03  0.12986495506E+04  0.10350090919E+04  0.16706117111E+04  0.46999998093E+01 0. -1.
</event>
<event>
 5   0  0.2336512E-06  0.2923408E+04  0.7818609E-02  0.8265947E-01
       -1   -1    0    0    0  501  0.00000000000E+00  0.00000000000E+00  0.11734131208E+04  0.11734131208E+04  0.50400001928E-02 0.  1.
        1   -1    0    0  501    0  0.00000000000E+00  0.00000000000E+00 -0.18208236271E+04  0.18208236271E+04  0.50400001928E-02 0. -1.
    10030    2    1    2    0    0  0.00000000000E+00  0.00000000000E+00 -0.64741050628E+03  0.29942367479E+04  0.29234078297E+04 0.  0.
        4    1    3    3  502    0 -0.57358366288E+03  0.16827944091E+03  0.10425017371E+04  0.12017186332E+04  0.12699999809E+01 0.  1.
       -4    1    3    3    0  502  0.57358366288E+03 -0.16827944091E+03 -0.16899122434E+04  0.17925181148E+04  0.12699999809E+01 0. -1.
</event>
<event>
 5   0  0.2474769E-06  0.2874809E+04  0.7818609E-02  0.8280412E-01
       -1   -1    0    0    0  501  0.00000000000E+00  0.00000000000E+00  0.20563015284E+04  0.20563015284E+04  0.50400001928E-02 0.  1.
        1   -1    0    0  501    0  0.00000000000E+00  0.00000000000E+00 -0.10047801828E+04  0.10047801828E+04  0.50400001928E-02 0. -1.
    10030    2    1    2    0    0  0.00000000000E+00  0.00000000000E+00  0.10515213456E+04  0.30610817112E+04  0.28748085332E+04 0.  0.
        1    1    3    3  502    0  0.36811909789E+03 -0.13749598736E+04  0.31252314432E+03  0.14572909936E+04  0.50400001928E-02 0. -1.
       -1    1    3    3    0  502 -0.36811909789E+03  0.13749598736E+04  0.73899820131E+03  0.16037907176E+04  0.50400001928E-02 0.  1.
</event>
<event>
 5   0  0.2348684E-06  0.2914739E+04  0.7818609E-02  0.8268506E-01
        1   -1    0    0  501    0  0.00000000000E+00  0.00000000000E+00  0.17252776749E+04  0.17252776749E+04  0.50400001928E-02 0. -1.
       -1   -1    0    0    0  501  0.00000000000E+00  0.00000000000E+00 -0.12310634175E+04  0.12310634175E+04  0.50400001928E-02 0.  1.
    10030    2    1    2    0    0  0.00000000000E+00  0.00000000000E+00  0.49421425742E+03  0.29563410923E+04  0.29147392546E+04 0.  0.
        5    1    3    3  502    0  0.98339549740E+03  0.48748142967E+03  0.12195400889E+04  0.16407330578E+04  0.46999998093E+01 0. -1.
       -5    1    3    3    0  502 -0.98339549740E+03 -0.48748142967E+03 -0.72532583151E+03  0.13156080345E+04  0.46999998093E+01 0.  1.
</event>
<event>
 5   0  0.6612533E-06  0.2897655E+04  0.7818609E-02  0.8273575E-01
       -2   -1    0    0    0  501  0.00000000000E+00  0.00000000000E+00  0.87665533463E+03  0.87665533463E+03  0.25500000920E-02 0.  1.
        2   -1    0    0  501    0  0.00000000000E+00  0.00000000000E+00 -0.23944432529E+04  0.23944432529E+04  0.25500000920E-02 0. -1.
    10030    2    1    2    0    0  0.00000000000E+00  0.00000000000E+00 -0.15177879183E+04  0.32710985875E+04  0.28976552253E+04 0.  0.
        3    1    3    3  502    0  0.80547341343E+03  0.41977186914E+03 -0.20331292691E+04  0.22267937661E+04  0.10100000352E+00 0. -1.
       -3    1    3    3    0  502 -0.80547341343E+03 -0.41977186914E+03  0.51534135084E+03  0.10443048214E+04  0.10100000352E+00 0.  1.
</event>
<event>
 5   0  0.6615403E-06  0.2869835E+04  0.7818609E-02  0.8281909E-01
       -2   -1    0    0    0  501  0.00000000000E+00  0.00000000000E+00  0.69901712180E+03  0.69901712180E+03  0.25500000920E-02 0. -1.
        2   -1    0    0  501    0  0.00000000000E+00  0.00000000000E+00 -0.29455482458E+04  0.29455482458E+04  0.25500000920E-02 0.  1.
    10030    2    1    2    0    0  0.00000000000E+00  0.00000000000E+00 -0.22465311240E+04  0.36445653676E+04  0.28698352963E+04 0.  0.
        2    1    3    3  502    0  0.84155971071E+03  0.52847337063E+03  0.19129673451E+03  0.10119788984E+04  0.25500000920E-02 0. -1.
       -2    1    3    3    0  502 -0.84155971071E+03 -0.52847337063E+03 -0.24378278585E+04  0.26325864692E+04  0.25500000920E-02 0.  1.
</event>
<event>
 5   0  0.2429358E-06  0.2904561E+04  0.7818609E-02  0.8271522E-01
        1   -1    0    0  501    0  0.00000000000E+00  0.00000000000E+00  0.12858703413E+04  0.12858703413E+04  0.50400001928E-02 0. -1.
       -1   -1    0    0    0  501  0.00000000000E+00  0.00000000000E+00 -0.16402260303E+04  0.16402260303E+04  0.50400001928E-02 0.  1.
    10030    2    1    2    0    0  0.00000000000E+00  0.00000000000E+00 -0.35435568897E+03  0.29260963716E+04  0.29045605556E+04 0.  0.
        2    1    3    3  502    0  0.49372297606E+03  0.98997041919E+03 -0.11250655815E+04  0.15778391460E+04  0.25500000920E-02 0.  1.
       -2    1    3    3    0  502 -0.49372297606E+03 -0.98997041919E+03  0.77070989250E+03  0.13482572256E+04  0.25500000920E-02 0. -1.
</event>
<event>
 5   0  0.2429358E-06  0.2908990E+04  0.7818609E-02  0.8270208E-01
       -1   -1    0    0    0  501  0.00000000000E+00  0.00000000000E+00  0.16728463902E+04  0.16728463903E+04  0.50400001928E-02 0.  1.
        1   -1    0    0  501    0  0.00000000000E+00  0.00000000000E+00 -0.12646445976E+04  0.12646445976E+04  0.50400001928E-02 0. -1.
    10030    2    1    2    0    0  0.00000000000E+00  0.00000000000E+00  0.40820179262E+03  0.29374909879E+04  0.29089903060E+04 0.  0.
        2    1    3    3  502    0 -0.12419180989E+04 -0.61791639703E+03  0.64585111282E+03  0.15301323139E+04  0.25500000920E-02 0. -1.
       -2    1    3    3    0  502  0.12419180989E+04  0.61791639703E+03 -0.23764932021E+03  0.14073586740E+04  0.25500000920E-02 0.  1.
</event>
<event>
 5   0  0.6393633E-06  0.2980353E+04  0.7818609E-02  0.8249363E-01
        2   -1    0    0  501    0  0.00000000000E+00  0.00000000000E+00  0.24621780912E+04  0.24621780912E+04  0.25500000920E-02 0. -1.
       -2   -1    0    0    0  501  0.00000000000E+00  0.00000000000E+00 -0.90189509859E+03  0.90189509859E+03  0.25500000920E-02 0.  1.
    10030    2    1    2    0    0  0.00000000000E+00  0.00000000000E+00  0.15602829926E+04  0.33640731898E+04  0.29803532357E+04 0.  0.
        4    1    3    3  502    0 -0.12390524825E+03  0.13780094911E+04  0.15537865108E+03  0.13922667870E+04  0.12699999809E+01 0.  1.
       -4    1    3    3    0  502  0.12390524825E+03 -0.13780094911E+04  0.14049043415E+04  0.19718064028E+04  0.12699999809E+01 0. -1.
</event>
<event>
 5   0  0.2508094E-06  0.2869597E+04  0.7818609E-02  0.8281981E-01
       -1   -1    0    0    0  501  0.00000000000E+00  0.00000000000E+00  0.15582208941E+04  0.15582208941E+04  0.50400001928E-02 0.  1.
        1   -1    0    0  501    0  0.00000000000E+00  0.00000000000E+00 -0.13211517535E+04  0.13211517535E+04  0.50400001928E-02 0. -1.
    10030    2    1    2    0    0  0.00000000000E+00  0.00000000000E+00  0.23706914053E+03  0.28793726476E+04  0.28695966731E+04 0.  0.
        3    1    3    3  502    0 -0.11540034690E+04 -0.35458679446E+03  0.89654076143E+03  0.15037423810E+04  0.10100000352E+00 0.  1.
       -3    1    3    3    0  502  0.11540034690E+04  0.35458679446E+03 -0.65947162090E+03  0.13756302666E+04  0.10100000352E+00 0. -1.
</event>
<event>
 5   0  0.6513041E-06  0.2903115E+04  0.7818609E-02  0.8271951E-01
       -2   -1    0    0    0  501  0.00000000000E+00  0.00000000000E+00  0.11105346743E+04  0.11105346743E+04  0.25500000920E-02 0. -1.
        2   -1    0    0  501    0  0.00000000000E+00  0.00000000000E+00 -0.18973016295E+04  0.18973016295E+04  0.25500000920E-02 0.  1.
    10030    2    1    2    0    0  0.00000000000E+00  0.00000000000E+00 -0.78676695515E+03  0.30078363038E+04  0.29031150492E+04 0.  0.
        1    1    3    3  502    0  0.13004124230E+03 -0.55830553672E+02  0.11033700383E+04  0.11124087454E+04  0.50400001928E-02 0. -1.
       -1    1    3    3    0  502 -0.13004124230E+03  0.55830553672E+02 -0.18901369934E+04  0.18954275584E+04  0.50400001928E-02 0.  1.
</event>
<event>
 5   0  0.2429358E-06  0.2899235E+04  0.7818609E-02  0.8273105E-01
        1   -1    0    0  501    0  0.00000000000E+00  0.00000000000E+00  0.25489635076E+04  0.25489635076E+04  0.50400001928E-02 0.  1.
       -1   -1    0    0    0  501  0.00000000000E+00  0.00000000000E+00 -0.82441022056E+03  0.82441022057E+03  0.50400001928E-02 0. -1.
    10030    2    1    2    0    0  0.00000000000E+00  0.00000000000E+00  0.17245532870E+04  0.33733737282E+04  0.28992354630E+04 0.  0.
        2    1    3    3  502    0 -0.41122544330E+03  0.83799713213E+03 -0.42817474171E+03  0.10269757388E+04  0.25500000920E-02 0. -1.
       -2    1    3    3    0  502  0.41122544330E+03 -0.83799713213E+03  0.21527280288E+04  0.23463979894E+04  0.25500000920E-02 0.  1.
</event>
<event>
 5   0  0.2336512E-06  0.3079870E+04  0.7818609E-02  0.8221284E-01
       -1   -1    0    0    0  501  0.00000000000E+00  0.00000000000E+00  0.15056561949E+04  0.15056561949E+04  0.50400001928E-02 0. -1.
        1   -1    0    0  501    0  0.00000000000E+00  0.00000000000E+00 -0.15749944820E+04  0.15749944820E+04  0.50400001928E-02 0.  1.
    10030    2    1    2    0    0  0.00000000000E+00  0.00000000000E+00 -0.69338287023E+02  0.30806506769E+04  0.30798702562E+04 0.  0.
        4    1    3    3  502    0 -0.12871346227E+03  0.13308351042E+04  0.72953319253E+03  0.15231249199E+04  0.12699999809E+01 0. -1.
       -4    1    3    3    0  502  0.12871346227E+03 -0.13308351042E+04 -0.79887147955E+03  0.15575257570E+04  0.12699999809E+01 0.  1.
</event>
<event>
 5   0  0.6393633E-06  0.2883884E+04  0.7818609E-02  0.8277689E-01
       -2   -1    0    0    0  501  0.00000000000E+00  0.00000000000E+00  0.10726191298E+04  0.10726191298E+04  0.25500000920E-02 0.  1.
        2   -1    0    0  501    0  0.00000000000E+00  0.00000000000E+00 -0.19384290527E+04  0.19384290527E+04  0.25500000920E-02 0. -1.
    10030    2    1    2    0    0  0.00000000000E+00  0.00000000000E+00 -0.86580992285E+03  0.30110481825E+04  0.28838835508E+04 0.  0.
        4    1    3    3  502    0  0.13537945931E+04 -0.45153512375E+03 -0.64827900008E+03  0.15674536814E+04  0.12699999809E+01 0.  1.
       -4    1    3    3    0  502 -0.13537945931E+04  0.45153512375E+03 -0.21753092278E+03  0.14435945011E+04  0.12699999809E+01 0. -1.
</event>
<event>
 5   0  0.6615403E-06  0.2901908E+04  0.7818609E-02  0.8272310E-01
       -2   -1    0    0    0  501  0.00000000000E+00  0.00000000000E+00  0.10501512036E+04  0.10501512036E+04  0.25500000920E-02 0.  1.
        2   -1    0    0  501    0  0.00000000000E+00  0.00000000000E+00 -0.20047275982E+04  0.20047275982E+04  0.25500000920E-02 0. -1.
    10030    2    1    2    0    0  0.00000000000E+00  0.00000000000E+00 -0.95457639462E+03  0.30548788018E+04  0.29019077175E+04 0.  0.
        2    1    3    3  502    0 -0.67276994036E+03  0.76820613829E+03  0.60782812169E+03  0.11883665634E+04  0.25500000920E-02 0.  1.
       -2    1    3    3    0  502  0.67276994036E+03 -0.76820613829E+03 -0.15624045163E+04  0.18665122384E+04  0.25500000920E-02 0. -1.
</event>
<event>
 5   0  0.2348684E-06  0.2902216E+04  0.7818609E-02  0.8272218E-01
       -1   -1    0    0    0  501  0.00000000000E+00  0.00000000000E+00  0.24488510291E+04  0.24488510291E+04  0.50400001928E-02 0.  1.
        1   -1    0    0  501    0  0.00000000000E+00  0.00000000000E+00 -0.85987877554E+03  0.85987877556E+03  0.50400001928E-02 0. -1.
    10030    2    1    2    0    0  0.00000000000E+00  0.00000000000E+00  0.15889722536E+04  0.33087298047E+04  0.29022164112E+04 0.  0.
        5    1    3    3  502    0 -0.11845388568E+04 -0.22473389855E+03 -0.12611971537E+03  0.12122565327E+04  0.46999998093E+01 0. -1.
       -5    1    3    3    0  502  0.11845388568E+04  0.22473389855E+03  0.17150919689E+04  0.20964732720E+04  0.46999998093E+01 0.  1.
</event>
<event>
 5   0  0.6733688E-06  0.2882572E+04  0.7818609E-02  0.8278082E-01
       -2   -1    0    0    0  501  0.00000000000E+00  0.00000000000E+00  0.11837033844E+04  0.11837033844E+04  0.25500000920E-02 0. -1.
        2   -1    0    0  501    0  0.00000000000E+00  0.00000000000E+00 -0.17549208229E+04  0.17549208229E+04  0.25500000920E-02 0.  1.
    10030    2    1    2    0    0  0.00000000000E+00  0.00000000000E+00 -0.57121743848E+03  0.29386242073E+04  0.28825722661E+04 0.  0.
        5    1    3    3  502    0 -0.97905323393E+03 -0.87842719412E+03  0.31500284920E+03  0.13525636603E+04  0.46999998093E+01 0. -1.
       -5    1    3    3    0  502  0.97905323393E+03  0.87842719412E+03 -0.88622028768E+03  0.15860605469E+04  0.46999998093E+01 0.  1.
</event>
<event>
 5   0  0.6615403E-06  0.2922833E+04  0.7818609E-02  0.8266116E-01
       -2   -1    0    0    0  501  0.00000000000E+00  0.00000000000E+00  0.17940935937E+04  0.17940935937E+04  0.25500000920E-02 0. -1.
        2   -1    0    0  501    0  0.00000000000E+00  0.00000000000E+00 -0.11904276360E+04  0.11904276360E+04  0.25500000920E-02 0.  1.
    10030    2    1    2    0    0  0.00000000000E+00  0.00000000000E+00  0.60366595765E+03  0.29845212297E+04  0.29228332800E+04 0.  0.
        2    1    3    3  502    0  0.11774905579E+04  0.85336215889E+03  0.44990246143E+03  0.15222099766E+04  0.25500000920E-02 0.  1.
       -2    1    3    3    0  502 -0.11774905579E+04 -0.85336215889E+03  0.15376349623E+03  0.14623112531E+04  0.25500000920E-02 0. -1.
</event>
<event>
 5   0  0.2159500E-06  0.2890947E+04  0.7818609E-02  0.8275576E-01
        4   -1    0    0  501    0  0.00000000000E+00  0.00000000000E+00  0.15523316498E+04  0.15523321693E+04  0.12699999809E+01 0. -1.
       -4   -1    0    0    0  501  0.00000000000E+00  0.00000000000E+00 -0.13459702366E+04  0.13459708357E+04  0.12699999809E+01 0.  1.
    10030    2    1    2    0    0  0.00000000000E+00  0.00000000000E+00  0.20636141319E+03  0.28983030050E+04  0.28909471244E+04 0.  0.
        5    1    3    3  502    0 -0.13335011168E+04  0.38728364856E+03 -0.29928548689E+03  0.14204955986E+04  0.46999998093E+01 0.  1.
       -5    1    3    3    0  502  0.13335011168E+04 -0.38728364856E+03  0.50564690008E+03  0.14778074064E+04  0.46999998093E+01 0. -1.
</event>
<event>
 5   0  0.2508094E-06  0.2919375E+04  0.7818609E-02  0.8267136E-01
        1   -1    0    0  501    0  0.00000000000E+00  0.00000000000E+00  0.13373688499E+04  0.13373688499E+04  0.50400001928E-02 0. -1.
       -1   -1    0    0    0  501  0.00000000000E+00  0.00000000000E+00 -0.15931937847E+04  0.15931937847E+04  0.50400001928E-02 0.  1.
    10030    2    1    2    0    0  0.00000000000E+00  0.00000000000E+00 -0.25582493475E+03  0.29305626346E+04  0.29193750972E+04 0.  0.
        3    1    3    3  502    0 -0.45493896425E+03 -0.13868416842E+04 -0.10812879567E+03  0.14635542918E+04  0.10100000352E+00 0.  1.
       -3    1    3    3    0  502  0.45493896425E+03  0.13868416842E+04 -0.14769613908E+03  0.14670083429E+04  0.10100000352E+00 0. -1.
</event>
<event>
 5   0  0.6513041E-06  0.2896263E+04  0.7818609E-02  0.8273990E-01
        2   -1    0    0  501    0  0.00000000000E+00  0.00000000000E+00  0.12864091894E+04  0.12864091894E+04  0.25500000920E-02 0. -1.
       -2   -1    0    0    0  501  0.00000000000E+00  0.00000000000E+00 -0.16301851529E+04  0.16301851529E+04  0.25500000920E-02 0.  1.
    10030    2    1    2    0    0  0.00000000000E+00  0.00000000000E+00 -0.34377596354E+03  0.29165943424E+04  0.28962632209E+04 0.  0.
        1    1    3    3  502    0  0.46417284768E+03  0.98523762080E+03 -0.11330173052E+04  0.15715844921E+04  0.50400001928E-02 0.  1.
       -1    1    3    3    0  502 -0.46417284768E+03 -0.98523762080E+03  0.78924134162E+03  0.13450098503E+04  0.50400001928E-02 0. -1.
</event>
<event>
 5   0  0.2508094E-06  0.2908257E+04  0.7818609E-02  0.8270425E-01
       -1   -1    0    0    0  501  0.00000000000E+00  0.00000000000E+00  0.11385550620E+04  0.11385550620E+04  0.50400001928E-02 0. -1.
        1   -1    0    0  501    0  0.00000000000E+00  0.00000000000E+00 -0.18571692536E+04  0.18571692536E+04  0.50400001928E-02 0.  1.
    10030    2    1    2    0    0  0.00000000000E+00  0.00000000000E+00 -0.71861419166E+03  0.29957243156E+04  0.29082568350E+04 0.  0.
        3    1    3    3  502    0 -0.11640706948E+04  0.73525760570E+02  0.53515374732E+03  0.12832989377E+04  0.10100000352E+00 0. -1.
       -3    1    3    3    0  502  0.11640706948E+04 -0.73525760570E+02 -0.12537679390E+04  0.17124253779E+04  0.10100000352E+00 0.  1.
</event>
<event>
 5   0  0.6615403E-06  0.2906769E+04  0.7818609E-02  0.8270866E-01
        2   -1    0    0  501    0  0.00000000000E+00  0.00000000000E+00  0.25135599293E+04  0.25135599293E+04  0.25500000920E-02 0.  1.
       -2   -1    0    0    0  501  0.00000000000E+00  0.00000000000E+00 -0.84037262828E+03  0.84037262829E+03  0.25500000920E-02 0. -1.
    10030    2    1    2    0    0  0.00000000000E+00  0.00000000000E+00  0.16731873010E+04  0.33539325576E+04  0.29067693160E+04 0.  0.
        2    1    3    3  502    0  0.65782365536E+03  0.94458002097E+03  0.18604320673E+04  0.21877318973E+04  0.25500000920E-02 0.  1.
       -2    1    3    3    0  502 -0.65782365536E+03 -0.94458002097E+03 -0.18724476625E+03  0.11662006603E+04  0.25500000920E-02 0. -1.
</event>
<event>
 5   0  0.6612533E-06  0.2778946E+04  0.7818609E-02  0.8309835E-01
        2   -1    0    0  501    0  0.00000000000E+00  0.00000000000E+00  0.11290592688E+04  0.11290592688E+04  0.25500000920E-02 0.  1.
       -2   -1    0    0    0  501  0.00000000000E+00  0.00000000000E+00 -0.17099498975E+04  0.17099498975E+04  0.25500000920E-02 0. -1.
    10030    2    1    2    0    0  0.00000000000E+00  0.00000000000E+00 -0.58089062868E+03  0.28390091663E+04  0.27789456857E+04 0.  0.
        3    1    3    3  502    0 -0.71340376349E+03  0.77957389718E+03 -0.12121393313E+04  0.16080927087E+04  0.10100000352E+00 0. -1.
       -3    1    3    3    0  502  0.71340376349E+03 -0.77957389718E+03  0.63124870265E+03  0.12309164577E+04  0.10100000352E+00 0.  1.
</event>
<event>
 5   0  0.6513041E-06  0.2934976E+04  0.7818609E-02  0.8262547E-01
       -2   -1    0    0    0  501  0.00000000000E+00  0.00000000000E+00  0.91704793500E+03  0.91704793500E+03  0.25500000920E-02 0. -1.
        2   -1    0    0  501    0  0.00000000000E+00  0.00000000000E+00 -0.23483182801E+04  0.23483182801E+04  0.25500000920E-02 0.  1.
    10030    2    1    2    0    0  0.00000000000E+00  0.00000000000E+00 -0.14312703451E+04  0.32653662151E+04  0.29349755907E+04 0.  0.
        1    1    3    3  502    0 -0.76449334295E+03 -0.76849737129E+03  0.38489981690E+03  0.11502982875E+04  0.50400001928E-02 0. -1.
       -1    1    3    3    0  502  0.76449334295E+03  0.76849737129E+03 -0.18161701620E+04  0.21150679276E+04  0.50400001928E-02 0.  1.
</event>
<event>
 5   0  0.6733688E-06  0.2921834E+04  0.7818609E-02  0.8266411E-01
        2   -1    0    0  501    0  0.00000000000E+00  0.00000000000E+00  0.17389053350E+04  0.17389053350E+04  0.25500000920E-02 0. -1.
       -2   -1    0    0    0  501  0.00000000000E+00  0.00000000000E+00 -0.12273686562E+04  0.12273686562E+04  0.25500000920E-02 0.  1.
    10030    2    1    2    0    0  0.00000000000E+00  0.00000000000E+00  0.51153667876E+03  0.29662739912E+04  0.29218336053E+04 0.  0.
        5    1    3    3  502    0  0.10826274330E+04 -0.23834857382E+03 -0.71020980851E+03  0.13165531753E+04  0.46999998093E+01 0.  1.
       -5    1    3    3    0  502 -0.10826274330E+04  0.23834857382E+03  0.12217464873E+04  0.16497208159E+04  0.46999998093E+01 0. -1.
</event>
<event>
 5   0  0.2336512E-06  0.2915281E+04  0.7818609E-02  0.8268345E-01
       -1   -1    0    0    0  501  0.00000000000E+00  0.00000000000E+00  0.13440655456E+04  0.13440655456E+04  0.50400001928E-02 0. -1.
        1   -1    0    0  501    0  0.00000000000E+00  0.00000000000E+00 -0.15808131270E+04  0.15808131270E+04  0.50400001928E-02 0.  1.
    10030    2    1    2    0    0  0.00000000000E+00  0.00000000000E+00 -0.23674758134E+03  0.29248786726E+04  0.29152814328E+04 0.  0.
        4    1    3    3  502    0 -0.67139206839E+03 -0.12917798621E+04 -0.45662290023E+02  0.14565538710E+04  0.12699999809E+01 0. -1.
       -4    1    3    3    0  502  0.67139206839E+03  0.12917798621E+04 -0.19108529131E+03  0.14683248016E+04  0.12699999809E+01 0.  1.
</event>
<event>
 5   0  0.2348684E-06  0.2744764E+04  0.7818609E-02  0.8320625E-01
        1   -1    0    0  501    0  0.00000000000E+00  0.00000000000E+00  0.18651418084E+04  0.18651418084E+04  0.50400001928E-02 0. -1.
       -1   -1    0    0    0  501  0.00000000000E+00  0.00000000000E+00 -0.10098067046E+04  0.10098067046E+04  0.50400001928E-02 0.  1.
    10030    2    1    2    0    0  0.00000000000E+00  0.00000000000E+00  0.85533510386E+03  0.28749485130E+04  0.27447642544E+04 0.  0.
        5    1    3    3  502    0 -0.39694000121E+03 -0.10925676837E+04 -0.33641460499E+03  0.12101497364E+04  0.46999998093E+01 0.  1.
       -5    1    3    3    0  502  0.39694000121E+03  0.10925676837E+04  0.11917497089E+04  0.16647987766E+04  0.46999998093E+01 0. -1.
</event>
<event>
 5   0  0.6393633E-06  0.2925946E+04  0.7818609E-02  0.8265199E-01
       -2   -1    0    0    0  501  0.00000000000E+00  0.00000000000E+00  0.96386493447E+03  0.96386493447E+03  0.25500000920E-02 0.  1.
        2   -1    0    0  501    0  0.00000000000E+00  0.00000000000E+00 -0.22205294957E+04  0.22205294957E+04  0.25500000920E-02 0. -1.
    10030    2    1    2    0    0  0.00000000000E+00  0.00000000000E+00 -0.12566645613E+04  0.31843944302E+04  0.29259463542E+04 0.  0.
        4    1    3    3  502    0  0.10473855948E+04  0.64274119144E+03  0.23560966867E+03  0.12512579080E+04  0.12699999809E+01 0.  1.
       -4    1    3    3    0  502 -0.10473855948E+04 -0.64274119144E+03 -0.14922742299E+04  0.19331365222E+04  0.12699999809E+01 0. -1.
</event>
<event>
 5   0  0.2336512E-06  0.2861692E+04  0.7818609E-02  0.8284367E-01
       -1   -1    0    0    0  501  0.00000000000E+00  0.00000000000E+00  0.94273513551E+03  0.94273513552E+03  0.50400001928E-02 0.  1.
        1   -1    0    0  501    0  0.00000000000E+00  0.00000000000E+00 -0.21716807233E+04  0.21716807233E+04  0.50400001928E-02 0. -1.
    10030    2    1    2    0    0  0.00000000000E+00  0.00000000000E+00 -0.12289455878E+04  0.31144158588E+04  0.28616916123E+04 0.  0.
        4    1    3    3  502    0 -0.24677400384E+03 -0.55223574028E+03  0.79675322541E+03  0.10003394608E+04  0.12699999809E+01 0.  1.
       -4    1    3    3    0  502  0.24677400384E+03  0.55223574028E+03 -0.20256988132E+04  0.21140763980E+04  0.12699999809E+01 0. -1.
</event>
<event>
 5   0  0.2474769E-06  0.2894867E+04  0.7818609E-02  0.8274406E-01
       -1   -1    0    0    0  501  0.00000000000E+00  0.00000000000E+00  0.14648682093E+04  0.14648682093E+04  0.50400001928E-02 0.  1.
        1   -1    0    0  501    0  0.00000000000E+00  0.00000000000E+00 -0.14302067269E+04  0.14302067269E+04  0.50400001928E-02 0. -1.
    10030    2    1    2    0    0  0.00000000000E+00  0.00000000000E+00  0.34661482430E+02  0.28950749363E+04  0.28948674353E+04 0.  0.
        1    1    3    3  502    0 -0.25452215982E+03 -0.14238232400E+04 -0.37538648123E+02  0.14468805406E+04  0.50400001928E-02 0.  1.
       -1    1    3    3    0  502  0.25452215982E+03  0.14238232400E+04  0.72200130553E+02  0.14481943956E+04  0.50400001928E-02 0. -1.
</event>
<event>
 5   0  0.6513041E-06  0.2916096E+04  0.7818609E-02  0.8268105E-01
       -2   -1    0    0    0  501  0.00000000000E+00  0.00000000000E+00  0.72945803588E+03  0.72945803589E+03  0.25500000920E-02 0. -1.
        2   -1    0    0  501    0  0.00000000000E+00  0.00000000000E+00 -0.29143601765E+04  0.29143601765E+04  0.25500000920E-02 0.  1.
    10030    2    1    2    0    0  0.00000000000E+00  0.00000000000E+00 -0.21849021406E+04  0.36438182124E+04  0.29160956433E+04 0.  0.
        1    1    3    3  502    0  0.51611245906E+03 -0.12796941976E+04 -0.50381424743E+03  0.14689513626E+04  0.50400001928E-02 0. -1.
       -1    1    3    3    0  502 -0.51611245906E+03  0.12796941976E+04 -0.16810878932E+04  0.21748668498E+04  0.50400001928E-02 0.  1.
</event>
<event>
 5   0  0.2348684E-06  0.2905380E+04  0.7818609E-02  0.8271279E-01
       -1   -1    0    0    0  501  0.00000000000E+00  0.00000000000E+00  0.85965335105E+03  0.85965335106E+03  0.50400001928E-02 0. -1.
        1   -1    0    0  501    0  0.00000000000E+00  0.00000000000E+00 -0.24548357409E+04  0.24548357409E+04  0.50400001928E-02 0.  1.
    10030    2    1    2    0    0  0.00000000000E+00  0.00000000000E+00 -0.15951823899E+04  0.33144890920E+04  0.29053796798E+04 0.  0.
        5    1    3    3  502    0  0.95381390975E+03 -0.97339857012E+03 -0.13714315218E+04  0.19334198353E+04  0.46999998093E+01 0. -1.
       -5    1    3    3    0  502 -0.95381390975E+03  0.97339857012E+03 -0.22375086812E+03  0.13810692567E+04  0.46999998093E+01 0.  1.
</event>
<event>
 5   0  0.6393633E-06  0.2951373E+04  0.7818609E-02  0.8257755E-01
        2   -1    0    0  501    0  0.00000000000E+00  0.00000000000E+00  0.17212005248E+04  0.17212005248E+04  0.25500000920E-02 0. -1.
       -2   -1    0    0    0  501  0.00000000000E+00  0.00000000000E+00 -0.12651926781E+04  0.12651926781E+04  0.25500000920E-02 0.  1.
    10030    2    1    2    0    0  0.00000000000E+00  0.00000000000E+00  0.45600784668E+03  0.29863932028E+04  0.29513727663E+04 0.  0.
        4    1    3    3  502    0  0.11685689927E+04 -0.43268515202E+03 -0.57186864592E+03  0.13710599157E+04  0.12699999809E+01 0.  1.
       -4    1    3    3    0  502 -0.11685689927E+04  0.43268515202E+03  0.10278764926E+04  0.16153332871E+04  0.12699999809E+01 0. -1.
</event>
<event>
 5   0  0.6513041E-06  0.2658823E+04  0.7818609E-02  0.8348491E-01
       -2   -1    0    0    0  501  0.00000000000E+00  0.00000000000E+00  0.82059976590E+03  0.82059976590E+03  0.25500000920E-02 0.  1.
        2   -1    0    0  501    0  0.00000000000E+00  0.00000000000E+00 -0.21537108371E+04  0.21537108371E+04  0.25500000920E-02 0. -1.
    10030    2    1    2    0    0  0.00000000000E+00  0.00000000000E+00 -0.13331110712E+04  0.29743106030E+04  0.26588227536E+04 0.  0.
        1    1    3    3  502    0 -0.96145695516E+01  0.51762758996E+03  0.70319588728E+03  0.87322117344E+03  0.50400001928E-02 0.  1.
       -1    1    3    3    0  502  0.96145695516E+01 -0.51762758996E+03 -0.20363069584E+04  0.21010894295E+04  0.50400001928E-02 0. -1.
</event>
<event>
 5   0  0.6612533E-06  0.2896325E+04  0.7818609E-02  0.8273972E-01
        2   -1    0    0  501    0  0.00000000000E+00  0.00000000000E+00  0.13178228034E+04  0.13178228034E+04  0.25500000920E-02 0.  1.
       -2   -1    0    0    0  501  0.00000000000E+00  0.00000000000E+00 -0.15913935153E+04  0.15913935153E+04  0.25500000920E-02 0. -1.
    10030    2    1    2    0    0  0.00000000000E+00  0.00000000000E+00 -0.27357071188E+03  0.29092163188E+04  0.28963250258E+04 0.  0.
        3    1    3    3  502    0 -0.47466731125E+03 -0.12497434811E+04 -0.69604611569E+03  0.15071987362E+04  0.10100000352E+00 0. -1.
       -3    1    3    3    0  502  0.47466731125E+03  0.12497434811E+04  0.42247540381E+03  0.14020175826E+04  0.10100000352E+00 0.  1.
</event>
<event>
 5   0  0.6615403E-06  0.2826706E+04  0.7818609E-02  0.8295025E-01
       -2   -1    0    0    0  501  0.00000000000E+00  0.00000000000E+00  0.11179436146E+04  0.11179436146E+04  0.25500000920E-02 0.  1.
        2   -1    0    0  501    0  0.00000000000E+00  0.00000000000E+00 -0.17868219542E+04  0.17868219542E+04  0.25500000920E-02 0. -1.
    10030    2    1    2    0    0  0.00000000000E+00  0.00000000000E+00 -0.66887833954E+03  0.29047655688E+04  0.28267056402E+04 0.  0.
        2    1    3    3  502    0  0.27112082707E+03 -0.85072539649E+03 -0.14602880693E+04  0.17116312245E+04  0.25500000920E-02 0. -1.
       -2    1    3    3    0  502 -0.27112082707E+03  0.85072539649E+03  0.79140972980E+03  0.11931343443E+04  0.25500000920E-02 0.  1.
</event>
<event>
 5   0  0.6513041E-06  0.2810027E+04  0.7818609E-02  0.8300162E-01
       -2   -1    0    0    0  501  0.00000000000E+00  0.00000000000E+00  0.25136647847E+04  0.25136647847E+04  0.25500000920E-02 0. -1.
        2   -1    0    0  501    0  0.00000000000E+00  0.00000000000E+00 -0.78533241258E+03  0.78533241258E+03  0.25500000920E-02 0.  1.
    10030    2    1    2    0    0  0.00000000000E+00  0.00000000000E+00  0.17283323722E+04  0.32989971973E+04  0.28100266403E+04 0.  0.
        1    1    3    3  502    0 -0.65010750725E+03  0.10299182548E+04  0.16865519361E+04  0.20803434370E+04  0.50400001928E-02 0. -1.
       -1    1    3    3    0  502  0.65010750725E+03 -0.10299182548E+04  0.41780436032E+02  0.12186537603E+04  0.50400001928E-02 0.  1.
</event>
<event>
 5   0  0.6733688E-06  0.2861201E+04  0.7818609E-02  0.8284516E-01
        2   -1    0    0  501    0  0.00000000000E+00  0.00000000000E+00  0.17669436226E+04  0.17669436226E+04  0.25500000920E-02 0. -1.
       -2   -1    0    0    0  501  0.00000000000E+00  0.00000000000E+00 -0.11582812426E+04  0.11582812426E+04  0.25500000920E-02 0.  1.
    10030    2    1    2    0    0  0.00000000000E+00  0.00000000000E+00  0.60866238000E+03  0.29252248653E+04  0.28612009052E+04 0.  0.
        5    1    3    3  502    0 -0.12225784967E+04 -0.39694946898E+03  0.94633852188E+03  0.15961972778E+04  0.46999998093E+01 0. -1.
       -5    1    3    3    0  502  0.12225784967E+04  0.39694946898E+03 -0.33767614188E+03  0.13290275875E+04  0.46999998093E+01 0.  1.
</event>
<event>
 5   0  0.6615403E-06  0.2909317E+04  0.7818609E-02  0.8270111E-01
       -2   -1    0    0    0  501  0.00000000000E+00  0.00000000000E+00  0.19804247023E+04  0.19804247023E+04  0.25500000920E-02 0.  1.
        2   -1    0    0  501    0  0.00000000000E+00  0.00000000000E+00 -0.10684737603E+04  0.10684737603E+04  0.25500000920E-02 0. -1.
    10030    2    1    2    0    0  0.00000000000E+00  0.00000000000E+00  0.91195094201E+03  0.30488984625E+04  0.29093173279E+04 0.  0.
        2    1    3    3  502    0  0.13130416542E+04 -0.21029965993E+03  0.10739511512E+04  0.17092909079E+04  0.25500000920E-02 0.  1.
       -2    1    3    3    0  502 -0.13130416542E+04  0.21029965993E+03 -0.16200020922E+03  0.13396075546E+04  0.25500000920E-02 0. -1.
</event>
<event>
 5   0  0.2508094E-06  0.2921783E+04  0.7818609E-02  0.8266426E-01
       -1   -1    0    0    0  501  0.00000000000E+00  0.00000000000E+00  0.99220382139E+03  0.99220382140E+03  0.50400001928E-02 0.  1.
        1   -1    0    0  501    0  0.00000000000E+00  0.00000000000E+00 -0.21509733156E+04  0.21509733157E+04  0.50400001928E-02 0. -1.
    10030    2    1    2    0    0  0.00000000000E+00  0.00000000000E+00 -0.11587694943E+04  0.31431771371E+04  0.29217829786E+04 0.  0.
        3    1    3    3  502    0 -0.39420828725E+02  0.50504818646E+03  0.89469064065E+03  0.10281532109E+04  0.10100000352E+00 0.  1.
       -3    1    3    3    0  502  0.39420828725E+02 -0.50504818646E+03 -0.20534601349E+04  0.21150239262E+04  0.10100000352E+00 0. -1.
</event>
<event>
 5   0  0.2474769E-06  0.2892343E+04  0.7818609E-02  0.8275159E-01
        1   -1    0    0  501    0  0.00000000000E+00  0.00000000000E+00  0.16724935028E+04  0.16724935028E+04  0.50400001928E-02 0. -1.
       -1   -1    0    0    0  501  0.00000000000E+00  0.00000000000E+00 -0.12504753060E+04  0.12504753060E+04  0.50400001928E-02 0.  1.
    10030    2    1    2    0    0  0.00000000000E+00  0.00000000000E+00  0.42201819680E+03  0.29229688089E+04  0.28923428737E+04 0.  0.
        1    1    3    3  502    0  0.42974706848E+03 -0.24307261160E+03 -0.11626648748E+04  0.12631533749E+04  0.50400001928E-02 0.  1.
       -1    1    3    3    0  502 -0.42974706848E+03  0.24307261160E+03  0.15846830716E+04  0.16598154340E+04  0.50400001928E-02 0. -1.
</event>
<event>
 5   0  0.6615403E-06  0.2896971E+04  0.7818609E-02  0.8273779E-01
        2   -1    0    0  501    0  0.00000000000E+00  0.00000000000E+00  0.27078108860E+04  0.27078108860E+04  0.25500000920E-02 0.  1.
       -2   -1    0    0    0  501  0.00000000000E+00  0.00000000000E+00 -0.77483621370E+03  0.77483621371E+03  0.25500000920E-02 0. -1.
    10030    2    1    2    0    0  0.00000000000E+00  0.00000000000E+00  0.19329746723E+04  0.34826470997E+04  0.28969707864E+04 0.  0.
        2    1    3    3  502    0  0.14381770300E+04 -0.15210742070E+03  0.86867411890E+03  0.16870342503E+04  0.25500000920E-02 0.  1.
       -2    1    3    3    0  502 -0.14381770300E+04  0.15210742070E+03  0.10643005534E+04  0.17956128494E+04  0.25500000920E-02 0. -1.
</event>
<event>
 5   0  0.6733688E-06  0.2650771E+04  0.7818609E-02  0.8351157E-01
       -2   -1    0    0    0  501  0.00000000000E+00  0.00000000000E+00  0.75022230834E+03  0.75022230835E+03  0.25500000920E-02 0. -1.
        2   -1    0    0  501    0  0.00000000000E+00  0.00000000000E+00 -0.23415019178E+04  0.23415019178E+04  0.25500000920E-02 0.  1.
    10030    2    1    2    0    0  0.00000000000E+00  0.00000000000E+00 -0.15912796094E+04  0.30917242261E+04  0.26507711887E+04 0.  0.
        5    1    3    3  502    0 -0.37957088566E+03 -0.12367523615E+04 -0.45962921720E+03  0.13729208164E+04  0.46999998093E+01 0. -1.
       -5    1    3    3    0  502  0.37957088566E+03  0.12367523615E+04 -0.11316503922E+04  0.17188034097E+04  0.46999998093E+01 0.  1.
</event>
<event>
 5   0  0.6733688E-06  0.2882335E+04  0.7818609E-02  0.8278153E-01
       -2   -1    0    0    0  501  0.00000000000E+00  0.00000000000E+00  0.17086027831E+04  0.17086027831E+04  0.25500000920E-02 0. -1.
        2   -1    0    0  501    0  0.00000000000E+00  0.00000000000E+00 -0.12155917388E+04  0.12155917388E+04  0.25500000920E-02 0.  1.
    10030    2    1    2    0    0  0.00000000000E+00  0.00000000000E+00  0.49301104434E+03  0.29241945219E+04  0.28823347675E+04 0.  0.
        5    1    3    3  502    0  0.10604517844E+04  0.94873964965E+03  0.47846642584E+03  0.15012052226E+04  0.46999998093E+01 0. -1.
       -5    1    3    3    0  502 -0.10604517844E+04 -0.94873964965E+03  0.14544618497E+02  0.14229892992E+04  0.46999998093E+01 0.  1.
</event>
<event>
 5   0  0.2336512E-06  0.2892187E+04  0.7818609E-02  0.8275206E-01
        1   -1    0    0  501    0  0.00000000000E+00  0.00000000000E+00  0.17437276818E+04  0.17437276818E+04  0.50400001928E-02 0. -1.
       -1   -1    0    0    0  501  0.00000000000E+00  0.00000000000E+00 -0.11992623857E+04  0.11992623857E+04  0.50400001928E-02 0.  1.
    10030    2    1    2    0    0  0.00000000000E+00  0.00000000000E+00  0.54446529605E+03  0.29429900675E+04  0.28921874211E+04 0.  0.
        4    1    3    3  502    0 -0.68515719490E+03 -0.11729746392E+04 -0.23233570743E+03  0.13781478077E+04  0.12699999809E+01 0.  1.
       -4    1    3    3    0  502  0.68515719490E+03  0.11729746392E+04  0.77680100348E+03  0.15648422598E+04  0.12699999809E+01 0. -1.
</event>
<event>
 5   0  0.2348684E-06  0.2828285E+04  0.7818609E-02  0.8294540E-01
        1   -1    0    0  501    0  0.00000000000E+00  0.00000000000E+00  0.15818362570E+04  0.15818362570E+04  0.50400001928E-02 0. -1.
       -1   -1    0    0    0  501  0.00000000000E+00  0.00000000000E+00 -0.12642265547E+04  0.12642265547E+04  0.50400001928E-02 0.  1.
    10030    2    1    2    0    0  0.00000000000E+00  0.00000000000E+00  0.31760970238E+03  0.28460628117E+04  0.28282852765E+04 0.  0.
        5    1    3    3  502    0  0.52279953175E+03  0.12174903119E+04  0.65605180812E+03  0.14785222606E+04  0.46999998093E+01 0. -1.
       -5    1    3    3    0  502 -0.52279953175E+03 -0.12174903119E+04 -0.33844210574E+03  0.13675405511E+04  0.46999998093E+01 0.  1.
</event>
<event>
 5   0  0.6513041E-06  0.2897216E+04  0.7818609E-02  0.8273706E-01
        2   -1    0    0  501    0  0.00000000000E+00  0.00000000000E+00  0.15795959166E+04  0.15795959166E+04  0.25500000920E-02 0. -1.
       -2   -1    0    0    0  501  0.00000000000E+00  0.00000000000E+00 -0.13284823277E+04  0.13284823277E+04  0.25500000920E-02 0.  1.
    10030    2    1    2    0    0  0.00000000000E+00  0.00000000000E+00  0.25111358898E+03  0.29080782443E+04  0.28972160845E+04 0.  0.
        1    1    3    3  502    0  0.80174830867E+03  0.59593881094E+03  0.11785474889E+04  0.15449652425E+04  0.50400001928E-02 0. -1.
       -1    1    3    3    0  502 -0.80174830867E+03 -0.59593881094E+03 -0.92743389996E+03  0.13631130018E+04  0.50400001928E-02 0.  1.
</event>
<event>
 5   0  0.6393633E-06  0.2682479E+04  0.7818609E-02  0.8340712E-01
       -2   -1    0    0    0  501  0.00000000000E+00  0.00000000000E+00  0.88204490948E+03  0.88204490948E+03  0.25500000920E-02 0. -1.
        2   -1    0    0  501    0  0.00000000000E+00  0.00000000000E+00 -0.20394916727E+04  0.20394916727E+04  0.25500000920E-02 0.  1.
    10030    2    1    2    0    0  0.00000000000E+00  0.00000000000E+00 -0.11574467632E+04  0.29215365822E+04  0.26824788893E+04 0.  0.
        4    1    3    3  502    0 -0.11587951795E+04  0.53641550768E+02 -0.13119498765E+04  0.17512560565E+04  0.12699999809E+01 0. -1.
       -4    1    3    3    0  502  0.11587951795E+04 -0.53641550768E+02  0.15450311333E+03  0.11702805257E+04  0.12699999809E+01 0.  1.
</event>
<event>
 5   0  0.6615403E-06  0.2863437E+04  0.7818609E-02  0.8283840E-01
       -2   -1    0    0    0  501  0.00000000000E+00  0.00000000000E+00  0.10952974922E+04  0.10952974922E+04  0.25500000920E-02 0. -1.
        2   -1    0    0  501    0  0.00000000000E+00  0.00000000000E+00 -0.18714715815E+04  0.18714715815E+04  0.25500000920E-02 0.  1.
    10030    2    1    2    0    0  0.00000000000E+00  0.00000000000E+00 -0.77617408933E+03  0.29667690737E+04  0.28634371863E+04 0.  0.
        2    1    3    3  502    0  0.87021297445E+03 -0.11365194931E+04 -0.41866390414E+03  0.14913841369E+04  0.25500000920E-02 0.  1.
       -2    1    3    3    0  502 -0.87021297445E+03  0.11365194931E+04 -0.35751018519E+03  0.14753849368E+04  0.25500000920E-02 0. -1.
</event>
<event>
 5   0  0.6615403E-06  0.3043739E+04  0.7818609E-02  0.8231350E-01
        2   -1    0    0  501    0  0.00000000000E+00  0.00000000000E+00  0.20419551840E+04  0.20419551840E+04  0.25500000920E-02 0. -1.
       -2   -1    0    0    0  501  0.00000000000E+00  0.00000000000E+00 -0.11342494677E+04  0.11342494677E+04  0.25500000920E-02 0.  1.
    10030    2    1    2    0    0  0.00000000000E+00  0.00000000000E+00  0.90770571630E+03  0.31762046517E+04  0.30437388722E+04 0.  0.
        2    1    3    3  502    0  0.14119718669E+03 -0.15035364961E+04  0.25716112894E+03  0.15318911472E+04  0.25500000920E-02 0. -1.
       -2    1    3    3    0  502 -0.14119718669E+03  0.15035364961E+04  0.65054458736E+03  0.16443135045E+04  0.25500000920E-02 0.  1.
</event>
<event>
 5   0  0.2429358E-06  0.2896319E+04  0.7818609E-02  0.8273973E-01
        1   -1    0    0  501    0  0.00000000000E+00  0.00000000000E+00  0.22425338646E+04  0.22425338646E+04  0.50400001928E-02 0. -1.
       -1   -1    0    0    0  501  0.00000000000E+00  0.00000000000E+00 -0.93517701225E+03  0.93517701226E+03  0.50400001928E-02 0.  1.
    10030    2    1    2    0    0  0.00000000000E+00  0.00000000000E+00  0.13073568524E+04  0.31777108769E+04  0.28963191257E+04 0.  0.
        2    1    3    3  502    0  0.11973238864E+04  0.59880971477E+03  0.47746299552E+02  0.13395660762E+04  0.25500000920E-02 0.  1.
       -2    1    3    3    0  502 -0.11973238864E+04 -0.59880971477E+03  0.12596105528E+04  0.18381448007E+04  0.25500000920E-02 0. -1.
</event>
<event>
 5   0  0.2508094E-06  0.2636922E+04  0.7818609E-02  0.8355767E-01
        1   -1    0    0  501    0  0.00000000000E+00  0.00000000000E+00  0.16953951146E+04  0.16953951146E+04  0.50400001928E-02 0. -1.
       -1   -1    0    0    0  501  0.00000000000E+00  0.00000000000E+00 -0.10253300681E+04  0.10253300681E+04  0.50400001928E-02 0.  1.
    10030    2    1    2    0    0  0.00000000000E+00  0.00000000000E+00  0.67006504649E+03  0.27207251828E+04  0.26369221364E+04 0.  0.
        3    1    3    3  502    0 -0.11383003997E+04 -0.59920750548E+02  0.10186767603E+04  0.15287317124E+04  0.10100000352E+00 0. -1.
       -3    1    3    3    0  502  0.11383003997E+04  0.59920750548E+02 -0.34861171384E+03  0.11919934704E+04  0.10100000352E+00 0.  1.
</event>
<event>
 5   0  0.6733688E-06  0.2829174E+04  0.7818609E-02  0.8294268E-01
       -2   -1    0    0    0  501  0.00000000000E+00  0.00000000000E+00  0.10706378841E+04  0.10706378841E+04  0.25500000920E-02 0.  1.
        2   -1    0    0  501    0  0.00000000000E+00  0.00000000000E+00 -0.18690318236E+04  0.18690318236E+04  0.25500000920E-02 0. -1.
    10030    2    1    2    0    0  0.00000000000E+00  0.00000000000E+00 -0.79839393948E+03  0.29396697078E+04  0.28291739268E+04 0.  0.
        5    1    3    3  502    0 -0.24711603055E+03 -0.72844451410E+03  0.83432313247E+03  0.11348193345E+04  0.46999998093E+01 0.  1.
       -5    1    3    3    0  502  0.24711603055E+03  0.72844451410E+03 -0.16327170719E+04  0.18048503732E+04  0.46999998093E+01 0. -1.
</event>
<event>
 5   0  0.6513041E-06  0.2859748E+04  0.7818609E-02  0.8284955E-01
       -2   -1    0    0    0  501  0.00000000000E+00  0.00000000000E+00  0.16221914348E+04  0.16221914348E+04  0.25500000920E-02 0.  1.
        2   -1    0    0  501    0  0.00000000000E+00  0.00000000000E+00 -0.12603562584E+04  0.12603562584E+04  0.25500000920E-02 0. -1.
    10030    2    1    2    0    0  0.00000000000E+00  0.00000000000E+00  0.36183517631E+03  0.28825476932E+04  0.28597476303E+04 0.  0.
        1    1    3    3  502    0  0.94317809923E+01  0.74731851432E+03 -0.10478029376E+04  0.12870372631E+04  0.50400001928E-02 0. -1.
       -1    1    3    3    0  502 -0.94317809923E+01 -0.74731851432E+03  0.14096381140E+04  0.15955104301E+04  0.50400001928E-02 0.  1.
</event>
<event>
 5   0  0.2336512E-06  0.2893726E+04  0.7818609E-02  0.8274747E-01
       -1   -1    0    0    0  501  0.00000000000E+00  0.00000000000E+00  0.11580997757E+04  0.11580997757E+04  0.50400001928E-02 0. -1.
        1   -1    0    0  501    0  0.00000000000E+00  0.00000000000E+00 -0.18076267075E+04  0.18076267075E+04  0.50400001928E-02 0.  1.
    10030    2    1    2    0    0  0.00000000000E+00  0.00000000000E+00 -0.64952693180E+03  0.29657264832E+04  0.28937256846E+04 0.  0.
        4    1    3    3  502    0 -0.11228794260E+04 -0.28856305445E+03 -0.12119130605E+04  0.16771588240E+04  0.12699999809E+01 0.  1.
       -4    1    3    3    0  502  0.11228794260E+04  0.28856305445E+03  0.56238612869E+03  0.12885676592E+04  0.12699999809E+01 0. -1.
</event>
<event>
 5   0  0.2508094E-06  0.2874743E+04  0.7818609E-02  0.8280432E-01
        1   -1    0    0  501    0  0.00000000000E+00  0.00000000000E+00  0.15264685453E+04  0.15264685453E+04  0.50400001928E-02 0. -1.
       -1   -1    0    0    0  501  0.00000000000E+00  0.00000000000E+00 -0.13534746873E+04  0.13534746873E+04  0.50400001928E-02 0.  1.
    10030    2    1    2    0    0  0.00000000000E+00  0.00000000000E+00  0.17299385803E+03  0.28799432326E+04  0.28747427969E+04 0.  0.
        3    1    3    3  502    0 -0.14149281911E+04  0.21522639408E+03  0.21975010595E+03  0.14479759342E+04  0.10100000352E+00 0. -1.
       -3    1    3    3    0  502  0.14149281911E+04 -0.21522639408E+03 -0.46756247927E+02  0.14319672984E+04  0.10100000352E+00 0.  1.
</event>
<event>
 5   0  0.6733688E-06  0.2813304E+04  0.7818609E-02  0.8299150E-01
       -2   -1    0    0    0  501  0.00000000000E+00  0.00000000000E+00  0.11363295054E+04  0.11363295054E+04  0.25500000920E-02 0. -1.
        2   -1    0    0  501    0  0.00000000000E+00  0.00000000000E+00 -0.17412811799E+04  0.17412811799E+04  0.25500000920E-02 0.  1.
    10030    2    1    2    0    0  0.00000000000E+00  0.00000000000E+00 -0.60495167446E+03  0.28776106853E+04  0.28133035257E+04 0.  0.
        5    1    3    3  502    0  0.84083600724E+03  0.10875504986E+04  0.24591399980E+01  0.13746997546E+04  0.46999998093E+01 0. -1.
       -5    1    3    3    0  502 -0.84083600724E+03 -0.10875504986E+04 -0.60741081446E+03  0.15029109307E+04  0.46999998093E+01 0.  1.
</event>
<event>
 5   0  0.2159500E-06  0.2788517E+04  0.7818609E-02  0.8306842E-01
       -4   -1    0    0    0  501  0.00000000000E+00  0.00000000000E+00  0.10246683401E+04  0.10246691272E+04  0.12699999809E+01 0. -1.
        4   -1    0    0  501    0  0.00000000000E+00  0.00000000000E+00 -0.18971551874E+04  0.18971556125E+04  0.12699999809E+01 0.  1.
    10030    2    1    2    0    0  0.00000000000E+00  0.00000000000E+00 -0.87248684723E+03  0.29218247396E+04  0.27885169016E+04 0.  0.
        4    1    3    3  502    0 -0.38867352225E+02 -0.12864899170E+04  0.12547054499E+03  0.12931788152E+04  0.12699999809E+01 0.  1.
       -4    1    3    3    0  502  0.38867352225E+02  0.12864899170E+04 -0.99795739222E+03  0.16286459244E+04  0.12699999809E+01 0. -1.
</event>
<event>
 5   0  0.6615403E-06  0.2874094E+04  0.7818609E-02  0.8280627E-01
       -2   -1    0    0    0  501  0.00000000000E+00  0.00000000000E+00  0.21597535585E+04  0.21597535585E+04  0.25500000920E-02 0. -1.
        2   -1    0    0  501    0  0.00000000000E+00  0.00000000000E+00 -0.95617602731E+03  0.95617602731E+03  0.25500000920E-02 0.  1.
    10030    2    1    2    0    0  0.00000000000E+00  0.00000000000E+00  0.12035775312E+04  0.31159295859E+04  0.28740943461E+04 0.  0.
        2    1    3    3  502    0 -0.52563823451E+03 -0.50426269559E+03  0.19447826824E+04  0.20767176268E+04  0.25500000920E-02 0. -1.
       -2    1    3    3    0  502  0.52563823451E+03  0.50426269559E+03 -0.74120515115E+03  0.10392119591E+04  0.25500000920E-02 0.  1.
</event>
<event>
 5   0  0.6393633E-06  0.2924214E+04  0.7818609E-02  0.8265709E-01
        2   -1    0    0  501    0  0.00000000000E+00  0.00000000000E+00  0.12305048340E+04  0.12305048340E+04  0.25500000920E-02 0. -1.
       -2   -1    0    0    0  501  0.00000000000E+00  0.00000000000E+00 -0.17373002773E+04  0.17373002773E+04  0.25500000920E-02 0.  1.
    10030    2    1    2    0    0  0.00000000000E+00  0.00000000000E+00 -0.50679544323E+03  0.29678051113E+04  0.29242136648E+04 0.  0.
        4    1    3    3  502    0  0.46683104338E+03 -0.41002257064E+03  0.10898520228E+04  0.12545233262E+04  0.12699999809E+01 0. -1.
       -4    1    3    3    0  502 -0.46683104338E+03  0.41002257064E+03 -0.15966474660E+04  0.17132817851E+04  0.12699999809E+01 0.  1.
</event>
<event>
 5   0  0.2474769E-06  0.2910501E+04  0.7818609E-02  0.8269760E-01
        1   -1    0    0  501    0  0.00000000000E+00  0.00000000000E+00  0.14818846431E+04  0.14818846431E+04  0.50400001928E-02 0. -1.
       -1   -1    0    0    0  501  0.00000000000E+00  0.00000000000E+00 -0.14290952462E+04  0.14290952462E+04  0.50400001928E-02 0.  1.
    10030    2    1    2    0    0  0.00000000000E+00  0.00000000000E+00  0.52789396918E+02  0.29109798893E+04  0.29105011931E+04 0.  0.
        1    1    3    3  502    0  0.11896545158E+04  0.22110066105E+03  0.83497737336E+03  0.14701532516E+04  0.50400001928E-02 0. -1.
       -1    1    3    3    0  502 -0.11896545158E+04 -0.22110066105E+03 -0.78218797644E+03  0.14408266376E+04  0.50400001928E-02 0.  1.
</event>
<event>
 5   0  0.2474769E-06  0.2863825E+04  0.7818609E-02  0.8283723E-01
       -1   -1    0    0    0  501  0.00000000000E+00  0.00000000000E+00  0.13261725257E+04  0.13261725257E+04  0.50400001928E-02 0. -1.
        1   -1    0    0  501    0  0.00000000000E+00  0.00000000000E+00 -0.15460838465E+04  0.15460838465E+04  0.50400001928E-02 0.  1.
    10030    2    1    2    0    0  0.00000000000E+00  0.00000000000E+00 -0.21991132084E+03  0.28722563722E+04  0.28638253575E+04 0.  0.
        1    1    3    3  502    0  0.56081579641E+03  0.10739941047E+04  0.65543991461E+03  0.13775264702E+04  0.50400001928E-02 0. -1.
       -1    1    3    3    0  502 -0.56081579641E+03 -0.10739941047E+04 -0.87535123546E+03  0.14947299020E+04  0.50400001928E-02 0.  1.
</event>
<event>
 5   0  0.2348684E-06  0.2912458E+04  0.7818609E-02  0.8269181E-01
        1   -1    0    0  501    0  0.00000000000E+00  0.00000000000E+00  0.11947073023E+04  0.11947073023E+04  0.50400001928E-02 0. -1.
       -1   -1    0    0    0  501  0.00000000000E+00  0.00000000000E+00 -0.17749972681E+04  0.17749972681E+04  0.50400001928E-02 0.  1.
    10030    2    1    2    0    0  0.00000000000E+00  0.00000000000E+00 -0.58028996581E+03  0.29697045703E+04  0.29124575174E+04 0.  0.
        5    1    3    3  502    0 -0.81914528700E+03  0.12022013254E+04 -0.35695446724E+03  0.14979070765E+04  0.46999998093E+01 0. -1.
       -5    1    3    3    0  502  0.81914528700E+03 -0.12022013254E+04 -0.22333549856E+03  0.14717974939E+04  0.46999998093E+01 0.  1.
</event>
<event>
 5   0  0.6513041E-06  0.2918126E+04  0.7818609E-02  0.8267505E-01
        2   -1    0    0  501    0  0.00000000000E+00  0.00000000000E+00  0.24750218329E+04  0.24750218329E+04  0.25500000920E-02 0.  1.
       -2   -1    0    0    0  501  0.00000000000E+00  0.00000000000E+00 -0.86014004892E+03  0.86014004893E+03  0.25500000920E-02 0. -1.
    10030    2    1    2    0    0  0.00000000000E+00  0.00000000000E+00  0.16148817840E+04  0.33351618818E+04  0.29181263855E+04 0.  0.
        1    1    3    3  502    0 -0.12652442408E+04 -0.58773115644E+03  0.31906224622E+03  0.14311085277E+04  0.50400001928E-02 0.  1.
       -1    1    3    3    0  502  0.12652442408E+04  0.58773115644E+03  0.12958195378E+04  0.19040533542E+04  0.50400001928E-02 0. -1.
</event>
<event>
 5   0  0.6393633E-06  0.2904015E+04  0.7818609E-02  0.8271684E-01
       -2   -1    0    0    0  501  0.00000000000E+00  0.00000000000E+00  0.88888481257E+03  0.88888481258E+03  0.25500000920E-02 0. -1.
        2   -1    0    0  501    0  0.00000000000E+00  0.00000000000E+00 -0.23718766607E+04  0.23718766607E+04  0.25500000920E-02 0.  1.
    10030    2    1    2    0    0  0.00000000000E+00  0.00000000000E+00 -0.14829918482E+04  0.32607614733E+04  0.29040145599E+04 0.  0.
        4    1    3    3  502    0  0.11494908488E+04 -0.68897437922E+03 -0.13689937539E+04  0.19157662744E+04  0.12699999809E+01 0.  1.
       -4    1    3    3    0  502 -0.11494908488E+04  0.68897437922E+03 -0.11399809424E+03  0.13449951990E+04  0.12699999809E+01 0. -1.
</event>
<event>
 5   0  0.2336512E-06  0.2910758E+04  0.7818609E-02  0.8269684E-01
       -1   -1    0    0    0  501  0.00000000000E+00  0.00000000000E+00  0.28417530083E+04  0.28417530083E+04  0.50400001928E-02 0.  1.
        1   -1    0    0  501    0  0.00000000000E+00  0.00000000000E+00 -0.74535979113E+03  0.74535979115E+03  0.50400001928E-02 0. -1.
    10030    2    1    2    0    0  0.00000000000E+00  0.00000000000E+00  0.20963932171E+04  0.35871127994E+04  0.29107582715E+04 0.  0.
        4    1    3    3  502    0  0.11143319248E+04 -0.56510384020E+03  0.19679799197E+04  0.23310994330E+04  0.12699999809E+01 0.  1.
       -4    1    3    3    0  502 -0.11143319248E+04  0.56510384020E+03  0.12841329741E+03  0.12560133665E+04  0.12699999809E+01 0. -1.
</event>
<event>
 5   0  0.2348684E-06  0.2902408E+04  0.7818609E-02  0.8272161E-01
        1   -1    0    0  501    0  0.00000000000E+00  0.00000000000E+00  0.23974336163E+04  0.23974336163E+04  0.50400001928E-02 0. -1.
       -1   -1    0    0    0  501  0.00000000000E+00  0.00000000000E+00 -0.87843647723E+03  0.87843647724E+03  0.50400001928E-02 0.  1.
    10030    2    1    2    0    0  0.00000000000E+00  0.00000000000E+00  0.15189971391E+04  0.32758700935E+04  0.29024080625E+04 0.  0.
        5    1    3    3  502    0  0.44702792504E+03 -0.10506320674E+04  0.17704705624E+04  0.21067154077E+04  0.46999998093E+01 0. -1.
       -5    1    3    3    0  502 -0.44702792504E+03  0.10506320674E+04 -0.25147342329E+03  0.11691546859E+04  0.46999998093E+01 0.  1.
</event>
<event>
 5   0  0.6513041E-06  0.2871659E+04  0.7818609E-02  0.8281360E-01
       -2   -1    0    0    0  501  0.00000000000E+00  0.00000000000E+00  0.19137515588E+04  0.19137515588E+04  0.25500000920E-02 0. -1.
        2   -1    0    0  501    0  0.00000000000E+00  0.00000000000E+00 -0.10772594295E+04  0.10772594295E+04  0.25500000920E-02 0.  1.
    10030    2    1    2    0    0  0.00000000000E+00  0.00000000000E+00  0.83649212926E+03  0.29910109883E+04  0.28716593896E+04 0.  0.
        1    1    3    3  502    0  0.23664935156E+03 -0.10131898910E+04 -0.61234784469E+03  0.12072806441E+04  0.50400001928E-02 0.  1.
       -1    1    3    3    0  502 -0.23664935156E+03  0.10131898910E+04  0.14488399739E+04  0.17837303442E+04  0.50400001928E-02 0. -1.
</event>
<event>
 5   0  0.2508094E-06  0.2974630E+04  0.7818609E-02  0.8251013E-01
        1   -1    0    0  501    0  0.00000000000E+00  0.00000000000E+00  0.18869300326E+04  0.18869300326E+04  0.50400001928E-02 0.  1.
       -1   -1    0    0    0  501  0.00000000000E+00  0.00000000000E+00 -0.11723306739E+04  0.11723306739E+04  0.50400001928E-02 0. -1.
    10030    2    1    2    0    0  0.00000000000E+00  0.00000000000E+00  0.71459935868E+03  0.30592607065E+04  0.29746300320E+04 0.  0.
        3    1    3    3  502    0 -0.11495410760E+04  0.55349172748E+03  0.11434480330E+04  0.17132633167E+04  0.10100000352E+00 0.  1.
       -3    1    3    3    0  502  0.11495410760E+04 -0.55349172748E+03 -0.42884867429E+03  0.13459973899E+04  0.10100000352E+00 0. -1.
</event>
<event>
 5   0  0.6615403E-06  0.2602976E+04  0.7818609E-02  0.8367191E-01
       -2   -1    0    0    0  501  0.00000000000E+00  0.00000000000E+00  0.66312800664E+03  0.66312800664E+03  0.25500000920E-02 0.  1.
        2   -1    0    0  501    0  0.00000000000E+00  0.00000000000E+00 -0.25543648081E+04  0.25543648081E+04  0.25500000920E-02 0. -1.
    10030    2    1    2    0    0  0.00000000000E+00  0.00000000000E+00 -0.18912368014E+04  0.32174928147E+04  0.26029758688E+04 0.  0.
        2    1    3    3  502    0 -0.18772206834E+03  0.12636697589E+04 -0.63840774486E+03  0.14281685066E+04  0.25500000920E-02 0.  1.
       -2    1    3    3    0  502  0.18772206834E+03 -0.12636697589E+04 -0.12528290566E+04  0.17893243081E+04  0.25500000920E-02 0. -1.
</event>
<event>
 5   0  0.6615403E-06  0.2919346E+04  0.7818609E-02  0.8267145E-01
       -2   -1    0    0    0  501  0.00000000000E+00  0.00000000000E+00  0.12491038307E+04  0.12491038307E+04  0.25500000920E-02 0. -1.
        2   -1    0    0  501    0  0.00000000000E+00  0.00000000000E+00 -0.17057395148E+04  0.17057395148E+04  0.25500000920E-02 0.  1.
    10030    2    1    2    0    0  0.00000000000E+00  0.00000000000E+00 -0.45663568406E+03  0.29548433455E+04  0.29193463392E+04 0.  0.
        2    1    3    3  502    0  0.62050753844E+03  0.12666224975E+04 -0.60876533367E+03  0.15362152805E+04  0.25500000920E-02 0.  1.
       -2    1    3    3    0  502 -0.62050753844E+03 -0.12666224975E+04  0.15212964961E+03  0.14186280650E+04  0.25500000920E-02 0. -1.
</event>
<event>
 5   0  0.6393633E-06  0.2890419E+04  0.7818609E-02  0.8275734E-01
        2   -1    0    0  501    0  0.00000000000E+00  0.00000000000E+00  0.17896693722E+04  0.17896693722E+04  0.25500000920E-02 0. -1.
       -2   -1    0    0    0  501  0.00000000000E+00  0.00000000000E+00 -0.11670479009E+04  0.11670479009E+04  0.25500000920E-02 0.  1.
    10030    2    1    2    0    0  0.00000000000E+00  0.00000000000E+00  0.62262147130E+03  0.29567172731E+04  0.28904185746E+04 0.  0.
        4    1    3    3  502    0 -0.13067309471E+04  0.45576352999E+03  0.73722888661E+03  0.15680478971E+04  0.12699999809E+01 0.  1.
       -4    1    3    3    0  502  0.13067309471E+04 -0.45576352999E+03 -0.11460741531E+03  0.13886693760E+04  0.12699999809E+01 0. -1.
</event>
<event>
 5   0  0.6612533E-06  0.2660678E+04  0.7818609E-02  0.8347878E-01
        2   -1    0    0  501    0  0.00000000000E+00  0.00000000000E+00  0.23090116575E+04  0.23090116575E+04  0.25500000920E-02 0.  1.
       -2   -1    0    0    0  501  0.00000000000E+00  0.00000000000E+00 -0.76647584703E+03  0.76647584704E+03  0.25500000920E-02 0. -1.
    10030    2    1    2    0    0  0.00000000000E+00  0.00000000000E+00  0.15425358105E+04  0.30754875045E+04  0.26606778580E+04 0.  0.
        3    1    3    3  502    0 -0.22632746842E+03  0.24284341121E+03 -0.71783252027E+03  0.79087330382E+03  0.10100000352E+00 0. -1.
       -3    1    3    3    0  502  0.22632746842E+03 -0.24284341121E+03  0.22603683307E+04  0.22846142007E+04  0.10100000352E+00 0.  1.
</event>
<event>
 5   0  0.6513041E-06  0.2900393E+04  0.7818609E-02  0.8272760E-01
        2   -1    0    0  501    0  0.00000000000E+00  0.00000000000E+00  0.24930904100E+04  0.24930904100E+04  0.25500000920E-02 0.  1.
       -2   -1    0    0    0  501  0.00000000000E+00  0.00000000000E+00 -0.84355966707E+03  0.84355966707E+03  0.25500000920E-02 0. -1.
    10030    2    1    2    0    0  0.00000000000E+00  0.00000000000E+00  0.16495307429E+04  0.33366500771E+04  0.29003934328E+04 0.  0.
        1    1    3    3  502    0 -0.10347995650E+04 -0.90018541027E+03  0.28281635346E+03  0.14004031571E+04  0.50400001928E-02 0. -1.
       -1    1    3    3    0  502  0.10347995650E+04  0.90018541027E+03  0.13667143895E+04  0.19362469200E+04  0.50400001928E-02 0.  1.
</event>
<event>
 5   0  0.6733688E-06  0.2818314E+04  0.7818609E-02  0.8297605E-01
        2   -1    0    0  501    0  0.00000000000E+00  0.00000000000E+00  0.12320838821E+04  0.12320838821E+04  0.25500000920E-02 0.  1.
       -2   -1    0    0    0  501  0.00000000000E+00  0.00000000000E+00 -0.16116790478E+04  0.16116790478E+04  0.25500000920E-02 0. -1.
    10030    2    1    2    0    0  0.00000000000E+00  0.00000000000E+00 -0.37959516572E+03  0.28437629299E+04  0.28183142322E+04 0.  0.
        5    1    3    3  502    0 -0.52895000693E+03  0.81765613938E+03  0.83790406393E+03  0.12847003473E+04  0.46999998093E+01 0.  1.
       -5    1    3    3    0  502  0.52895000693E+03 -0.81765613938E+03 -0.12174992296E+04  0.15590625825E+04  0.46999998093E+01 0. -1.
</event>
<event>
 5   0  0.2336512E-06  0.2882672E+04  0.7818609E-02  0.8278052E-01
        1   -1    0    0  501    0  0.00000000000E+00  0.00000000000E+00  0.17830718616E+04  0.17830718616E+04  0.50400001928E-02 0.  1.
       -1   -1    0    0    0  501  0.00000000000E+00  0.00000000000E+00 -0.11650957974E+04  0.11650957974E+04  0.50400001928E-02 0. -1.
    10030    2    1    2    0    0  0.00000000000E+00  0.00000000000E+00  0.61797606419E+03  0.29481676590E+04  0.28826720469E+04 0.  0.
        4    1    3    3  502    0  0.12932111791E+03  0.22370426100E+03  0.17591898998E+04  0.17780658774E+04  0.12699999809E+01 0.  1.
       -4    1    3    3    0  502 -0.12932111791E+03 -0.22370426100E+03 -0.11412138356E+04  0.11701017816E+04  0.12699999809E+01 0. -1.
</event>
<event>
 5   0  0.2348684E-06  0.2603158E+04  0.7818609E-02  0.8367129E-01
        1   -1    0    0  501    0  0.00000000000E+00  0.00000000000E+00  0.14766967714E+04  0.14766967715E+04  0.50400001928E-02 0. -1.
       -1   -1    0    0    0  501  0.00000000000E+00  0.00000000000E+00 -0.11472280467E+04  0.11472280467E+04  0.50400001928E-02 0.  1.
    10030    2    1    2    0    0  0.00000000000E+00  0.00000000000E+00  0.32946872477E+03  0.26239248181E+04  0.26031580457E+04 0.  0.
        5    1    3    3  502    0 -0.22334314568E+03 -0.16590372853E+03  0.14463648724E+04  0.14728881974E+04  0.46999998093E+01 0. -1.
       -5    1    3    3    0  502  0.22334314568E+03  0.16590372853E+03 -0.11168961476E+04  0.11510366208E+04  0.46999998093E+01 0.  1.
</event>
<event>
 5   0  0.6393633E-06  0.2842944E+04  0.7818609E-02  0.8290059E-01
       -2   -1    0    0    0  501  0.00000000000E+00  0.00000000000E+00  0.76401085736E+03  0.76401085736E+03  0.25500000920E-02 0. -1.
        2   -1    0    0  501    0  0.00000000000E+00  0.00000000000E+00 -0.26447036029E+04  0.26447036029E+04  0.25500000920E-02 0.  1.
    10030    2    1    2    0    0  0.00000000000E+00  0.00000000000E+00 -0.18806927456E+04  0.34087144603E+04  0.28429437329E+04 0.  0.
        4    1    3    3  502    0  0.75613992773E+03 -0.88226603731E+03  0.41406591613E+02  0.11626938847E+04  0.12699999809E+01 0. -1.
       -4    1    3    3    0  502 -0.75613992773E+03  0.88226603731E+03 -0.19220993372E+04  0.22460205755E+04  0.12699999809E+01 0.  1.
</event>
<event>
 5   0  0.6615403E-06  0.2904080E+04  0.7818609E-02  0.8271665E-01
       -2   -1    0    0    0  501  0.00000000000E+00  0.00000000000E+00  0.91956319351E+03  0.91956319352E+03  0.25500000920E-02 0. -1.
        2   -1    0    0  501    0  0.00000000000E+00  0.00000000000E+00 -0.22928501255E+04  0.22928501255E+04  0.25500000920E-02 0.  1.
    10030    2    1    2    0    0  0.00000000000E+00  0.00000000000E+00 -0.13732869320E+04  0.32124133190E+04  0.29040802907E+04 0.  0.
        2    1    3    3  502    0 -0.11364707989E+04 -0.46500645856E+03  0.17063917754E+03  0.12397236032E+04  0.25500000920E-02 0. -1.
       -2    1    3    3    0  502  0.11364707989E+04  0.46500645856E+03 -0.15439261096E+04  0.19726897159E+04  0.25500000920E-02 0.  1.
</event>
<event>
 5   0  0.2348684E-06  0.2839665E+04  0.7818609E-02  0.8291059E-01
       -1   -1    0    0    0  501  0.00000000000E+00  0.00000000000E+00  0.10710270635E+04  0.10710270635E+04  0.50400001928E-02 0. -1.
        1   -1    0    0  501    0  0.00000000000E+00  0.00000000000E+00 -0.18822342948E+04  0.18822342948E+04  0.50400001928E-02 0.  1.
    10030    2    1    2    0    0  0.00000000000E+00  0.00000000000E+00 -0.81120723137E+03  0.29532613583E+04  0.28396646771E+04 0.  0.
        5    1    3    3  502    0  0.69014418700E+03  0.11266533995E+04  0.13505311079E+03  0.13281221007E+04  0.46999998093E+01 0. -1.
       -5    1    3    3    0  502 -0.69014418700E+03 -0.11266533995E+04 -0.94626034216E+03  0.16251392576E+04  0.46999998093E+01 0.  1.
</event>
<event>
 5   0  0.2336512E-06  0.2896203E+04  0.7818609E-02  0.8274008E-01
       -1   -1    0    0    0  501  0.00000000000E+00  0.00000000000E+00  0.12552725087E+04  0.12552725087E+04  0.50400001928E-02 0. -1.
        1   -1    0    0  501    0  0.00000000000E+00  0.00000000000E+00 -0.16705513882E+04  0.16705513882E+04  0.50400001928E-02 0.  1.
    10030    2    1    2    0    0  0.00000000000E+00  0.00000000000E+00 -0.41527887948E+03  0.29258238969E+04  0.28962025012E+04 0.  0.
        4    1    3    3  502    0 -0.10773255992E+04 -0.93736806181E+03 -0.45031767742E+03  0.14973566554E+04  0.12699999809E+01 0.  1.
       -4    1    3    3    0  502  0.10773255992E+04  0.93736806181E+03  0.35038797943E+02  0.14284672416E+04  0.12699999809E+01 0. -1.
</event>
<event>
 5   0  0.6733688E-06  0.2792006E+04  0.7818609E-02  0.8305755E-01
        2   -1    0    0  501    0  0.00000000000E+00  0.00000000000E+00  0.11822708579E+04  0.11822708579E+04  0.25500000920E-02 0. -1.
       -2   -1    0    0    0  501  0.00000000000E+00  0.00000000000E+00 -0.16483735010E+04  0.16483735010E+04  0.25500000920E-02 0.  1.
    10030    2    1    2    0    0  0.00000000000E+00  0.00000000000E+00 -0.46610264306E+03  0.28306443589E+04  0.27920056972E+04 0.  0.
        5    1    3    3  502    0 -0.37164936864E+03  0.10324189986E+04  0.64190387751E+03  0.12712493540E+04  0.46999998093E+01 0. -1.
       -5    1    3    3    0  502  0.37164936864E+03 -0.10324189986E+04 -0.11080065206E+04  0.15593950050E+04  0.46999998093E+01 0.  1.
</event>
<event>
 5   0  0.2429358E-06  0.2848679E+04  0.7818609E-02  0.8288313E-01
        1   -1    0    0  501    0  0.00000000000E+00  0.00000000000E+00  0.10943409548E+04  0.10943409548E+04  0.50400001928E-02 0. -1.
       -1   -1    0    0    0  501  0.00000000000E+00  0.00000000000E+00 -0.18538486751E+04  0.18538486751E+04  0.50400001928E-02 0.  1.
    10030    2    1    2    0    0  0.00000000000E+00  0.00000000000E+00 -0.75950772032E+03  0.29481896299E+04  0.28486786615E+04 0.  0.
        2    1    3    3  502    0 -0.18914309580E+03 -0.34586196924E+03  0.10367607450E+04  0.11091746729E+04  0.25500000920E-02 0. -1.
       -2    1    3    3    0  502  0.18914309580E+03  0.34586196924E+03 -0.17962684654E+04  0.18390149570E+04  0.25500000920E-02 0.  1.
</event>
<event>
 5   0  0.2508094E-06  0.2913594E+04  0.7818609E-02  0.8268844E-01
        1   -1    0    0  501    0  0.00000000000E+00  0.00000000000E+00  0.14184874197E+04  0.14184874197E+04  0.50400001928E-02 0.  1.
       -1   -1    0    0    0  501  0.00000000000E+00  0.00000000000E+00 -0.14961414017E+04  0.14961414017E+04  0.50400001928E-02 0. -1.
    10030    2    1    2    0    0  0.00000000000E+00  0.00000000000E+00 -0.77653982058E+02  0.29146288214E+04  0.29135941766E+04 0.  0.
        3    1    3    3  502    0 -0.55689470941E+03 -0.12195837213E+04 -0.60889036833E+03  0.14725025166E+04  0.10100000352E+00 0. -1.
       -3    1    3    3    0  502  0.55689470941E+03  0.12195837213E+04  0.53123638627E+03  0.14421263048E+04  0.10100000352E+00 0.  1.
</event>
<event>
 5   0  0.2474769E-06  0.2881608E+04  0.7818609E-02  0.8278371E-01
        1   -1    0    0  501    0  0.00000000000E+00  0.00000000000E+00  0.15440914090E+04  0.15440914090E+04  0.50400001928E-02 0. -1.
       -1   -1    0    0    0  501  0.00000000000E+00  0.00000000000E+00 -0.13444256491E+04  0.13444256491E+04  0.50400001928E-02 0.  1.
    10030    2    1    2    0    0  0.00000000000E+00  0.00000000000E+00  0.19966575992E+03  0.28885170581E+04  0.28816079503E+04 0.  0.
        1    1    3    3  502    0 -0.42689445523E+02 -0.18126726127E+03 -0.13323109634E+04  0.13452630642E+04  0.50400001928E-02 0.  1.
       -1    1    3    3    0  502  0.42689445523E+02  0.18126726127E+03  0.15319767233E+04  0.15432539939E+04  0.50400001928E-02 0. -1.
</event>
<event>
 5   0  0.6513041E-06  0.2792543E+04  0.7818609E-02  0.8305587E-01
       -2   -1    0    0    0  501  0.00000000000E+00  0.00000000000E+00  0.13422717508E+04  0.13422717508E+04  0.25500000920E-02 0.  1.
        2   -1    0    0  501    0  0.00000000000E+00  0.00000000000E+00 -0.14524441191E+04  0.14524441191E+04  0.25500000920E-02 0. -1.
    10030    2    1    2    0    0  0.00000000000E+00  0.00000000000E+00 -0.11017236838E+03  0.27947158699E+04  0.27925434361E+04 0.  0.
        1    1    3    3  502    0 -0.10272768845E+04 -0.63327058670E+03 -0.75794677285E+03  0.14250658735E+04  0.50400001928E-02 0. -1.
       -1    1    3    3    0  502  0.10272768845E+04  0.63327058670E+03  0.64777440447E+03  0.13696499964E+04  0.50400001928E-02 0.  1.
</event>
<event>
 5   0  0.6612533E-06  0.2912774E+04  0.7818609E-02  0.8269087E-01
        2   -1    0    0  501    0  0.00000000000E+00  0.00000000000E+00  0.15504334810E+04  0.15504334810E+04  0.25500000920E-02 0. -1.
       -2   -1    0    0    0  501  0.00000000000E+00  0.00000000000E+00 -0.13680449432E+04  0.13680449432E+04  0.25500000920E-02 0.  1.
    10030    2    1    2    0    0  0.00000000000E+00  0.00000000000E+00  0.18238853778E+03  0.29184784243E+04  0.29127737183E+04 0.  0.
        3    1    3    3  502    0 -0.62273305268E+03 -0.41688150271E+03  0.13424298670E+04  0.15374344214E+04  0.10100000352E+00 0. -1.
       -3    1    3    3    0  502  0.62273305268E+03  0.41688150271E+03 -0.11600413292E+04  0.13810440029E+04  0.10100000352E+00 0.  1.
</event>
<event>
 5   0  0.6733688E-06  0.2893558E+04  0.7818609E-02  0.8274797E-01
       -2   -1    0    0    0  501  0.00000000000E+00  0.00000000000E+00  0.17821146314E+04  0.17821146314E+04  0.25500000920E-02 0. -1.
        2   -1    0    0  501    0  0.00000000000E+00  0.00000000000E+00 -0.11745426140E+04  0.11745426140E+04  0.25500000920E-02 0.  1.
    10030    2    1    2    0    0  0.00000000000E+00  0.00000000000E+00  0.60757201744E+03  0.29566572454E+04  0.28935580710E+04 0.  0.
        5    1    3    3  502    0  0.52363860307E+03  0.50010211047E+03 -0.97606439572E+03  0.12153284750E+04  0.46999998093E+01 0.  1.
       -5    1    3    3    0  502 -0.52363860307E+03 -0.50010211047E+03  0.15836364132E+04  0.17413287704E+04  0.46999998093E+01 0. -1.
</event>
<event>
 5   0  0.6393633E-06  0.2926713E+04  0.7818609E-02  0.8264974E-01
       -2   -1    0    0    0  501  0.00000000000E+00  0.00000000000E+00  0.27712271033E+04  0.27712271033E+04  0.25500000920E-02 0.  1.
        2   -1    0    0  501    0  0.00000000000E+00  0.00000000000E+00 -0.77273084580E+03  0.77273084581E+03  0.25500000920E-02 0. -1.
    10030    2    1    2    0    0  0.00000000000E+00  0.00000000000E+00  0.19984962575E+04  0.35439579491E+04  0.29267132852E+04 0.  0.
        4    1    3    3  502    0  0.19634293310E+03 -0.92107349418E+03 -0.35700566334E+03  0.10071651233E+04  0.12699999809E+01 0. -1.
       -4    1    3    3    0  502 -0.19634293310E+03  0.92107349418E+03  0.23555019208E+04  0.25367928258E+04  0.12699999809E+01 0.  1.
</event>
<event>
 5   0  0.6513041E-06  0.2886644E+04  0.7818609E-02  0.8276862E-01
       -2   -1    0    0    0  501  0.00000000000E+00  0.00000000000E+00  0.14804679275E+04  0.14804679275E+04  0.25500000920E-02 0.  1.
        2   -1    0    0  501    0  0.00000000000E+00  0.00000000000E+00 -0.14071084527E+04  0.14071084527E+04  0.25500000920E-02 0. -1.
    10030    2    1    2    0    0  0.00000000000E+00  0.00000000000E+00  0.73359474806E+02  0.28875763801E+04  0.28866443734E+04 0.  0.
        1    1    3    3  502    0  0.14166373504E+04 -0.75873277579E+02 -0.22903885230E+03  0.14370375544E+04  0.50400001928E-02 0. -1.
       -1    1    3    3    0  502 -0.14166373504E+04  0.75873277579E+02  0.30239832710E+03  0.14505388258E+04  0.50400001928E-02 0.  1.
</event>
<event>
 5   0  0.2429358E-06  0.2932855E+04  0.7818609E-02  0.8263169E-01
       -1   -1    0    0    0  501  0.00000000000E+00  0.00000000000E+00  0.11197554077E+04  0.11197554077E+04  0.50400001928E-02 0.  1.
        1   -1    0    0  501    0  0.00000000000E+00  0.00000000000E+00 -0.19204280244E+04  0.19204280244E+04  0.50400001928E-02 0. -1.
    10030    2    1    2    0    0  0.00000000000E+00  0.00000000000E+00 -0.80067261670E+03  0.30401834321E+04  0.29328550360E+04 0.  0.
        2    1    3    3  502    0  0.50804100353E+03  0.56926068287E+03  0.89778812250E+03  0.11782134354E+04  0.25500000920E-02 0.  1.
       -2    1    3    3    0  502 -0.50804100353E+03 -0.56926068287E+03 -0.16984607392E+04  0.18619699968E+04  0.25500000920E-02 0. -1.
</event>
<event>
 5   0  0.2508094E-06  0.2809342E+04  0.7818609E-02  0.8300374E-01
       -1   -1    0    0    0  501  0.00000000000E+00  0.00000000000E+00  0.14934552077E+04  0.14934552077E+04  0.50400001928E-02 0.  1.
        1   -1    0    0  501    0  0.00000000000E+00  0.00000000000E+00 -0.13211653219E+04  0.13211653220E+04  0.50400001928E-02 0. -1.
    10030    2    1    2    0    0  0.00000000000E+00  0.00000000000E+00  0.17228988572E+03  0.28146205296E+04  0.28093424357E+04 0.  0.
        3    1    3    3  502    0 -0.12752954899E+04  0.57950585549E+03  0.19072302864E+03  0.14137117482E+04  0.10100000352E+00 0.  1.
       -3    1    3    3    0  502  0.12752954899E+04 -0.57950585549E+03 -0.18433142918E+02  0.14009087815E+04  0.10100000352E+00 0. -1.
</event>
<event>
 5   0  0.6612533E-06  0.2878380E+04  0.7818609E-02  0.8279339E-01
        2   -1    0    0  501    0  0.00000000000E+00  0.00000000000E+00  0.29578434262E+04  0.29578434262E+04  0.25500000920E-02 0. -1.
       -2   -1    0    0    0  501  0.00000000000E+00  0.00000000000E+00 -0.70026307263E+03  0.70026307263E+03  0.25500000920E-02 0.  1.
    10030    2    1    2    0    0  0.00000000000E+00  0.00000000000E+00  0.22575803536E+04  0.36581064989E+04  0.28783804655E+04 0.  0.
        3    1    3    3  502    0  0.12017138677E+04 -0.79191047469E+03  0.11218180791E+04  0.18247504576E+04  0.10100000352E+00 0. -1.
       -3    1    3    3    0  502 -0.12017138677E+04  0.79191047469E+03  0.11357622745E+04  0.18333560413E+04  0.10100000352E+00 0.  1.
</event>
<event>
 5   0  0.6612533E-06  0.2904904E+04  0.7818609E-02  0.8271420E-01
       -2   -1    0    0    0  501  0.00000000000E+00  0.00000000000E+00  0.11422382445E+04  0.11422382446E+04  0.25500000920E-02 0. -1.
        2   -1    0    0  501    0  0.00000000000E+00  0.00000000000E+00 -0.18469151353E+04  0.18469151353E+04  0.25500000920E-02 0.  1.
    10030    2    1    2    0    0  0.00000000000E+00  0.00000000000E+00 -0.70467689071E+03  0.29891533798E+04  0.29049041994E+04 0.  0.
        3    1    3    3  502    0  0.25613715287E+02 -0.13358457290E+04 -0.93848806898E+03  0.16327583226E+04  0.10100000352E+00 0.  1.
       -3    1    3    3    0  502 -0.25613715287E+02  0.13358457290E+04  0.23381117826E+03  0.13563950573E+04  0.10100000352E+00 0. -1.
</event>
<event>
 5   0  0.2336512E-06  0.2916357E+04  0.7818609E-02  0.8268027E-01
        1   -1    0    0  501    0  0.00000000000E+00  0.00000000000E+00  0.14448856149E+04  0.14448856149E+04  0.50400001928E-02 0. -1.
       -1   -1    0    0    0  501  0.00000000000E+00  0.00000000000E+00 -0.14715939322E+04  0.14715939322E+04  0.50400001928E-02 0.  1.
    10030    2    1    2    0    0  0.00000000000E+00  0.00000000000E+00 -0.26708317352E+02  0.29164795471E+04  0.29163572508E+04 0.  0.
        4    1    3    3  502    0 -0.76804425142E+03  0.12300886384E+04  0.13920799968E+03  0.14568426513E+04  0.12699999809E+01 0. -1.
       -4    1    3    3    0  502  0.76804425142E+03 -0.12300886384E+04 -0.16591631703E+03  0.14596368958E+04  0.12699999809E+01 0.  1.
</event>
<event>
 5   0  0.2474769E-06  0.2865350E+04  0.7818609E-02  0.8283262E-01
       -1   -1    0    0    0  501  0.00000000000E+00  0.00000000000E+00  0.15742298035E+04  0.15742298035E+04  0.50400001928E-02 0.  1.
        1   -1    0    0  501    0  0.00000000000E+00  0.00000000000E+00 -0.13038485960E+04  0.13038485960E+04  0.50400001928E-02 0. -1.
    10030    2    1    2    0    0  0.00000000000E+00  0.00000000000E+00  0.27038120745E+03  0.28780783995E+04  0.28653497651E+04 0.  0.
        1    1    3    3  502    0 -0.12708854556E+04 -0.63775368963E+03 -0.40737993902E+02  0.14225115795E+04  0.50400001928E-02 0.  1.
       -1    1    3    3    0  502  0.12708854556E+04  0.63775368963E+03  0.31111920136E+03  0.14555668199E+04  0.50400001928E-02 0. -1.
</event>
<event>
 5   0  0.6733688E-06  0.2838609E+04  0.7818609E-02  0.8291381E-01
        2   -1    0    0  501    0  0.00000000000E+00  0.00000000000E+00  0.12797192635E+04  0.12797192635E+04  0.25500000920E-02 0.  1.
       -2   -1    0    0    0  501  0.00000000000E+00  0.00000000000E+00 -0.15741150076E+04  0.15741150076E+04  0.25500000920E-02 0. -1.
    10030    2    1    2    0    0  0.00000000000E+00  0.00000000000E+00 -0.29439574414E+03  0.28538342712E+04  0.28386090243E+04 0.  0.
        5    1    3    3  502    0 -0.11540857417E+04 -0.10663197692E+03 -0.97081034410E+03  0.15118793245E+04  0.46999998093E+01 0.  1.
       -5    1    3    3    0  502  0.11540857417E+04  0.10663197692E+03  0.67641459996E+03  0.13419549466E+04  0.46999998093E+01 0. -1.
</event>
<event>
 5   0  0.2336512E-06  0.2895202E+04  0.7818609E-02  0.8274306E-01
       -1   -1    0    0    0  501  0.00000000000E+00  0.00000000000E+00  0.12700254474E+04  0.12700254474E+04  0.50400001928E-02 0.  1.
        1   -1    0    0  501    0  0.00000000000E+00  0.00000000000E+00 -0.16500050767E+04  0.16500050767E+04  0.50400001928E-02 0. -1.
    10030    2    1    2    0    0  0.00000000000E+00  0.00000000000E+00 -0.37997962926E+03  0.29200305241E+04  0.28952018484E+04 0.  0.
        4    1    3    3  502    0  0.85484638527E+03  0.55187826581E+03  0.84850776213E+03  0.13248769747E+04  0.12699999809E+01 0.  1.
       -4    1    3    3    0  502 -0.85484638527E+03 -0.55187826581E+03 -0.12284873914E+04  0.15951535495E+04  0.12699999809E+01 0. -1.
</event>
<event>
 5   0  0.2474769E-06  0.2918422E+04  0.7818609E-02  0.8267417E-01
       -1   -1    0    0    0  501  0.00000000000E+00  0.00000000000E+00  0.12588225687E+04  0.12588225687E+04  0.50400001928E-02 0. -1.
        1   -1    0    0  501    0  0.00000000000E+00  0.00000000000E+00 -0.16914986127E+04  0.16914986127E+04  0.50400001928E-02 0.  1.
    10030    2    1    2    0    0  0.00000000000E+00  0.00000000000E+00 -0.43267604406E+03  0.29503211814E+04  0.29184219220E+04 0.  0.
        1    1    3    3  502    0 -0.70589443554E+03  0.95535241911E+03 -0.10731343703E+04  0.16008130983E+04  0.50400001928E-02 0.  1.
       -1    1    3    3    0  502  0.70589443554E+03 -0.95535241911E+03  0.64045832625E+03  0.13495080832E+04  0.50400001928E-02 0. -1.
</event>
<event>
 5   0  0.6393633E-06  0.2904388E+04  0.7818609E-02  0.8271573E-01
       -2   -1    0    0    0  501  0.00000000000E+00  0.00000000000E+00  0.17072194060E+04  0.17072194060E+04  0.25500000920E-02 0. -1.
        2   -1    0    0  501    0  0.00000000000E+00  0.00000000000E+00 -0.12352641426E+04  0.12352641426E+04  0.25500000920E-02 0.  1.
    10030    2    1    2    0    0  0.00000000000E+00  0.00000000000E+00  0.47195526341E+03  0.29424835485E+04  0.29043876571E+04 0.  0.
        4    1    3    3  502    0  0.66331475070E+03 -0.10983339129E+04  0.92500233764E+03  0.15817568651E+04  0.12699999809E+01 0. -1.
       -4    1    3    3    0  502 -0.66331475070E+03  0.10983339129E+04 -0.45304707423E+03  0.13607266835E+04  0.12699999809E+01 0.  1.
</event>
<event>
 5   0  0.2508094E-06  0.2891375E+04  0.7818609E-02  0.8275448E-01
        1   -1    0    0  501    0  0.00000000000E+00  0.00000000000E+00  0.17975124612E+04  0.17975124612E+04  0.50400001928E-02 0.  1.
       -1   -1    0    0    0  501  0.00000000000E+00  0.00000000000E+00 -0.11627247018E+04  0.11627247019E+04  0.50400001928E-02 0. -1.
    10030    2    1    2    0    0  0.00000000000E+00  0.00000000000E+00  0.63478775939E+03  0.29602371631E+04  0.28913748568E+04 0.  0.
        3    1    3    3  502    0 -0.49717233141E+03  0.13572517373E+04  0.29031543910E+03  0.14743119310E+04  0.10100000352E+00 0.  1.
       -3    1    3    3    0  502  0.49717233141E+03 -0.13572517373E+04  0.34447232028E+03  0.14859252321E+04  0.10100000352E+00 0. -1.
</event>
<event>
 5   0  0.2474769E-06  0.2843731E+04  0.7818609E-02  0.8289819E-01
        1   -1    0    0  501    0  0.00000000000E+00  0.00000000000E+00  0.16389854510E+04  0.16389854510E+04  0.50400001928E-02 0. -1.
       -1   -1    0    0    0  501  0.00000000000E+00  0.00000000000E+00 -0.12335079659E+04  0.12335079659E+04  0.50400001928E-02 0.  1.
    10030    2    1    2    0    0  0.00000000000E+00  0.00000000000E+00  0.40547748509E+03  0.28724934169E+04  0.28437310771E+04 0.  0.
        1    1    3    3  502    0 -0.13670408439E+04  0.32012261521E+03 -0.24081859435E+02  0.14042290033E+04  0.50400001928E-02 0.  1.
       -1    1    3    3    0  502  0.13670408439E+04 -0.32012261521E+03  0.42955934453E+03  0.14682644136E+04  0.50400001928E-02 0. -1.
</event>
<event>
 5   0  0.2474769E-06  0.2949352E+04  0.7818609E-02  0.8258344E-01
        1   -1    0    0  501    0  0.00000000000E+00  0.00000000000E+00  0.12689804673E+04  0.12689804673E+04  0.50400001928E-02 0. -1.
       -1   -1    0    0    0  501  0.00000000000E+00  0.00000000000E+00 -0.17137134261E+04  0.17137134261E+04  0.50400001928E-02 0.  1.
    10030    2    1    2    0    0  0.00000000000E+00  0.00000000000E+00 -0.44473295881E+03  0.29826938935E+04  0.29493517012E+04 0.  0.
        1    1    3    3  502    0  0.46795743703E+03 -0.13861396853E+04 -0.35066161261E+02  0.14634196342E+04  0.50400001928E-02 0. -1.
       -1    1    3    3    0  502 -0.46795743703E+03  0.13861396853E+04 -0.40966679755E+03  0.15192742593E+04  0.50400001928E-02 0.  1.
</event>
<event>
 5   0  0.2348684E-06  0.2880465E+04  0.7818609E-02  0.8278713E-01
       -1   -1    0    0    0  501  0.00000000000E+00  0.00000000000E+00  0.84515725348E+03  0.84515725350E+03  0.50400001928E-02 0. -1.
        1   -1    0    0  501    0  0.00000000000E+00  0.00000000000E+00 -0.24543005071E+04  0.24543005071E+04  0.50400001928E-02 0.  1.
    10030    2    1    2    0    0  0.00000000000E+00  0.00000000000E+00 -0.16091432536E+04  0.32994577606E+04  0.28804651540E+04 0.  0.
        5    1    3    3  502    0 -0.73154754698E+03 -0.12097367655E+04 -0.11195688308E+04  0.18033527975E+04  0.46999998093E+01 0.  1.
       -5    1    3    3    0  502  0.73154754698E+03  0.12097367655E+04 -0.48957442281E+03  0.14961049631E+04  0.46999998093E+01 0. -1.
</event>
<event>
 5   0  0.2348684E-06  0.2862139E+04  0.7818609E-02  0.8284232E-01
        1   -1    0    0  501    0  0.00000000000E+00  0.00000000000E+00  0.25191586387E+04  0.25191586387E+04  0.50400001928E-02 0. -1.
       -1   -1    0    0    0  501  0.00000000000E+00  0.00000000000E+00 -0.81295405283E+03  0.81295405285E+03  0.50400001928E-02 0.  1.
    10030    2    1    2    0    0  0.00000000000E+00  0.00000000000E+00  0.17062045858E+04  0.33321126915E+04  0.28621392175E+04 0.  0.
        5    1    3    3  502    0  0.10694063984E+03 -0.87364588217E+03 -0.46056342359E+03  0.99339528137E+03  0.46999998093E+01 0.  1.
       -5    1    3    3    0  502 -0.10694063984E+03  0.87364588217E+03  0.21667680094E+04  0.23387174102E+04  0.46999998093E+01 0. -1.
</event>
<event>
 5   0  0.2429358E-06  0.2837062E+04  0.7818609E-02  0.8291854E-01
       -1   -1    0    0    0  501  0.00000000000E+00  0.00000000000E+00  0.10313162245E+04  0.10313162245E+04  0.50400001928E-02 0. -1.
        1   -1    0    0  501    0  0.00000000000E+00  0.00000000000E+00 -0.19511277213E+04  0.19511277213E+04  0.50400001928E-02 0.  1.
    10030    2    1    2    0    0  0.00000000000E+00  0.00000000000E+00 -0.91981149680E+03  0.29824439459E+04  0.28370616314E+04 0.  0.
        2    1    3    3  502    0  0.15490431375E+02 -0.67411090509E+03 -0.17718835870E+04  0.18958472807E+04  0.25500000920E-02 0.  1.
       -2    1    3    3    0  502 -0.15490431375E+02  0.67411090509E+03  0.85207209021E+03  0.10865966652E+04  0.25500000920E-02 0. -1.
</event>
<event>
 5   0  0.2429358E-06  0.2883516E+04  0.7818609E-02  0.8277799E-01
       -1   -1    0    0    0  501  0.00000000000E+00  0.00000000000E+00  0.87392582887E+03  0.87392582889E+03  0.50400001928E-02 0. -1.
        1   -1    0    0  501    0  0.00000000000E+00  0.00000000000E+00 -0.23785387982E+04  0.23785387982E+04  0.50400001928E-02 0.  1.
    10030    2    1    2    0    0  0.00000000000E+00  0.00000000000E+00 -0.15046129693E+04  0.32524646270E+04  0.28835162498E+04 0.  0.
        2    1    3    3  502    0 -0.37744026568E+03  0.94258433261E+02 -0.23182178275E+04  0.23506338937E+04  0.25500000920E-02 0.  1.
       -2    1    3    3    0  502  0.37744026568E+03 -0.94258433261E+02  0.81360485820E+03  0.90183073339E+03  0.25500000920E-02 0. -1.
</event>
<event>
 5   0  0.2429358E-06  0.2942005E+04  0.7818609E-02  0.8260488E-01
        1   -1    0    0  501    0  0.00000000000E+00  0.00000000000E+00  0.19487647721E+04  0.19487647721E+04  0.50400001928E-02 0. -1.
       -1   -1    0    0    0  501  0.00000000000E+00  0.00000000000E+00 -0.11103694638E+04  0.11103694638E+04  0.50400001928E-02 0.  1.
    10030    2    1    2    0    0  0.00000000000E+00  0.00000000000E+00  0.83839530825E+03  0.30591342359E+04  0.29420053672E+04 0.  0.
        2    1    3    3  502    0 -0.26557247081E+03 -0.14010992058E+04  0.79445501843E+03  0.16324112527E+04  0.25500000920E-02 0. -1.
       -2    1    3    3    0  502  0.26557247081E+03  0.14010992058E+04  0.43940289824E+02  0.14267229832E+04  0.25500000920E-02 0.  1.
</event>
<event>
 5   0  0.6733688E-06  0.2908350E+04  0.7818609E-02  0.8270397E-01
       -2   -1    0    0    0  501  0.00000000000E+00  0.00000000000E+00  0.86307622621E+03  0.86307622621E+03  0.25500000920E-02 0.  1.
        2   -1    0    0  501    0  0.00000000000E+00  0.00000000000E+00 -0.24501025392E+04  0.24501025392E+04  0.25500000920E-02 0. -1.
    10030    2    1    2    0    0  0.00000000000E+00  0.00000000000E+00 -0.15870263129E+04  0.33131787654E+04  0.29083502219E+04 0.  0.
        5    1    3    3  502    0  0.54992483358E+03  0.28918872622E+03  0.70423867171E+03  0.93916007086E+03  0.46999998093E+01 0.  1.
       -5    1    3    3    0  502 -0.54992483358E+03 -0.28918872622E+03 -0.22912649847E+04  0.23740186945E+04  0.46999998093E+01 0. -1.
</event>
<event>
 5   0  0.2474769E-06  0.2944918E+04  0.7818609E-02  0.8259637E-01
        1   -1    0    0  501    0  0.00000000000E+00  0.00000000000E+00  0.27747107713E+04  0.27747107713E+04  0.50400001928E-02 0.  1.
       -1   -1    0    0    0  501  0.00000000000E+00  0.00000000000E+00 -0.78139144404E+03  0.78139144405E+03  0.50400001928E-02 0. -1.
    10030    2    1    2    0    0  0.00000000000E+00  0.00000000000E+00  0.19933193272E+04  0.35561022153E+04  0.29449178300E+04 0.  0.
        1    1    3    3  502    0  0.10306347782E+04  0.21310501317E+03 -0.24687858394E+03  0.10810045458E+04  0.50400001928E-02 0. -1.
       -1    1    3    3    0  502 -0.10306347782E+04 -0.21310501317E+03  0.22401979112E+04  0.24750976696E+04  0.50400001928E-02 0.  1.
</event>
<event>
 5   0  0.2159500E-06  0.2877148E+04  0.7818609E-02  0.8279709E-01
        3   -1    0    0  501    0  0.00000000000E+00  0.00000000000E+00  0.21073228878E+04  0.21073228902E+04  0.10100000352E+00 0. -1.
       -3   -1    0    0    0  501  0.00000000000E+00  0.00000000000E+00 -0.98204906778E+03  0.98204907298E+03  0.10100000352E+00 0.  1.
    10030    2    1    2    0    0  0.00000000000E+00  0.00000000000E+00  0.11252738200E+04  0.30893719632E+04  0.28771475383E+04 0.  0.
        3    1    3    3  502    0  0.27581575402E+03 -0.12945899852E+04  0.11676300730E+04  0.17650488825E+04  0.10100000352E+00 0.  1.
       -3    1    3    3    0  502 -0.27581575402E+03  0.12945899852E+04 -0.42356252968E+02  0.13243230808E+04  0.10100000352E+00 0. -1.
</event>
<event>
 5   0  0.6612533E-06  0.2450562E+04  0.7818609E-02  0.8420813E-01
        2   -1    0    0  501    0  0.00000000000E+00  0.00000000000E+00  0.56423489888E+03  0.56423489889E+03  0.25500000920E-02 0.  1.
       -2   -1    0    0    0  501  0.00000000000E+00  0.00000000000E+00 -0.26607949813E+04  0.26607949813E+04  0.25500000920E-02 0. -1.
    10030    2    1    2    0    0  0.00000000000E+00  0.00000000000E+00 -0.20965600824E+04  0.32250298802E+04  0.24505618843E+04 0.  0.
        3    1    3    3  502    0  0.62853471736E+03  0.31889118007E+03  0.27075789045E+03  0.75502140439E+03  0.10100000352E+00 0.  1.
       -3    1    3    3    0  502 -0.62853471736E+03 -0.31889118007E+03 -0.23673179729E+04  0.24700084758E+04  0.10100000352E+00 0. -1.
</event>
<event>
 5   0  0.2336512E-06  0.2900380E+04  0.7818609E-02  0.8272765E-01
       -1   -1    0    0    0  501  0.00000000000E+00  0.00000000000E+00  0.11877110345E+04  0.11877110345E+04  0.50400001928E-02 0.  1.
        1   -1    0    0  501    0  0.00000000000E+00  0.00000000000E+00 -0.17706753235E+04  0.17706753236E+04  0.50400001928E-02 0. -1.
    10030    2    1    2    0    0  0.00000000000E+00  0.00000000000E+00 -0.58296428905E+03  0.29583863581E+04  0.29003797133E+04 0.  0.
        4    1    3    3  502    0  0.13108748294E+04 -0.62020161316E+03 -0.29401127357E+03  0.14796915561E+04  0.12699999809E+01 0.  1.
       -4    1    3    3    0  502 -0.13108748294E+04  0.62020161316E+03 -0.28895301548E+03  0.14786948020E+04  0.12699999809E+01 0. -1.
</event>
<event>
 5   0  0.6393633E-06  0.2941675E+04  0.7818609E-02  0.8260585E-01
       -2   -1    0    0    0  501  0.00000000000E+00  0.00000000000E+00  0.10298803863E+04  0.10298803863E+04  0.25500000920E-02 0.  1.
        2   -1    0    0  501    0  0.00000000000E+00  0.00000000000E+00 -0.21005961771E+04  0.21005961771E+04  0.25500000920E-02 0. -1.
    10030    2    1    2    0    0  0.00000000000E+00  0.00000000000E+00 -0.10707157908E+04  0.31304765635E+04  0.29416748987E+04 0.  0.
        4    1    3    3  502    0 -0.27476214313E+03  0.21529972107E+03  0.98516111846E+03  0.10451757017E+04  0.12699999809E+01 0.  1.
       -4    1    3    3    0  502  0.27476214313E+03 -0.21529972107E+03 -0.20558769093E+04  0.20853008618E+04  0.12699999809E+01 0. -1.
</event>
<event>
 5   0  0.6513041E-06  0.2964176E+04  0.7818609E-02  0.8254035E-01
       -2   -1    0    0    0  501  0.00000000000E+00  0.00000000000E+00  0.86652003625E+03  0.86652003625E+03  0.25500000920E-02 0.  1.
        2   -1    0    0  501    0  0.00000000000E+00  0.00000000000E+00 -0.25349492729E+04  0.25349492729E+04  0.25500000920E-02 0. -1.
    10030    2    1    2    0    0  0.00000000000E+00  0.00000000000E+00 -0.16684292367E+04  0.34014693092E+04  0.29641756600E+04 0.  0.
        1    1    3    3  502    0 -0.14139532373E+04 -0.34891344736E+03 -0.11496903966E+04  0.18554763159E+04  0.50400001928E-02 0. -1.
       -1    1    3    3    0  502  0.14139532373E+04  0.34891344736E+03 -0.51873884011E+03  0.15459929933E+04  0.50400001928E-02 0.  1.
</event>
<event>
 5   0  0.2508094E-06  0.2922272E+04  0.7818609E-02  0.8266282E-01
        1   -1    0    0  501    0  0.00000000000E+00  0.00000000000E+00  0.13914382430E+04  0.13914382430E+04  0.50400001928E-02 0.  1.
       -1   -1    0    0    0  501  0.00000000000E+00  0.00000000000E+00 -0.15343246995E+04  0.15343246995E+04  0.50400001928E-02 0. -1.
    10030    2    1    2    0    0  0.00000000000E+00  0.00000000000E+00 -0.14288645651E+03  0.29257629425E+04  0.29222717629E+04 0.  0.
        3    1    3    3  502    0 -0.14278746360E+04 -0.30993786432E+03 -0.65905085663E+02  0.14626110031E+04  0.10100000352E+00 0.  1.
       -3    1    3    3    0  502  0.14278746360E+04  0.30993786432E+03 -0.76981370845E+02  0.14631519393E+04  0.10100000352E+00 0. -1.
</event>
<event>
 5   0  0.6612533E-06  0.2890837E+04  0.7818609E-02  0.8275609E-01
       -2   -1    0    0    0  501  0.00000000000E+00  0.00000000000E+00  0.10799546082E+04  0.10799546082E+04  0.25500000920E-02 0. -1.
        2   -1    0    0  501    0  0.00000000000E+00  0.00000000000E+00 -0.19345584272E+04  0.19345584272E+04  0.25500000920E-02 0.  1.
    10030    2    1    2    0    0  0.00000000000E+00  0.00000000000E+00 -0.85460381899E+03  0.30145130354E+04  0.28908374484E+04 0.  0.
        3    1    3    3  502    0 -0.53242737077E+03  0.11155576570E+04  0.35394115392E+03  0.12857768632E+04  0.10100000352E+00 0. -1.
       -3    1    3    3    0  502  0.53242737077E+03 -0.11155576570E+04 -0.12085449729E+04  0.17287361722E+04  0.10100000352E+00 0.  1.
</event>
<event>
 5   0  0.2336512E-06  0.2906391E+04  0.7818609E-02  0.8270979E-01
       -1   -1    0    0    0  501  0.00000000000E+00  0.00000000000E+00  0.19155934132E+04  0.19155934132E+04  0.50400001928E-02 0.  1.
        1   -1    0    0  501    0  0.00000000000E+00  0.00000000000E+00 -0.11024138999E+04  0.11024138999E+04  0.50400001928E-02 0. -1.
    10030    2    1    2    0    0  0.00000000000E+00  0.00000000000E+00  0.81317951331E+03  0.30180073131E+04  0.29063907550E+04 0.  0.
        4    1    3    3  502    0  0.10730706006E+04 -0.72948370750E+03  0.10860488967E+04  0.16920788434E+04  0.12699999809E+01 0. -1.
       -4    1    3    3    0  502 -0.10730706006E+04  0.72948370750E+03 -0.27286938340E+03  0.13259284697E+04  0.12699999809E+01 0.  1.
</event>
<event>
 5   0  0.6615403E-06  0.2889877E+04  0.7818609E-02  0.8275896E-01
        2   -1    0    0  501    0  0.00000000000E+00  0.00000000000E+00  0.17889893520E+04  0.17889893520E+04  0.25500000920E-02 0.  1.
       -2   -1    0    0    0  501  0.00000000000E+00  0.00000000000E+00 -0.11670541493E+04  0.11670541493E+04  0.25500000920E-02 0. -1.
    10030    2    1    2    0    0  0.00000000000E+00  0.00000000000E+00  0.62193520272E+03  0.29560435012E+04  0.28898771228E+04 0.  0.
        2    1    3    3  502    0 -0.73021658048E+02  0.38565288254E+03 -0.11114783631E+04  0.11787469873E+04  0.25500000920E-02 0. -1.
       -2    1    3    3    0  502  0.73021658048E+02 -0.38565288254E+03  0.17334135658E+04  0.17772965140E+04  0.25500000920E-02 0.  1.
</event>
<event>
 5   0  0.2336512E-06  0.2911616E+04  0.7818609E-02  0.8269430E-01
       -1   -1    0    0    0  501  0.00000000000E+00  0.00000000000E+00  0.16695721830E+04  0.16695721830E+04  0.50400001928E-02 0. -1.
        1   -1    0    0  501    0  0.00000000000E+00  0.00000000000E+00 -0.12694132200E+04  0.12694132200E+04  0.50400001928E-02 0.  1.
    10030    2    1    2    0    0  0.00000000000E+00  0.00000000000E+00  0.40015896304E+03  0.29389854030E+04  0.29116160467E+04 0.  0.
        4    1    3    3  502    0 -0.94645280729E+03  0.13695203931E+03  0.13080525521E+04  0.16203493048E+04  0.12699999809E+01 0. -1.
       -4    1    3    3    0  502  0.94645280729E+03 -0.13695203931E+03 -0.90789358906E+03  0.13186360982E+04  0.12699999809E+01 0.  1.
</event>
<event>
 5   0  0.2336512E-06  0.2927405E+04  0.7818609E-02  0.8264770E-01
       -1   -1    0    0    0  501  0.00000000000E+00  0.00000000000E+00  0.21483952602E+04  0.21483952602E+04  0.50400001928E-02 0. -1.
        1   -1    0    0  501    0  0.00000000000E+00  0.00000000000E+00 -0.99722114494E+03  0.99722114495E+03  0.50400001928E-02 0.  1.
    10030    2    1    2    0    0  0.00000000000E+00  0.00000000000E+00  0.11511741152E+04  0.31456164051E+04  0.29274051180E+04 0.  0.
        4    1    3    3  502    0 -0.64784607689E+03 -0.69744700592E+03  0.17703521696E+04  0.20100460897E+04  0.12699999809E+01 0. -1.
       -4    1    3    3    0  502  0.64784607689E+03  0.69744700592E+03 -0.61917805436E+03  0.11355703154E+04  0.12699999809E+01 0.  1.
</event>
<event>
 5   0  0.2429358E-06  0.2902134E+04  0.7818609E-02  0.8272243E-01
       -1   -1    0    0    0  501  0.00000000000E+00  0.00000000000E+00  0.13044149041E+04  0.13044149041E+04  0.50400001928E-02 0.  1.
        1   -1    0    0  501    0  0.00000000000E+00  0.00000000000E+00 -0.16142069878E+04  0.16142069879E+04  0.50400001928E-02 0. -1.
    10030    2    1    2    0    0  0.00000000000E+00  0.00000000000E+00 -0.30979208375E+03  0.29186218920E+04  0.29021341480E+04 0.  0.
        2    1    3    3  502    0  0.12626009961E+04 -0.69836416528E+03 -0.19626273678E-02  0.14428699813E+04  0.25500000920E-02 0. -1.
       -2    1    3    3    0  502 -0.12626009961E+04  0.69836416528E+03 -0.30979012112E+03  0.14757519107E+04  0.25500000920E-02 0.  1.
</event>
<event>
 5   0  0.6615403E-06  0.2880515E+04  0.7818609E-02  0.8278698E-01
       -2   -1    0    0    0  501  0.00000000000E+00  0.00000000000E+00  0.15214601550E+04  0.15214601550E+04  0.25500000920E-02 0. -1.
        2   -1    0    0  501    0  0.00000000000E+00  0.00000000000E+00 -0.13633891474E+04  0.13633891474E+04  0.25500000920E-02 0.  1.
    10030    2    1    2    0    0  0.00000000000E+00  0.00000000000E+00  0.15807100767E+03  0.28848493024E+04  0.28805154147E+04 0.  0.
        2    1    3    3  502    0  0.28304689948E+03  0.46876539209E+03  0.14131379570E+04  0.15155248020E+04  0.25500000920E-02 0. -1.
       -2    1    3    3    0  502 -0.28304689948E+03 -0.46876539209E+03 -0.12550669493E+04  0.13693245004E+04  0.25500000920E-02 0.  1.
</event>
<event>
 5   0  0.6513041E-06  0.2691394E+04  0.7818609E-02  0.8337803E-01
       -2   -1    0    0    0  501  0.00000000000E+00  0.00000000000E+00  0.13377308754E+04  0.13377308754E+04  0.25500000920E-02 0.  1.
        2   -1    0    0  501    0  0.00000000000E+00  0.00000000000E+00 -0.13537105331E+04  0.13537105331E+04  0.25500000920E-02 0. -1.
    10030    2    1    2    0    0  0.00000000000E+00  0.00000000000E+00 -0.15979657685E+02  0.26914414085E+04  0.26913939708E+04 0.  0.
        1    1    3    3  502    0  0.10688448878E+04  0.97233457325E+02 -0.81980253423E+03  0.13505406082E+04  0.50400001928E-02 0. -1.
       -1    1    3    3    0  502 -0.10688448878E+04 -0.97233457325E+02  0.80382287654E+03  0.13409008003E+04  0.50400001928E-02 0.  1.
</event>
<event>
 5   0  0.2159500E-06  0.2902708E+04  0.7818609E-02  0.8272072E-01
       -4   -1    0    0    0  501  0.00000000000E+00  0.00000000000E+00  0.13963690602E+04  0.13963696378E+04  0.12699999809E+01 0.  1.
        4   -1    0    0  501    0  0.00000000000E+00  0.00000000000E+00 -0.15085031948E+04  0.15085037294E+04  0.12699999809E+01 0. -1.
    10030    2    1    2    0    0  0.00000000000E+00  0.00000000000E+00 -0.11213413461E+03  0.29048733672E+04  0.29027082553E+04 0.  0.
        3    1    3    3  502    0  0.20283878260E+03 -0.18134938826E+03  0.13706181318E+04  0.13973636770E+04  0.10100000352E+00 0.  1.
       -3    1    3    3    0  502 -0.20283878260E+03  0.18134938826E+03 -0.14827522664E+04  0.15075096902E+04  0.10100000352E+00 0. -1.
</event>
<event>
 5   0  0.6513041E-06  0.2828036E+04  0.7818609E-02  0.8294617E-01
       -2   -1    0    0    0  501  0.00000000000E+00  0.00000000000E+00  0.13593614269E+04  0.13593614269E+04  0.25500000920E-02 0. -1.
        2   -1    0    0  501    0  0.00000000000E+00  0.00000000000E+00 -0.14708717249E+04  0.14708717249E+04  0.25500000920E-02 0.  1.
    10030    2    1    2    0    0  0.00000000000E+00  0.00000000000E+00 -0.11151029796E+03  0.28302331518E+04  0.28280355633E+04 0.  0.
        1    1    3    3  502    0  0.24592316057E+02 -0.97656176394E+03 -0.10788844666E+04  0.14554275499E+04  0.50400001928E-02 0.  1.
       -1    1    3    3    0  502 -0.24592316057E+02  0.97656176394E+03  0.96737416864E+03  0.13748056019E+04  0.50400001928E-02 0. -1.
</event>
<event>
 5   0  0.2474769E-06  0.2832154E+04  0.7818609E-02  0.8293355E-01
        1   -1    0    0  501    0  0.00000000000E+00  0.00000000000E+00  0.20006172646E+04  0.20006172646E+04  0.50400001928E-02 0. -1.
       -1   -1    0    0    0  501  0.00000000000E+00  0.00000000000E+00 -0.10023273584E+04  0.10023273584E+04  0.50400001928E-02 0.  1.
    10030    2    1    2    0    0  0.00000000000E+00  0.00000000000E+00  0.99828990615E+03  0.30029446230E+04  0.28321535397E+04 0.  0.
        1    1    3    3  502    0  0.11795008115E+04  0.70341313322E+02  0.13266602387E+04  0.17765690117E+04  0.50400001928E-02 0. -1.
       -1    1    3    3    0  502 -0.11795008115E+04 -0.70341313322E+02 -0.32837033250E+03  0.12263756113E+04  0.50400001928E-02 0.  1.
</event>
<event>
 5   0  0.6733688E-06  0.2899815E+04  0.7818609E-02  0.8272933E-01
        2   -1    0    0  501    0  0.00000000000E+00  0.00000000000E+00  0.19558507061E+04  0.19558507061E+04  0.25500000920E-02 0. -1.
       -2   -1    0    0    0  501  0.00000000000E+00  0.00000000000E+00 -0.10748423279E+04  0.10748423279E+04  0.25500000920E-02 0.  1.
    10030    2    1    2    0    0  0.00000000000E+00  0.00000000000E+00  0.88100837814E+03  0.30306930340E+04  0.28998145637E+04 0.  0.
        5    1    3    3  502    0 -0.82620832582E+03  0.87509990116E+03 -0.40456161696E+03  0.12696898151E+04  0.46999998093E+01 0.  1.
       -5    1    3    3    0  502  0.82620832582E+03 -0.87509990116E+03  0.12855699951E+04  0.17610032189E+04  0.46999998093E+01 0. -1.
</event>
<event>
 5   0  0.6393633E-06  0.2795799E+04  0.7818609E-02  0.8304574E-01
       -2   -1    0    0    0  501  0.00000000000E+00  0.00000000000E+00  0.16286917249E+04  0.16286917249E+04  0.25500000920E-02 0. -1.
        2   -1    0    0  501    0  0.00000000000E+00  0.00000000000E+00 -0.11998114849E+04  0.11998114849E+04  0.25500000920E-02 0.  1.
    10030    2    1    2    0    0  0.00000000000E+00  0.00000000000E+00  0.42888024004E+03  0.28285032097E+04  0.27957990177E+04 0.  0.
        4    1    3    3  502    0  0.10291145074E+03 -0.37332002686E+03 -0.11444633000E+04  0.12082038185E+04  0.12699999809E+01 0.  1.
       -4    1    3    3    0  502 -0.10291145074E+03  0.37332002686E+03  0.15733435401E+04  0.16202993912E+04  0.12699999809E+01 0. -1.
</event>
<event>
 5   0  0.6393633E-06  0.2899279E+04  0.7818609E-02  0.8273092E-01
       -2   -1    0    0    0  501  0.00000000000E+00  0.00000000000E+00  0.95512135535E+03  0.95512135535E+03  0.25500000920E-02 0.  1.
        2   -1    0    0  501    0  0.00000000000E+00  0.00000000000E+00 -0.22001964994E+04  0.22001964994E+04  0.25500000920E-02 0. -1.
    10030    2    1    2    0    0  0.00000000000E+00  0.00000000000E+00 -0.12450751441E+04  0.31553178548E+04  0.28992789880E+04 0.  0.
        4    1    3    3  502    0  0.94646015678E+03 -0.48184560906E+02  0.57130782696E+03  0.11065725581E+04  0.12699999809E+01 0.  1.
       -4    1    3    3    0  502 -0.94646015678E+03  0.48184560906E+02 -0.18163829711E+04  0.20487452967E+04  0.12699999809E+01 0. -1.
</event>
<event>
 5   0  0.2429358E-06  0.2861909E+04  0.7818609E-02  0.8284302E-01
        1   -1    0    0  501    0  0.00000000000E+00  0.00000000000E+00  0.15187562133E+04  0.15187562133E+04  0.50400001928E-02 0.  1.
       -1   -1    0    0    0  501  0.00000000000E+00  0.00000000000E+00 -0.13482290199E+04  0.13482290199E+04  0.50400001928E-02 0. -1.
    10030    2    1    2    0    0  0.00000000000E+00  0.00000000000E+00  0.17052719348E+03  0.28669852332E+04  0.28619092934E+04 0.  0.
        2    1    3    3  502    0  0.88731509025E+03 -0.95516866201E+03 -0.50566054103E+03  0.13983446732E+04  0.25500000920E-02 0. -1.
       -2    1    3    3    0  502 -0.88731509025E+03  0.95516866201E+03  0.67618773450E+03  0.14686405600E+04  0.25500000920E-02 0.  1.
</event>
<event>
 5   0  0.2508094E-06  0.2408109E+04  0.7818609E-02  0.8436474E-01
        1   -1    0    0  501    0  0.00000000000E+00  0.00000000000E+00  0.11179884788E+04  0.11179884788E+04  0.50400001928E-02 0.  1.
       -1   -1    0    0    0  501  0.00000000000E+00  0.00000000000E+00 -0.12967466043E+04  0.12967466043E+04  0.50400001928E-02 0. -1.
    10030    2    1    2    0    0  0.00000000000E+00  0.00000000000E+00 -0.17875812550E+03  0.24147350831E+04  0.24081094356E+04 0.  0.
        3    1    3    3  502    0  0.52359793386E+03  0.14828158438E+03  0.98763639597E+03  0.11276381891E+04  0.10100000352E+00 0.  1.
       -3    1    3    3    0  502 -0.52359793386E+03 -0.14828158438E+03 -0.11663945215E+04  0.12870968940E+04  0.10100000352E+00 0. -1.
</event>
<event>
 5   0  0.2348684E-06  0.2695145E+04  0.7818609E-02  0.8336582E-01
        1   -1    0    0  501    0  0.00000000000E+00  0.00000000000E+00  0.11441058380E+04  0.11441058380E+04  0.50400001928E-02 0.  1.
       -1   -1    0    0    0  501  0.00000000000E+00  0.00000000000E+00 -0.15872234944E+04  0.15872234944E+04  0.50400001928E-02 0. -1.
    10030    2    1    2    0    0  0.00000000000E+00  0.00000000000E+00 -0.44311765648E+03  0.27313293324E+04  0.26951450174E+04 0.  0.
        5    1    3    3  502    0  0.92819138796E+02  0.31496781539E+02  0.11404801389E+04  0.11446940538E+04  0.46999998093E+01 0.  1.
       -5    1    3    3    0  502 -0.92819138796E+02 -0.31496781539E+02 -0.15835977953E+04  0.15866352786E+04  0.46999998093E+01 0. -1.
</event>
<event>
 5   0  0.6393633E-06  0.2847036E+04  0.7818609E-02  0.8288812E-01
        2   -1    0    0  501    0  0.00000000000E+00  0.00000000000E+00  0.17416404751E+04  0.17416404751E+04  0.25500000920E-02 0.  1.
       -2   -1    0    0    0  501  0.00000000000E+00  0.00000000000E+00 -0.11635029096E+04  0.11635029096E+04  0.25500000920E-02 0. -1.
    10030    2    1    2    0    0  0.00000000000E+00  0.00000000000E+00  0.57813756544E+03  0.29051433847E+04  0.28470361854E+04 0.  0.
        4    1    3    3  502    0  0.16275381388E+03  0.92688723776E+03 -0.80080971257E+03  0.12356806076E+04  0.12699999809E+01 0. -1.
       -4    1    3    3    0  502 -0.16275381388E+03 -0.92688723776E+03  0.13789472780E+04  0.16694627770E+04  0.12699999809E+01 0.  1.
</event>
<event>
 5   0  0.6733688E-06  0.3007814E+04  0.7818609E-02  0.8241503E-01
       -2   -1    0    0    0  501  0.00000000000E+00  0.00000000000E+00  0.12570036979E+04  0.12570036979E+04  0.25500000920E-02 0.  1.
        2   -1    0    0  501    0  0.00000000000E+00  0.00000000000E+00 -0.17993077367E+04  0.17993077367E+04  0.25500000920E-02 0. -1.
    10030    2    1    2    0    0  0.00000000000E+00  0.00000000000E+00 -0.54230403886E+03  0.30563114346E+04  0.30078141423E+04 0.  0.
        5    1    3    3  502    0 -0.41031940693E+03 -0.67584554776E+03  0.10287658529E+04  0.12975016340E+04  0.46999998093E+01 0.  1.
       -5    1    3    3    0  502  0.41031940693E+03  0.67584554776E+03 -0.15710698917E+04  0.17588098006E+04  0.46999998093E+01 0. -1.
</event>
<event>
 5   0  0.6513041E-06  0.2910515E+04  0.7818609E-02  0.8269756E-01
       -2   -1    0    0    0  501  0.00000000000E+00  0.00000000000E+00  0.15305561189E+04  0.15305561189E+04  0.25500000920E-02 0. -1.
        2   -1    0    0  501    0  0.00000000000E+00  0.00000000000E+00 -0.13836633941E+04  0.13836633941E+04  0.25500000920E-02 0.  1.
    10030    2    1    2    0    0  0.00000000000E+00  0.00000000000E+00  0.14689272482E+03  0.29142195130E+04  0.29105150571E+04 0.  0.
        1    1    3    3  502    0 -0.12302472040E+04  0.19115180907E+03 -0.68098944326E+03  0.14190820339E+04  0.50400001928E-02 0.  1.
       -1    1    3    3    0  502  0.12302472040E+04 -0.19115180907E+03  0.82788216808E+03  0.14951374791E+04  0.50400001928E-02 0. -1.
</event>
<event>
 5   0  0.6513041E-06  0.2897735E+04  0.7818609E-02  0.8273552E-01
       -2   -1    0    0    0  501  0.00000000000E+00  0.00000000000E+00  0.14518151330E+04  0.14518151330E+04  0.25500000920E-02 0. -1.
        2   -1    0    0  501    0  0.00000000000E+00  0.00000000000E+00 -0.14459255164E+04  0.14459255164E+04  0.25500000920E-02 0.  1.
    10030    2    1    2    0    0  0.00000000000E+00  0.00000000000E+00  0.58896165913E+01  0.28977406494E+04  0.28977346641E+04 0.  0.
        1    1    3    3  502    0  0.70267791362E+03 -0.89414367551E+03  0.90070352454E+03  0.14506950065E+04  0.50400001928E-02 0. -1.
       -1    1    3    3    0  502 -0.70267791362E+03  0.89414367551E+03 -0.89481390795E+03  0.14470456429E+04  0.50400001928E-02 0.  1.
</event>
<event>
 5   0  0.2159500E-06  0.2872486E+04  0.7818609E-02  0.8281111E-01
        3   -1    0    0  501    0  0.00000000000E+00  0.00000000000E+00  0.11391067262E+04  0.11391067307E+04  0.10100000352E+00 0.  1.
       -3   -1    0    0    0  501  0.00000000000E+00  0.00000000000E+00 -0.18108877421E+04  0.18108877449E+04  0.10100000352E+00 0. -1.
    10030    2    1    2    0    0  0.00000000000E+00  0.00000000000E+00 -0.67178101592E+03  0.29499944756E+04  0.28724863224E+04 0.  0.
        2    1    3    3  502    0  0.11023917598E+04 -0.71509464280E+03 -0.93133383846E+03  0.16105932631E+04  0.25500000920E-02 0. -1.
       -2    1    3    3    0  502 -0.11023917598E+04  0.71509464280E+03  0.25955282254E+03  0.13394012125E+04  0.25500000920E-02 0.  1.
</event>
<event>
 5   0  0.2159500E-06  0.2882967E+04  0.7818609E-02  0.8277963E-01
       -3   -1    0    0    0  501  0.00000000000E+00  0.00000000000E+00  0.28012031586E+04  0.28012031604E+04  0.10100000352E+00 0.  1.
        3   -1    0    0  501    0  0.00000000000E+00  0.00000000000E+00 -0.74177918049E+03  0.74177918737E+03  0.10100000352E+00 0. -1.
    10030    2    1    2    0    0  0.00000000000E+00  0.00000000000E+00  0.20594239781E+04  0.35429823478E+04  0.28829666656E+04 0.  0.
        4    1    3    3  502    0 -0.10983644785E+04  0.93351090075E+03  0.10359125025E+04  0.17750953370E+04  0.12699999809E+01 0. -1.
       -4    1    3    3    0  502  0.10983644785E+04 -0.93351090075E+03  0.10235114756E+04  0.17678870108E+04  0.12699999809E+01 0.  1.
</event>
<event>
 5   0  0.6393633E-06  0.2691579E+04  0.7818609E-02  0.8337742E-01
       -2   -1    0    0    0  501  0.00000000000E+00  0.00000000000E+00  0.10227273740E+04  0.10227273740E+04  0.25500000920E-02 0.  1.
        2   -1    0    0  501    0  0.00000000000E+00  0.00000000000E+00 -0.17709018566E+04  0.17709018566E+04  0.25500000920E-02 0. -1.
    10030    2    1    2    0    0  0.00000000000E+00  0.00000000000E+00 -0.74817448261E+03  0.27936292306E+04  0.26915793174E+04 0.  0.
        4    1    3    3  502    0  0.47271521054E+03  0.96941853608E+03  0.46136381273E+03  0.11730686889E+04  0.12699999809E+01 0.  1.
       -4    1    3    3    0  502 -0.47271521054E+03 -0.96941853608E+03 -0.12095382953E+04  0.16205605417E+04  0.12699999809E+01 0. -1.
</event>
<event>
 5   0  0.2336512E-06  0.2963992E+04  0.7818609E-02  0.8254089E-01
        1   -1    0    0  501    0  0.00000000000E+00  0.00000000000E+00  0.17561165026E+04  0.17561165026E+04  0.50400001928E-02 0.  1.
       -1   -1    0    0    0  501  0.00000000000E+00  0.00000000000E+00 -0.12506639455E+04  0.12506639455E+04  0.50400001928E-02 0. -1.
    10030    2    1    2    0    0  0.00000000000E+00  0.00000000000E+00  0.50545255711E+03  0.30067804480E+04  0.29639916287E+04 0.  0.
        4    1    3    3  502    0  0.12421421355E+04 -0.40873902778E+03  0.96016394263E+03  0.16223134984E+04  0.12699999809E+01 0. -1.
       -4    1    3    3    0  502 -0.12421421355E+04  0.40873902778E+03 -0.45471138551E+03  0.13844669496E+04  0.12699999809E+01 0.  1.
</event>
<event>
 5   0  0.6393633E-06  0.2891390E+04  0.7818609E-02  0.8275444E-01
        2   -1    0    0  501    0  0.00000000000E+00  0.00000000000E+00  0.14786728590E+04  0.14786728590E+04  0.25500000920E-02 0.  1.
       -2   -1    0    0    0  501  0.00000000000E+00  0.00000000000E+00 -0.14134528484E+04  0.14134528484E+04  0.25500000920E-02 0. -1.
    10030    2    1    2    0    0  0.00000000000E+00  0.00000000000E+00  0.65220010590E+02  0.28921257074E+04  0.28913902292E+04 0.  0.
        4    1    3    3  502    0  0.37631643411E+03  0.10626941354E+04  0.93788158149E+03  0.14664775340E+04  0.12699999809E+01 0. -1.
       -4    1    3    3    0  502 -0.37631643411E+03 -0.10626941354E+04 -0.87266157090E+03  0.14256481734E+04  0.12699999809E+01 0.  1.
</event>
<event>
 5   0  0.2508094E-06  0.2901216E+04  0.7818609E-02  0.8272516E-01
       -1   -1    0    0    0  501  0.00000000000E+00  0.00000000000E+00  0.13514020773E+04  0.13514020773E+04  0.50400001928E-02 0. -1.
        1   -1    0    0  501    0  0.00000000000E+00  0.00000000000E+00 -0.15570965474E+04  0.15570965474E+04  0.50400001928E-02 0.  1.
    10030    2    1    2    0    0  0.00000000000E+00  0.00000000000E+00 -0.20569447014E+03  0.29084986247E+04  0.29012159580E+04 0.  0.
        3    1    3    3  502    0 -0.43160733228E+03  0.11473429265E+04 -0.88041190090E+03  0.15092401419E+04  0.10100000352E+00 0.  1.
       -3    1    3    3    0  502  0.43160733228E+03 -0.11473429265E+04  0.67471743076E+03  0.13992584829E+04  0.10100000352E+00 0. -1.
</event>
<event>
 5   0  0.2336512E-06  0.2685239E+04  0.7818609E-02  0.8339810E-01
       -1   -1    0    0    0  501  0.00000000000E+00  0.00000000000E+00  0.10651987642E+04  0.10651987642E+04  0.50400001928E-02 0.  1.
        1   -1    0    0  501    0  0.00000000000E+00  0.00000000000E+00 -0.16922913856E+04  0.16922913856E+04  0.50400001928E-02 0. -1.
    10030    2    1    2    0    0  0.00000000000E+00  0.00000000000E+00 -0.62709262133E+03  0.27574901498E+04  0.26852386804E+04 0.  0.
        4    1    3    3  502    0 -0.67190846433E+03  0.40411806216E+03  0.80566571396E+03  0.11242202845E+04  0.12699999809E+01 0.  1.
       -4    1    3    3    0  502  0.67190846433E+03 -0.40411806216E+03 -0.14327583353E+04  0.16332698653E+04  0.12699999809E+01 0. -1.
</event>
<event>
 5   0  0.2429358E-06  0.2902071E+04  0.7818609E-02  0.8272262E-01
       -1   -1    0    0    0  501  0.00000000000E+00  0.00000000000E+00  0.74116894308E+03  0.74116894310E+03  0.50400001928E-02 0.  1.
        1   -1    0    0  501    0  0.00000000000E+00  0.00000000000E+00 -0.28407876298E+04  0.28407876298E+04  0.50400001928E-02 0. -1.
    10030    2    1    2    0    0  0.00000000000E+00  0.00000000000E+00 -0.20996186867E+04  0.35819565729E+04  0.29020706850E+04 0.  0.
        2    1    3    3  502    0  0.94831635971E+03  0.70348873637E+03 -0.88357208897E+01  0.11807956598E+04  0.25500000920E-02 0.  1.
       -2    1    3    3    0  502 -0.94831635971E+03 -0.70348873637E+03 -0.20907829658E+04  0.24011609131E+04  0.25500000920E-02 0. -1.
</event>
<event>
 5   0  0.6513041E-06  0.2907528E+04  0.7818609E-02  0.8270641E-01
        2   -1    0    0  501    0  0.00000000000E+00  0.00000000000E+00  0.24335707347E+04  0.24335707347E+04  0.25500000920E-02 0. -1.
       -2   -1    0    0    0  501  0.00000000000E+00  0.00000000000E+00 -0.86844787888E+03  0.86844787889E+03  0.25500000920E-02 0.  1.
    10030    2    1    2    0    0  0.00000000000E+00  0.00000000000E+00  0.15651228558E+04  0.33020186136E+04  0.29075277076E+04 0.  0.
        1    1    3    3  502    0  0.79033123344E+03 -0.87624228798E+03  0.17468896892E+04  0.21080909828E+04  0.50400001928E-02 0. -1.
       -1    1    3    3    0  502 -0.79033123344E+03  0.87624228798E+03 -0.18176683333E+03  0.11939276308E+04  0.50400001928E-02 0.  1.
</event>
<event>
 5   0  0.2474769E-06  0.2917423E+04  0.7818609E-02  0.8267712E-01
       -1   -1    0    0    0  501  0.00000000000E+00  0.00000000000E+00  0.11490926704E+04  0.11490926704E+04  0.50400001928E-02 0.  1.
        1   -1    0    0  501    0  0.00000000000E+00  0.00000000000E+00 -0.18517565104E+04  0.18517565104E+04  0.50400001928E-02 0. -1.
    10030    2    1    2    0    0  0.00000000000E+00  0.00000000000E+00 -0.70266383999E+03  0.30008491808E+04  0.29174234067E+04 0.  0.
        1    1    3    3  502    0  0.13069504240E+04  0.20345399975E+03 -0.98400348024E+03  0.16485677996E+04  0.50400001928E-02 0. -1.
       -1    1    3    3    0  502 -0.13069504240E+04 -0.20345399975E+03  0.28133964025E+03  0.13522813812E+04  0.50400001928E-02 0.  1.
</event>
<event>
 5   0  0.6513041E-06  0.2876932E+04  0.7818609E-02  0.8279774E-01
        2   -1    0    0  501    0  0.00000000000E+00  0.00000000000E+00  0.16717518370E+04  0.16717518370E+04  0.25500000920E-02 0.  1.
       -2   -1    0    0    0  501  0.00000000000E+00  0.00000000000E+00 -0.12377345872E+04  0.12377345872E+04  0.25500000920E-02 0. -1.
    10030    2    1    2    0    0  0.00000000000E+00  0.00000000000E+00  0.43401724977E+03  0.29094864242E+04  0.28769324426E+04 0.  0.
        1    1    3    3  502    0  0.61737670545E+03 -0.60287243895E+03 -0.94691663952E+03  0.12811168160E+04  0.50400001928E-02 0. -1.
       -1    1    3    3    0  502 -0.61737670545E+03  0.60287243895E+03  0.13809338893E+04  0.16283696081E+04  0.50400001928E-02 0.  1.
</event>
<event>
 5   0  0.6615403E-06  0.3246805E+04  0.7818609E-02  0.8176564E-01
        2   -1    0    0  501    0  0.00000000000E+00  0.00000000000E+00  0.10025357947E+04  0.10025357947E+04  0.25500000920E-02 0.  1.
       -2   -1    0    0    0  501  0.00000000000E+00  0.00000000000E+00 -0.26287696380E+04  0.26287696380E+04  0.25500000920E-02 0. -1.
    10030    2    1    2    0    0  0.00000000000E+00  0.00000000000E+00 -0.16262338433E+04  0.36313054327E+04  0.32468049884E+04 0.  0.
        2    1    3    3  502    0 -0.92764964094E+02  0.57617853198E+02  0.99842328871E+03  0.10043775281E+04  0.25500000920E-02 0.  1.
       -2    1    3    3    0  502  0.92764964094E+02 -0.57617853198E+02 -0.26246571320E+04  0.26269279046E+04  0.25500000920E-02 0. -1.
</event>
<event>
 5   0  0.6393633E-06  0.2891692E+04  0.7818609E-02  0.8275354E-01
       -2   -1    0    0    0  501  0.00000000000E+00  0.00000000000E+00  0.89902969105E+03  0.89902969106E+03  0.25500000920E-02 0. -1.
        2   -1    0    0  501    0  0.00000000000E+00  0.00000000000E+00 -0.23252523214E+04  0.23252523214E+04  0.25500000920E-02 0.  1.
    10030    2    1    2    0    0  0.00000000000E+00  0.00000000000E+00 -0.14262226303E+04  0.32242820124E+04  0.28916921524E+04 0.  0.
        4    1    3    3  502    0 -0.27236378934E+03  0.10988676467E+04  0.28964497195E+03  0.11685837417E+04  0.12699999809E+01 0. -1.
       -4    1    3    3    0  502  0.27236378934E+03 -0.10988676467E+04 -0.17158676023E+04  0.20556982707E+04  0.12699999809E+01 0.  1.
</event>
<event>
 5   0  0.2336512E-06  0.2896922E+04  0.7818609E-02  0.8273794E-01
        1   -1    0    0  501    0  0.00000000000E+00  0.00000000000E+00  0.22304206286E+04  0.22304206287E+04  0.50400001928E-02 0. -1.
       -1   -1    0    0    0  501  0.00000000000E+00  0.00000000000E+00 -0.94064705770E+03  0.94064705772E+03  0.50400001928E-02 0.  1.
    10030    2    1    2    0    0  0.00000000000E+00  0.00000000000E+00  0.12897735709E+04  0.31710676864E+04  0.28969215397E+04 0.  0.
        4    1    3    3  502    0  0.90919825228E+03 -0.76559882847E+03  0.15510252299E+04  0.19540890217E+04  0.12699999809E+01 0. -1.
       -4    1    3    3    0  502 -0.90919825228E+03  0.76559882847E+03 -0.26125165891E+03  0.12169786647E+04  0.12699999809E+01 0.  1.
</event>
<event>
 5   0  0.2474769E-06  0.2858009E+04  0.7818609E-02  0.8285482E-01
        1   -1    0    0  501    0  0.00000000000E+00  0.00000000000E+00  0.18108483281E+04  0.18108483281E+04  0.50400001928E-02 0.  1.
       -1   -1    0    0    0  501  0.00000000000E+00  0.00000000000E+00 -0.11276779597E+04  0.11276779597E+04  0.50400001928E-02 0. -1.
    10030    2    1    2    0    0  0.00000000000E+00  0.00000000000E+00  0.68317036839E+03  0.29385262878E+04  0.28580089209E+04 0.  0.
        1    1    3    3  502    0  0.38275474651E+03  0.13767187003E+04  0.35605914333E+03  0.14726281572E+04  0.50400001928E-02 0.  1.
       -1    1    3    3    0  502 -0.38275474651E+03 -0.13767187003E+04  0.32711122507E+03  0.14658981306E+04  0.50400001928E-02 0. -1.
</event>
<event>
 5   0  0.6393633E-06  0.2883375E+04  0.7818609E-02  0.8277841E-01
       -2   -1    0    0    0  501  0.00000000000E+00  0.00000000000E+00  0.18587849983E+04  0.18587849983E+04  0.25500000920E-02 0.  1.
        2   -1    0    0  501    0  0.00000000000E+00  0.00000000000E+00 -0.11181835686E+04  0.11181835686E+04  0.25500000920E-02 0. -1.
    10030    2    1    2    0    0  0.00000000000E+00  0.00000000000E+00  0.74060142967E+03  0.29769685669E+04  0.28833749966E+04 0.  0.
        4    1    3    3  502    0  0.19234022692E+02 -0.14815310423E+03 -0.11101694741E+04  0.11201772913E+04  0.12699999809E+01 0. -1.
       -4    1    3    3    0  502 -0.19234022692E+02  0.14815310423E+03  0.18507709038E+04  0.18567912756E+04  0.12699999809E+01 0.  1.
</event>
<event>
 5   0  0.6733688E-06  0.2852315E+04  0.7818609E-02  0.8287208E-01
       -2   -1    0    0    0  501  0.00000000000E+00  0.00000000000E+00  0.12644783782E+04  0.12644783782E+04  0.25500000920E-02 0.  1.
        2   -1    0    0  501    0  0.00000000000E+00  0.00000000000E+00 -0.16085094262E+04  0.16085094262E+04  0.25500000920E-02 0. -1.
    10030    2    1    2    0    0  0.00000000000E+00  0.00000000000E+00 -0.34403104799E+03  0.28729878043E+04  0.28523151232E+04 0.  0.
        5    1    3    3  502    0 -0.66090931724E+03  0.14802661568E+03  0.10921466510E+04  0.12851145482E+04  0.46999998093E+01 0.  1.
       -5    1    3    3    0  502  0.66090931724E+03 -0.14802661568E+03 -0.14361776990E+04  0.15878732562E+04  0.46999998093E+01 0. -1.
</event>
<event>
 5   0  0.2429358E-06  0.2861417E+04  0.7818609E-02  0.8284451E-01
        1   -1    0    0  501    0  0.00000000000E+00  0.00000000000E+00  0.19919481489E+04  0.19919481489E+04  0.50400001928E-02 0. -1.
       -1   -1    0    0    0  501  0.00000000000E+00  0.00000000000E+00 -0.10276001281E+04  0.10276001281E+04  0.50400001928E-02 0.  1.
    10030    2    1    2    0    0  0.00000000000E+00  0.00000000000E+00  0.96434802081E+03  0.30195482770E+04  0.28614165534E+04 0.  0.
        2    1    3    3  502    0  0.22890529405E+03  0.12661785847E+04  0.11423004056E+04  0.17205975877E+04  0.25500000920E-02 0. -1.
       -2    1    3    3    0  502 -0.22890529405E+03 -0.12661785847E+04 -0.17795238482E+03  0.12989506893E+04  0.25500000920E-02 0.  1.
</event>
<event>
 5   0  0.2508094E-06  0.2941629E+04  0.7818609E-02  0.8260598E-01
       -1   -1    0    0    0  501  0.00000000000E+00  0.00000000000E+00  0.14543883783E+04  0.14543883783E+04  0.50400001928E-02 0.  1.
        1   -1    0    0  501    0  0.00000000000E+00  0.00000000000E+00 -0.14874257461E+04  0.14874257461E+04  0.50400001928E-02 0. -1.
    10030    2    1    2    0    0  0.00000000000E+00  0.00000000000E+00 -0.33037367734E+02  0.29418141244E+04  0.29416286093E+04 0.  0.
        3    1    3    3  502    0  0.24019622200E+03  0.13533437949E+04  0.50702274233E+03  0.14650275505E+04  0.10100000352E+00 0.  1.
       -3    1    3    3    0  502 -0.24019622200E+03 -0.13533437949E+04 -0.54006011007E+03  0.14767865739E+04  0.10100000352E+00 0. -1.
</event>
<event>
 5   0  0.6615403E-06  0.2925477E+04  0.7818609E-02  0.8265337E-01
        2   -1    0    0  501    0  0.00000000000E+00  0.00000000000E+00  0.15185150822E+04  0.15185150822E+04  0.25500000920E-02 0.  1.
       -2   -1    0    0    0  501  0.00000000000E+00  0.00000000000E+00 -0.14090104943E+04  0.14090104943E+04  0.25500000920E-02 0. -1.
    10030    2    1    2    0    0  0.00000000000E+00  0.00000000000E+00  0.10950458798E+03  0.29275255765E+04  0.29254768409E+04 0.  0.
        2    1    3    3  502    0  0.91009313597E+03 -0.20429026360E+03  0.11823065071E+04  0.15059391438E+04  0.25500000920E-02 0.  1.
       -2    1    3    3    0  502 -0.91009313597E+03  0.20429026360E+03 -0.10728019192E+04  0.14215864327E+04  0.25500000920E-02 0. -1.
</event>
<event>
 5   0  0.6393633E-06  0.2858044E+04  0.7818609E-02  0.8285471E-01
       -2   -1    0    0    0  501  0.00000000000E+00  0.00000000000E+00  0.87036880275E+03  0.87036880275E+03  0.25500000920E-02 0. -1.
        2   -1    0    0  501    0  0.00000000000E+00  0.00000000000E+00 -0.23462508451E+04  0.23462508451E+04  0.25500000920E-02 0.  1.
    10030    2    1    2    0    0  0.00000000000E+00  0.00000000000E+00 -0.14758820423E+04  0.32166196478E+04  0.28580437638E+04 0.  0.
        4    1    3    3  502    0  0.17923776692E+03  0.13363816041E+04 -0.12706781431E+04  0.18527456720E+04  0.12699999809E+01 0.  1.
       -4    1    3    3    0  502 -0.17923776692E+03 -0.13363816041E+04 -0.20520389923E+03  0.13638739758E+04  0.12699999809E+01 0. -1.
</event>
<event>
 5   0  0.2474769E-06  0.2789189E+04  0.7818609E-02  0.8306632E-01
       -1   -1    0    0    0  501  0.00000000000E+00  0.00000000000E+00  0.79093571645E+03  0.79093571647E+03  0.50400001928E-02 0. -1.
        1   -1    0    0  501    0  0.00000000000E+00  0.00000000000E+00 -0.24589792137E+04  0.24589792137E+04  0.50400001928E-02 0.  1.
    10030    2    1    2    0    0  0.00000000000E+00  0.00000000000E+00 -0.16680434972E+04  0.32499149301E+04  0.27891894781E+04 0.  0.
        1    1    3    3  502    0 -0.88621378405E+03  0.54638959064E+03  0.24713835107E+03  0.10700438404E+04  0.50400001928E-02 0. -1.
       -1    1    3    3    0  502  0.88621378405E+03 -0.54638959064E+03 -0.19151818483E+04  0.21798710897E+04  0.50400001928E-02 0.  1.
</event>
<event>
 5   0  0.2474769E-06  0.2750117E+04  0.7818609E-02  0.8318924E-01
       -1   -1    0    0    0  501  0.00000000000E+00  0.00000000000E+00  0.23441983213E+04  0.23441983213E+04  0.50400001928E-02 0.  1.
        1   -1    0    0  501    0  0.00000000000E+00  0.00000000000E+00 -0.80658122228E+03  0.80658122230E+03  0.50400001928E-02 0. -1.
    10030    2    1    2    0    0  0.00000000000E+00  0.00000000000E+00  0.15376170990E+04  0.31507795436E+04  0.27501173410E+04 0.  0.
        1    1    3    3  502    0  0.50686556542E+03  0.11671177505E+04  0.13660080639E+04  0.18668300875E+04  0.50400001928E-02 0. -1.
       -1    1    3    3    0  502 -0.50686556542E+03 -0.11671177505E+04  0.17160903512E+03  0.12839494561E+04  0.50400001928E-02 0.  1.
</event>
<event>
 5   0  0.6612533E-06  0.2902389E+04  0.7818609E-02  0.8272167E-01
       -2   -1    0    0    0  501  0.00000000000E+00  0.00000000000E+00  0.94325743840E+03  0.94325743840E+03  0.25500000920E-02 0. -1.
        2   -1    0    0  501    0  0.00000000000E+00  0.00000000000E+00 -0.22326524525E+04  0.22326524525E+04  0.25500000920E-02 0.  1.
    10030    2    1    2    0    0  0.00000000000E+00  0.00000000000E+00 -0.12893950141E+04  0.31759098909E+04  0.29023893834E+04 0.  0.
        3    1    3    3  502    0  0.87484475804E+03  0.75955296301E+03  0.31155284213E+03  0.11997246509E+04  0.10100000352E+00 0. -1.
       -3    1    3    3    0  502 -0.87484475804E+03 -0.75955296301E+03 -0.16009478562E+04  0.19761852400E+04  0.10100000352E+00 0.  1.
</event>
<event>
 5   0  0.2336512E-06  0.2869854E+04  0.7818609E-02  0.8281904E-01
        1   -1    0    0  501    0  0.00000000000E+00  0.00000000000E+00  0.18472530421E+04  0.18472530421E+04  0.50400001928E-02 0.  1.
       -1   -1    0    0    0  501  0.00000000000E+00  0.00000000000E+00 -0.11146365873E+04  0.11146365873E+04  0.50400001928E-02 0. -1.
    10030    2    1    2    0    0  0.00000000000E+00  0.00000000000E+00  0.73261645481E+03  0.29618896294E+04  0.28698542310E+04 0.  0.
        4    1    3    3  502    0  0.96393567129E+03  0.17407156934E+03  0.14485263721E+04  0.17486289352E+04  0.12699999809E+01 0.  1.
       -4    1    3    3    0  502 -0.96393567129E+03 -0.17407156934E+03 -0.71590991724E+03  0.12132606942E+04  0.12699999809E+01 0. -1.
</event>
<event>
 5   0  0.2508094E-06  0.2884267E+04  0.7818609E-02  0.8277574E-01
        1   -1    0    0  501    0  0.00000000000E+00  0.00000000000E+00  0.15008328984E+04  0.15008328984E+04  0.50400001928E-02 0. -1.
       -1   -1    0    0    0  501  0.00000000000E+00  0.00000000000E+00 -0.13857295975E+04  0.13857295976E+04  0.50400001928E-02 0.  1.
    10030    2    1    2    0    0  0.00000000000E+00  0.00000000000E+00  0.11510330089E+03  0.28865624960E+04  0.28842666786E+04 0.  0.
        3    1    3    3  502    0  0.69883766505E+03  0.12252537819E+04 -0.24289998086E+03  0.14313005704E+04  0.10100000352E+00 0.  1.
       -3    1    3    3    0  502 -0.69883766505E+03 -0.12252537819E+04  0.35800328175E+03  0.14552619256E+04  0.10100000352E+00 0. -1.
</event>
<event>
 5   0  0.2474769E-06  0.2884688E+04  0.7818609E-02  0.8277448E-01
        1   -1    0    0  501    0  0.00000000000E+00  0.00000000000E+00  0.16159810416E+04  0.16159810416E+04  0.50400001928E-02 0. -1.
       -1   -1    0    0    0  501  0.00000000000E+00  0.00000000000E+00 -0.12873640337E+04  0.12873640337E+04  0.50400001928E-02 0.  1.
    10030    2    1    2    0    0  0.00000000000E+00  0.00000000000E+00  0.32861700795E+03  0.29033450753E+04  0.28846877628E+04 0.  0.
        1    1    3    3  502    0  0.34300054492E+03  0.25097276594E+03 -0.12229089581E+04  0.12946594235E+04  0.50400001928E-02 0.  1.
       -1    1    3    3    0  502 -0.34300054492E+03 -0.25097276594E+03  0.15515259661E+04  0.16086856518E+04  0.50400001928E-02 0. -1.
</event>
<event>
 5   0  0.2508094E-06  0.2747144E+04  0.7818609E-02  0.8319868E-01
        1   -1    0    0  501    0  0.00000000000E+00  0.00000000000E+00  0.12957433222E+04  0.12957433222E+04  0.50400001928E-02 0. -1.
       -1   -1    0    0    0  501  0.00000000000E+00  0.00000000000E+00 -0.14560755687E+04  0.14560755687E+04  0.50400001928E-02 0.  1.
    10030    2    1    2    0    0  0.00000000000E+00  0.00000000000E+00 -0.16033224653E+03  0.27518188909E+04  0.27471441133E+04 0.  0.
        3    1    3    3  502    0  0.95914630397E+03 -0.94004533938E+03 -0.36884624729E+03  0.13927291326E+04  0.10100000352E+00 0. -1.
       -3    1    3    3    0  502 -0.95914630397E+03  0.94004533938E+03  0.20851400076E+03  0.13590897583E+04  0.10100000352E+00 0.  1.
</event>
<event>
 5   0  0.6733688E-06  0.2789855E+04  0.7818609E-02  0.8306425E-01
        2   -1    0    0  501    0  0.00000000000E+00  0.00000000000E+00  0.20476994856E+04  0.20476994856E+04  0.25500000920E-02 0.  1.
       -2   -1    0    0    0  501  0.00000000000E+00  0.00000000000E+00 -0.95024851402E+03  0.95024851402E+03  0.25500000920E-02 0. -1.
    10030    2    1    2    0    0  0.00000000000E+00  0.00000000000E+00  0.10974509716E+04  0.29979479997E+04  0.27898554754E+04 0.  0.
        5    1    3    3  502    0  0.13461925596E+03  0.80420846676E+02  0.20381893543E+04  0.20442181368E+04  0.46999998093E+01 0.  1.
       -5    1    3    3    0  502 -0.13461925596E+03 -0.80420846676E+02 -0.94073838271E+03  0.95372986288E+03  0.46999998093E+01 0. -1.
</event>
<event>
 5   0  0.2336512E-06  0.3139444E+04  0.7818609E-02  0.8204995E-01
       -1   -1    0    0    0  501  0.00000000000E+00  0.00000000000E+00  0.15520092031E+04  0.15520092031E+04  0.50400001928E-02 0.  1.
        1   -1    0    0  501    0  0.00000000000E+00  0.00000000000E+00 -0.15876374007E+04  0.15876374007E+04  0.50400001928E-02 0. -1.
    10030    2    1    2    0    0  0.00000000000E+00  0.00000000000E+00 -0.35628197603E+02  0.31396466037E+04  0.31394444457E+04 0.  0.
        4    1    3    3  502    0  0.14551215057E+04  0.21436990690E+03  0.53057619731E+03  0.15636002582E+04  0.12699999809E+01 0.  1.
       -4    1    3    3    0  502 -0.14551215057E+04 -0.21436990690E+03 -0.56620439491E+03  0.15760463455E+04  0.12699999809E+01 0. -1.
</event>
<event>
 5   0  0.2474769E-06  0.2834108E+04  0.7818609E-02  0.8292757E-01
        1   -1    0    0  501    0  0.00000000000E+00  0.00000000000E+00  0.18084096930E+04  0.18084096930E+04  0.50400001928E-02 0.  1.
       -1   -1    0    0    0  501  0.00000000000E+00  0.00000000000E+00 -0.11103913437E+04  0.11103913437E+04  0.50400001928E-02 0. -1.
    10030    2    1    2    0    0  0.00000000000E+00  0.00000000000E+00  0.69801834927E+03  0.29188010368E+04  0.28341083035E+04 0.  0.
        1    1    3    3  502    0  0.30651503861E+03  0.97063835396E+02  0.17703488391E+04  0.17993076083E+04  0.50400001928E-02 0.  1.
       -1    1    3    3    0  502 -0.30651503861E+03 -0.97063835396E+02 -0.10723304898E+04  0.11194934285E+04  0.50400001928E-02 0. -1.
</event>
<event>
 5   0  0.2508094E-06  0.2904635E+04  0.7818609E-02  0.8271500E-01
        1   -1    0    0  501    0  0.00000000000E+00  0.00000000000E+00  0.23175400563E+04  0.23175400563E+04  0.50400001928E-02 0.  1.
       -1   -1    0    0    0  501  0.00000000000E+00  0.00000000000E+00 -0.91011445404E+03  0.91011445405E+03  0.50400001928E-02 0. -1.
    10030    2    1    2    0    0  0.00000000000E+00  0.00000000000E+00  0.14074256023E+04  0.32276545104E+04  0.29046354009E+04 0.  0.
        3    1    3    3  502    0 -0.50313082694E+03  0.55061446210E+03  0.20884537260E+04  0.22176464756E+04  0.10100000352E+00 0.  1.
       -3    1    3    3    0  502  0.50313082694E+03 -0.55061446210E+03 -0.68102812370E+03  0.10100080348E+04  0.10100000352E+00 0. -1.
</event>
<event>
 5   0  0.6733688E-06  0.2860166E+04  0.7818609E-02  0.8284829E-01
       -2   -1    0    0    0  501  0.00000000000E+00  0.00000000000E+00  0.10600633060E+04  0.10600633060E+04  0.25500000920E-02 0.  1.
        2   -1    0    0  501    0  0.00000000000E+00  0.00000000000E+00 -0.19292599381E+04  0.19292599381E+04  0.25500000920E-02 0. -1.
    10030    2    1    2    0    0  0.00000000000E+00  0.00000000000E+00 -0.86919663215E+03  0.29893232441E+04  0.28601661967E+04 0.  0.
        5    1    3    3  502    0  0.66006703593E+03  0.27045130131E+03  0.86084151834E+03  0.11179904329E+04  0.46999998093E+01 0.  1.
       -5    1    3    3    0  502 -0.66006703593E+03 -0.27045130131E+03 -0.17300381505E+04  0.18713328112E+04  0.46999998093E+01 0. -1.
</event>
<event>
 5   0  0.6393633E-06  0.2877041E+04  0.7818609E-02  0.8279741E-01
       -2   -1    0    0    0  501  0.00000000000E+00  0.00000000000E+00  0.14625607254E+04  0.14625607254E+04  0.25500000920E-02 0. -1.
        2   -1    0    0  501    0  0.00000000000E+00  0.00000000000E+00 -0.14148752657E+04  0.14148752657E+04  0.25500000920E-02 0.  1.
    10030    2    1    2    0    0  0.00000000000E+00  0.00000000000E+00  0.47685459665E+02  0.28774359911E+04  0.28770408373E+04 0.  0.
        4    1    3    3  502    0 -0.10507124699E+04  0.26634598220E+03 -0.92201572143E+03  0.14230430352E+04  0.12699999809E+01 0.  1.
       -4    1    3    3    0  502  0.10507124699E+04 -0.26634598220E+03  0.96970118110E+03  0.14543929559E+04  0.12699999809E+01 0. -1.
</event>
<event>
 5   0  0.2348684E-06  0.2566230E+04  0.7818609E-02  0.8379764E-01
        1   -1    0    0  501    0  0.00000000000E+00  0.00000000000E+00  0.11052037118E+04  0.11052037118E+04  0.50400001928E-02 0. -1.
       -1   -1    0    0    0  501  0.00000000000E+00  0.00000000000E+00 -0.14896652685E+04  0.14896652685E+04  0.50400001928E-02 0.  1.
    10030    2    1    2    0    0  0.00000000000E+00  0.00000000000E+00 -0.38446155666E+03  0.25948689803E+04  0.25662295954E+04 0.  0.
        5    1    3    3  502    0  0.43542977904E+03 -0.11800771435E+04 -0.44839644496E+03  0.13353885648E+04  0.46999998093E+01 0.  1.
       -5    1    3    3    0  502 -0.43542977904E+03  0.11800771435E+04  0.63934888300E+02  0.12594804155E+04  0.46999998093E+01 0. -1.
</event>
<event>
 5   0  0.6393633E-06  0.2845157E+04  0.7818609E-02  0.8289385E-01
       -2   -1    0    0    0  501  0.00000000000E+00  0.00000000000E+00  0.10021899010E+04  0.10021899010E+04  0.25500000920E-02 0.  1.
        2   -1    0    0  501    0  0.00000000000E+00  0.00000000000E+00 -0.20193069714E+04  0.20193069714E+04  0.25500000920E-02 0. -1.
    10030    2    1    2    0    0  0.00000000000E+00  0.00000000000E+00 -0.10171170704E+04  0.30214968724E+04  0.28451566240E+04 0.  0.
        4    1    3    3  502    0  0.21927398657E+03 -0.13992483316E+04 -0.36707013052E+03  0.14631196357E+04  0.12699999809E+01 0. -1.
       -4    1    3    3    0  502 -0.21927398657E+03  0.13992483316E+04 -0.65004693988E+03  0.15583772367E+04  0.12699999809E+01 0.  1.
</event>
<event>
 5   0  0.2508094E-06  0.2824278E+04  0.7818609E-02  0.8295770E-01
       -1   -1    0    0    0  501  0.00000000000E+00  0.00000000000E+00  0.99722717323E+03  0.99722717324E+03  0.50400001928E-02 0. -1.
        1   -1    0    0  501    0  0.00000000000E+00  0.00000000000E+00 -0.19996819833E+04  0.19996819833E+04  0.50400001928E-02 0.  1.
    10030    2    1    2    0    0  0.00000000000E+00  0.00000000000E+00 -0.10024548100E+04  0.29969091565E+04  0.28242784647E+04 0.  0.
        3    1    3    3  502    0  0.32533242576E+03  0.18775246982E+03  0.94324433610E+03  0.10152842287E+04  0.10100000352E+00 0. -1.
       -3    1    3    3    0  502 -0.32533242576E+03 -0.18775246982E+03 -0.19456991461E+04  0.19816249279E+04  0.10100000352E+00 0.  1.
</event>
<event>
 5   0  0.6615403E-06  0.2917705E+04  0.7818609E-02  0.8267629E-01
        2   -1    0    0  501    0  0.00000000000E+00  0.00000000000E+00  0.21314799182E+04  0.21314799182E+04  0.25500000920E-02 0.  1.
       -2   -1    0    0    0  501  0.00000000000E+00  0.00000000000E+00 -0.99848473689E+03  0.99848473689E+03  0.25500000920E-02 0. -1.
    10030    2    1    2    0    0  0.00000000000E+00  0.00000000000E+00  0.11329951813E+04  0.31299646551E+04  0.29177046906E+04 0.  0.
        2    1    3    3  502    0  0.98660679232E+03  0.10733833325E+04  0.62229522480E+03  0.15851801437E+04  0.25500000920E-02 0.  1.
       -2    1    3    3    0  502 -0.98660679232E+03 -0.10733833325E+04  0.51069995654E+03  0.15447845114E+04  0.25500000920E-02 0. -1.
</event>
<event>
 5   0  0.6513041E-06  0.2898103E+04  0.7818609E-02  0.8273442E-01
       -2   -1    0    0    0  501  0.00000000000E+00  0.00000000000E+00  0.13337912159E+04  0.13337912159E+04  0.25500000920E-02 0. -1.
        2   -1    0    0  501    0  0.00000000000E+00  0.00000000000E+00 -0.15742719780E+04  0.15742719780E+04  0.25500000920E-02 0.  1.
    10030    2    1    2    0    0  0.00000000000E+00  0.00000000000E+00 -0.24048076215E+03  0.29080631939E+04  0.28981029214E+04 0.  0.
        1    1    3    3  502    0  0.80912947671E+03 -0.11534664553E+04  0.21941188554E+03  0.14259442307E+04  0.50400001928E-02 0. -1.
       -1    1    3    3    0  502 -0.80912947671E+03  0.11534664553E+04 -0.45989264769E+03  0.14821189632E+04  0.50400001928E-02 0.  1.
</event>
<event>
 5   0  0.2336512E-06  0.2951403E+04  0.7818609E-02  0.8257746E-01
       -1   -1    0    0    0  501  0.00000000000E+00  0.00000000000E+00  0.14870600623E+04  0.14870600623E+04  0.50400001928E-02 0.  1.
        1   -1    0    0  501    0  0.00000000000E+00  0.00000000000E+00 -0.14644299259E+04  0.14644299259E+04  0.50400001928E-02 0. -1.
    10030    2    1    2    0    0  0.00000000000E+00  0.00000000000E+00  0.22630136355E+02  0.29514899882E+04  0.29514032302E+04 0.  0.
        4    1    3    3  502    0 -0.13893078246E+04 -0.34430457771E+03  0.37045202367E+03  0.14784986264E+04  0.12699999809E+01 0. -1.
       -4    1    3    3    0  502  0.13893078246E+04  0.34430457771E+03 -0.34782188732E+03  0.14729913618E+04  0.12699999809E+01 0.  1.
</event>
<event>
 5   0  0.6513041E-06  0.2904533E+04  0.7818609E-02  0.8271530E-01
       -2   -1    0    0    0  501  0.00000000000E+00  0.00000000000E+00  0.14831319778E+04  0.14831319778E+04  0.25500000920E-02 0. -1.
        2   -1    0    0  501    0  0.00000000000E+00  0.00000000000E+00 -0.14220430291E+04  0.14220430291E+04  0.25500000920E-02 0.  1.
    10030    2    1    2    0    0  0.00000000000E+00  0.00000000000E+00  0.61088948678E+02  0.29051750069E+04  0.29045326580E+04 0.  0.
        1    1    3    3  502    0  0.40027867391E+02 -0.11434144345E+04  0.92521346977E+03  0.14714002732E+04  0.50400001928E-02 0. -1.
       -1    1    3    3    0  502 -0.40027867391E+02  0.11434144345E+04 -0.86412452109E+03  0.14337747338E+04  0.50400001928E-02 0.  1.
</event>
<event>
 5   0  0.2429358E-06  0.2891663E+04  0.7818609E-02  0.8275362E-01
       -1   -1    0    0    0  501  0.00000000000E+00  0.00000000000E+00  0.83940472652E+03  0.83940472654E+03  0.50400001928E-02 0. -1.
        1   -1    0    0  501    0  0.00000000000E+00  0.00000000000E+00 -0.24903711156E+04  0.24903711156E+04  0.50400001928E-02 0.  1.
    10030    2    1    2    0    0  0.00000000000E+00  0.00000000000E+00 -0.16509663891E+04  0.33297758421E+04  0.28916633865E+04 0.  0.
        2    1    3    3  502    0 -0.11397084598E+04  0.83853849192E+03 -0.11677489383E+04  0.18345898067E+04  0.25500000920E-02 0.  1.
       -2    1    3    3    0  502  0.11397084598E+04 -0.83853849192E+03 -0.48321745080E+03  0.14951860355E+04  0.25500000920E-02 0. -1.
</event>
<event>
 5   0  0.6393633E-06  0.2879127E+04  0.7818609E-02  0.8279115E-01
        2   -1    0    0  501    0  0.00000000000E+00  0.00000000000E+00  0.16888216206E+04  0.16888216206E+04  0.25500000920E-02 0. -1.
       -2   -1    0    0    0  501  0.00000000000E+00  0.00000000000E+00 -0.12270939756E+04  0.12270939756E+04  0.25500000920E-02 0.  1.
    10030    2    1    2    0    0  0.00000000000E+00  0.00000000000E+00  0.46172764502E+03  0.29159155962E+04  0.28791268374E+04 0.  0.
        4    1    3    3  502    0 -0.12334475400E+04  0.47834080102E+02  0.98104457217E+03  0.15767469672E+04  0.12699999809E+01 0. -1.
       -4    1    3    3    0  502  0.12334475400E+04 -0.47834080102E+02 -0.51931692716E+03  0.13391686290E+04  0.12699999809E+01 0.  1.
</event>
<event>
 5   0  0.6612533E-06  0.3037105E+04  0.7818609E-02  0.8233214E-01
       -2   -1    0    0    0  501  0.00000000000E+00  0.00000000000E+00  0.86400319818E+03  0.86400319818E+03  0.25500000920E-02 0. -1.
        2   -1    0    0  501    0  0.00000000000E+00  0.00000000000E+00 -0.26689728382E+04  0.26689728382E+04  0.25500000920E-02 0.  1.
    10030    2    1    2    0    0  0.00000000000E+00  0.00000000000E+00 -0.18049696400E+04  0.35329760364E+04  0.30371045870E+04 0.  0.
        3    1    3    3  502    0  0.13004146553E+03  0.10344818058E+04 -0.21868002286E+04  0.24226346484E+04  0.10100000352E+00 0.  1.
       -3    1    3    3    0  502 -0.13004146553E+03 -0.10344818058E+04  0.38183058863E+03  0.11103413880E+04  0.10100000352E+00 0. -1.
</event>
<event>
 5   0  0.2429358E-06  0.2901496E+04  0.7818609E-02  0.8272433E-01
       -1   -1    0    0    0  501  0.00000000000E+00  0.00000000000E+00  0.17435355188E+04  0.17435355188E+04  0.50400001928E-02 0.  1.
        1   -1    0    0  501    0  0.00000000000E+00  0.00000000000E+00 -0.12071274502E+04  0.12071274502E+04  0.50400001928E-02 0. -1.
    10030    2    1    2    0    0  0.00000000000E+00  0.00000000000E+00  0.53640806860E+03  0.29506629691E+04  0.29014958799E+04 0.  0.
        2    1    3    3  502    0  0.11637200522E+04 -0.15526956723E+02  0.11490127167E+04  0.16354557987E+04  0.25500000920E-02 0.  1.
       -2    1    3    3    0  502 -0.11637200522E+04  0.15526956723E+02 -0.61260464807E+03  0.13152071704E+04  0.25500000920E-02 0. -1.
</event>
<event>
 5   0  0.2336512E-06  0.2845510E+04  0.7818609E-02  0.8289277E-01
       -1   -1    0    0    0  501  0.00000000000E+00  0.00000000000E+00  0.13345817344E+04  0.13345817344E+04  0.50400001928E-02 0. -1.
        1   -1    0    0  501    0  0.00000000000E+00  0.00000000000E+00 -0.15167535194E+04  0.15167535194E+04  0.50400001928E-02 0.  1.
    10030    2    1    2    0    0  0.00000000000E+00  0.00000000000E+00 -0.18217178492E+03  0.28513352538E+04  0.28455098261E+04 0.  0.
        4    1    3    3  502    0 -0.25569771978E+03  0.84211852999E+03  0.10290957995E+04  0.13540992282E+04  0.12699999809E+01 0.  1.
       -4    1    3    3    0  502  0.25569771978E+03 -0.84211852999E+03 -0.12112675844E+04  0.14972360256E+04  0.12699999809E+01 0. -1.
</event>
<event>
 5   0  0.2508094E-06  0.2906668E+04  0.7818609E-02  0.8270896E-01
        1   -1    0    0  501    0  0.00000000000E+00  0.00000000000E+00  0.12000188711E+04  0.12000188711E+04  0.50400001928E-02 0.  1.
       -1   -1    0    0    0  501  0.00000000000E+00  0.00000000000E+00 -0.17601224068E+04  0.17601224068E+04  0.50400001928E-02 0. -1.
    10030    2    1    2    0    0  0.00000000000E+00  0.00000000000E+00 -0.56010353571E+03  0.29601412779E+04  0.29066682670E+04 0.  0.
        3    1    3    3  502    0 -0.11345323363E+04  0.19967305469E+03  0.62233453979E+03  0.13093254906E+04  0.10100000352E+00 0.  1.
       -3    1    3    3    0  502  0.11345323363E+04 -0.19967305469E+03 -0.11824380755E+04  0.16508157872E+04  0.10100000352E+00 0. -1.
</event>
<event>
 5   0  0.2508094E-06  0.2842333E+04  0.7818609E-02  0.8290245E-01
       -1   -1    0    0    0  501  0.00000000000E+00  0.00000000000E+00  0.11787828693E+04  0.11787828693E+04  0.50400001928E-02 0.  1.
        1   -1    0    0  501    0  0.00000000000E+00  0.00000000000E+00 -0.17133897501E+04  0.17133897501E+04  0.50400001928E-02 0. -1.
    10030    2    1    2    0    0  0.00000000000E+00  0.00000000000E+00 -0.53460688075E+03  0.28921726194E+04  0.28423331866E+04 0.  0.
        3    1    3    3  502    0  0.90766835350E+03 -0.11673745804E+03 -0.13736706461E+04  0.16505939926E+04  0.10100000352E+00 0. -1.
       -3    1    3    3    0  502 -0.90766835350E+03  0.11673745804E+03  0.83906376539E+03  0.12415786268E+04  0.10100000352E+00 0.  1.
</event>
<event>
 5   0  0.6513041E-06  0.2928997E+04  0.7818609E-02  0.8264302E-01
       -2   -1    0    0    0  501  0.00000000000E+00  0.00000000000E+00  0.13945332191E+04  0.13945332191E+04  0.25500000920E-02 0.  1.
        2   -1    0    0  501    0  0.00000000000E+00  0.00000000000E+00 -0.15379742637E+04  0.15379742637E+04  0.25500000920E-02 0. -1.
    10030    2    1    2    0    0  0.00000000000E+00  0.00000000000E+00 -0.14344104452E+03  0.29325074828E+04  0.29289972351E+04 0.  0.
        1    1    3    3  502    0 -0.90435137159E+03  0.10859241788E+04  0.31302308749E+03  0.14474343435E+04  0.50400001928E-02 0. -1.
       -1    1    3    3    0  502  0.90435137159E+03 -0.10859241788E+04 -0.45646413201E+03  0.14850731393E+04  0.50400001928E-02 0.  1.
</event>
<event>
 5   0  0.6733688E-06  0.2910130E+04  0.7818609E-02  0.8269870E-01
        2   -1    0    0  501    0  0.00000000000E+00  0.00000000000E+00  0.27867741066E+04  0.27867741066E+04  0.25500000920E-02 0.  1.
       -2   -1    0    0    0  501  0.00000000000E+00  0.00000000000E+00 -0.75973642404E+03  0.75973642404E+03  0.25500000920E-02 0. -1.
    10030    2    1    2    0    0  0.00000000000E+00  0.00000000000E+00  0.20270376826E+04  0.35465105307E+04  0.29101297527E+04 0.  0.
        5    1    3    3  502    0 -0.12632137469E+04  0.15951032561E+03  0.15520345960E+03  0.12826779479E+04  0.46999998093E+01 0. -1.
       -5    1    3    3    0  502  0.12632137469E+04 -0.15951032561E+03  0.18718342230E+04  0.22638325827E+04  0.46999998093E+01 0.  1.
</event>
<event>
 5   0  0.6615403E-06  0.2849098E+04  0.7818609E-02  0.8288185E-01
        2   -1    0    0  501    0  0.00000000000E+00  0.00000000000E+00  0.23447654117E+04  0.23447654117E+04  0.25500000920E-02 0.  1.
       -2   -1    0    0    0  501  0.00000000000E+00  0.00000000000E+00 -0.86547676028E+03  0.86547676028E+03  0.25500000920E-02 0. -1.
    10030    2    1    2    0    0  0.00000000000E+00  0.00000000000E+00  0.14792886514E+04  0.32102421720E+04  0.28490980834E+04 0.  0.
        2    1    3    3  502    0 -0.11121606181E+04 -0.64508898243E+03  0.14308334413E+04  0.19236229808E+04  0.25500000920E-02 0. -1.
       -2    1    3    3    0  502  0.11121606181E+04  0.64508898243E+03  0.48455210160E+02  0.12866191912E+04  0.25500000920E-02 0.  1.
</event>
<event>
 5   0  0.2474769E-06  0.2937561E+04  0.7818609E-02  0.8261789E-01
       -1   -1    0    0    0  501  0.00000000000E+00  0.00000000000E+00  0.92357193818E+03  0.92357193819E+03  0.50400001928E-02 0.  1.
        1   -1    0    0  501    0  0.00000000000E+00  0.00000000000E+00 -0.23358400150E+04  0.23358400150E+04  0.50400001928E-02 0. -1.
    10030    2    1    2    0    0  0.00000000000E+00  0.00000000000E+00 -0.14122680768E+04  0.32594119532E+04  0.29375610904E+04 0.  0.
        1    1    3    3  502    0  0.18049962880E+03 -0.31401915986E+03  0.87324293202E+03  0.94537895423E+03  0.50400001928E-02 0.  1.
       -1    1    3    3    0  502 -0.18049962880E+03  0.31401915986E+03 -0.22855110089E+04  0.23140329990E+04  0.50400001928E-02 0. -1.
</event>
<event>
 5   0  0.6615403E-06  0.2872571E+04  0.7818609E-02  0.8281085E-01
       -2   -1    0    0    0  501  0.00000000000E+00  0.00000000000E+00  0.84671078593E+03  0.84671078593E+03  0.25500000920E-02 0. -1.
        2   -1    0    0  501    0  0.00000000000E+00  0.00000000000E+00 -0.24363882464E+04  0.24363882464E+04  0.25500000920E-02 0.  1.
    10030    2    1    2    0    0  0.00000000000E+00  0.00000000000E+00 -0.15896774605E+04  0.32830990324E+04  0.28725711180E+04 0.  0.
        2    1    3    3  502    0  0.12740947082E+04 -0.45878936402E+03 -0.24777697514E+03  0.13766620629E+04  0.25500000920E-02 0. -1.
       -2    1    3    3    0  502 -0.12740947082E+04  0.45878936402E+03 -0.13419004854E+04  0.19064369695E+04  0.25500000920E-02 0.  1.
</event>
<event>
 5   0  0.2474769E-06  0.2980129E+04  0.7818609E-02  0.8249428E-01
       -1   -1    0    0    0  501  0.00000000000E+00  0.00000000000E+00  0.11064340921E+04  0.11064340921E+04  0.50400001928E-02 0. -1.
        1   -1    0    0  501    0  0.00000000000E+00  0.00000000000E+00 -0.20067093036E+04  0.20067093036E+04  0.50400001928E-02 0.  1.
    10030    2    1    2    0    0  0.00000000000E+00  0.00000000000E+00 -0.90027521152E+03  0.31131433957E+04  0.29801285787E+04 0.  0.
        1    1    3    3  502    0 -0.27834917653E+03  0.13513715629E+04  0.13765648696E+03  0.13865903048E+04  0.50400001928E-02 0. -1.
       -1    1    3    3    0  502  0.27834917653E+03 -0.13513715629E+04 -0.10379316985E+04  0.17265530909E+04  0.50400001928E-02 0.  1.
</event>
<event>
 5   0  0.2348684E-06  0.2901808E+04  0.7818609E-02  0.8272340E-01
        1   -1    0    0  501    0  0.00000000000E+00  0.00000000000E+00  0.13636588561E+04  0.13636588561E+04  0.50400001928E-02 0.  1.
       -1   -1    0    0    0  501  0.00000000000E+00  0.00000000000E+00 -0.15437310594E+04  0.15437310594E+04  0.50400001928E-02 0. -1.
    10030    2    1    2    0    0  0.00000000000E+00  0.00000000000E+00 -0.18007220329E+03  0.29073899155E+04  0.29018080781E+04 0.  0.
        5    1    3    3  502    0 -0.11040586597E+04 -0.27571642256E+03  0.81177046090E+03  0.13978406350E+04  0.46999998093E+01 0.  1.
       -5    1    3    3    0  502  0.11040586597E+04  0.27571642256E+03 -0.99184266419E+03  0.15095492805E+04  0.46999998093E+01 0. -1.
</event>
<event>
 5   0  0.6393633E-06  0.2871706E+04  0.7818609E-02  0.8281346E-01
        2   -1    0    0  501    0  0.00000000000E+00  0.00000000000E+00  0.12974920772E+04  0.12974920772E+04  0.25500000920E-02 0. -1.
       -2   -1    0    0    0  501  0.00000000000E+00  0.00000000000E+00 -0.15889684874E+04  0.15889684874E+04  0.25500000920E-02 0.  1.
    10030    2    1    2    0    0  0.00000000000E+00  0.00000000000E+00 -0.29147641024E+03  0.28864605646E+04  0.28717061293E+04 0.  0.
        4    1    3    3  502    0 -0.92714047006E+03 -0.12170244714E+03  0.94947998919E+03  0.13326345334E+04  0.12699999809E+01 0. -1.
       -4    1    3    3    0  502  0.92714047006E+03  0.12170244714E+03 -0.12409563994E+04  0.15538260311E+04  0.12699999809E+01 0.  1.
</event>
<event>
 5   0  0.2508094E-06  0.2780469E+04  0.7818609E-02  0.8309358E-01
       -1   -1    0    0    0  501  0.00000000000E+00  0.00000000000E+00  0.30023998473E+04  0.30023998474E+04  0.50400001928E-02 0. -1.
        1   -1    0    0  501    0  0.00000000000E+00  0.00000000000E+00 -0.64373559277E+03  0.64373559278E+03  0.50400001928E-02 0.  1.
    10030    2    1    2    0    0  0.00000000000E+00  0.00000000000E+00  0.23586642546E+04  0.36461354401E+04  0.27804687702E+04 0.  0.
        3    1    3    3  502    0  0.14499406547E+03 -0.56715903253E+03  0.28328975929E+04  0.28927498041E+04  0.10100000352E+00 0. -1.
       -3    1    3    3    0  502 -0.14499406547E+03  0.56715903253E+03 -0.47423333831E+03  0.75338563602E+03  0.10100000352E+00 0.  1.
</event>
<event>
 5   0  0.2159500E-06  0.2887981E+04  0.7818609E-02  0.8276463E-01
        3   -1    0    0  501    0  0.00000000000E+00  0.00000000000E+00  0.82635133975E+03  0.82635134593E+03  0.10100000352E+00 0. -1.
       -3   -1    0    0    0  501  0.00000000000E+00  0.00000000000E+00 -0.25232709168E+04  0.25232709188E+04  0.10100000352E+00 0.  1.
    10030    2    1    2    0    0  0.00000000000E+00  0.00000000000E+00 -0.16969195771E+04  0.33496222648E+04  0.28879808285E+04 0.  0.
        3    1    3    3  502    0 -0.95678081787E+03 -0.10811945098E+04 -0.81783439190E+03  0.16592962979E+04  0.10100000352E+00 0. -1.
       -3    1    3    3    0  502  0.95678081787E+03  0.10811945098E+04 -0.87908518516E+03  0.16903259669E+04  0.10100000352E+00 0.  1.
</event>
<event>
 5   0  0.2474769E-06  0.2898432E+04  0.7818609E-02  0.8273344E-01
       -1   -1    0    0    0  501  0.00000000000E+00  0.00000000000E+00  0.14885761038E+04  0.14885761038E+04  0.50400001928E-02 0.  1.
        1   -1    0    0  501    0  0.00000000000E+00  0.00000000000E+00 -0.14108967395E+04  0.14108967395E+04  0.50400001928E-02 0. -1.
    10030    2    1    2    0    0  0.00000000000E+00  0.00000000000E+00  0.77679364356E+02  0.28994728433E+04  0.28984321081E+04 0.  0.
        1    1    3    3  502    0 -0.58354063926E+03  0.13207906923E+04 -0.84571712160E+02  0.14464301245E+04  0.50400001928E-02 0. -1.
       -1    1    3    3    0  502  0.58354063926E+03 -0.13207906923E+04  0.16225107652E+03  0.14530427188E+04  0.50400001928E-02 0.  1.
</event>
<event>
 5   0  0.2429358E-06  0.2794050E+04  0.7818609E-02  0.8305118E-01
        1   -1    0    0  501    0  0.00000000000E+00  0.00000000000E+00  0.27522482458E+04  0.27522482458E+04  0.50400001928E-02 0.  1.
       -1   -1    0    0    0  501  0.00000000000E+00  0.00000000000E+00 -0.70912143744E+03  0.70912143745E+03  0.50400001928E-02 0. -1.
    10030    2    1    2    0    0  0.00000000000E+00  0.00000000000E+00  0.20431268083E+04  0.34613696832E+04  0.27940495574E+04 0.  0.
        2    1    3    3  502    0 -0.19243358250E+03  0.17458012036E+03  0.27220524781E+04  0.27344247285E+04  0.25500000920E-02 0.  1.
       -2    1    3    3    0  502  0.19243358250E+03 -0.17458012036E+03 -0.67892566980E+03  0.72694495473E+03  0.25500000920E-02 0. -1.
</event>
<event>
 5   0  0.2336512E-06  0.2934079E+04  0.7818609E-02  0.8262810E-01
        1   -1    0    0  501    0  0.00000000000E+00  0.00000000000E+00  0.16782025059E+04  0.16782025059E+04  0.50400001928E-02 0.  1.
       -1   -1    0    0    0  501  0.00000000000E+00  0.00000000000E+00 -0.12824461604E+04  0.12824461605E+04  0.50400001928E-02 0. -1.
    10030    2    1    2    0    0  0.00000000000E+00  0.00000000000E+00  0.39575634549E+03  0.29606486664E+04  0.29340786358E+04 0.  0.
        4    1    3    3  502    0 -0.13248203003E+04  0.61355465615E+03  0.53035259532E+02  0.14609628660E+04  0.12699999809E+01 0.  1.
       -4    1    3    3    0  502  0.13248203003E+04 -0.61355465615E+03  0.34272108596E+03  0.14996858004E+04  0.12699999809E+01 0. -1.
</event>
<event>
 5   0  0.2159500E-06  0.2886422E+04  0.7818609E-02  0.8276929E-01
       -3   -1    0    0    0  501  0.00000000000E+00  0.00000000000E+00  0.14289047745E+04  0.14289047780E+04  0.10100000352E+00 0.  1.
        3   -1    0    0  501    0  0.00000000000E+00  0.00000000000E+00 -0.14576604194E+04  0.14576604229E+04  0.10100000352E+00 0. -1.
    10030    2    1    2    0    0  0.00000000000E+00  0.00000000000E+00 -0.28755644932E+02  0.28865652009E+04  0.28864219671E+04 0.  0.
        2    1    3    3  502    0  0.88658941415E+03  0.10254851837E+04 -0.50957639611E+03  0.14482157142E+04  0.25500000920E-02 0.  1.
       -2    1    3    3    0  502 -0.88658941415E+03 -0.10254851837E+04  0.48082075118E+03  0.14383494868E+04  0.25500000920E-02 0. -1.
</event>
<event>
 5   0  0.6513041E-06  0.2916912E+04  0.7818609E-02  0.8267863E-01
       -2   -1    0    0    0  501  0.00000000000E+00  0.00000000000E+00  0.10464899224E+04  0.10464899224E+04  0.25500000920E-02 0. -1.
        2   -1    0    0  501    0  0.00000000000E+00  0.00000000000E+00 -0.20325987633E+04  0.20325987633E+04  0.25500000920E-02 0.  1.
    10030    2    1    2    0    0  0.00000000000E+00  0.00000000000E+00 -0.98610884096E+03  0.30790886857E+04  0.29169121496E+04 0.  0.
        1    1    3    3  502    0 -0.14461878594E+04  0.16574262452E+03 -0.58843394035E+03  0.15700905848E+04  0.50400001928E-02 0. -1.
       -1    1    3    3    0  502  0.14461878594E+04 -0.16574262452E+03 -0.39767490061E+03  0.15089981010E+04  0.50400001928E-02 0.  1.
</event>
<event>
 5   0  0.2429358E-06  0.2919539E+04  0.7818609E-02  0.8267088E-01
       -1   -1    0    0    0  501  0.00000000000E+00  0.00000000000E+00  0.12172180305E+04  0.12172180305E+04  0.50400001928E-02 0.  1.
        1   -1    0    0  501    0  0.00000000000E+00  0.00000000000E+00 -0.17506531220E+04  0.17506531220E+04  0.50400001928E-02 0. -1.
    10030    2    1    2    0    0  0.00000000000E+00  0.00000000000E+00 -0.53343509146E+03  0.29678711525E+04  0.29195386932E+04 0.  0.
        2    1    3    3  502    0 -0.63160329877E+03 -0.10614853968E+04 -0.10575766681E+04  0.16260819117E+04  0.25500000920E-02 0. -1.
       -2    1    3    3    0  502  0.63160329877E+03  0.10614853968E+04  0.52414157664E+03  0.13417892409E+04  0.25500000920E-02 0.  1.
</event>
<event>
 5   0  0.6612533E-06  0.2884163E+04  0.7818609E-02  0.8277605E-01
        2   -1    0    0  501    0  0.00000000000E+00  0.00000000000E+00  0.18585058154E+04  0.18585058154E+04  0.25500000920E-02 0.  1.
       -2   -1    0    0    0  501  0.00000000000E+00  0.00000000000E+00 -0.11189631929E+04  0.11189631929E+04  0.25500000920E-02 0. -1.
    10030    2    1    2    0    0  0.00000000000E+00  0.00000000000E+00  0.73954262253E+03  0.29774690083E+04  0.28841633805E+04 0.  0.
        3    1    3    3  502    0  0.30703086121E+03 -0.13881695585E+04  0.12046993637E+03  0.14268131233E+04  0.10100000352E+00 0. -1.
       -3    1    3    3    0  502 -0.30703086121E+03  0.13881695585E+04  0.61907268616E+03  0.15506558851E+04  0.10100000352E+00 0.  1.
</event>
<event>
 5   0  0.2336512E-06  0.2878736E+04  0.7818609E-02  0.8279232E-01
        1   -1    0    0  501    0  0.00000000000E+00  0.00000000000E+00  0.19566015504E+04  0.19566015504E+04  0.50400001928E-02 0. -1.
       -1   -1    0    0    0  501  0.00000000000E+00  0.00000000000E+00 -0.10588665481E+04  0.10588665481E+04  0.50400001928E-02 0.  1.
    10030    2    1    2    0    0  0.00000000000E+00  0.00000000000E+00  0.89773500232E+03  0.30154680985E+04  0.28787357848E+04 0.  0.
        4    1    3    3  502    0 -0.11921822879E+04  0.12611218393E+03  0.12833064301E+04  0.17561548613E+04  0.12699999809E+01 0.  1.
       -4    1    3    3    0  502  0.11921822879E+04 -0.12611218393E+03 -0.38557142778E+03  0.12593132372E+04  0.12699999809E+01 0. -1.
</event>
<event>
 5   0  0.6513041E-06  0.2898569E+04  0.7818609E-02  0.8273303E-01
       -2   -1    0    0    0  501  0.00000000000E+00  0.00000000000E+00  0.11411995131E+04  0.11411995131E+04  0.25500000920E-02 0.  1.
        2   -1    0    0  501    0  0.00000000000E+00  0.00000000000E+00 -0.18405417238E+04  0.18405417238E+04  0.25500000920E-02 0. -1.
    10030    2    1    2    0    0  0.00000000000E+00  0.00000000000E+00 -0.69934221069E+03  0.29817412368E+04  0.28985688323E+04 0.  0.
        1    1    3    3  502    0 -0.14286026311E+04 -0.12908885369E+03 -0.13671421815E+03  0.14409233801E+04  0.50400001928E-02 0.  1.
       -1    1    3    3    0  502  0.14286026311E+04  0.12908885369E+03 -0.56262799254E+03  0.15408178568E+04  0.50400001928E-02 0. -1.
</event>
<event>
 5   0  0.2508094E-06  0.2881307E+04  0.7818609E-02  0.8278461E-01
        1   -1    0    0  501    0  0.00000000000E+00  0.00000000000E+00  0.13121056286E+04  0.13121056286E+04  0.50400001928E-02 0.  1.
       -1   -1    0    0    0  501  0.00000000000E+00  0.00000000000E+00 -0.15817950532E+04  0.15817950532E+04  0.50400001928E-02 0. -1.
    10030    2    1    2    0    0  0.00000000000E+00  0.00000000000E+00 -0.26968942462E+03  0.28939006818E+04  0.28813067817E+04 0.  0.
        3    1    3    3  502    0  0.45527014430E+03 -0.89953879123E+03  0.89875066206E+03  0.13506271521E+04  0.10100000352E+00 0.  1.
       -3    1    3    3    0  502 -0.45527014430E+03  0.89953879123E+03 -0.11684400867E+04  0.15432735297E+04  0.10100000352E+00 0. -1.
</event>
<event>
 5   0  0.6393633E-06  0.2890551E+04  0.7818609E-02  0.8275694E-01
        2   -1    0    0  501    0  0.00000000000E+00  0.00000000000E+00  0.12285614752E+04  0.12285614752E+04  0.25500000920E-02 0.  1.
       -2   -1    0    0    0  501  0.00000000000E+00  0.00000000000E+00 -0.17002176697E+04  0.17002176697E+04  0.25500000920E-02 0. -1.
    10030    2    1    2    0    0  0.00000000000E+00  0.00000000000E+00 -0.47165619455E+03  0.29287791449E+04  0.28905514549E+04 0.  0.
        4    1    3    3  502    0 -0.82954272696E+03 -0.15485420397E+03 -0.14246737477E+04  0.16558435495E+04  0.12699999809E+01 0. -1.
       -4    1    3    3    0  502  0.82954272696E+03  0.15485420397E+03  0.95301755313E+03  0.12729355953E+04  0.12699999809E+01 0.  1.
</event>
<event>
 5   0  0.6393633E-06  0.2898253E+04  0.7818609E-02  0.8273397E-01
       -2   -1    0    0    0  501  0.00000000000E+00  0.00000000000E+00  0.16508458730E+04  0.16508458730E+04  0.25500000920E-02 0.  1.
        2   -1    0    0  501    0  0.00000000000E+00  0.00000000000E+00 -0.12720555233E+04  0.12720555233E+04  0.25500000920E-02 0. -1.
    10030    2    1    2    0    0  0.00000000000E+00  0.00000000000E+00  0.37879034967E+03  0.29229013963E+04  0.28982529985E+04 0.  0.
        4    1    3    3  502    0  0.73708299465E+03 -0.12249406521E+04 -0.49675839629E+02  0.14304685401E+04  0.12699999809E+01 0. -1.
       -4    1    3    3    0  502 -0.73708299465E+03  0.12249406521E+04  0.42846618930E+03  0.14924328563E+04  0.12699999809E+01 0.  1.
</event>
<event>
 5   0  0.6733688E-06  0.2860550E+04  0.7818609E-02  0.8284713E-01
       -2   -1    0    0    0  501  0.00000000000E+00  0.00000000000E+00  0.13279550814E+04  0.13279550814E+04  0.25500000920E-02 0. -1.
        2   -1    0    0  501    0  0.00000000000E+00  0.00000000000E+00 -0.15404790060E+04  0.15404790060E+04  0.25500000920E-02 0.  1.
    10030    2    1    2    0    0  0.00000000000E+00  0.00000000000E+00 -0.21252392461E+03  0.28684340873E+04  0.28605502434E+04 0.  0.
        5    1    3    3  502    0 -0.31138684513E+03  0.25709214854E+03  0.12696007278E+04  0.13322785888E+04  0.46999998093E+01 0. -1.
       -5    1    3    3    0  502  0.31138684513E+03 -0.25709214854E+03 -0.14821246524E+04  0.15361554985E+04  0.46999998093E+01 0.  1.
</event>
<event>
 5   0  0.6615403E-06  0.3089005E+04  0.7818609E-02  0.8218762E-01
        2   -1    0    0  501    0  0.00000000000E+00  0.00000000000E+00  0.20099506618E+04  0.20099506618E+04  0.25500000920E-02 0. -1.
       -2   -1    0    0    0  501  0.00000000000E+00  0.00000000000E+00 -0.11868388981E+04  0.11868388981E+04  0.25500000920E-02 0.  1.
    10030    2    1    2    0    0  0.00000000000E+00  0.00000000000E+00  0.82311176378E+03  0.31967895599E+04  0.30890047774E+04 0.  0.
        2    1    3    3  502    0  0.56134506365E+03 -0.30256349951E+02  0.19003148679E+04  0.19817215557E+04  0.25500000920E-02 0. -1.
       -2    1    3    3    0  502 -0.56134506365E+03  0.30256349951E+02 -0.10772031041E+04  0.12150680042E+04  0.25500000920E-02 0.  1.
</event>
<event>
 5   0  0.6612533E-06  0.2870918E+04  0.7818609E-02  0.8281583E-01
       -2   -1    0    0    0  501  0.00000000000E+00  0.00000000000E+00  0.10181538466E+04  0.10181538466E+04  0.25500000920E-02 0. -1.
        2   -1    0    0  501    0  0.00000000000E+00  0.00000000000E+00 -0.20238022693E+04  0.20238022693E+04  0.25500000920E-02 0.  1.
    10030    2    1    2    0    0  0.00000000000E+00  0.00000000000E+00 -0.10056484227E+04  0.30419561159E+04  0.28709176688E+04 0.  0.
        3    1    3    3  502    0 -0.73847139627E+03 -0.56354895001E+03 -0.16623776103E+04  0.19043179229E+04  0.10100000352E+00 0.  1.
       -3    1    3    3    0  502  0.73847139627E+03  0.56354895001E+03  0.65672918760E+03  0.11376381930E+04  0.10100000352E+00 0. -1.
</event>
<event>
 5   0  0.6612533E-06  0.2882359E+04  0.7818609E-02  0.8278145E-01
       -2   -1    0    0    0  501  0.00000000000E+00  0.00000000000E+00  0.14765780073E+04  0.14765780073E+04  0.25500000920E-02 0. -1.
        2   -1    0    0  501    0  0.00000000000E+00  0.00000000000E+00 -0.14066299866E+04  0.14066299866E+04  0.25500000920E-02 0.  1.
    10030    2    1    2    0    0  0.00000000000E+00  0.00000000000E+00  0.69948020705E+02  0.28832079940E+04  0.28823593827E+04 0.  0.
        3    1    3    3  502    0  0.12119746189E+04  0.40548094866E+03  0.70127943551E+03  0.14577688889E+04  0.10100000352E+00 0. -1.
       -3    1    3    3    0  502 -0.12119746189E+04 -0.40548094866E+03 -0.63133141481E+03  0.14254391050E+04  0.10100000352E+00 0.  1.
</event>
<event>
 5   0  0.6615403E-06  0.2908854E+04  0.7818609E-02  0.8270248E-01
       -2   -1    0    0    0  501  0.00000000000E+00  0.00000000000E+00  0.90962822274E+03  0.90962822274E+03  0.25500000920E-02 0. -1.
        2   -1    0    0  501    0  0.00000000000E+00  0.00000000000E+00 -0.23255188768E+04  0.23255188768E+04  0.25500000920E-02 0.  1.
    10030    2    1    2    0    0  0.00000000000E+00  0.00000000000E+00 -0.14158906540E+04  0.32351470995E+04  0.29088537968E+04 0.  0.
        2    1    3    3  502    0  0.27416964163E+03  0.10562123445E+04 -0.17773696191E+04  0.20856165208E+04  0.25500000920E-02 0.  1.
       -2    1    3    3    0  502 -0.27416964163E+03 -0.10562123445E+04  0.36147896507E+03  0.11495305787E+04  0.25500000920E-02 0. -1.
</event>
<event>
 5   0  0.2159500E-06  0.2896197E+04  0.7818609E-02  0.8274010E-01
        4   -1    0    0  501    0  0.00000000000E+00  0.00000000000E+00  0.17428925012E+04  0.17428929639E+04  0.12699999809E+01 0.  1.
       -4   -1    0    0    0  501  0.00000000000E+00  0.00000000000E+00 -0.12031654675E+04  0.12031661378E+04  0.12699999809E+01 0. -1.
    10030    2    1    2    0    0  0.00000000000E+00  0.00000000000E+00  0.53972703368E+03  0.29460591016E+04  0.28961973274E+04 0.  0.
        5    1    3    3  502    0 -0.71790907817E+02  0.13975119358E+04  0.64880096296E+03  0.15424520494E+04  0.46999998093E+01 0.  1.
       -5    1    3    3    0  502  0.71790907817E+02 -0.13975119358E+04 -0.10907392929E+03  0.14036070522E+04  0.46999998093E+01 0. -1.
</event>
<event>
 5   0  0.6612533E-06  0.2908399E+04  0.7818609E-02  0.8270383E-01
       -2   -1    0    0    0  501  0.00000000000E+00  0.00000000000E+00  0.21920840435E+04  0.21920840435E+04  0.25500000920E-02 0. -1.
        2   -1    0    0  501    0  0.00000000000E+00  0.00000000000E+00 -0.96469687327E+03  0.96469687328E+03  0.25500000920E-02 0.  1.
    10030    2    1    2    0    0  0.00000000000E+00  0.00000000000E+00  0.12273871702E+04  0.31567809168E+04  0.29083993005E+04 0.  0.
        3    1    3    3  502    0  0.12249096417E+04  0.16061595075E+03 -0.21895545108E+03  0.12546484024E+04  0.10100000352E+00 0.  1.
       -3    1    3    3    0  502 -0.12249096417E+04 -0.16061595075E+03  0.14463426213E+04  0.19021325144E+04  0.10100000352E+00 0. -1.
</event>
<event>
 5   0  0.2336512E-06  0.2886953E+04  0.7818609E-02  0.8276770E-01
        1   -1    0    0  501    0  0.00000000000E+00  0.00000000000E+00  0.17731794456E+04  0.17731794456E+04  0.50400001928E-02 0. -1.
       -1   -1    0    0    0  501  0.00000000000E+00  0.00000000000E+00 -0.11750779115E+04  0.11750779116E+04  0.50400001928E-02 0.  1.
    10030    2    1    2    0    0  0.00000000000E+00  0.00000000000E+00  0.59810153404E+03  0.29482573571E+04  0.28869527185E+04 0.  0.
        4    1    3    3  502    0 -0.19069102038E+03 -0.36218162261E+03 -0.11145701691E+04  0.11873528826E+04  0.12699999809E+01 0.  1.
       -4    1    3    3    0  502  0.19069102038E+03  0.36218162261E+03  0.17126717031E+04  0.17609044746E+04  0.12699999809E+01 0. -1.
</event>
<event>
 5   0  0.6513041E-06  0.2904841E+04  0.7818609E-02  0.8271439E-01
        2   -1    0    0  501    0  0.00000000000E+00  0.00000000000E+00  0.20046811519E+04  0.20046811519E+04  0.25500000920E-02 0. -1.
       -2   -1    0    0    0  501  0.00000000000E+00  0.00000000000E+00 -0.10522997000E+04  0.10522997000E+04  0.25500000920E-02 0.  1.
    10030    2    1    2    0    0  0.00000000000E+00  0.00000000000E+00  0.95238145191E+03  0.30569808519E+04  0.29048410454E+04 0.  0.
        1    1    3    3  502    0 -0.11080048874E+04  0.12523519675E+01  0.14644421603E+04  0.18363733933E+04  0.50400001928E-02 0. -1.
       -1    1    3    3    0  502  0.11080048874E+04 -0.12523519675E+01 -0.51206070838E+03  0.12206074586E+04  0.50400001928E-02 0.  1.
</event>
<event>
 5   0  0.6615403E-06  0.2896671E+04  0.7818609E-02  0.8273869E-01
        2   -1    0    0  501    0  0.00000000000E+00  0.00000000000E+00  0.94891903114E+03  0.94891903114E+03  0.25500000920E-02 0.  1.
       -2   -1    0    0    0  501  0.00000000000E+00  0.00000000000E+00 -0.22105954117E+04  0.22105954117E+04  0.25500000920E-02 0. -1.
    10030    2    1    2    0    0  0.00000000000E+00  0.00000000000E+00 -0.12616763805E+04  0.31595144428E+04  0.28966712318E+04 0.  0.
        2    1    3    3  502    0 -0.26602887952E+03 -0.86682700715E+03 -0.18627057863E+04  0.20716740263E+04  0.25500000920E-02 0. -1.
       -2    1    3    3    0  502  0.26602887952E+03  0.86682700715E+03  0.60102940579E+03  0.10878404165E+04  0.25500000920E-02 0.  1.
</event>
<event>
 5   0  0.2429358E-06  0.2908081E+04  0.7818609E-02  0.8270477E-01
        1   -1    0    0  501    0  0.00000000000E+00  0.00000000000E+00  0.83248370130E+03  0.83248370132E+03  0.50400001928E-02 0. -1.
       -1   -1    0    0    0  501  0.00000000000E+00  0.00000000000E+00 -0.25396702049E+04  0.25396702049E+04  0.50400001928E-02 0.  1.
    10030    2    1    2    0    0  0.00000000000E+00  0.00000000000E+00 -0.17071865036E+04  0.33721539062E+04  0.29080811903E+04 0.  0.
        2    1    3    3  502    0  0.13623144219E+02  0.28711488009E+03 -0.25063974460E+04  0.25228255393E+04  0.25500000920E-02 0.  1.
       -2    1    3    3    0  502 -0.13623144219E+02 -0.28711488009E+03  0.79921094239E+03  0.84932836693E+03  0.25500000920E-02 0. -1.
</event>
<event>
 5   0  0.6733688E-06  0.2875938E+04  0.7818609E-02  0.8280073E-01
       -2   -1    0    0    0  501  0.00000000000E+00  0.00000000000E+00  0.94501036598E+03  0.94501036598E+03  0.25500000920E-02 0. -1.
        2   -1    0    0  501    0  0.00000000000E+00  0.00000000000E+00 -0.21880764501E+04  0.21880764501E+04  0.25500000920E-02 0.  1.
    10030    2    1    2    0    0  0.00000000000E+00  0.00000000000E+00 -0.12430660841E+04  0.31330868161E+04  0.28759380570E+04 0.  0.
        5    1    3    3  502    0  0.62368282557E+03 -0.84031702060E+03 -0.16959292609E+04  0.19928148710E+04  0.46999998093E+01 0.  1.
       -5    1    3    3    0  502 -0.62368282557E+03  0.84031702060E+03  0.45286317674E+03  0.11402719451E+04  0.46999998093E+01 0. -1.
</event>
<event>
 5   0  0.2508094E-06  0.2769182E+04  0.7818609E-02  0.8312900E-01
       -1   -1    0    0    0  501  0.00000000000E+00  0.00000000000E+00  0.98894221112E+03  0.98894221113E+03  0.50400001928E-02 0.  1.
        1   -1    0    0  501    0  0.00000000000E+00  0.00000000000E+00 -0.19385283531E+04  0.19385283531E+04  0.50400001928E-02 0. -1.
    10030    2    1    2    0    0  0.00000000000E+00  0.00000000000E+00 -0.94958614199E+03  0.29274705643E+04  0.27691822012E+04 0.  0.
        3    1    3    3  502    0  0.11250314566E+04  0.89662645758E+02  0.37315085684E+03  0.11886869818E+04  0.10100000352E+00 0.  1.
       -3    1    3    3    0  502 -0.11250314566E+04 -0.89662645758E+02 -0.13227369988E+04  0.17387835825E+04  0.10100000352E+00 0. -1.
</event>
<event>
 5   0  0.2508094E-06  0.2889246E+04  0.7818609E-02  0.8276084E-01
       -1   -1    0    0    0  501  0.00000000000E+00  0.00000000000E+00  0.72982013292E+03  0.72982013293E+03  0.50400001928E-02 0.  1.
        1   -1    0    0  501    0  0.00000000000E+00  0.00000000000E+00 -0.28595204183E+04  0.28595204183E+04  0.50400001928E-02 0. -1.
    10030    2    1    2    0    0  0.00000000000E+00  0.00000000000E+00 -0.21297002854E+04  0.35893405512E+04  0.28892459721E+04 0.  0.
        3    1    3    3  502    0 -0.54877036337E+03 -0.28282964523E+03  0.55768251005E+03  0.83195631625E+03  0.10100000352E+00 0.  1.
       -3    1    3    3    0  502  0.54877036337E+03  0.28282964523E+03 -0.26873827954E+04  0.27573842350E+04  0.10100000352E+00 0. -1.
</event>
<event>
 5   0  0.2336512E-06  0.2861690E+04  0.7818609E-02  0.8284368E-01
        1   -1    0    0  501    0  0.00000000000E+00  0.00000000000E+00  0.15873377974E+04  0.15873377974E+04  0.50400001928E-02 0. -1.
       -1   -1    0    0    0  501  0.00000000000E+00  0.00000000000E+00 -0.12897807550E+04  0.12897807550E+04  0.50400001928E-02 0.  1.
    10030    2    1    2    0    0  0.00000000000E+00  0.00000000000E+00  0.29755704240E+03  0.28771185525E+04  0.28616902299E+04 0.  0.
        4    1    3    3  502    0  0.12988759054E+04 -0.47617951171E+03  0.51611195188E+03  0.14765495944E+04  0.12699999809E+01 0. -1.
       -4    1    3    3    0  502 -0.12988759054E+04  0.47617951171E+03 -0.21855490948E+03  0.14005689581E+04  0.12699999809E+01 0.  1.
</event>
<event>
 5   0  0.6393633E-06  0.2920237E+04  0.7818609E-02  0.8266882E-01
       -2   -1    0    0    0  501  0.00000000000E+00  0.00000000000E+00  0.14459412082E+04  0.14459412082E+04  0.25500000920E-02 0.  1.
        2   -1    0    0  501    0  0.00000000000E+00  0.00000000000E+00 -0.14744346184E+04  0.14744346184E+04  0.25500000920E-02 0. -1.
    10030    2    1    2    0    0  0.00000000000E+00  0.00000000000E+00 -0.28493410190E+02  0.29203758266E+04  0.29202368216E+04 0.  0.
        4    1    3    3  502    0 -0.19915465814E+03 -0.13480311881E+04  0.51027182517E+03  0.14550703111E+04  0.12699999809E+01 0.  1.
       -4    1    3    3    0  502  0.19915465814E+03  0.13480311881E+04 -0.53876523536E+03  0.14653055155E+04  0.12699999809E+01 0. -1.
</event>
<event>
 5   0  0.6615403E-06  0.2910960E+04  0.7818609E-02  0.8269624E-01
       -2   -1    0    0    0  501  0.00000000000E+00  0.00000000000E+00  0.17764162882E+04  0.17764162882E+04  0.25500000920E-02 0.  1.
        2   -1    0    0  501    0  0.00000000000E+00  0.00000000000E+00 -0.11925258544E+04  0.11925258544E+04  0.25500000920E-02 0. -1.
    10030    2    1    2    0    0  0.00000000000E+00  0.00000000000E+00  0.58389043382E+03  0.29689421426E+04  0.29109602209E+04 0.  0.
        2    1    3    3  502    0  0.60467681383E+03  0.43334502393E+03 -0.98397256218E+03  0.12335412284E+04  0.25500000920E-02 0. -1.
       -2    1    3    3    0  502 -0.60467681383E+03 -0.43334502393E+03  0.15678629960E+04  0.17354009143E+04  0.25500000920E-02 0.  1.
</event>
<event>
 5   0  0.6393633E-06  0.2904693E+04  0.7818609E-02  0.8271483E-01
       -2   -1    0    0    0  501  0.00000000000E+00  0.00000000000E+00  0.11852147031E+04  0.11852147031E+04  0.25500000920E-02 0. -1.
        2   -1    0    0  501    0  0.00000000000E+00  0.00000000000E+00 -0.17796857173E+04  0.17796857173E+04  0.25500000920E-02 0.  1.
    10030    2    1    2    0    0  0.00000000000E+00  0.00000000000E+00 -0.59447101425E+03  0.29649004204E+04  0.29046925338E+04 0.  0.
        4    1    3    3  502    0  0.14139070124E+04 -0.14550913333E+03  0.72804923117E+01  0.14213938814E+04  0.12699999809E+01 0. -1.
       -4    1    3    3    0  502 -0.14139070124E+04  0.14550913333E+03 -0.60175150656E+03  0.15435065390E+04  0.12699999809E+01 0.  1.
</event>
<event>
 5   0  0.6513041E-06  0.2871185E+04  0.7818609E-02  0.8281503E-01
        2   -1    0    0  501    0  0.00000000000E+00  0.00000000000E+00  0.19413429152E+04  0.19413429152E+04  0.25500000920E-02 0. -1.
       -2   -1    0    0    0  501  0.00000000000E+00  0.00000000000E+00 -0.10615981257E+04  0.10615981257E+04  0.25500000920E-02 0.  1.
    10030    2    1    2    0    0  0.00000000000E+00  0.00000000000E+00  0.87974478952E+03  0.30029410409E+04  0.28711851212E+04 0.  0.
        1    1    3    3  502    0  0.11685792945E+04  0.73385540443E+03  0.85402950153E+03  0.16228024253E+04  0.50400001928E-02 0. -1.
       -1    1    3    3    0  502 -0.11685792945E+04 -0.73385540443E+03  0.25715287988E+02  0.13801386155E+04  0.50400001928E-02 0.  1.
</event>
<event>
 5   0  0.6612533E-06  0.2901173E+04  0.7818609E-02  0.8272529E-01
       -2   -1    0    0    0  501  0.00000000000E+00  0.00000000000E+00  0.12868525937E+04  0.12868525937E+04  0.25500000920E-02 0.  1.
        2   -1    0    0  501    0  0.00000000000E+00  0.00000000000E+00 -0.16351534511E+04  0.16351534511E+04  0.25500000920E-02 0. -1.
    10030    2    1    2    0    0  0.00000000000E+00  0.00000000000E+00 -0.34830085735E+03  0.29220060448E+04  0.29011731831E+04 0.  0.
        3    1    3    3  502    0 -0.82278436175E+03 -0.71220149620E+03  0.79190159151E+03  0.13458503698E+04  0.10100000352E+00 0.  1.
       -3    1    3    3    0  502  0.82278436175E+03  0.71220149620E+03 -0.11402024489E+04  0.15761556750E+04  0.10100000352E+00 0. -1.
</event>
<event>
 5   0  0.2474769E-06  0.2855951E+04  0.7818609E-02  0.8286105E-01
       -1   -1    0    0    0  501  0.00000000000E+00  0.00000000000E+00  0.13485047585E+04  0.13485047585E+04  0.50400001928E-02 0. -1.
        1   -1    0    0  501    0  0.00000000000E+00  0.00000000000E+00 -0.15121293486E+04  0.15121293486E+04  0.50400001928E-02 0.  1.
    10030    2    1    2    0    0  0.00000000000E+00  0.00000000000E+00 -0.16362459011E+03  0.28606341071E+04  0.28559507153E+04 0.  0.
        1    1    3    3  502    0 -0.65131721850E+03 -0.28088668114E+03 -0.13232002271E+04  0.15013228460E+04  0.50400001928E-02 0.  1.
       -1    1    3    3    0  502  0.65131721850E+03  0.28088668114E+03  0.11595756370E+04  0.13593112612E+04  0.50400001928E-02 0. -1.
</event>
<event>
 5   0  0.6615403E-06  0.2894201E+04  0.7818609E-02  0.8274605E-01
        2   -1    0    0  501    0  0.00000000000E+00  0.00000000000E+00  0.13238192649E+04  0.13238192649E+04  0.25500000920E-02 0.  1.
       -2   -1    0    0    0  501  0.00000000000E+00  0.00000000000E+00 -0.15818618812E+04  0.15818618812E+04  0.25500000920E-02 0. -1.
    10030    2    1    2    0    0  0.00000000000E+00  0.00000000000E+00 -0.25804261630E+03  0.29056811462E+04  0.28942005686E+04 0.  0.
        2    1    3    3  502    0  0.44206627732E+03  0.13725515037E+04 -0.25107248992E+03  0.14636794796E+04  0.25500000920E-02 0.  1.
       -2    1    3    3    0  502 -0.44206627732E+03 -0.13725515037E+04 -0.69701263769E+01  0.14420016666E+04  0.25500000920E-02 0. -1.
</event>
<event>
 5   0  0.2336512E-06  0.2939507E+04  0.7818609E-02  0.8261219E-01
        1   -1    0    0  501    0  0.00000000000E+00  0.00000000000E+00  0.25518127479E+04  0.25518127479E+04  0.50400001928E-02 0.  1.
       -1   -1    0    0    0  501  0.00000000000E+00  0.00000000000E+00 -0.84652558517E+03  0.84652558518E+03  0.50400001928E-02 0. -1.
    10030    2    1    2    0    0  0.00000000000E+00  0.00000000000E+00  0.17052871628E+04  0.33983383331E+04  0.29395066115E+04 0.  0.
        4    1    3    3  502    0  0.25272932424E+03 -0.12207673497E+04 -0.47348246335E+02  0.12475530060E+04  0.12699999809E+01 0. -1.
       -4    1    3    3    0  502 -0.25272932424E+03  0.12207673497E+04  0.17526354091E+04  0.21507853271E+04  0.12699999809E+01 0.  1.
</event>
<event>
 5   0  0.6393633E-06  0.2327356E+04  0.7818609E-02  0.8467212E-01
       -2   -1    0    0    0  501  0.00000000000E+00  0.00000000000E+00  0.12386691058E+04  0.12386691058E+04  0.25500000920E-02 0. -1.
        2   -1    0    0  501    0  0.00000000000E+00  0.00000000000E+00 -0.10932274267E+04  0.10932274267E+04  0.25500000920E-02 0.  1.
    10030    2    1    2    0    0  0.00000000000E+00  0.00000000000E+00  0.14544167915E+03  0.23318965325E+04  0.23273564739E+04 0.  0.
        4    1    3    3  502    0  0.85085202517E+03 -0.76552766581E+03 -0.13784060438E+03  0.11528154323E+04  0.12699999809E+01 0. -1.
       -4    1    3    3    0  502 -0.85085202517E+03  0.76552766581E+03  0.28328228353E+03  0.11790811002E+04  0.12699999809E+01 0.  1.
</event>
<event>
 5   0  0.6393633E-06  0.2911265E+04  0.7818609E-02  0.8269534E-01
       -2   -1    0    0    0  501  0.00000000000E+00  0.00000000000E+00  0.12846827030E+04  0.12846827030E+04  0.25500000920E-02 0. -1.
        2   -1    0    0  501    0  0.00000000000E+00  0.00000000000E+00 -0.16493306784E+04  0.16493306784E+04  0.25500000920E-02 0.  1.
    10030    2    1    2    0    0  0.00000000000E+00  0.00000000000E+00 -0.36464797538E+03  0.29340133814E+04  0.29112654252E+04 0.  0.
        4    1    3    3  502    0  0.61212560573E+03 -0.52686708710E+03 -0.14028103035E+04  0.16186923874E+04  0.12699999809E+01 0.  1.
       -4    1    3    3    0  502 -0.61212560573E+03  0.52686708710E+03  0.10381623281E+04  0.13153209939E+04  0.12699999809E+01 0. -1.
</event>
<event>
 5   0  0.2474769E-06  0.2564762E+04  0.7818609E-02  0.8380270E-01
       -1   -1    0    0    0  501  0.00000000000E+00  0.00000000000E+00  0.74288000257E+03  0.74288000259E+03  0.50400001928E-02 0.  1.
        1   -1    0    0  501    0  0.00000000000E+00  0.00000000000E+00 -0.22136836592E+04  0.22136836592E+04  0.50400001928E-02 0. -1.
    10030    2    1    2    0    0  0.00000000000E+00  0.00000000000E+00 -0.14708036566E+04  0.29565636618E+04  0.25647622287E+04 0.  0.
        1    1    3    3  502    0 -0.77780023078E+03 -0.97142753720E+03 -0.10923057168E+04  0.16558310415E+04  0.50400001928E-02 0. -1.
       -1    1    3    3    0  502  0.77780023078E+03  0.97142753720E+03 -0.37849793983E+03  0.13007326203E+04  0.50400001928E-02 0.  1.
</event>
<event>
 5   0  0.2508094E-06  0.2844108E+04  0.7818609E-02  0.8289704E-01
        1   -1    0    0  501    0  0.00000000000E+00  0.00000000000E+00  0.25336312470E+04  0.25336312470E+04  0.50400001928E-02 0.  1.
       -1   -1    0    0    0  501  0.00000000000E+00  0.00000000000E+00 -0.79815802819E+03  0.79815802820E+03  0.50400001928E-02 0. -1.
    10030    2    1    2    0    0  0.00000000000E+00  0.00000000000E+00  0.17354732188E+04  0.33317892752E+04  0.28441083807E+04 0.  0.
        3    1    3    3  502    0 -0.93269075246E+03 -0.10006431197E+04  0.13230144730E+04  0.19030412498E+04  0.10100000352E+00 0. -1.
       -3    1    3    3    0  502  0.93269075246E+03  0.10006431197E+04  0.41245874580E+03  0.14287480253E+04  0.10100000352E+00 0.  1.
</event>
<event>
 5   0  0.6612533E-06  0.2888557E+04  0.7818609E-02  0.8276290E-01
       -2   -1    0    0    0  501  0.00000000000E+00  0.00000000000E+00  0.10465691356E+04  0.10465691356E+04  0.25500000920E-02 0. -1.
        2   -1    0    0  501    0  0.00000000000E+00  0.00000000000E+00 -0.19931226977E+04  0.19931226977E+04  0.25500000920E-02 0.  1.
    10030    2    1    2    0    0  0.00000000000E+00  0.00000000000E+00 -0.94655356214E+03  0.30396918333E+04  0.28885572169E+04 0.  0.
        3    1    3    3  502    0  0.27490370196E+03 -0.10695322917E+04 -0.14528235516E+04  0.18248746945E+04  0.10100000352E+00 0.  1.
       -3    1    3    3    0  502 -0.27490370196E+03  0.10695322917E+04  0.50626998946E+03  0.12148171388E+04  0.10100000352E+00 0. -1.
</event>
<event>
 5   0  0.2348684E-06  0.2927127E+04  0.7818609E-02  0.8264852E-01
        1   -1    0    0  501    0  0.00000000000E+00  0.00000000000E+00  0.18241552078E+04  0.18241552078E+04  0.50400001928E-02 0. -1.
       -1   -1    0    0    0  501  0.00000000000E+00  0.00000000000E+00 -0.11742519494E+04  0.11742519494E+04  0.50400001928E-02 0.  1.
    10030    2    1    2    0    0  0.00000000000E+00  0.00000000000E+00  0.64990325846E+03  0.29984071572E+04  0.29271267884E+04 0.  0.
        5    1    3    3  502    0 -0.13384645667E+04  0.15523474287E+03 -0.26028450103E+03  0.13723539388E+04  0.46999998093E+01 0.  1.
       -5    1    3    3    0  502  0.13384645667E+04 -0.15523474287E+03  0.91018775949E+03  0.16260532185E+04  0.46999998093E+01 0. -1.
</event>
<event>
 5   0  0.2336512E-06  0.2879078E+04  0.7818609E-02  0.8279130E-01
       -1   -1    0    0    0  501  0.00000000000E+00  0.00000000000E+00  0.10608274639E+04  0.10608274639E+04  0.50400001928E-02 0. -1.
        1   -1    0    0  501    0  0.00000000000E+00  0.00000000000E+00 -0.19534494855E+04  0.19534494855E+04  0.50400001928E-02 0.  1.
    10030    2    1    2    0    0  0.00000000000E+00  0.00000000000E+00 -0.89262202164E+03  0.30142769494E+04  0.28790782300E+04 0.  0.
        4    1    3    3  502    0  0.48491927190E+03 -0.42250523063E+03  0.90203804259E+03  0.11078499959E+04  0.12699999809E+01 0. -1.
       -4    1    3    3    0  502 -0.48491927190E+03  0.42250523063E+03 -0.17946600642E+04  0.19064269535E+04  0.12699999809E+01 0.  1.
</event>
<event>
 5   0  0.6393633E-06  0.2900046E+04  0.7818609E-02  0.8272864E-01
        2   -1    0    0  501    0  0.00000000000E+00  0.00000000000E+00  0.13324135082E+04  0.13324135082E+04  0.25500000920E-02 0.  1.
       -2   -1    0    0    0  501  0.00000000000E+00  0.00000000000E+00 -0.15780135111E+04  0.15780135111E+04  0.25500000920E-02 0. -1.
    10030    2    1    2    0    0  0.00000000000E+00  0.00000000000E+00 -0.24560000290E+03  0.29104270193E+04  0.29000458744E+04 0.  0.
        4    1    3    3  502    0 -0.34407476515E+03 -0.23754567169E+03 -0.15162043034E+04  0.15727976643E+04  0.12699999809E+01 0. -1.
       -4    1    3    3    0  502  0.34407476515E+03  0.23754567169E+03  0.12706043005E+04  0.13376293551E+04  0.12699999809E+01 0.  1.
</event>
<event>
 5   0  0.6513041E-06  0.3036618E+04  0.7818609E-02  0.8233351E-01
       -2   -1    0    0    0  501  0.00000000000E+00  0.00000000000E+00  0.13283589158E+04  0.13283589159E+04  0.25500000920E-02 0. -1.
        2   -1    0    0  501    0  0.00000000000E+00  0.00000000000E+00 -0.17354207308E+04  0.17354207308E+04  0.25500000920E-02 0.  1.
    10030    2    1    2    0    0  0.00000000000E+00  0.00000000000E+00 -0.40706181495E+03  0.30637796467E+04  0.30366175923E+04 0.  0.
        1    1    3    3  502    0 -0.10863787114E+04  0.52349139727E+03 -0.11342789134E+04  0.16555514492E+04  0.50400001928E-02 0. -1.
       -1    1    3    3    0  502  0.10863787114E+04 -0.52349139727E+03  0.72721709844E+03  0.14082281974E+04  0.50400001928E-02 0.  1.
</event>
<event>
 5   0  0.2429358E-06  0.2855818E+04  0.7818609E-02  0.8286146E-01
        1   -1    0    0  501    0  0.00000000000E+00  0.00000000000E+00  0.22638761911E+04  0.22638761912E+04  0.50400001928E-02 0. -1.
       -1   -1    0    0    0  501  0.00000000000E+00  0.00000000000E+00 -0.90063384972E+03  0.90063384974E+03  0.50400001928E-02 0.  1.
    10030    2    1    2    0    0  0.00000000000E+00  0.00000000000E+00  0.13632423414E+04  0.31645100409E+04  0.28558175918E+04 0.  0.
        2    1    3    3  502    0  0.62170551687E+03 -0.11481203650E+04  0.13222341655E+04  0.18582253121E+04  0.25500000920E-02 0. -1.
       -2    1    3    3    0  502 -0.62170551687E+03  0.11481203650E+04  0.41008175971E+02  0.13062847288E+04  0.25500000920E-02 0.  1.
</event>
<event>
 5   0  0.6615403E-06  0.2888882E+04  0.7818609E-02  0.8276193E-01
        2   -1    0    0  501    0  0.00000000000E+00  0.00000000000E+00  0.16900631075E+04  0.16900631075E+04  0.25500000920E-02 0. -1.
       -2   -1    0    0    0  501  0.00000000000E+00  0.00000000000E+00 -0.12345156837E+04  0.12345156837E+04  0.25500000920E-02 0.  1.
    10030    2    1    2    0    0  0.00000000000E+00  0.00000000000E+00  0.45554742385E+03  0.29245787912E+04  0.28888817301E+04 0.  0.
        2    1    3    3  502    0 -0.70373205807E+03 -0.10000978605E+03 -0.10452094547E+04  0.12640029949E+04  0.25500000920E-02 0.  1.
       -2    1    3    3    0  502  0.70373205807E+03  0.10000978605E+03  0.15007568785E+04  0.16605757963E+04  0.25500000920E-02 0. -1.
</event>
<event>
 5   0  0.6513041E-06  0.2962539E+04  0.7818609E-02  0.8254510E-01
       -2   -1    0    0    0  501  0.00000000000E+00  0.00000000000E+00  0.16596622821E+04  0.16596622821E+04  0.25500000920E-02 0.  1.
        2   -1    0    0  501    0  0.00000000000E+00  0.00000000000E+00 -0.13220515845E+04  0.13220515845E+04  0.25500000920E-02 0. -1.
    10030    2    1    2    0    0  0.00000000000E+00  0.00000000000E+00  0.33761069754E+03  0.29817138666E+04  0.29625388773E+04 0.  0.
        1    1    3    3  502    0  0.22231858841E+03 -0.40495355306E+03 -0.12476938203E+04  0.13304708956E+04  0.50400001928E-02 0. -1.
       -1    1    3    3    0  502 -0.22231858841E+03  0.40495355306E+03  0.15853045178E+04  0.16512429710E+04  0.50400001928E-02 0.  1.
</event>
<event>
 5   0  0.6612533E-06  0.2371272E+04  0.7818609E-02  0.8450338E-01
        2   -1    0    0  501    0  0.00000000000E+00  0.00000000000E+00  0.14040775389E+04  0.14040775389E+04  0.25500000920E-02 0. -1.
       -2   -1    0    0    0  501  0.00000000000E+00  0.00000000000E+00 -0.10011786626E+04  0.10011786626E+04  0.25500000920E-02 0.  1.
    10030    2    1    2    0    0  0.00000000000E+00  0.00000000000E+00  0.40289887628E+03  0.24052562014E+04  0.23712717875E+04 0.  0.
        3    1    3    3  502    0  0.41583352409E+03 -0.99374638540E+03  0.70380797882E+03  0.12867770123E+04  0.10100000352E+00 0. -1.
       -3    1    3    3    0  502 -0.41583352409E+03  0.99374638540E+03 -0.30090910254E+03  0.11184791891E+04  0.10100000352E+00 0.  1.
</event>
<event>
 5   0  0.6615403E-06  0.2884966E+04  0.7818609E-02  0.8277365E-01
        2   -1    0    0  501    0  0.00000000000E+00  0.00000000000E+00  0.22085176435E+04  0.22085176435E+04  0.25500000920E-02 0. -1.
       -2   -1    0    0    0  501  0.00000000000E+00  0.00000000000E+00 -0.94215121654E+03  0.94215121654E+03  0.25500000920E-02 0.  1.
    10030    2    1    2    0    0  0.00000000000E+00  0.00000000000E+00  0.12663664269E+04  0.31506688600E+04  0.28849662629E+04 0.  0.
        2    1    3    3  502    0 -0.10493403815E+02 -0.14396180993E+04  0.73175808936E+03  0.16149551959E+04  0.25500000920E-02 0.  1.
       -2    1    3    3    0  502  0.10493403815E+02  0.14396180993E+04  0.53460833758E+03  0.15357136641E+04  0.25500000920E-02 0. -1.
</event>
<event>
 5   0  0.2348684E-06  0.2803613E+04  0.7818609E-02  0.8302147E-01
       -1   -1    0    0    0  501  0.00000000000E+00  0.00000000000E+00  0.76925130111E+03  0.76925130112E+03  0.50400001928E-02 0. -1.
        1   -1    0    0  501    0  0.00000000000E+00  0.00000000000E+00 -0.25545120891E+04  0.25545120891E+04  0.50400001928E-02 0.  1.
    10030    2    1    2    0    0  0.00000000000E+00  0.00000000000E+00 -0.17852607880E+04  0.33237633902E+04  0.28036132032E+04 0.  0.
        5    1    3    3  502    0  0.62865508203E+03 -0.60225884425E+03 -0.21951571046E+04  0.23614952322E+04  0.46999998093E+01 0.  1.
       -5    1    3    3    0  502 -0.62865508203E+03  0.60225884425E+03  0.40989631661E+03  0.96226815806E+03  0.46999998093E+01 0. -1.
</event>
<event>
 5   0  0.6393633E-06  0.2924517E+04  0.7818609E-02  0.8265620E-01
       -2   -1    0    0    0  501  0.00000000000E+00  0.00000000000E+00  0.14077893337E+04  0.14077893337E+04  0.25500000920E-02 0. -1.
        2   -1    0    0  501    0  0.00000000000E+00  0.00000000000E+00 -0.15188348762E+04  0.15188348762E+04  0.25500000920E-02 0.  1.
    10030    2    1    2    0    0  0.00000000000E+00  0.00000000000E+00 -0.11104554256E+03  0.29266242099E+04  0.29245167384E+04 0.  0.
        4    1    3    3  502    0  0.40884418998E+03 -0.13017015746E+04  0.47080049571E+03  0.14433417061E+04  0.12699999809E+01 0. -1.
       -4    1    3    3    0  502 -0.40884418998E+03  0.13017015746E+04 -0.58184603827E+03  0.14832825038E+04  0.12699999809E+01 0.  1.
</event>
<event>
 5   0  0.2508094E-06  0.2829050E+04  0.7818609E-02  0.8294306E-01
       -1   -1    0    0    0  501  0.00000000000E+00  0.00000000000E+00  0.12387351859E+04  0.12387351860E+04  0.50400001928E-02 0. -1.
        1   -1    0    0  501    0  0.00000000000E+00  0.00000000000E+00 -0.16152611255E+04  0.16152611255E+04  0.50400001928E-02 0.  1.
    10030    2    1    2    0    0  0.00000000000E+00  0.00000000000E+00 -0.37652593952E+03  0.28539963114E+04  0.28290498692E+04 0.  0.
        3    1    3    3  502    0  0.11117217071E+04  0.31927148019E+03  0.63317837987E+03  0.13186259148E+04  0.10100000352E+00 0. -1.
       -3    1    3    3    0  502 -0.11117217071E+04 -0.31927148019E+03 -0.10097043194E+04  0.15353703967E+04  0.10100000352E+00 0.  1.
</event>
<event>
 5   0  0.2508094E-06  0.2850816E+04  0.7818609E-02  0.8287664E-01
       -1   -1    0    0    0  501  0.00000000000E+00  0.00000000000E+00  0.19870223828E+04  0.19870223828E+04  0.50400001928E-02 0.  1.
        1   -1    0    0  501    0  0.00000000000E+00  0.00000000000E+00 -0.10225286759E+04  0.10225286759E+04  0.50400001928E-02 0. -1.
    10030    2    1    2    0    0  0.00000000000E+00  0.00000000000E+00  0.96449370693E+03  0.30095510587E+04  0.28508155788E+04 0.  0.
        3    1    3    3  502    0  0.10135282179E+04  0.22580914104E+02 -0.57556314928E+03  0.11657711161E+04  0.10100000352E+00 0. -1.
       -3    1    3    3    0  502 -0.10135282179E+04 -0.22580914104E+02  0.15400568562E+04  0.18437799426E+04  0.10100000352E+00 0.  1.
</event>
<event>
 5   0  0.6612533E-06  0.2584263E+04  0.7818609E-02  0.8373567E-01
       -2   -1    0    0    0  501  0.00000000000E+00  0.00000000000E+00  0.66744972947E+03  0.66744972947E+03  0.25500000920E-02 0.  1.
        2   -1    0    0  501    0  0.00000000000E+00  0.00000000000E+00 -0.25014669205E+04  0.25014669205E+04  0.25500000920E-02 0. -1.
    10030    2    1    2    0    0  0.00000000000E+00  0.00000000000E+00 -0.18340171910E+04  0.31689166500E+04  0.25842626951E+04 0.  0.
        3    1    3    3  502    0 -0.96201866051E+03 -0.56316997910E+01 -0.19747692641E+04  0.21966395416E+04  0.10100000352E+00 0. -1.
       -3    1    3    3    0  502  0.96201866051E+03  0.56316997910E+01  0.14075207304E+03  0.97227710838E+03  0.10100000352E+00 0.  1.
</event>
<event>
 5   0  0.2159500E-06  0.2893434E+04  0.7818609E-02  0.8274834E-01
       -3   -1    0    0    0  501  0.00000000000E+00  0.00000000000E+00  0.11217366449E+04  0.11217366494E+04  0.10100000352E+00 0. -1.
        3   -1    0    0  501    0  0.00000000000E+00  0.00000000000E+00 -0.18658485895E+04  0.18658485922E+04  0.10100000352E+00 0.  1.
    10030    2    1    2    0    0  0.00000000000E+00  0.00000000000E+00 -0.74411194463E+03  0.29875852417E+04  0.28934344627E+04 0.  0.
        3    1    3    3  502    0  0.13906802931E+04  0.57791024407E+02 -0.77943074633E+03  0.15952566497E+04  0.10100000352E+00 0. -1.
       -3    1    3    3    0  502 -0.13906802931E+04 -0.57791024407E+02  0.35318801708E+02  0.13923285919E+04  0.10100000352E+00 0.  1.
</event>
<event>
 5   0  0.2508094E-06  0.2896957E+04  0.7818609E-02  0.8273783E-01
       -1   -1    0    0    0  501  0.00000000000E+00  0.00000000000E+00  0.24327040345E+04  0.24327040345E+04  0.50400001928E-02 0.  1.
        1   -1    0    0  501    0  0.00000000000E+00  0.00000000000E+00 -0.86245167212E+03  0.86245167214E+03  0.50400001928E-02 0. -1.
    10030    2    1    2    0    0  0.00000000000E+00  0.00000000000E+00  0.15702523624E+04  0.32951557067E+04  0.28969567911E+04 0.  0.
        3    1    3    3  502    0  0.72109222320E+03  0.50909210677E+03  0.20914371964E+04  0.22700789247E+04  0.10100000352E+00 0.  1.
       -3    1    3    3    0  502 -0.72109222320E+03 -0.50909210677E+03 -0.52118483402E+03  0.10250767820E+04  0.10100000352E+00 0. -1.
</event>
<event>
 5   0  0.2336512E-06  0.2941167E+04  0.7818609E-02  0.8260733E-01
       -1   -1    0    0    0  501  0.00000000000E+00  0.00000000000E+00  0.25685065564E+04  0.25685065564E+04  0.50400001928E-02 0. -1.
        1   -1    0    0  501    0  0.00000000000E+00  0.00000000000E+00 -0.84197421954E+03  0.84197421956E+03  0.50400001928E-02 0.  1.
    10030    2    1    2    0    0  0.00000000000E+00  0.00000000000E+00  0.17265323369E+04  0.34104807760E+04  0.29411673215E+04 0.  0.
        4    1    3    3  502    0 -0.94565884959E+03 -0.59794587990E+03 -0.24337932185E+03  0.11450087521E+04  0.12699999809E+01 0.  1.
       -4    1    3    3    0  502  0.94565884959E+03  0.59794587990E+03  0.19699116587E+04  0.22654720239E+04  0.12699999809E+01 0. -1.
</event>
<event>
 5   0  0.2348684E-06  0.2901149E+04  0.7818609E-02  0.8272536E-01
        1   -1    0    0  501    0  0.00000000000E+00  0.00000000000E+00  0.15669281576E+04  0.15669281576E+04  0.50400001928E-02 0. -1.
       -1   -1    0    0    0  501  0.00000000000E+00  0.00000000000E+00 -0.13428603376E+04  0.13428603376E+04  0.50400001928E-02 0.  1.
    10030    2    1    2    0    0  0.00000000000E+00  0.00000000000E+00  0.22406782001E+03  0.29097884952E+04  0.29011485138E+04 0.  0.
        5    1    3    3  502    0 -0.13065556685E+04 -0.94557346968E+02 -0.51281001324E+03  0.14067782365E+04  0.46999998093E+01 0. -1.
       -5    1    3    3    0  502  0.13065556685E+04  0.94557346968E+02  0.73687783325E+03  0.15030102588E+04  0.46999998093E+01 0.  1.
</event>
<event>
 5   0  0.2336512E-06  0.2799191E+04  0.7818609E-02  0.8303520E-01
       -1   -1    0    0    0  501  0.00000000000E+00  0.00000000000E+00  0.15964269156E+04  0.15964269156E+04  0.50400001928E-02 0.  1.
        1   -1    0    0  501    0  0.00000000000E+00  0.00000000000E+00 -0.12270321840E+04  0.12270321840E+04  0.50400001928E-02 0. -1.
    10030    2    1    2    0    0  0.00000000000E+00  0.00000000000E+00  0.36939473160E+03  0.28234590996E+04  0.27991907437E+04 0.  0.
        4    1    3    3  502    0 -0.53722206591E+03 -0.26332898605E+02 -0.11186213277E+04  0.12412156369E+04  0.12699999809E+01 0. -1.
       -4    1    3    3    0  502  0.53722206591E+03  0.26332898605E+02  0.14880160593E+04  0.15822434627E+04  0.12699999809E+01 0.  1.
</event>
<event>
 5   0  0.6612533E-06  0.2887843E+04  0.7818609E-02  0.8276504E-01
       -2   -1    0    0    0  501  0.00000000000E+00  0.00000000000E+00  0.10922153112E+04  0.10922153113E+04  0.25500000920E-02 0.  1.
        2   -1    0    0  501    0  0.00000000000E+00  0.00000000000E+00 -0.19088814238E+04  0.19088814238E+04  0.25500000920E-02 0. -1.
    10030    2    1    2    0    0  0.00000000000E+00  0.00000000000E+00 -0.81666611259E+03  0.30010967351E+04  0.28878431526E+04 0.  0.
        3    1    3    3  502    0 -0.22773135152E+03  0.62922233351E+03  0.92134837523E+03  0.11387120585E+04  0.10100000352E+00 0.  1.
       -3    1    3    3    0  502  0.22773135152E+03 -0.62922233351E+03 -0.17380144878E+04  0.18623846766E+04  0.10100000352E+00 0. -1.
</event>
<event>
 5   0  0.2474769E-06  0.2681835E+04  0.7818609E-02  0.8340923E-01
       -1   -1    0    0    0  501  0.00000000000E+00  0.00000000000E+00  0.14108784692E+04  0.14108784692E+04  0.50400001928E-02 0.  1.
        1   -1    0    0  501    0  0.00000000000E+00  0.00000000000E+00 -0.12744256371E+04  0.12744256371E+04  0.50400001928E-02 0. -1.
    10030    2    1    2    0    0  0.00000000000E+00  0.00000000000E+00  0.13645283212E+03  0.26853041062E+04  0.26818349628E+04 0.  0.
        1    1    3    3  502    0  0.98579617634E+01  0.13394406327E+04  0.13044618920E+03  0.13458137301E+04  0.50400001928E-02 0. -1.
       -1    1    3    3    0  502 -0.98579617634E+01 -0.13394406327E+04  0.60066429170E+01  0.13394903761E+04  0.50400001928E-02 0.  1.
</event>
<event>
 5   0  0.6612533E-06  0.2904276E+04  0.7818609E-02  0.8271606E-01
        2   -1    0    0  501    0  0.00000000000E+00  0.00000000000E+00  0.28892045194E+04  0.28892045194E+04  0.25500000920E-02 0. -1.
       -2   -1    0    0    0  501  0.00000000000E+00  0.00000000000E+00 -0.72985647033E+03  0.72985647033E+03  0.25500000920E-02 0.  1.
    10030    2    1    2    0    0  0.00000000000E+00  0.00000000000E+00  0.21593480491E+04  0.36190609897E+04  0.29042758909E+04 0.  0.
        3    1    3    3  502    0  0.80017711319E+03  0.11838908866E+04  0.75755021087E+03  0.16173321786E+04  0.10100000352E+00 0.  1.
       -3    1    3    3    0  502 -0.80017711319E+03 -0.11838908866E+04  0.14017978382E+04  0.20017288111E+04  0.10100000352E+00 0. -1.
</event>
<event>
 5   0  0.6393633E-06  0.2895171E+04  0.7818609E-02  0.8274316E-01
        2   -1    0    0  501    0  0.00000000000E+00  0.00000000000E+00  0.10636876902E+04  0.10636876902E+04  0.25500000920E-02 0. -1.
       -2   -1    0    0    0  501  0.00000000000E+00  0.00000000000E+00 -0.19700370772E+04  0.19700370772E+04  0.25500000920E-02 0.  1.
    10030    2    1    2    0    0  0.00000000000E+00  0.00000000000E+00 -0.90634938708E+03  0.30337247674E+04  0.28951712821E+04 0.  0.
        4    1    3    3  502    0  0.46738802516E+03  0.97992769354E+03  0.55014074275E+03  0.12171139225E+04  0.12699999809E+01 0. -1.
       -4    1    3    3    0  502 -0.46738802516E+03 -0.97992769354E+03 -0.14564901298E+04  0.18166108449E+04  0.12699999809E+01 0.  1.
</event>
<event>
 5   0  0.2336512E-06  0.2922071E+04  0.7818609E-02  0.8266341E-01
        1   -1    0    0  501    0  0.00000000000E+00  0.00000000000E+00  0.14518239446E+04  0.14518239446E+04  0.50400001928E-02 0. -1.
       -1   -1    0    0    0  501  0.00000000000E+00  0.00000000000E+00 -0.14703055935E+04  0.14703055935E+04  0.50400001928E-02 0.  1.
    10030    2    1    2    0    0  0.00000000000E+00  0.00000000000E+00 -0.18481648906E+02  0.29221295381E+04  0.29220710919E+04 0.  0.
        4    1    3    3  502    0 -0.43943667485E+03  0.59845541327E+03  0.12491045659E+04  0.14531060877E+04  0.12699999809E+01 0. -1.
       -4    1    3    3    0  502  0.43943667485E+03 -0.59845541327E+03 -0.12675862148E+04  0.14690234503E+04  0.12699999809E+01 0.  1.
</event>
<event>
 5   0  0.2474769E-06  0.2928576E+04  0.7818609E-02  0.8264426E-01
        1   -1    0    0  501    0  0.00000000000E+00  0.00000000000E+00  0.24754895171E+04  0.24754895171E+04  0.50400001928E-02 0.  1.
       -1   -1    0    0    0  501  0.00000000000E+00  0.00000000000E+00 -0.86614760956E+03  0.86614760958E+03  0.50400001928E-02 0. -1.
    10030    2    1    2    0    0  0.00000000000E+00  0.00000000000E+00  0.16093419075E+04  0.33416371266E+04  0.29285759869E+04 0.  0.
        1    1    3    3  502    0  0.25837392309E+03  0.90038805209E+02 -0.83671957393E+03  0.88032023491E+03  0.50400001928E-02 0. -1.
       -1    1    3    3    0  502 -0.25837392309E+03 -0.90038805209E+02  0.24460614814E+04  0.24613168917E+04  0.50400001928E-02 0.  1.
</event>
<event>
 5   0  0.6615403E-06  0.2906320E+04  0.7818609E-02  0.8271000E-01
       -2   -1    0    0    0  501  0.00000000000E+00  0.00000000000E+00  0.10156759818E+04  0.10156759818E+04  0.25500000920E-02 0. -1.
        2   -1    0    0  501    0  0.00000000000E+00  0.00000000000E+00 -0.20790820712E+04  0.20790820712E+04  0.25500000920E-02 0.  1.
    10030    2    1    2    0    0  0.00000000000E+00  0.00000000000E+00 -0.10634060894E+04  0.30947580530E+04  0.29063198199E+04 0.  0.
        2    1    3    3  502    0  0.32577436066E+03 -0.13727664530E+02  0.97621964429E+03  0.10292337814E+04  0.25500000920E-02 0. -1.
       -2    1    3    3    0  502 -0.32577436066E+03  0.13727664530E+02 -0.20396257337E+04  0.20655242716E+04  0.25500000920E-02 0.  1.
</event>
<event>
 5   0  0.6612533E-06  0.2927625E+04  0.7818609E-02  0.8264705E-01
        2   -1    0    0  501    0  0.00000000000E+00  0.00000000000E+00  0.19709333005E+04  0.19709333005E+04  0.25500000920E-02 0. -1.
       -2   -1    0    0    0  501  0.00000000000E+00  0.00000000000E+00 -0.10871741454E+04  0.10871741454E+04  0.25500000920E-02 0.  1.
    10030    2    1    2    0    0  0.00000000000E+00  0.00000000000E+00  0.88375915511E+03  0.30581074459E+04  0.29276254724E+04 0.  0.
        3    1    3    3  502    0  0.44494394385E+01 -0.59285196543E+02 -0.10859125093E+04  0.10875387442E+04  0.10100000352E+00 0.  1.
       -3    1    3    3    0  502 -0.44494394385E+01  0.59285196543E+02  0.19696716645E+04  0.19705687017E+04  0.10100000352E+00 0. -1.
</event>
<event>
 5   0  0.2336512E-06  0.2909950E+04  0.7818609E-02  0.8269923E-01
       -1   -1    0    0    0  501  0.00000000000E+00  0.00000000000E+00  0.78968352611E+03  0.78968352612E+03  0.50400001928E-02 0.  1.
        1   -1    0    0  501    0  0.00000000000E+00  0.00000000000E+00 -0.26807602335E+04  0.26807602335E+04  0.50400001928E-02 0. -1.
    10030    2    1    2    0    0  0.00000000000E+00  0.00000000000E+00 -0.18910767074E+04  0.34704437597E+04  0.29099499610E+04 0.  0.
        4    1    3    3  502    0  0.54907797933E+01  0.22012526008E+03 -0.26607732742E+04  0.26698691557E+04  0.12699999809E+01 0. -1.
       -4    1    3    3    0  502 -0.54907797933E+01 -0.22012526008E+03  0.76969656676E+03  0.80057460400E+03  0.12699999809E+01 0.  1.
</event>
<event>
 5   0  0.2429358E-06  0.2831603E+04  0.7818609E-02  0.8293523E-01
       -1   -1    0    0    0  501  0.00000000000E+00  0.00000000000E+00  0.93440290545E+03  0.93440290546E+03  0.50400001928E-02 0. -1.
        1   -1    0    0  501    0  0.00000000000E+00  0.00000000000E+00 -0.21452142427E+04  0.21452142427E+04  0.50400001928E-02 0.  1.
    10030    2    1    2    0    0  0.00000000000E+00  0.00000000000E+00 -0.12108113372E+04  0.30796171481E+04  0.28316033770E+04 0.  0.
        2    1    3    3  502    0 -0.39766936919E+03 -0.13536834685E+04 -0.47720605217E+03  0.14894044032E+04  0.25500000920E-02 0.  1.
       -2    1    3    3    0  502  0.39766936919E+03  0.13536834685E+04 -0.73360528507E+03  0.15902127450E+04  0.25500000920E-02 0. -1.
</event>
<event>
 5   0  0.2474769E-06  0.2914698E+04  0.7818609E-02  0.8268518E-01
       -1   -1    0    0    0  501  0.00000000000E+00  0.00000000000E+00  0.10586163206E+04  0.10586163206E+04  0.50400001928E-02 0.  1.
        1   -1    0    0  501    0  0.00000000000E+00  0.00000000000E+00 -0.20062666988E+04  0.20062666988E+04  0.50400001928E-02 0. -1.
    10030    2    1    2    0    0  0.00000000000E+00  0.00000000000E+00 -0.94765037828E+03  0.30648830194E+04  0.29146983863E+04 0.  0.
        1    1    3    3  502    0  0.97505858955E+03 -0.35626599059E+03  0.60171847804E+03  0.11998874264E+04  0.50400001928E-02 0.  1.
       -1    1    3    3    0  502 -0.97505858955E+03  0.35626599059E+03 -0.15493688563E+04  0.18649955930E+04  0.50400001928E-02 0. -1.
</event>
<event>
 5   0  0.6615403E-06  0.2890988E+04  0.7818609E-02  0.8275564E-01
       -2   -1    0    0    0  501  0.00000000000E+00  0.00000000000E+00  0.10893031483E+04  0.10893031483E+04  0.25500000920E-02 0. -1.
        2   -1    0    0  501    0  0.00000000000E+00  0.00000000000E+00 -0.19181555554E+04  0.19181555554E+04  0.25500000920E-02 0.  1.
    10030    2    1    2    0    0  0.00000000000E+00  0.00000000000E+00 -0.82885240710E+03  0.30074587036E+04  0.28909879871E+04 0.  0.
        2    1    3    3  502    0 -0.56744269196E+03  0.11436631015E+04 -0.11195971909E+04  0.16980737229E+04  0.25500000920E-02 0.  1.
       -2    1    3    3    0  502  0.56744269196E+03 -0.11436631015E+04  0.29074478381E+03  0.13093849807E+04  0.25500000920E-02 0. -1.
</event>
<event>
 5   0  0.2348684E-06  0.2826175E+04  0.7818609E-02  0.8295188E-01
       -1   -1    0    0    0  501  0.00000000000E+00  0.00000000000E+00  0.10943166871E+04  0.10943166871E+04  0.50400001928E-02 0. -1.
        1   -1    0    0  501    0  0.00000000000E+00  0.00000000000E+00 -0.18247147946E+04  0.18247147946E+04  0.50400001928E-02 0.  1.
    10030    2    1    2    0    0  0.00000000000E+00  0.00000000000E+00 -0.73039810748E+03  0.29190314817E+04  0.28261746931E+04 0.  0.
        5    1    3    3  502    0 -0.14061135834E+03  0.70566841514E+03 -0.16213210879E+04  0.17738217572E+04  0.46999998093E+01 0.  1.
       -5    1    3    3    0  502  0.14061135834E+03 -0.70566841514E+03  0.89092298039E+03  0.11452097245E+04  0.46999998093E+01 0. -1.
</event>
<event>
 5   0  0.2508094E-06  0.2949288E+04  0.7818609E-02  0.8258362E-01
        1   -1    0    0  501    0  0.00000000000E+00  0.00000000000E+00  0.21627753039E+04  0.21627753039E+04  0.50400001928E-02 0.  1.
       -1   -1    0    0    0  501  0.00000000000E+00  0.00000000000E+00 -0.10054557289E+04  0.10054557289E+04  0.50400001928E-02 0. -1.
    10030    2    1    2    0    0  0.00000000000E+00  0.00000000000E+00  0.11573195750E+04  0.31682310328E+04  0.29492879274E+04 0.  0.
        3    1    3    3  502    0 -0.87089370677E+03  0.11402973040E+04  0.94428055500E+03  0.17176727182E+04  0.10100000352E+00 0. -1.
       -3    1    3    3    0  502  0.87089370677E+03 -0.11402973040E+04  0.21303901995E+03  0.14505583147E+04  0.10100000352E+00 0.  1.
</event>
<event>
 5   0  0.6612533E-06  0.3012198E+04  0.7818609E-02  0.8240256E-01
       -2   -1    0    0    0  501  0.00000000000E+00  0.00000000000E+00  0.11746898635E+04  0.11746898635E+04  0.25500000920E-02 0. -1.
        2   -1    0    0  501    0  0.00000000000E+00  0.00000000000E+00 -0.19310065861E+04  0.19310065861E+04  0.25500000920E-02 0.  1.
    10030    2    1    2    0    0  0.00000000000E+00  0.00000000000E+00 -0.75631672255E+03  0.31056964496E+04  0.30121977777E+04 0.  0.
        3    1    3    3  502    0  0.13691433938E+04  0.73790367470E+02 -0.10206668974E+04  0.17093155287E+04  0.10100000352E+00 0.  1.
       -3    1    3    3    0  502 -0.13691433938E+04 -0.73790367470E+02  0.26435017482E+03  0.13963809209E+04  0.10100000352E+00 0. -1.
</event>
<event>
 5   0  0.6612533E-06  0.2829627E+04  0.7818609E-02  0.8294129E-01
       -2   -1    0    0    0  501  0.00000000000E+00  0.00000000000E+00  0.10662530558E+04  0.10662530558E+04  0.25500000920E-02 0.  1.
        2   -1    0    0  501    0  0.00000000000E+00  0.00000000000E+00 -0.18773188147E+04  0.18773188147E+04  0.25500000920E-02 0. -1.
    10030    2    1    2    0    0  0.00000000000E+00  0.00000000000E+00 -0.81106575886E+03  0.29435718705E+04  0.28296267761E+04 0.  0.
        3    1    3    3  502    0  0.39782666680E+03  0.12925467643E+04  0.26840740785E+02  0.13526505943E+04  0.10100000352E+00 0.  1.
       -3    1    3    3    0  502 -0.39782666680E+03 -0.12925467643E+04 -0.83790649965E+03  0.15909212762E+04  0.10100000352E+00 0. -1.
</event>
<event>
 5   0  0.2474769E-06  0.2869534E+04  0.7818609E-02  0.8282000E-01
        1   -1    0    0  501    0  0.00000000000E+00  0.00000000000E+00  0.17053070737E+04  0.17053070737E+04  0.50400001928E-02 0. -1.
       -1   -1    0    0    0  501  0.00000000000E+00  0.00000000000E+00 -0.12071473397E+04  0.12071473397E+04  0.50400001928E-02 0.  1.
    10030    2    1    2    0    0  0.00000000000E+00  0.00000000000E+00  0.49815973399E+03  0.29124544135E+04  0.28695343856E+04 0.  0.
        1    1    3    3  502    0  0.25619599928E+03  0.89544919206E+03  0.13567749313E+04  0.16456925168E+04  0.50400001928E-02 0. -1.
       -1    1    3    3    0  502 -0.25619599928E+03 -0.89544919206E+03 -0.85861519736E+03  0.12667618966E+04  0.50400001928E-02 0.  1.
</event>
<event>
 5   0  0.6513041E-06  0.2873453E+04  0.7818609E-02  0.8280820E-01
        2   -1    0    0  501    0  0.00000000000E+00  0.00000000000E+00  0.17811477377E+04  0.17811477377E+04  0.25500000920E-02 0.  1.
       -2   -1    0    0    0  501  0.00000000000E+00  0.00000000000E+00 -0.11589064369E+04  0.11589064369E+04  0.25500000920E-02 0. -1.
    10030    2    1    2    0    0  0.00000000000E+00  0.00000000000E+00  0.62224130084E+03  0.29400541745E+04  0.28734533775E+04 0.  0.
        1    1    3    3  502    0  0.82175958243E+03  0.11154666495E+04  0.70023634752E+03  0.15523806234E+04  0.50400001928E-02 0. -1.
       -1    1    3    3    0  502 -0.82175958243E+03 -0.11154666495E+04 -0.77995046684E+02  0.13876735512E+04  0.50400001928E-02 0.  1.
</event>
<event>
 5   0  0.2336512E-06  0.2924266E+04  0.7818609E-02  0.8265694E-01
       -1   -1    0    0    0  501  0.00000000000E+00  0.00000000000E+00  0.95822779724E+03  0.95822779725E+03  0.50400001928E-02 0.  1.
        1   -1    0    0  501    0  0.00000000000E+00  0.00000000000E+00 -0.22310274176E+04  0.22310274176E+04  0.50400001928E-02 0. -1.
    10030    2    1    2    0    0  0.00000000000E+00  0.00000000000E+00 -0.12727996204E+04  0.31892552149E+04  0.29242657116E+04 0.  0.
        4    1    3    3  502    0  0.54262372513E+03 -0.10635256262E+04 -0.15568600112E+04  0.19619739988E+04  0.12699999809E+01 0. -1.
       -4    1    3    3    0  502 -0.54262372513E+03  0.10635256262E+04  0.28406039084E+03  0.12272812160E+04  0.12699999809E+01 0.  1.
</event>
<event>
 5   0  0.2474769E-06  0.2898278E+04  0.7818609E-02  0.8273390E-01
        1   -1    0    0  501    0  0.00000000000E+00  0.00000000000E+00  0.13716995987E+04  0.13716995987E+04  0.50400001928E-02 0. -1.
       -1   -1    0    0    0  501  0.00000000000E+00  0.00000000000E+00 -0.15309504841E+04  0.15309504841E+04  0.50400001928E-02 0.  1.
    10030    2    1    2    0    0  0.00000000000E+00  0.00000000000E+00 -0.15925088542E+03  0.29026500828E+04  0.28982782231E+04 0.  0.
        1    1    3    3  502    0 -0.99546242123E+02 -0.14041547938E+04  0.26505067280E+03  0.14324147439E+04  0.50400001928E-02 0. -1.
       -1    1    3    3    0  502  0.99546242123E+02  0.14041547938E+04 -0.42430155822E+03  0.14702353389E+04  0.50400001928E-02 0.  1.
</event>
<event>
 5   0  0.2429358E-06  0.3027049E+04  0.7818609E-02  0.8236049E-01
        1   -1    0    0  501    0  0.00000000000E+00  0.00000000000E+00  0.20367410867E+04  0.20367410867E+04  0.50400001928E-02 0. -1.
       -1   -1    0    0    0  501  0.00000000000E+00  0.00000000000E+00 -0.11247163424E+04  0.11247163424E+04  0.50400001928E-02 0.  1.
    10030    2    1    2    0    0  0.00000000000E+00  0.00000000000E+00  0.91202474428E+03  0.31614574292E+04  0.30270487182E+04 0.  0.
        2    1    3    3  502    0 -0.16463322516E+02  0.14561885699E+04  0.25394426685E+02  0.14565030274E+04  0.25500000920E-02 0.  1.
       -2    1    3    3    0  502  0.16463322516E+02 -0.14561885699E+04  0.88663031759E+03  0.17049544017E+04  0.25500000920E-02 0. -1.
</event>
<event>
 5   0  0.6513041E-06  0.2887948E+04  0.7818609E-02  0.8276472E-01
        2   -1    0    0  501    0  0.00000000000E+00  0.00000000000E+00  0.13701734707E+04  0.13701734707E+04  0.25500000920E-02 0.  1.
       -2   -1    0    0    0  501  0.00000000000E+00  0.00000000000E+00 -0.15217499667E+04  0.15217499667E+04  0.25500000920E-02 0. -1.
    10030    2    1    2    0    0  0.00000000000E+00  0.00000000000E+00 -0.15157649604E+03  0.28919234374E+04  0.28879483606E+04 0.  0.
        1    1    3    3  502    0  0.24163791420E+03  0.11903889403E+04  0.70608524395E+03  0.14049808121E+04  0.50400001928E-02 0.  1.
       -1    1    3    3    0  502 -0.24163791420E+03 -0.11903889403E+04 -0.85766173999E+03  0.14869426253E+04  0.50400001928E-02 0. -1.
</event>
<event>
 5   0  0.2336512E-06  0.2883402E+04  0.7818609E-02  0.8277833E-01
        1   -1    0    0  501    0  0.00000000000E+00  0.00000000000E+00  0.18619507159E+04  0.18619507159E+04  0.50400001928E-02 0. -1.
       -1   -1    0    0    0  501  0.00000000000E+00  0.00000000000E+00 -0.11163034722E+04  0.11163034722E+04  0.50400001928E-02 0.  1.
    10030    2    1    2    0    0  0.00000000000E+00  0.00000000000E+00  0.74564724373E+03  0.29782541881E+04  0.28834021913E+04 0.  0.
        4    1    3    3  502    0 -0.11586968581E+04  0.11038644658E+03 -0.50588903681E+03  0.12691291924E+04  0.12699999809E+01 0.  1.
       -4    1    3    3    0  502  0.11586968581E+04 -0.11038644658E+03  0.12515362805E+04  0.17091249957E+04  0.12699999809E+01 0. -1.
</event>
<event>
 5   0  0.2429358E-06  0.2882892E+04  0.7818609E-02  0.8277986E-01
       -1   -1    0    0    0  501  0.00000000000E+00  0.00000000000E+00  0.13712204708E+04  0.13712204709E+04  0.50400001928E-02 0.  1.
        1   -1    0    0  501    0  0.00000000000E+00  0.00000000000E+00 -0.15152683151E+04  0.15152683152E+04  0.50400001928E-02 0. -1.
    10030    2    1    2    0    0  0.00000000000E+00  0.00000000000E+00 -0.14404784430E+03  0.28864887860E+04  0.28828922509E+04 0.  0.
        2    1    3    3  502    0  0.14205384090E+04 -0.23416127297E+03 -0.11821424520E+01  0.14397090924E+04  0.25500000920E-02 0.  1.
       -2    1    3    3    0  502 -0.14205384090E+04  0.23416127297E+03 -0.14286570185E+03  0.14467796936E+04  0.25500000920E-02 0. -1.
</event>
<event>
 5   0  0.6615403E-06  0.2874187E+04  0.7818609E-02  0.8280599E-01
       -2   -1    0    0    0  501  0.00000000000E+00  0.00000000000E+00  0.15886641742E+04  0.15886641742E+04  0.25500000920E-02 0. -1.
        2   -1    0    0  501    0  0.00000000000E+00  0.00000000000E+00 -0.12999840784E+04  0.12999840784E+04  0.25500000920E-02 0.  1.
    10030    2    1    2    0    0  0.00000000000E+00  0.00000000000E+00  0.28868009577E+03  0.28886482526E+04  0.28741872816E+04 0.  0.
        2    1    3    3  502    0 -0.14327941666E+04  0.11023220555E+03  0.15811556096E+03  0.14457007967E+04  0.25500000920E-02 0.  1.
       -2    1    3    3    0  502  0.14327941666E+04 -0.11023220555E+03  0.13056453480E+03  0.14429474560E+04  0.25500000920E-02 0. -1.
</event>
<event>
 5   0  0.2508094E-06  0.2880581E+04  0.7818609E-02  0.8278679E-01
       -1   -1    0    0    0  501  0.00000000000E+00  0.00000000000E+00  0.16188780933E+04  0.16188780933E+04  0.50400001928E-02 0. -1.
        1   -1    0    0  501    0  0.00000000000E+00  0.00000000000E+00 -0.12814035595E+04  0.12814035595E+04  0.50400001928E-02 0.  1.
    10030    2    1    2    0    0  0.00000000000E+00  0.00000000000E+00  0.33747453379E+03  0.29002816528E+04  0.28805806020E+04 0.  0.
        3    1    3    3  502    0 -0.75732870845E+03  0.64550409910E+03  0.12171145797E+04  0.15721292011E+04  0.10100000352E+00 0. -1.
       -3    1    3    3    0  502  0.75732870845E+03 -0.64550409910E+03 -0.87964004587E+03  0.13281524518E+04  0.10100000352E+00 0.  1.
</event>
<event>
 5   0  0.6733688E-06  0.2885446E+04  0.7818609E-02  0.8277221E-01
        2   -1    0    0  501    0  0.00000000000E+00  0.00000000000E+00  0.16875542637E+04  0.16875542637E+04  0.25500000920E-02 0.  1.
       -2   -1    0    0    0  501  0.00000000000E+00  0.00000000000E+00 -0.12334122521E+04  0.12334122521E+04  0.25500000920E-02 0. -1.
    10030    2    1    2    0    0  0.00000000000E+00  0.00000000000E+00  0.45414201158E+03  0.29209665157E+04  0.28854463120E+04 0.  0.
        5    1    3    3  502    0  0.10592497598E+04 -0.58591869027E+03  0.10216649749E+04  0.15840240453E+04  0.46999998093E+01 0.  1.
       -5    1    3    3    0  502 -0.10592497598E+04  0.58591869027E+03 -0.56752296327E+03  0.13369424704E+04  0.46999998093E+01 0. -1.
</event>
<event>
 5   0  0.2508094E-06  0.2896404E+04  0.7818609E-02  0.8273948E-01
        1   -1    0    0  501    0  0.00000000000E+00  0.00000000000E+00  0.15029591019E+04  0.15029591019E+04  0.50400001928E-02 0. -1.
       -1   -1    0    0    0  501  0.00000000000E+00  0.00000000000E+00 -0.13954400924E+04  0.13954400924E+04  0.50400001928E-02 0.  1.
    10030    2    1    2    0    0  0.00000000000E+00  0.00000000000E+00  0.10751900957E+03  0.28983991943E+04  0.28964042453E+04 0.  0.
        3    1    3    3  502    0  0.63806938897E+01 -0.78220041047E+03  0.12733734162E+04  0.14944423919E+04  0.10100000352E+00 0. -1.
       -3    1    3    3    0  502 -0.63806938897E+01  0.78220041047E+03 -0.11658544066E+04  0.14039568024E+04  0.10100000352E+00 0.  1.
</event>
<event>
 5   0  0.6615403E-06  0.2880638E+04  0.7818609E-02  0.8278662E-01
        2   -1    0    0  501    0  0.00000000000E+00  0.00000000000E+00  0.20145385692E+04  0.20145385692E+04  0.25500000920E-02 0.  1.
       -2   -1    0    0    0  501  0.00000000000E+00  0.00000000000E+00 -0.10297735247E+04  0.10297735247E+04  0.25500000920E-02 0. -1.
    10030    2    1    2    0    0  0.00000000000E+00  0.00000000000E+00  0.98476504452E+03  0.30443120939E+04  0.28806377649E+04 0.  0.
        2    1    3    3  502    0  0.81956437318E+02  0.71277649579E+03  0.18122435340E+04  0.19491007714E+04  0.25500000920E-02 0.  1.
       -2    1    3    3    0  502 -0.81956437318E+02 -0.71277649579E+03 -0.82747848944E+03  0.10952113226E+04  0.25500000920E-02 0. -1.
</event>
<event>
 5   0  0.6615403E-06  0.2903171E+04  0.7818609E-02  0.8271935E-01
       -2   -1    0    0    0  501  0.00000000000E+00  0.00000000000E+00  0.19837401242E+04  0.19837401242E+04  0.25500000920E-02 0.  1.
        2   -1    0    0  501    0  0.00000000000E+00  0.00000000000E+00 -0.10621855681E+04  0.10621855681E+04  0.25500000920E-02 0. -1.
    10030    2    1    2    0    0  0.00000000000E+00  0.00000000000E+00  0.92155455614E+03  0.30459256923E+04  0.29031707706E+04 0.  0.
        2    1    3    3  502    0  0.12498942457E+04  0.22028309997E+03 -0.27837904939E+03  0.12993287362E+04  0.25500000920E-02 0. -1.
       -2    1    3    3    0  502 -0.12498942457E+04 -0.22028309997E+03  0.11999336055E+04  0.17465969562E+04  0.25500000920E-02 0.  1.
</event>
<event>
 5   0  0.2474769E-06  0.2347598E+04  0.7818609E-02  0.8459387E-01
       -1   -1    0    0    0  501  0.00000000000E+00  0.00000000000E+00  0.13024603067E+04  0.13024603067E+04  0.50400001928E-02 0.  1.
        1   -1    0    0  501    0  0.00000000000E+00  0.00000000000E+00 -0.10578474158E+04  0.10578474158E+04  0.50400001928E-02 0. -1.
    10030    2    1    2    0    0  0.00000000000E+00  0.00000000000E+00  0.24461289091E+03  0.23603077226E+04  0.23475981511E+04 0.  0.
        1    1    3    3  502    0  0.20807500852E+03 -0.34402483775E+02 -0.10386420844E+04  0.10598377799E+04  0.50400001928E-02 0. -1.
       -1    1    3    3    0  502 -0.20807500852E+03  0.34402483775E+02  0.12832549754E+04  0.13004699427E+04  0.50400001928E-02 0.  1.
</event>
<event>
 5   0  0.6612533E-06  0.2897463E+04  0.7818609E-02  0.8273633E-01
        2   -1    0    0  501    0  0.00000000000E+00  0.00000000000E+00  0.18929748832E+04  0.18929748832E+04  0.25500000920E-02 0.  1.
       -2   -1    0    0    0  501  0.00000000000E+00  0.00000000000E+00 -0.11087433767E+04  0.11087433767E+04  0.25500000920E-02 0. -1.
    10030    2    1    2    0    0  0.00000000000E+00  0.00000000000E+00  0.78423150650E+03  0.30017182598E+04  0.28974632794E+04 0.  0.
        3    1    3    3  502    0 -0.12040151831E+04 -0.38502854567E+03  0.11253416994E+04  0.16924223742E+04  0.10100000352E+00 0.  1.
       -3    1    3    3    0  502  0.12040151831E+04  0.38502854567E+03 -0.34111019287E+03  0.13092958856E+04  0.10100000352E+00 0. -1.
</event>
<event>
 5   0  0.6615403E-06  0.2889932E+04  0.7818609E-02  0.8275879E-01
       -2   -1    0    0    0  501  0.00000000000E+00  0.00000000000E+00  0.17344921227E+04  0.17344921227E+04  0.25500000920E-02 0.  1.
        2   -1    0    0  501    0  0.00000000000E+00  0.00000000000E+00 -0.12037683862E+04  0.12037683862E+04  0.25500000920E-02 0. -1.
    10030    2    1    2    0    0  0.00000000000E+00  0.00000000000E+00  0.53072373649E+03  0.29382605090E+04  0.28899320293E+04 0.  0.
        2    1    3    3  502    0  0.24256058450E+03 -0.78540860403E+03 -0.94288182283E+03  0.12508910601E+04  0.25500000920E-02 0. -1.
       -2    1    3    3    0  502 -0.24256058450E+03  0.78540860403E+03  0.14736055593E+04  0.16873694488E+04  0.25500000920E-02 0.  1.
</event>
<event>
 5   0  0.2508094E-06  0.2816933E+04  0.7818609E-02  0.8298031E-01
       -1   -1    0    0    0  501  0.00000000000E+00  0.00000000000E+00  0.23812706651E+04  0.23812706651E+04  0.50400001928E-02 0.  1.
        1   -1    0    0  501    0  0.00000000000E+00  0.00000000000E+00 -0.83307524455E+03  0.83307524456E+03  0.50400001928E-02 0. -1.
    10030    2    1    2    0    0  0.00000000000E+00  0.00000000000E+00  0.15481954205E+04  0.32143459096E+04  0.28169328296E+04 0.  0.
        3    1    3    3  502    0  0.32281032394E+02 -0.11284584916E+04  0.17351262918E+04  0.20700540792E+04  0.10100000352E+00 0.  1.
       -3    1    3    3    0  502 -0.32281032394E+02  0.11284584916E+04 -0.18693087123E+03  0.11442918304E+04  0.10100000352E+00 0. -1.
</event>
<event>
 5   0  0.2508094E-06  0.2903773E+04  0.7818609E-02  0.8271756E-01
       -1   -1    0    0    0  501  0.00000000000E+00  0.00000000000E+00  0.93301810784E+03  0.93301810786E+03  0.50400001928E-02 0. -1.
        1   -1    0    0  501    0  0.00000000000E+00  0.00000000000E+00 -0.22593070530E+04  0.22593070530E+04  0.50400001928E-02 0.  1.
    10030    2    1    2    0    0  0.00000000000E+00  0.00000000000E+00 -0.13262889452E+04  0.31923251609E+04  0.29037729882E+04 0.  0.
        3    1    3    3  502    0  0.10505860907E+04 -0.88582050899E+03 -0.14800327129E+03  0.13821411240E+04  0.10100000352E+00 0.  1.
       -3    1    3    3    0  502 -0.10505860907E+04  0.88582050899E+03 -0.11782856739E+04  0.18101840369E+04  0.10100000352E+00 0. -1.
</event>
<event>
 5   0  0.2336512E-06  0.2882832E+04  0.7818609E-02  0.8278004E-01
        1   -1    0    0  501    0  0.00000000000E+00  0.00000000000E+00  0.12860666715E+04  0.12860666716E+04  0.50400001928E-02 0.  1.
       -1   -1    0    0    0  501  0.00000000000E+00  0.00000000000E+00 -0.16155311033E+04  0.16155311033E+04  0.50400001928E-02 0. -1.
    10030    2    1    2    0    0  0.00000000000E+00  0.00000000000E+00 -0.32946443180E+03  0.29015977749E+04  0.28828324328E+04 0.  0.
        4    1    3    3  502    0 -0.70324371107E+02  0.72535162037E+02 -0.16119625357E+04  0.16151259072E+04  0.12699999809E+01 0. -1.
       -4    1    3    3    0  502  0.70324371107E+02 -0.72535162037E+02  0.12824981039E+04  0.12864718677E+04  0.12699999809E+01 0.  1.
</event>
<event>
 5   0  0.6612533E-06  0.2920672E+04  0.7818609E-02  0.8266753E-01
       -2   -1    0    0    0  501  0.00000000000E+00  0.00000000000E+00  0.96224892693E+03  0.96224892693E+03  0.25500000920E-02 0.  1.
        2   -1    0    0  501    0  0.00000000000E+00  0.00000000000E+00 -0.22162474643E+04  0.22162474643E+04  0.25500000920E-02 0. -1.
    10030    2    1    2    0    0  0.00000000000E+00  0.00000000000E+00 -0.12539985374E+04  0.31784963912E+04  0.29206723502E+04 0.  0.
        3    1    3    3  502    0  0.13384940559E+04 -0.49229248522E+03 -0.96883476208E+03  0.17241110855E+04  0.10100000352E+00 0. -1.
       -3    1    3    3    0  502 -0.13384940559E+04  0.49229248522E+03 -0.28516377529E+03  0.14543853058E+04  0.10100000352E+00 0.  1.
</event>
<event>
 5   0  0.6615403E-06  0.2895328E+04  0.7818609E-02  0.8274269E-01
       -2   -1    0    0    0  501  0.00000000000E+00  0.00000000000E+00  0.28295637143E+04  0.28295637143E+04  0.25500000920E-02 0.  1.
        2   -1    0    0  501    0  0.00000000000E+00  0.00000000000E+00 -0.74065505523E+03  0.74065505524E+03  0.25500000920E-02 0. -1.
    10030    2    1    2    0    0  0.00000000000E+00  0.00000000000E+00  0.20889086591E+04  0.35702187696E+04  0.28953277321E+04 0.  0.
        2    1    3    3  502    0  0.97195283491E+03 -0.50371649110E+03  0.22125216705E+04  0.24685369674E+04  0.25500000920E-02 0.  1.
       -2    1    3    3    0  502 -0.97195283491E+03  0.50371649110E+03 -0.12361301143E+03  0.11016818022E+04  0.25500000920E-02 0. -1.
</event>
<event>
 5   0  0.6393633E-06  0.2882042E+04  0.7818609E-02  0.8278241E-01
       -2   -1    0    0    0  501  0.00000000000E+00  0.00000000000E+00  0.98431336902E+03  0.98431336903E+03  0.25500000920E-02 0. -1.
        2   -1    0    0  501    0  0.00000000000E+00  0.00000000000E+00 -0.21096341718E+04  0.21096341718E+04  0.25500000920E-02 0.  1.
    10030    2    1    2    0    0  0.00000000000E+00  0.00000000000E+00 -0.11253208028E+04  0.30939475408E+04  0.28820417201E+04 0.  0.
        4    1    3    3  502    0  0.29155353786E+03 -0.32062600223E+03  0.91270025350E+03  0.10103602646E+04  0.12699999809E+01 0. -1.
       -4    1    3    3    0  502 -0.29155353786E+03  0.32062600223E+03 -0.20380210563E+04  0.20835872762E+04  0.12699999809E+01 0.  1.
</event>
<event>
 5   0  0.2429358E-06  0.2896393E+04  0.7818609E-02  0.8273952E-01
       -1   -1    0    0    0  501  0.00000000000E+00  0.00000000000E+00  0.11795278478E+04  0.11795278478E+04  0.50400001928E-02 0.  1.
        1   -1    0    0  501    0  0.00000000000E+00  0.00000000000E+00 -0.17780612381E+04  0.17780612381E+04  0.50400001928E-02 0. -1.
    10030    2    1    2    0    0  0.00000000000E+00  0.00000000000E+00 -0.59853339026E+03  0.29575890859E+04  0.28963927534E+04 0.  0.
        2    1    3    3  502    0  0.74075514388E+03 -0.11598939672E+04 -0.75956864976E+03  0.15719467968E+04  0.25500000920E-02 0. -1.
       -2    1    3    3    0  502 -0.74075514388E+03  0.11598939672E+04  0.16103525950E+03  0.13856422891E+04  0.25500000920E-02 0.  1.
</event>
<event>
 5   0  0.6513041E-06  0.2893267E+04  0.7818609E-02  0.8274883E-01
       -2   -1    0    0    0  501  0.00000000000E+00  0.00000000000E+00  0.10270392740E+04  0.10270392740E+04  0.25500000920E-02 0. -1.
        2   -1    0    0  501    0  0.00000000000E+00  0.00000000000E+00 -0.20376522516E+04  0.20376522516E+04  0.25500000920E-02 0.  1.
    10030    2    1    2    0    0  0.00000000000E+00  0.00000000000E+00 -0.10106129775E+04  0.30646915256E+04  0.28932672805E+04 0.  0.
        1    1    3    3  502    0  0.72671530745E+03  0.12065250829E+04 -0.85490848817E+03  0.16476305523E+04  0.50400001928E-02 0.  1.
       -1    1    3    3    0  502 -0.72671530745E+03 -0.12065250829E+04 -0.15570448937E+03  0.14170609732E+04  0.50400001928E-02 0. -1.
</event>
<event>
 5   0  0.6615403E-06  0.2891682E+04  0.7818609E-02  0.8275357E-01
       -2   -1    0    0    0  501  0.00000000000E+00  0.00000000000E+00  0.18212643174E+04  0.18212643174E+04  0.25500000920E-02 0. -1.
        2   -1    0    0  501    0  0.00000000000E+00  0.00000000000E+00 -0.11478052647E+04  0.11478052647E+04  0.25500000920E-02 0.  1.
    10030    2    1    2    0    0  0.00000000000E+00  0.00000000000E+00  0.67345905278E+03  0.29690695821E+04  0.28916823974E+04 0.  0.
        2    1    3    3  502    0  0.10798263206E+04 -0.10018022700E+02 -0.65042165093E+03  0.12606242769E+04  0.25500000920E-02 0.  1.
       -2    1    3    3    0  502 -0.10798263206E+04  0.10018022700E+02  0.13238807037E+04  0.17084453053E+04  0.25500000920E-02 0. -1.
</event>
<event>
 5   0  0.2474769E-06  0.2842259E+04  0.7818609E-02  0.8290267E-01
        1   -1    0    0  501    0  0.00000000000E+00  0.00000000000E+00  0.95052645642E+03  0.95052645643E+03  0.50400001928E-02 0. -1.
       -1   -1    0    0    0  501  0.00000000000E+00  0.00000000000E+00 -0.21247271529E+04  0.21247271529E+04  0.50400001928E-02 0.  1.
    10030    2    1    2    0    0  0.00000000000E+00  0.00000000000E+00 -0.11742006964E+04  0.30752536093E+04  0.28422592222E+04 0.  0.
        1    1    3    3  502    0 -0.82338355581E+03  0.35446233328E+03 -0.17802227354E+04  0.19931876513E+04  0.50400001928E-02 0.  1.
       -1    1    3    3    0  502  0.82338355581E+03 -0.35446233328E+03  0.60602203896E+03  0.10820659580E+04  0.50400001928E-02 0. -1.
</event>
<event>
 5   0  0.2508094E-06  0.2873762E+04  0.7818609E-02  0.8280727E-01
       -1   -1    0    0    0  501  0.00000000000E+00  0.00000000000E+00  0.10834762537E+04  0.10834762537E+04  0.50400001928E-02 0.  1.
        1   -1    0    0  501    0  0.00000000000E+00  0.00000000000E+00 -0.19055583442E+04  0.19055583443E+04  0.50400001928E-02 0. -1.
    10030    2    1    2    0    0  0.00000000000E+00  0.00000000000E+00 -0.82208209058E+03  0.29890345979E+04  0.28737621446E+04 0.  0.
        3    1    3    3  502    0 -0.92055029015E+03  0.42895137929E+03  0.64620359255E+03  0.12037405101E+04  0.10100000352E+00 0.  1.
       -3    1    3    3    0  502  0.92055029015E+03 -0.42895137929E+03 -0.14682856831E+04  0.17852940878E+04  0.10100000352E+00 0. -1.
</event>
<event>
 5   0  0.2336512E-06  0.2871845E+04  0.7818609E-02  0.8281304E-01
       -1   -1    0    0    0  501  0.00000000000E+00  0.00000000000E+00  0.13140177696E+04  0.13140177697E+04  0.50400001928E-02 0.  1.
        1   -1    0    0  501    0  0.00000000000E+00  0.00000000000E+00 -0.15691360922E+04  0.15691360922E+04  0.50400001928E-02 0. -1.
    10030    2    1    2    0    0  0.00000000000E+00  0.00000000000E+00 -0.25511832254E+03  0.28831538618E+04  0.28718445001E+04 0.  0.
        4    1    3    3  502    0  0.57638081909E+02 -0.48869536855E+03 -0.14818435525E+04  0.15614119375E+04  0.12699999809E+01 0. -1.
       -4    1    3    3    0  502 -0.57638081909E+02  0.48869536855E+03  0.12267252300E+04  0.13217419243E+04  0.12699999809E+01 0.  1.
</event>
<event>
 5   0  0.2508094E-06  0.2890545E+04  0.7818609E-02  0.8275696E-01
       -1   -1    0    0    0  501  0.00000000000E+00  0.00000000000E+00  0.12895360843E+04  0.12895360843E+04  0.50400001928E-02 0.  1.
        1   -1    0    0  501    0  0.00000000000E+00  0.00000000000E+00 -0.16198173004E+04  0.16198173004E+04  0.50400001928E-02 0. -1.
    10030    2    1    2    0    0  0.00000000000E+00  0.00000000000E+00 -0.33028121616E+03  0.29093533847E+04  0.28905451796E+04 0.  0.
        3    1    3    3  502    0  0.46188499000E+03  0.81392265066E+03 -0.12736720452E+04  0.15805215323E+04  0.10100000352E+00 0. -1.
       -3    1    3    3    0  502 -0.46188499000E+03 -0.81392265066E+03  0.94339082905E+03  0.13288318523E+04  0.10100000352E+00 0.  1.
</event>
<event>
 5   0  0.6612533E-06  0.2810174E+04  0.7818609E-02  0.8300117E-01
       -2   -1    0    0    0  501  0.00000000000E+00  0.00000000000E+00  0.10994408175E+04  0.10994408176E+04  0.25500000920E-02 0.  1.
        2   -1    0    0  501    0  0.00000000000E+00  0.00000000000E+00 -0.17957028735E+04  0.17957028735E+04  0.25500000920E-02 0. -1.
    10030    2    1    2    0    0  0.00000000000E+00  0.00000000000E+00 -0.69626205599E+03  0.28951436911E+04  0.28101736853E+04 0.  0.
        3    1    3    3  502    0 -0.11662502040E+04  0.78043189900E+03 -0.42138322283E+03  0.14651884923E+04  0.10100000352E+00 0. -1.
       -3    1    3    3    0  502  0.11662502040E+04 -0.78043189900E+03 -0.27487883316E+03  0.14299551988E+04  0.10100000352E+00 0.  1.
</event>
<event>
 5   0  0.2336512E-06  0.2904337E+04  0.7818609E-02  0.8271588E-01
        1   -1    0    0  501    0  0.00000000000E+00  0.00000000000E+00  0.20753164069E+04  0.20753164069E+04  0.50400001928E-02 0.  1.
       -1   -1    0    0    0  501  0.00000000000E+00  0.00000000000E+00 -0.10161310155E+04  0.10161310155E+04  0.50400001928E-02 0. -1.
    10030    2    1    2    0    0  0.00000000000E+00  0.00000000000E+00  0.10591853915E+04  0.30914474224E+04  0.29043370107E+04 0.  0.
        4    1    3    3  502    0 -0.79330924305E+03 -0.11515397961E+04  0.11268560541E+03  0.14028838568E+04  0.12699999809E+01 0. -1.
       -4    1    3    3    0  502  0.79330924305E+03  0.11515397961E+04  0.94649978607E+03  0.16885635656E+04  0.12699999809E+01 0.  1.
</event>
<event>
 5   0  0.6513041E-06  0.2903946E+04  0.7818609E-02  0.8271704E-01
       -2   -1    0    0    0  501  0.00000000000E+00  0.00000000000E+00  0.87980210886E+03  0.87980210887E+03  0.25500000920E-02 0. -1.
        2   -1    0    0  501    0  0.00000000000E+00  0.00000000000E+00 -0.23962503595E+04  0.23962503595E+04  0.25500000920E-02 0.  1.
    10030    2    1    2    0    0  0.00000000000E+00  0.00000000000E+00 -0.15164482506E+04  0.32760524684E+04  0.29039463629E+04 0.  0.
        1    1    3    3  502    0  0.75055008690E+03  0.75509314558E+03 -0.18720198456E+04  0.21535898852E+04  0.50400001928E-02 0.  1.
       -1    1    3    3    0  502 -0.75055008690E+03 -0.75509314558E+03  0.35557159493E+03  0.11224625832E+04  0.50400001928E-02 0. -1.
</event>
<event>
 5   0  0.2429358E-06  0.2904665E+04  0.7818609E-02  0.8271491E-01
        1   -1    0    0  501    0  0.00000000000E+00  0.00000000000E+00  0.11554895054E+04  0.11554895055E+04  0.50400001928E-02 0.  1.
       -1   -1    0    0    0  501  0.00000000000E+00  0.00000000000E+00 -0.18254336180E+04  0.18254336180E+04  0.50400001928E-02 0. -1.
    10030    2    1    2    0    0  0.00000000000E+00  0.00000000000E+00 -0.66994411255E+03  0.29809231235E+04  0.29046647920E+04 0.  0.
        2    1    3    3  502    0  0.59762119322E+03 -0.11991079597E+04 -0.91027712729E+03  0.16197578331E+04  0.25500000920E-02 0. -1.
       -2    1    3    3    0  502 -0.59762119322E+03  0.11991079597E+04  0.24033301474E+03  0.13611652903E+04  0.25500000920E-02 0.  1.
</event>
<event>
 5   0  0.2508094E-06  0.2886584E+04  0.7818609E-02  0.8276880E-01
       -1   -1    0    0    0  501  0.00000000000E+00  0.00000000000E+00  0.69724579985E+03  0.69724579987E+03  0.50400001928E-02 0. -1.
        1   -1    0    0  501    0  0.00000000000E+00  0.00000000000E+00 -0.29876005522E+04  0.29876005522E+04  0.50400001928E-02 0.  1.
    10030    2    1    2    0    0  0.00000000000E+00  0.00000000000E+00 -0.22903547523E+04  0.36848463520E+04  0.28865840966E+04 0.  0.
        3    1    3    3  502    0 -0.75111414699E+03 -0.86582764704E+03 -0.25553129723E+02  0.11465090269E+04  0.10100000352E+00 0. -1.
       -3    1    3    3    0  502  0.75111414699E+03  0.86582764704E+03 -0.22648016226E+04  0.25383373251E+04  0.10100000352E+00 0.  1.
</event>
<event>
 5   0  0.6393633E-06  0.2882024E+04  0.7818609E-02  0.8278246E-01
        2   -1    0    0  501    0  0.00000000000E+00  0.00000000000E+00  0.16678238777E+04  0.16678238777E+04  0.25500000920E-02 0. -1.
       -2   -1    0    0    0  501  0.00000000000E+00  0.00000000000E+00 -0.12450446667E+04  0.12450446667E+04  0.25500000920E-02 0.  1.
    10030    2    1    2    0    0  0.00000000000E+00  0.00000000000E+00  0.42277921107E+03  0.29128685444E+04  0.28820237500E+04 0.  0.
        4    1    3    3  502    0 -0.52160359698E+03 -0.16665934563E+03  0.15585722078E+04  0.16519668852E+04  0.12699999809E+01 0. -1.
       -4    1    3    3    0  502  0.52160359698E+03  0.16665934563E+03 -0.11357929967E+04  0.12609016592E+04  0.12699999809E+01 0.  1.
</event>
<event>
 5   0  0.2336512E-06  0.2884432E+04  0.7818609E-02  0.8277525E-01
       -1   -1    0    0    0  501  0.00000000000E+00  0.00000000000E+00  0.14329357786E+04  0.14329357786E+04  0.50400001928E-02 0.  1.
        1   -1    0    0  501    0  0.00000000000E+00  0.00000000000E+00 -0.14515562654E+04  0.14515562654E+04  0.50400001928E-02 0. -1.
    10030    2    1    2    0    0  0.00000000000E+00  0.00000000000E+00 -0.18620486755E+02  0.28844920440E+04  0.28844319423E+04 0.  0.
        4    1    3    3  502    0  0.11386455265E+04 -0.62279331916E+03  0.61967038210E+03  0.14381857143E+04  0.12699999809E+01 0.  1.
       -4    1    3    3    0  502 -0.11386455265E+04  0.62279331916E+03 -0.63829086885E+03  0.14463063298E+04  0.12699999809E+01 0. -1.
</event>
<event>
 5   0  0.6615403E-06  0.2894542E+04  0.7818609E-02  0.8274503E-01
       -2   -1    0    0    0  501  0.00000000000E+00  0.00000000000E+00  0.11232898111E+04  0.11232898111E+04  0.25500000920E-02 0. -1.
        2   -1    0    0  501    0  0.00000000000E+00  0.00000000000E+00 -0.18646959724E+04  0.18646959724E+04  0.25500000920E-02 0.  1.
    10030    2    1    2    0    0  0.00000000000E+00  0.00000000000E+00 -0.74140616133E+03  0.29879857834E+04  0.28945424416E+04 0.  0.
        2    1    3    3  502    0  0.10485649060E+04  0.40754271758E+03  0.56919266418E+03  0.12607774259E+04  0.25500000920E-02 0. -1.
       -2    1    3    3    0  502 -0.10485649060E+04 -0.40754271758E+03 -0.13105988255E+04  0.17272083575E+04  0.25500000920E-02 0.  1.
</event>
<event>
 5   0  0.2348684E-06  0.2928215E+04  0.7818609E-02  0.8264532E-01
       -1   -1    0    0    0  501  0.00000000000E+00  0.00000000000E+00  0.15005145996E+04  0.15005145996E+04  0.50400001928E-02 0. -1.
        1   -1    0    0  501    0  0.00000000000E+00  0.00000000000E+00 -0.14285837697E+04  0.14285837697E+04  0.50400001928E-02 0.  1.
    10030    2    1    2    0    0  0.00000000000E+00  0.00000000000E+00  0.71930829897E+02  0.29290983693E+04  0.29282150217E+04 0.  0.
        5    1    3    3  502    0 -0.70029091841E+02 -0.10625764232E+04  0.10410650185E+04  0.14892317455E+04  0.46999998093E+01 0. -1.
       -5    1    3    3    0  502  0.70029091841E+02  0.10625764232E+04 -0.96913418865E+03  0.14398666239E+04  0.46999998093E+01 0.  1.
</event>
<event>
 5   0  0.6612533E-06  0.2902363E+04  0.7818609E-02  0.8272175E-01
        2   -1    0    0  501    0  0.00000000000E+00  0.00000000000E+00  0.12413749877E+04  0.12413749877E+04  0.25500000920E-02 0. -1.
       -2   -1    0    0    0  501  0.00000000000E+00  0.00000000000E+00 -0.16964471599E+04  0.16964471599E+04  0.25500000920E-02 0.  1.
    10030    2    1    2    0    0  0.00000000000E+00  0.00000000000E+00 -0.45507217219E+03  0.29378221476E+04  0.29023625358E+04 0.  0.
        3    1    3    3  502    0 -0.89782829419E+03  0.49489408261E+03 -0.12671732737E+04  0.16299521204E+04  0.10100000352E+00 0.  1.
       -3    1    3    3    0  502  0.89782829419E+03 -0.49489408261E+03  0.81210110153E+03  0.13078700272E+04  0.10100000352E+00 0. -1.
</event>
<event>
 5   0  0.2429358E-06  0.2888356E+04  0.7818609E-02  0.8276350E-01
        1   -1    0    0  501    0  0.00000000000E+00  0.00000000000E+00  0.13757645350E+04  0.13757645350E+04  0.50400001928E-02 0. -1.
       -1   -1    0    0    0  501  0.00000000000E+00  0.00000000000E+00 -0.15159933819E+04  0.15159933819E+04  0.50400001928E-02 0.  1.
    10030    2    1    2    0    0  0.00000000000E+00  0.00000000000E+00 -0.14022884690E+03  0.28917579170E+04  0.28883558854E+04 0.  0.
        2    1    3    3  502    0 -0.12777319302E+04  0.26004674544E+03 -0.69167312089E+03  0.14760199530E+04  0.25500000920E-02 0.  1.
       -2    1    3    3    0  502  0.12777319302E+04 -0.26004674544E+03  0.55144427399E+03  0.14157379640E+04  0.25500000920E-02 0. -1.
</event>
<event>
 5   0  0.6615403E-06  0.2865754E+04  0.7818609E-02  0.8283140E-01
        2   -1    0    0  501    0  0.00000000000E+00  0.00000000000E+00  0.11411993036E+04  0.11411993036E+04  0.25500000920E-02 0. -1.
       -2   -1    0    0    0  501  0.00000000000E+00  0.00000000000E+00 -0.17991044698E+04  0.17991044698E+04  0.25500000920E-02 0.  1.
    10030    2    1    2    0    0  0.00000000000E+00  0.00000000000E+00 -0.65790516620E+03  0.29403037735E+04  0.28657541891E+04 0.  0.
        2    1    3    3  502    0  0.77464571039E+03  0.11447251654E+04 -0.71648864218E+03  0.15568646875E+04  0.25500000920E-02 0.  1.
       -2    1    3    3    0  502 -0.77464571039E+03 -0.11447251654E+04  0.58583475980E+02  0.13834390859E+04  0.25500000920E-02 0. -1.
</event>
<event>
 5   0  0.6513041E-06  0.2819188E+04  0.7818609E-02  0.8297336E-01
        2   -1    0    0  501    0  0.00000000000E+00  0.00000000000E+00  0.23883992745E+04  0.23883992745E+04  0.25500000920E-02 0.  1.
       -2   -1    0    0    0  501  0.00000000000E+00  0.00000000000E+00 -0.83191939140E+03  0.83191939140E+03  0.25500000920E-02 0. -1.
    10030    2    1    2    0    0  0.00000000000E+00  0.00000000000E+00  0.15564798831E+04  0.32203186659E+04  0.28191883023E+04 0.  0.
        1    1    3    3  502    0 -0.44420460537E+03  0.10979574348E+04 -0.94788832586E+02  0.11881974511E+04  0.50400001928E-02 0. -1.
       -1    1    3    3    0  502  0.44420460537E+03 -0.10979574348E+04  0.16512687157E+04  0.20321212148E+04  0.50400001928E-02 0.  1.
</event>
<event>
 5   0  0.2508094E-06  0.2872491E+04  0.7818609E-02  0.8281109E-01
       -1   -1    0    0    0  501  0.00000000000E+00  0.00000000000E+00  0.12178182686E+04  0.12178182686E+04  0.50400001928E-02 0. -1.
        1   -1    0    0  501    0  0.00000000000E+00  0.00000000000E+00 -0.16938502401E+04  0.16938502401E+04  0.50400001928E-02 0.  1.
    10030    2    1    2    0    0  0.00000000000E+00  0.00000000000E+00 -0.47603197153E+03  0.29116685088E+04  0.28724914390E+04 0.  0.
        3    1    3    3  502    0  0.30036891507E+03 -0.10427684722E+04 -0.11917062928E+04  0.16117541593E+04  0.10100000352E+00 0.  1.
       -3    1    3    3    0  502 -0.30036891507E+03  0.10427684722E+04  0.71567432122E+03  0.12999143495E+04  0.10100000352E+00 0. -1.
</event>
<event>
 5   0  0.2336512E-06  0.2895360E+04  0.7818609E-02  0.8274259E-01
        1   -1    0    0  501    0  0.00000000000E+00  0.00000000000E+00  0.17228796052E+04  0.17228796052E+04  0.50400001928E-02 0. -1.
       -1   -1    0    0    0  501  0.00000000000E+00  0.00000000000E+00 -0.12164384073E+04  0.12164384073E+04  0.50400001928E-02 0.  1.
    10030    2    1    2    0    0  0.00000000000E+00  0.00000000000E+00  0.50644119787E+03  0.29393180125E+04  0.28953596827E+04 0.  0.
        4    1    3    3  502    0 -0.14460041265E+04  0.16794628734E+02  0.32181355386E+03  0.14814774955E+04  0.12699999809E+01 0. -1.
       -4    1    3    3    0  502  0.14460041265E+04 -0.16794628734E+02  0.18462764400E+03  0.14578405170E+04  0.12699999809E+01 0.  1.
</event>
<event>
 5   0  0.6615403E-06  0.2915327E+04  0.7818609E-02  0.8268332E-01
       -2   -1    0    0    0  501  0.00000000000E+00  0.00000000000E+00  0.96980780667E+03  0.96980780667E+03  0.25500000920E-02 0.  1.
        2   -1    0    0  501    0  0.00000000000E+00  0.00000000000E+00 -0.21909318080E+04  0.21909318080E+04  0.25500000920E-02 0. -1.
    10030    2    1    2    0    0  0.00000000000E+00  0.00000000000E+00 -0.12211240013E+04  0.31607396146E+04  0.29153269259E+04 0.  0.
        2    1    3    3  502    0 -0.13981820999E+04 -0.57757031119E+02 -0.16812388171E+03  0.14094377243E+04  0.25500000920E-02 0.  1.
       -2    1    3    3    0  502  0.13981820999E+04  0.57757031119E+02 -0.10530001196E+04  0.17513018903E+04  0.25500000920E-02 0. -1.
</event>
<event>
 5   0  0.6393633E-06  0.2901670E+04  0.7818609E-02  0.8272381E-01
       -2   -1    0    0    0  501  0.00000000000E+00  0.00000000000E+00  0.14820706867E+04  0.14820706867E+04  0.25500000920E-02 0. -1.
        2   -1    0    0  501    0  0.00000000000E+00  0.00000000000E+00 -0.14202572990E+04  0.14202572990E+04  0.25500000920E-02 0.  1.
    10030    2    1    2    0    0  0.00000000000E+00  0.00000000000E+00  0.61813387699E+02  0.29023279858E+04  0.29016696645E+04 0.  0.
        4    1    3    3  502    0  0.24109394424E+03 -0.12739675649E+04  0.68205396896E+03  0.14650320392E+04  0.12699999809E+01 0. -1.
       -4    1    3    3    0  502 -0.24109394424E+03  0.12739675649E+04 -0.62024058126E+03  0.14372959466E+04  0.12699999809E+01 0.  1.
</event>
<event>
 5   0  0.6612533E-06  0.2909022E+04  0.7818609E-02  0.8270198E-01
       -2   -1    0    0    0  501  0.00000000000E+00  0.00000000000E+00  0.18581453042E+04  0.18581453042E+04  0.25500000920E-02 0. -1.
        2   -1    0    0  501    0  0.00000000000E+00  0.00000000000E+00 -0.11385555862E+04  0.11385555862E+04  0.25500000920E-02 0.  1.
    10030    2    1    2    0    0  0.00000000000E+00  0.00000000000E+00  0.71958971799E+03  0.29967008903E+04  0.29090216334E+04 0.  0.
        3    1    3    3  502    0 -0.58493568939E+03  0.75300636586E+03 -0.77168835238E+03  0.12266504274E+04  0.10100000352E+00 0.  1.
       -3    1    3    3    0  502  0.58493568939E+03 -0.75300636586E+03  0.14912780704E+04  0.17700504629E+04  0.10100000352E+00 0. -1.
</event>
<event>
 5   0  0.6733688E-06  0.2901909E+04  0.7818609E-02  0.8272310E-01
       -2   -1    0    0    0  501  0.00000000000E+00  0.00000000000E+00  0.13691194597E+04  0.13691194597E+04  0.25500000920E-02 0.  1.
        2   -1    0    0  501    0  0.00000000000E+00  0.00000000000E+00 -0.15376805394E+04  0.15376805394E+04  0.25500000920E-02 0. -1.
    10030    2    1    2    0    0  0.00000000000E+00  0.00000000000E+00 -0.16856107973E+03  0.29067999991E+04  0.29019085784E+04 0.  0.
        5    1    3    3  502    0  0.11942851639E+04 -0.16066076873E+03 -0.89379950344E+03  0.15003428200E+04  0.46999998093E+01 0.  1.
       -5    1    3    3    0  502 -0.11942851639E+04  0.16066076873E+03  0.72523842371E+03  0.14064571791E+04  0.46999998093E+01 0. -1.
</event>
<event>
 5   0  0.2336512E-06  0.2867329E+04  0.7818609E-02  0.8282665E-01
       -1   -1    0    0    0  501  0.00000000000E+00  0.00000000000E+00  0.11624412104E+04  0.11624412104E+04  0.50400001928E-02 0.  1.
        1   -1    0    0  501    0  0.00000000000E+00  0.00000000000E+00 -0.17681702213E+04  0.17681702213E+04  0.50400001928E-02 0. -1.
    10030    2    1    2    0    0  0.00000000000E+00  0.00000000000E+00 -0.60572901094E+03  0.29306114317E+04  0.28673290235E+04 0.  0.
        4    1    3    3  502    0  0.60879032271E+03 -0.95051087613E+03  0.60055286331E+03  0.12785780919E+04  0.12699999809E+01 0.  1.
       -4    1    3    3    0  502 -0.60879032271E+03  0.95051087613E+03 -0.12062818743E+04  0.16520333398E+04  0.12699999809E+01 0. -1.
</event>
<event>
 5   0  0.2348684E-06  0.2911055E+04  0.7818609E-02  0.8269596E-01
       -1   -1    0    0    0  501  0.00000000000E+00  0.00000000000E+00  0.16316846585E+04  0.16316846585E+04  0.50400001928E-02 0.  1.
        1   -1    0    0  501    0  0.00000000000E+00  0.00000000000E+00 -0.12983882198E+04  0.12983882198E+04  0.50400001928E-02 0. -1.
    10030    2    1    2    0    0  0.00000000000E+00  0.00000000000E+00  0.33329643872E+03  0.29300728783E+04  0.29110548872E+04 0.  0.
        5    1    3    3  502    0 -0.70407450140E+03  0.78989778634E+03  0.11726167383E+04  0.15794655809E+04  0.46999998093E+01 0.  1.
       -5    1    3    3    0  502  0.70407450140E+03 -0.78989778634E+03 -0.83932029961E+03  0.13506072974E+04  0.46999998093E+01 0. -1.
</event>
<event>
 5   0  0.2474769E-06  0.2994051E+04  0.7818609E-02  0.8245432E-01
        1   -1    0    0  501    0  0.00000000000E+00  0.00000000000E+00  0.16216137590E+04  0.16216137591E+04  0.50400001928E-02 0.  1.
       -1   -1    0    0    0  501  0.00000000000E+00  0.00000000000E+00 -0.13820096293E+04  0.13820096293E+04  0.50400001928E-02 0. -1.
    10030    2    1    2    0    0  0.00000000000E+00  0.00000000000E+00  0.23960412975E+03  0.30036233884E+04  0.29940513222E+04 0.  0.
        1    1    3    3  502    0  0.31903942647E+03 -0.35779258719E+03  0.15425335785E+04  0.16153053990E+04  0.50400001928E-02 0.  1.
       -1    1    3    3    0  502 -0.31903942647E+03  0.35779258719E+03 -0.13029294488E+04  0.13883179894E+04  0.50400001928E-02 0. -1.
</event>
<event>
 5   0  0.6393633E-06  0.2887773E+04  0.7818609E-02  0.8276525E-01
        2   -1    0    0  501    0  0.00000000000E+00  0.00000000000E+00  0.17510199733E+04  0.17510199733E+04  0.25500000920E-02 0.  1.
       -2   -1    0    0    0  501  0.00000000000E+00  0.00000000000E+00 -0.11906248386E+04  0.11906248386E+04  0.25500000920E-02 0. -1.
    10030    2    1    2    0    0  0.00000000000E+00  0.00000000000E+00  0.56039513466E+03  0.29416448119E+04  0.28877727564E+04 0.  0.
        4    1    3    3  502    0  0.29090089340E+02  0.12095486209E+04 -0.52250802591E+03  0.13179037711E+04  0.12699999809E+01 0. -1.
       -4    1    3    3    0  502 -0.29090089340E+02 -0.12095486209E+04  0.10829031606E+04  0.16237410409E+04  0.12699999809E+01 0.  1.
</event>
<event>
 5   0  0.6393633E-06  0.2871070E+04  0.7818609E-02  0.8281537E-01
       -2   -1    0    0    0  501  0.00000000000E+00  0.00000000000E+00  0.11606385799E+04  0.11606385800E+04  0.25500000920E-02 0. -1.
        2   -1    0    0  501    0  0.00000000000E+00  0.00000000000E+00 -0.17755401369E+04  0.17755401369E+04  0.25500000920E-02 0.  1.
    10030    2    1    2    0    0  0.00000000000E+00  0.00000000000E+00 -0.61490155692E+03  0.29361787168E+04  0.28710697540E+04 0.  0.
        4    1    3    3  502    0 -0.58862203174E+03 -0.99397331990E+03  0.56410811424E+03  0.12855654143E+04  0.12699999809E+01 0. -1.
       -4    1    3    3    0  502  0.58862203174E+03  0.99397331990E+03 -0.11790096712E+04  0.16506133025E+04  0.12699999809E+01 0.  1.
</event>
<event>
 5   0  0.2159500E-06  0.2904934E+04  0.7818609E-02  0.8271411E-01
       -3   -1    0    0    0  501  0.00000000000E+00  0.00000000000E+00  0.82461709081E+03  0.82461709700E+03  0.10100000352E+00 0. -1.
        3   -1    0    0  501    0  0.00000000000E+00  0.00000000000E+00 -0.25583520314E+04  0.25583520334E+04  0.10100000352E+00 0.  1.
    10030    2    1    2    0    0  0.00000000000E+00  0.00000000000E+00 -0.17337349406E+04  0.33829691304E+04  0.29049343010E+04 0.  0.
        4    1    3    3  502    0  0.41406108312E+03 -0.13666846743E+04 -0.55790642657E+03  0.15331453856E+04  0.12699999809E+01 0.  1.
       -4    1    3    3    0  502 -0.41406108312E+03  0.13666846743E+04 -0.11758285140E+04  0.18498237448E+04  0.12699999809E+01 0. -1.
</event>
<event>
 5   0  0.6615403E-06  0.2909244E+04  0.7818609E-02  0.8270133E-01
        2   -1    0    0  501    0  0.00000000000E+00  0.00000000000E+00  0.13922516806E+04  0.13922516806E+04  0.25500000920E-02 0.  1.
       -2   -1    0    0    0  501  0.00000000000E+00  0.00000000000E+00 -0.15197859233E+04  0.15197859233E+04  0.25500000920E-02 0. -1.
    10030    2    1    2    0    0  0.00000000000E+00  0.00000000000E+00 -0.12753424270E+03  0.29120376039E+04  0.29092435484E+04 0.  0.
        2    1    3    3  502    0 -0.11371360436E+04 -0.67207253133E+03  0.54605081623E+03  0.14293114996E+04  0.25500000920E-02 0.  1.
       -2    1    3    3    0  502  0.11371360436E+04  0.67207253133E+03 -0.67358505894E+03  0.14827261044E+04  0.25500000920E-02 0. -1.
</event>
<event>
 5   0  0.2429358E-06  0.2884969E+04  0.7818609E-02  0.8277364E-01
        1   -1    0    0  501    0  0.00000000000E+00  0.00000000000E+00  0.20603250624E+04  0.20603250624E+04  0.50400001928E-02 0.  1.
       -1   -1    0    0    0  501  0.00000000000E+00  0.00000000000E+00 -0.10099187558E+04  0.10099187558E+04  0.50400001928E-02 0. -1.
    10030    2    1    2    0    0  0.00000000000E+00  0.00000000000E+00  0.10504063066E+04  0.30702438181E+04  0.28849685776E+04 0.  0.
        2    1    3    3  502    0 -0.10720061742E+04 -0.96517506151E+03  0.52425935641E+03  0.15347990128E+04  0.25500000920E-02 0. -1.
       -2    1    3    3    0  502  0.10720061742E+04  0.96517506151E+03  0.52614695018E+03  0.15354448053E+04  0.25500000920E-02 0.  1.
</event>
<event>
 5   0  0.2508094E-06  0.2872275E+04  0.7818609E-02  0.8281175E-01
        1   -1    0    0  501    0  0.00000000000E+00  0.00000000000E+00  0.14441473771E+04  0.14441473771E+04  0.50400001928E-02 0.  1.
       -1   -1    0    0    0  501  0.00000000000E+00  0.00000000000E+00 -0.14281721467E+04  0.14281721467E+04  0.50400001928E-02 0. -1.
    10030    2    1    2    0    0  0.00000000000E+00  0.00000000000E+00  0.15975230372E+02  0.28723195237E+04  0.28722750980E+04 0.  0.
        3    1    3    3  502    0 -0.13585362550E+04  0.43417720250E+03 -0.16042060132E+03  0.14352231112E+04  0.10100000352E+00 0.  1.
       -3    1    3    3    0  502  0.13585362550E+04 -0.43417720250E+03  0.17639583169E+03  0.14370964126E+04  0.10100000352E+00 0. -1.
</event>
<event>
 5   0  0.6733688E-06  0.2883337E+04  0.7818609E-02  0.8277852E-01
        2   -1    0    0  501    0  0.00000000000E+00  0.00000000000E+00  0.10236344490E+04  0.10236344490E+04  0.25500000920E-02 0. -1.
       -2   -1    0    0    0  501  0.00000000000E+00  0.00000000000E+00 -0.20304205613E+04  0.20304205613E+04  0.25500000920E-02 0.  1.
    10030    2    1    2    0    0  0.00000000000E+00  0.00000000000E+00 -0.10067861124E+04  0.30540550103E+04  0.28833372556E+04 0.  0.
        5    1    3    3  502    0 -0.45343500443E+03 -0.95983777427E+03 -0.15365934186E+04  0.18676277146E+04  0.46999998093E+01 0.  1.
       -5    1    3    3    0  502  0.45343500443E+03  0.95983777427E+03  0.52980730627E+03  0.11864272957E+04  0.46999998093E+01 0. -1.
</event>
<event>
 5   0  0.6513041E-06  0.2928397E+04  0.7818609E-02  0.8264478E-01
       -2   -1    0    0    0  501  0.00000000000E+00  0.00000000000E+00  0.16494687628E+04  0.16494687628E+04  0.25500000920E-02 0.  1.
        2   -1    0    0  501    0  0.00000000000E+00  0.00000000000E+00 -0.12997380590E+04  0.12997380590E+04  0.25500000920E-02 0. -1.
    10030    2    1    2    0    0  0.00000000000E+00  0.00000000000E+00  0.34973070377E+03  0.29492068218E+04  0.29283970551E+04 0.  0.
        1    1    3    3  502    0 -0.44116997683E+03  0.34705153232E+03  0.15368072060E+04  0.16361088298E+04  0.50400001928E-02 0.  1.
       -1    1    3    3    0  502  0.44116997683E+03 -0.34705153232E+03 -0.11870765022E+04  0.13130979920E+04  0.50400001928E-02 0. -1.
</event>
<event>
 5   0  0.2336512E-06  0.2881097E+04  0.7818609E-02  0.8278524E-01
        1   -1    0    0  501    0  0.00000000000E+00  0.00000000000E+00  0.15465103279E+04  0.15465103279E+04  0.50400001928E-02 0.  1.
       -1   -1    0    0    0  501  0.00000000000E+00  0.00000000000E+00 -0.13418467973E+04  0.13418467973E+04  0.50400001928E-02 0. -1.
    10030    2    1    2    0    0  0.00000000000E+00  0.00000000000E+00  0.20466353063E+03  0.28883571253E+04  0.28810969651E+04 0.  0.
        4    1    3    3  502    0  0.55187741516E+03 -0.80344423140E+03  0.11657058419E+04  0.15195272413E+04  0.12699999809E+01 0.  1.
       -4    1    3    3    0  502 -0.55187741516E+03  0.80344423140E+03 -0.96104231125E+03  0.13688298840E+04  0.12699999809E+01 0. -1.
</event>
<event>
 5   0  0.2336512E-06  0.2916823E+04  0.7818609E-02  0.8267890E-01
        1   -1    0    0  501    0  0.00000000000E+00  0.00000000000E+00  0.20958622064E+04  0.20958622064E+04  0.50400001928E-02 0.  1.
       -1   -1    0    0    0  501  0.00000000000E+00  0.00000000000E+00 -0.10148398480E+04  0.10148398480E+04  0.50400001928E-02 0. -1.
    10030    2    1    2    0    0  0.00000000000E+00  0.00000000000E+00  0.10810223584E+04  0.31107020545E+04  0.29168232604E+04 0.  0.
        4    1    3    3  502    0 -0.63131903799E+03 -0.13090197658E+04  0.67054344731E+03  0.16005394724E+04  0.12699999809E+01 0.  1.
       -4    1    3    3    0  502  0.63131903799E+03  0.13090197658E+04  0.41047891108E+03  0.15101625821E+04  0.12699999809E+01 0. -1.
</event>
<event>
 5   0  0.2348684E-06  0.2909641E+04  0.7818609E-02  0.8270015E-01
       -1   -1    0    0    0  501  0.00000000000E+00  0.00000000000E+00  0.98544725732E+03  0.98544725734E+03  0.50400001928E-02 0. -1.
        1   -1    0    0  501    0  0.00000000000E+00  0.00000000000E+00 -0.21477578530E+04  0.21477578530E+04  0.50400001928E-02 0.  1.
    10030    2    1    2    0    0  0.00000000000E+00  0.00000000000E+00 -0.11623105957E+04  0.31332051104E+04  0.29096405865E+04 0.  0.
        5    1    3    3  502    0  0.46949477391E+03  0.10677056998E+04 -0.15174819357E+04  0.19139473136E+04  0.46999998093E+01 0.  1.
       -5    1    3    3    0  502 -0.46949477391E+03 -0.10677056998E+04  0.35517133999E+03  0.12192577967E+04  0.46999998093E+01 0. -1.
</event>
<event>
 5   0  0.6393633E-06  0.2930224E+04  0.7818609E-02  0.8263941E-01
       -2   -1    0    0    0  501  0.00000000000E+00  0.00000000000E+00  0.15456469518E+04  0.15456469518E+04  0.25500000920E-02 0. -1.
        2   -1    0    0  501    0  0.00000000000E+00  0.00000000000E+00 -0.13887729706E+04  0.13887729706E+04  0.25500000920E-02 0.  1.
    10030    2    1    2    0    0  0.00000000000E+00  0.00000000000E+00  0.15687398116E+03  0.29344199224E+04  0.29302236834E+04 0.  0.
        4    1    3    3  502    0 -0.46105946140E+03  0.13138985956E+04  0.53477118300E+03  0.14916055703E+04  0.12699999809E+01 0. -1.
       -4    1    3    3    0  502  0.46105946140E+03 -0.13138985956E+04 -0.37789720184E+03  0.14428143520E+04  0.12699999809E+01 0.  1.
</event>
<event>
 5   0  0.2348684E-06  0.2893440E+04  0.7818609E-02  0.8274832E-01
        1   -1    0    0  501    0  0.00000000000E+00  0.00000000000E+00  0.14963380839E+04  0.14963380839E+04  0.50400001928E-02 0. -1.
       -1   -1    0    0    0  501  0.00000000000E+00  0.00000000000E+00 -0.13987472647E+04  0.13987472647E+04  0.50400001928E-02 0.  1.
    10030    2    1    2    0    0  0.00000000000E+00  0.00000000000E+00  0.97590819167E+02  0.28950853486E+04  0.28934400301E+04 0.  0.
        5    1    3    3  502    0  0.53374104036E+03  0.29804935407E+03  0.13607480109E+04  0.14917674600E+04  0.46999998093E+01 0. -1.
       -5    1    3    3    0  502 -0.53374104036E+03 -0.29804935407E+03 -0.12631571917E+04  0.14033178886E+04  0.46999998093E+01 0.  1.
</event>
<event>
 5   0  0.6612533E-06  0.2919150E+04  0.7818609E-02  0.8267202E-01
        2   -1    0    0  501    0  0.00000000000E+00  0.00000000000E+00  0.13640388577E+04  0.13640388577E+04  0.25500000920E-02 0.  1.
       -2   -1    0    0    0  501  0.00000000000E+00  0.00000000000E+00 -0.15618028521E+04  0.15618028521E+04  0.25500000920E-02 0. -1.
    10030    2    1    2    0    0  0.00000000000E+00  0.00000000000E+00 -0.19776399436E+03  0.29258417098E+04  0.29191504095E+04 0.  0.
        3    1    3    3  502    0 -0.32196938934E+03 -0.58812017255E+03  0.12005503819E+04  0.13750893988E+04  0.10100000352E+00 0.  1.
       -3    1    3    3    0  502  0.32196938934E+03  0.58812017255E+03 -0.13983143762E+04  0.15507523110E+04  0.10100000352E+00 0. -1.
</event>
<event>
 5   0  0.6612533E-06  0.2884700E+04  0.7818609E-02  0.8277444E-01
       -2   -1    0    0    0  501  0.00000000000E+00  0.00000000000E+00  0.12284137602E+04  0.12284137602E+04  0.25500000920E-02 0.  1.
        2   -1    0    0  501    0  0.00000000000E+00  0.00000000000E+00 -0.16935448282E+04  0.16935448282E+04  0.25500000920E-02 0. -1.
    10030    2    1    2    0    0  0.00000000000E+00  0.00000000000E+00 -0.46513106803E+03  0.29219585883E+04  0.28847001719E+04 0.  0.
        3    1    3    3  502    0  0.28055972051E+02 -0.11492378015E+04 -0.11149304381E+04  0.16014382767E+04  0.10100000352E+00 0. -1.
       -3    1    3    3    0  502 -0.28055972051E+02  0.11492378015E+04  0.64979937003E+03  0.13205203117E+04  0.10100000352E+00 0.  1.
</event>
<event>
 5   0  0.2159500E-06  0.2911688E+04  0.7818609E-02  0.8269409E-01
       -3   -1    0    0    0  501  0.00000000000E+00  0.00000000000E+00  0.15917149266E+04  0.15917149298E+04  0.10100000352E+00 0. -1.
        3   -1    0    0  501    0  0.00000000000E+00  0.00000000000E+00 -0.13315709840E+04  0.13315709879E+04  0.10100000352E+00 0.  1.
    10030    2    1    2    0    0  0.00000000000E+00  0.00000000000E+00  0.26014394253E+03  0.29232859177E+04  0.29116877727E+04 0.  0.
        3    1    3    3  502    0 -0.13148500420E+04 -0.56193199875E+03 -0.14466601406E+03  0.14371939570E+04  0.10100000352E+00 0.  1.
       -3    1    3    3    0  502  0.13148500420E+04  0.56193199875E+03  0.40480995659E+03  0.14860919606E+04  0.10100000352E+00 0. -1.
</event>
<event>
 5   0  0.2348684E-06  0.2895003E+04  0.7818609E-02  0.8274366E-01
       -1   -1    0    0    0  501  0.00000000000E+00  0.00000000000E+00  0.14887234704E+04  0.14887234704E+04  0.50400001928E-02 0. -1.
        1   -1    0    0  501    0  0.00000000000E+00  0.00000000000E+00 -0.14074212961E+04  0.14074212961E+04  0.50400001928E-02 0.  1.
    10030    2    1    2    0    0  0.00000000000E+00  0.00000000000E+00  0.81302174247E+02  0.28961447665E+04  0.28950033619E+04 0.  0.
        5    1    3    3  502    0  0.84392623368E+02  0.57204746678E+03  0.13681552845E+04  0.14853388137E+04  0.46999998093E+01 0. -1.
       -5    1    3    3    0  502 -0.84392623368E+02 -0.57204746678E+03 -0.12868531102E+04  0.14108059528E+04  0.46999998093E+01 0.  1.
</event>
<event>
 5   0  0.6612533E-06  0.2833890E+04  0.7818609E-02  0.8292823E-01
        2   -1    0    0  501    0  0.00000000000E+00  0.00000000000E+00  0.18254910043E+04  0.18254910044E+04  0.25500000920E-02 0.  1.
       -2   -1    0    0    0  501  0.00000000000E+00  0.00000000000E+00 -0.10998318626E+04  0.10998318626E+04  0.25500000920E-02 0. -1.
    10030    2    1    2    0    0  0.00000000000E+00  0.00000000000E+00  0.72565914171E+03  0.29253228670E+04  0.28338900272E+04 0.  0.
        3    1    3    3  502    0 -0.79033246481E+03 -0.17625378378E+03  0.15631189476E+04  0.17604066734E+04  0.10100000352E+00 0.  1.
       -3    1    3    3    0  502  0.79033246481E+03  0.17625378378E+03 -0.83745980593E+03  0.11649161935E+04  0.10100000352E+00 0. -1.
</event>
<event>
 5   0  0.6615403E-06  0.2901294E+04  0.7818609E-02  0.8272493E-01
       -2   -1    0    0    0  501  0.00000000000E+00  0.00000000000E+00  0.13969901558E+04  0.13969901558E+04  0.25500000920E-02 0. -1.
        2   -1    0    0  501    0  0.00000000000E+00  0.00000000000E+00 -0.15063645615E+04  0.15063645615E+04  0.25500000920E-02 0.  1.
    10030    2    1    2    0    0  0.00000000000E+00  0.00000000000E+00 -0.10937440572E+03  0.29033547173E+04  0.29012938241E+04 0.  0.
        2    1    3    3  502    0  0.82157584802E+03  0.70667542485E+03 -0.10197370081E+04  0.14880324579E+04  0.25500000920E-02 0.  1.
       -2    1    3    3    0  502 -0.82157584802E+03 -0.70667542485E+03  0.91036260236E+03  0.14153222594E+04  0.25500000920E-02 0. -1.
</event>
<event>
 5   0  0.6513041E-06  0.2910855E+04  0.7818609E-02  0.8269655E-01
        2   -1    0    0  501    0  0.00000000000E+00  0.00000000000E+00  0.15186155747E+04  0.15186155747E+04  0.25500000920E-02 0. -1.
       -2   -1    0    0    0  501  0.00000000000E+00  0.00000000000E+00 -0.13948689299E+04  0.13948689299E+04  0.25500000920E-02 0.  1.
    10030    2    1    2    0    0  0.00000000000E+00  0.00000000000E+00  0.12374664476E+03  0.29134845046E+04  0.29108553256E+04 0.  0.
        1    1    3    3  502    0  0.25421418783E+03  0.16487018974E+03 -0.13629512408E+04  0.13962245942E+04  0.50400001928E-02 0.  1.
       -1    1    3    3    0  502 -0.25421418783E+03 -0.16487018974E+03  0.14866978855E+04  0.15172599104E+04  0.50400001928E-02 0. -1.
</event>
<event>
 5   0  0.2474769E-06  0.2856433E+04  0.7818609E-02  0.8285959E-01
       -1   -1    0    0    0  501  0.00000000000E+00  0.00000000000E+00  0.14877189124E+04  0.14877189124E+04  0.50400001928E-02 0. -1.
        1   -1    0    0  501    0  0.00000000000E+00  0.00000000000E+00 -0.13710939299E+04  0.13710939299E+04  0.50400001928E-02 0.  1.
    10030    2    1    2    0    0  0.00000000000E+00  0.00000000000E+00  0.11662498251E+03  0.28588128422E+04  0.28564329995E+04 0.  0.
        1    1    3    3  502    0 -0.28502671315E+03  0.91437812552E+03 -0.10020393134E+04  0.13861494758E+04  0.50400001928E-02 0.  1.
       -1    1    3    3    0  502  0.28502671315E+03 -0.91437812552E+03  0.11186642960E+04  0.14726633664E+04  0.50400001928E-02 0. -1.
</event>
<event>
 5   0  0.6393633E-06  0.2882647E+04  0.7818609E-02  0.8278059E-01
       -2   -1    0    0    0  501  0.00000000000E+00  0.00000000000E+00  0.91244414296E+03  0.91244414296E+03  0.25500000920E-02 0. -1.
        2   -1    0    0  501    0  0.00000000000E+00  0.00000000000E+00 -0.22767562743E+04  0.22767562743E+04  0.25500000920E-02 0.  1.
    10030    2    1    2    0    0  0.00000000000E+00  0.00000000000E+00 -0.13643121313E+04  0.31892004172E+04  0.28826466502E+04 0.  0.
        4    1    3    3  502    0  0.53335554068E+03  0.35562180457E+03 -0.21103591752E+04  0.22055730461E+04  0.12699999809E+01 0.  1.
       -4    1    3    3    0  502 -0.53335554068E+03 -0.35562180457E+03  0.74604704385E+03  0.98362737111E+03  0.12699999809E+01 0. -1.
</event>
<event>
 5   0  0.6393633E-06  0.3166629E+04  0.7818609E-02  0.8197686E-01
       -2   -1    0    0    0  501  0.00000000000E+00  0.00000000000E+00  0.15446298627E+04  0.15446298627E+04  0.25500000920E-02 0. -1.
        2   -1    0    0  501    0  0.00000000000E+00  0.00000000000E+00 -0.16229680900E+04  0.16229680900E+04  0.25500000920E-02 0.  1.
    10030    2    1    2    0    0  0.00000000000E+00  0.00000000000E+00 -0.78338227333E+02  0.31675979528E+04  0.31666291088E+04 0.  0.
        4    1    3    3  502    0  0.10726749808E+04 -0.10045869779E+04  0.55012635906E+03  0.15692250426E+04  0.12699999809E+01 0. -1.
       -4    1    3    3    0  502 -0.10726749808E+04  0.10045869779E+04 -0.62846458640E+03  0.15983729101E+04  0.12699999809E+01 0.  1.
</event>
<event>
 5   0  0.6733688E-06  0.2687068E+04  0.7818609E-02  0.8339213E-01
        2   -1    0    0  501    0  0.00000000000E+00  0.00000000000E+00  0.22628446635E+04  0.22628446635E+04  0.25500000920E-02 0.  1.
       -2   -1    0    0    0  501  0.00000000000E+00  0.00000000000E+00 -0.79770573121E+03  0.79770573121E+03  0.25500000920E-02 0. -1.
    10030    2    1    2    0    0  0.00000000000E+00  0.00000000000E+00  0.14651389323E+04  0.30605503947E+04  0.26870684077E+04 0.  0.
        5    1    3    3  502    0  0.14434826268E+03  0.10300890893E+04  0.17011430925E+04  0.19939483103E+04  0.46999998093E+01 0.  1.
       -5    1    3    3    0  502 -0.14434826268E+03 -0.10300890893E+04 -0.23600416023E+03  0.10666020844E+04  0.46999998093E+01 0. -1.
</event>
<event>
 5   0  0.2336512E-06  0.2832866E+04  0.7818609E-02  0.8293137E-01
        1   -1    0    0  501    0  0.00000000000E+00  0.00000000000E+00  0.89946887224E+03  0.89946887225E+03  0.50400001928E-02 0.  1.
       -1   -1    0    0    0  501  0.00000000000E+00  0.00000000000E+00 -0.22305186487E+04  0.22305186487E+04  0.50400001928E-02 0. -1.
    10030    2    1    2    0    0  0.00000000000E+00  0.00000000000E+00 -0.13310497765E+04  0.31299875210E+04  0.28328657529E+04 0.  0.
        4    1    3    3  502    0  0.53803259374E+03 -0.73013966154E+03 -0.18676148597E+04  0.20761911940E+04  0.12699999809E+01 0. -1.
       -4    1    3    3    0  502 -0.53803259374E+03  0.73013966154E+03  0.53656508318E+03  0.10537963269E+04  0.12699999809E+01 0.  1.
</event>
<event>
 5   0  0.2429358E-06  0.2716479E+04  0.7818609E-02  0.8329678E-01
        1   -1    0    0  501    0  0.00000000000E+00  0.00000000000E+00  0.67217488428E+03  0.67217488430E+03  0.50400001928E-02 0.  1.
       -1   -1    0    0    0  501  0.00000000000E+00  0.00000000000E+00 -0.27445446052E+04  0.27445446052E+04  0.50400001928E-02 0. -1.
    10030    2    1    2    0    0  0.00000000000E+00  0.00000000000E+00 -0.20723697209E+04  0.34167194895E+04  0.27164785679E+04 0.  0.
        2    1    3    3  502    0  0.23881857939E+02 -0.31901862235E+03 -0.26964818771E+04  0.27153927411E+04  0.25500000920E-02 0. -1.
       -2    1    3    3    0  502 -0.23881857939E+02  0.31901862235E+03  0.62411215620E+03  0.70132674844E+03  0.25500000920E-02 0.  1.
</event>
<event>
 5   0  0.6612533E-06  0.2866869E+04  0.7818609E-02  0.8282804E-01
       -2   -1    0    0    0  501  0.00000000000E+00  0.00000000000E+00  0.10527486939E+04  0.10527486939E+04  0.25500000920E-02 0. -1.
        2   -1    0    0  501    0  0.00000000000E+00  0.00000000000E+00 -0.19517808707E+04  0.19517808707E+04  0.25500000920E-02 0.  1.
    10030    2    1    2    0    0  0.00000000000E+00  0.00000000000E+00 -0.89903217678E+03  0.30045295646E+04  0.28668692070E+04 0.  0.
        3    1    3    3  502    0 -0.11564602983E+03 -0.10156627001E+04 -0.15026513170E+04  0.18173898083E+04  0.10100000352E+00 0.  1.
       -3    1    3    3    0  502  0.11564602983E+03  0.10156627001E+04  0.60361914017E+03  0.11871397564E+04  0.10100000352E+00 0. -1.
</event>
<event>
 5   0  0.6393633E-06  0.2906485E+04  0.7818609E-02  0.8270951E-01
        2   -1    0    0  501    0  0.00000000000E+00  0.00000000000E+00  0.12091108050E+04  0.12091108050E+04  0.25500000920E-02 0.  1.
       -2   -1    0    0    0  501  0.00000000000E+00  0.00000000000E+00 -0.17466669266E+04  0.17466669266E+04  0.25500000920E-02 0. -1.
    10030    2    1    2    0    0  0.00000000000E+00  0.00000000000E+00 -0.53755612161E+03  0.29557777315E+04  0.29064850618E+04 0.  0.
        4    1    3    3  502    0 -0.92684568517E+02  0.74418027648E+03 -0.15346854191E+04  0.17081146512E+04  0.12699999809E+01 0. -1.
       -4    1    3    3    0  502  0.92684568517E+02 -0.74418027648E+03  0.99712929750E+03  0.12476630803E+04  0.12699999809E+01 0.  1.
</event>
<event>
 5   0  0.6393633E-06  0.2882466E+04  0.7818609E-02  0.8278114E-01
        2   -1    0    0  501    0  0.00000000000E+00  0.00000000000E+00  0.12912876888E+04  0.12912876888E+04  0.25500000920E-02 0. -1.
       -2   -1    0    0    0  501  0.00000000000E+00  0.00000000000E+00 -0.16085899284E+04  0.16085899284E+04  0.25500000920E-02 0.  1.
    10030    2    1    2    0    0  0.00000000000E+00  0.00000000000E+00 -0.31730223956E+03  0.28998776172E+04  0.28824658686E+04 0.  0.
        4    1    3    3  502    0 -0.13728690736E+04  0.55582952563E+02  0.27905376883E+03  0.14020454973E+04  0.12699999809E+01 0. -1.
       -4    1    3    3    0  502  0.13728690736E+04 -0.55582952563E+02 -0.59635600838E+03  0.14978321199E+04  0.12699999809E+01 0.  1.
</event>
<event>
 5   0  0.2508094E-06  0.2954586E+04  0.7818609E-02  0.8256819E-01
        1   -1    0    0  501    0  0.00000000000E+00  0.00000000000E+00  0.15742445617E+04  0.15742445617E+04  0.50400001928E-02 0. -1.
       -1   -1    0    0    0  501  0.00000000000E+00  0.00000000000E+00 -0.13863125772E+04  0.13863125772E+04  0.50400001928E-02 0.  1.
    10030    2    1    2    0    0  0.00000000000E+00  0.00000000000E+00  0.18793198444E+03  0.29605571389E+04  0.29545862895E+04 0.  0.
        3    1    3    3  502    0 -0.14492889375E+04  0.25006105247E+03 -0.45693112989E+02  0.14714132068E+04  0.10100000352E+00 0.  1.
       -3    1    3    3    0  502  0.14492889375E+04 -0.25006105247E+03  0.23362509743E+03  0.14891439321E+04  0.10100000352E+00 0. -1.
</event>
<event>
 5   0  0.2474769E-06  0.2963233E+04  0.7818609E-02  0.8254309E-01
        1   -1    0    0  501    0  0.00000000000E+00  0.00000000000E+00  0.14297466647E+04  0.14297466647E+04  0.50400001928E-02 0.  1.
       -1   -1    0    0    0  501  0.00000000000E+00  0.00000000000E+00 -0.15353677260E+04  0.15353677260E+04  0.50400001928E-02 0. -1.
    10030    2    1    2    0    0  0.00000000000E+00  0.00000000000E+00 -0.10562106135E+03  0.29651143907E+04  0.29632326168E+04 0.  0.
        1    1    3    3  502    0 -0.12796783875E+04 -0.56350665976E+03  0.43747036841E+03  0.14650927801E+04  0.50400001928E-02 0.  1.
       -1    1    3    3    0  502  0.12796783875E+04  0.56350665976E+03 -0.54309142976E+03  0.15000216106E+04  0.50400001928E-02 0. -1.
</event>
<event>
 5   0  0.2336512E-06  0.2896387E+04  0.7818609E-02  0.8273953E-01
        1   -1    0    0  501    0  0.00000000000E+00  0.00000000000E+00  0.13287024741E+04  0.13287024741E+04  0.50400001928E-02 0. -1.
       -1   -1    0    0    0  501  0.00000000000E+00  0.00000000000E+00 -0.15784298852E+04  0.15784298852E+04  0.50400001928E-02 0.  1.
    10030    2    1    2    0    0  0.00000000000E+00  0.00000000000E+00 -0.24972741110E+03  0.29071323593E+04  0.28963865030E+04 0.  0.
        4    1    3    3  502    0 -0.16953915468E+03 -0.14336156059E+04 -0.24046414088E+03  0.14634964456E+04  0.12699999809E+01 0.  1.
       -4    1    3    3    0  502  0.16953915468E+03  0.14336156059E+04 -0.92632702264E+01  0.14436359137E+04  0.12699999809E+01 0. -1.
</event>
<event>
 5   0  0.6513041E-06  0.2893448E+04  0.7818609E-02  0.8274830E-01
        2   -1    0    0  501    0  0.00000000000E+00  0.00000000000E+00  0.13481635994E+04  0.13481635994E+04  0.25500000920E-02 0. -1.
       -2   -1    0    0    0  501  0.00000000000E+00  0.00000000000E+00 -0.15524899047E+04  0.15524899047E+04  0.25500000920E-02 0.  1.
    10030    2    1    2    0    0  0.00000000000E+00  0.00000000000E+00 -0.20432630523E+03  0.29006535041E+04  0.28934480316E+04 0.  0.
        1    1    3    3  502    0  0.10227760753E+03 -0.11500638391E+03  0.13399333727E+04  0.13487433487E+04  0.50400001928E-02 0. -1.
       -1    1    3    3    0  502 -0.10227760753E+03  0.11500638391E+03 -0.15442596780E+04  0.15519101554E+04  0.50400001928E-02 0.  1.
</event>
<event>
 5   0  0.6393633E-06  0.2886842E+04  0.7818609E-02  0.8276803E-01
        2   -1    0    0  501    0  0.00000000000E+00  0.00000000000E+00  0.27050940123E+04  0.27050940123E+04  0.25500000920E-02 0. -1.
       -2   -1    0    0    0  501  0.00000000000E+00  0.00000000000E+00 -0.77020050147E+03  0.77020050147E+03  0.25500000920E-02 0.  1.
    10030    2    1    2    0    0  0.00000000000E+00  0.00000000000E+00  0.19348935108E+04  0.34752945138E+04  0.28868424029E+04 0.  0.
        4    1    3    3  502    0  0.30259367928E+03 -0.47591022698E+03  0.25669727042E+04  0.26281940484E+04  0.12699999809E+01 0. -1.
       -4    1    3    3    0  502 -0.30259367928E+03  0.47591022698E+03 -0.63207919337E+03  0.84710046540E+03  0.12699999809E+01 0.  1.
</event>
<event>
 5   0  0.2348684E-06  0.2892672E+04  0.7818609E-02  0.8275061E-01
       -1   -1    0    0    0  501  0.00000000000E+00  0.00000000000E+00  0.94961356522E+03  0.94961356523E+03  0.50400001928E-02 0. -1.
        1   -1    0    0  501    0  0.00000000000E+00  0.00000000000E+00 -0.22028830976E+04  0.22028830976E+04  0.50400001928E-02 0.  1.
    10030    2    1    2    0    0  0.00000000000E+00  0.00000000000E+00 -0.12532695324E+04  0.31524966628E+04  0.28926718943E+04 0.  0.
        5    1    3    3  502    0 -0.10807621664E+04  0.81443155065E+03 -0.70377150076E+02  0.13551090894E+04  0.46999998093E+01 0. -1.
       -5    1    3    3    0  502  0.10807621664E+04 -0.81443155065E+03 -0.11828923823E+04  0.17973875734E+04  0.46999998093E+01 0.  1.
</event>
<event>
 5   0  0.6513041E-06  0.2914521E+04  0.7818609E-02  0.8268570E-01
        2   -1    0    0  501    0  0.00000000000E+00  0.00000000000E+00  0.27713648060E+04  0.27713648060E+04  0.25500000920E-02 0.  1.
       -2   -1    0    0    0  501  0.00000000000E+00  0.00000000000E+00 -0.76626796607E+03  0.76626796608E+03  0.25500000920E-02 0. -1.
    10030    2    1    2    0    0  0.00000000000E+00  0.00000000000E+00  0.20050968399E+04  0.35376327721E+04  0.29145209371E+04 0.  0.
        1    1    3    3  502    0  0.13463047100E+04 -0.55408366441E+03  0.10799177156E+04  0.18126685720E+04  0.50400001928E-02 0.  1.
       -1    1    3    3    0  502 -0.13463047100E+04  0.55408366441E+03  0.92517912430E+03  0.17249642001E+04  0.50400001928E-02 0. -1.
</event>
<event>
 5   0  0.2508094E-06  0.2898837E+04  0.7818609E-02  0.8273224E-01
       -1   -1    0    0    0  501  0.00000000000E+00  0.00000000000E+00  0.92577444522E+03  0.92577444523E+03  0.50400001928E-02 0. -1.
        1   -1    0    0  501    0  0.00000000000E+00  0.00000000000E+00 -0.22692495821E+04  0.22692495821E+04  0.50400001928E-02 0.  1.
    10030    2    1    2    0    0  0.00000000000E+00  0.00000000000E+00 -0.13434751369E+04  0.31950240273E+04  0.28988365066E+04 0.  0.
        3    1    3    3  502    0 -0.13680804200E+03 -0.69229653053E+03 -0.20671195141E+04  0.21842559425E+04  0.10100000352E+00 0.  1.
       -3    1    3    3    0  502  0.13680804200E+03  0.69229653053E+03  0.72364437719E+03  0.10107680849E+04  0.10100000352E+00 0. -1.
</event>
<event>
 5   0  0.2159500E-06  0.2714774E+04  0.7818609E-02  0.8330227E-01
        3   -1    0    0  501    0  0.00000000000E+00  0.00000000000E+00  0.19388600583E+04  0.19388600609E+04  0.10100000352E+00 0. -1.
       -3   -1    0    0    0  501  0.00000000000E+00  0.00000000000E+00 -0.95030052678E+03  0.95030053215E+03  0.10100000352E+00 0.  1.
    10030    2    1    2    0    0  0.00000000000E+00  0.00000000000E+00  0.98855953149E+03  0.28891605930E+04  0.27147742052E+04 0.  0.
        2    1    3    3  502    0  0.35465554839E+03  0.96453738857E+03  0.14380278435E+04  0.17674945574E+04  0.25500000920E-02 0. -1.
       -2    1    3    3    0  502 -0.35465554839E+03 -0.96453738857E+03 -0.44946831198E+03  0.11216660356E+04  0.25500000920E-02 0.  1.
</event>
<event>
 5   0  0.2348684E-06  0.2899943E+04  0.7818609E-02  0.8272894E-01
        1   -1    0    0  501    0  0.00000000000E+00  0.00000000000E+00  0.17728990313E+04  0.17728990313E+04  0.50400001928E-02 0.  1.
       -1   -1    0    0    0  501  0.00000000000E+00  0.00000000000E+00 -0.11858644334E+04  0.11858644334E+04  0.50400001928E-02 0. -1.
    10030    2    1    2    0    0  0.00000000000E+00  0.00000000000E+00  0.58703459788E+03  0.29587634648E+04  0.28999433824E+04 0.  0.
        5    1    3    3  502    0 -0.12444874837E+04  0.61150132159E+03  0.72604138447E+03  0.15651968391E+04  0.46999998093E+01 0. -1.
       -5    1    3    3    0  502  0.12444874837E+04 -0.61150132159E+03 -0.13900678659E+03  0.13935666256E+04  0.46999998093E+01 0.  1.
</event>
<event>
 5   0  0.2159500E-06  0.2622179E+04  0.7818609E-02  0.8360706E-01
        4   -1    0    0  501    0  0.00000000000E+00  0.00000000000E+00  0.11224774459E+04  0.11224781643E+04  0.12699999809E+01 0. -1.
       -4   -1    0    0    0  501  0.00000000000E+00  0.00000000000E+00 -0.15313926524E+04  0.15313931790E+04  0.12699999809E+01 0.  1.
    10030    2    1    2    0    0  0.00000000000E+00  0.00000000000E+00 -0.40891520654E+03  0.26538713434E+04  0.26221787622E+04 0.  0.
        3    1    3    3  502    0 -0.77990815614E+03 -0.19941092142E+03  0.84290943955E+03  0.11655547096E+04  0.10100000352E+00 0. -1.
       -3    1    3    3    0  502  0.77990815614E+03  0.19941092142E+03 -0.12518246461E+04  0.14883166338E+04  0.10100000352E+00 0.  1.
</event>
<event>
 5   0  0.6733688E-06  0.2888398E+04  0.7818609E-02  0.8276338E-01
       -2   -1    0    0    0  501  0.00000000000E+00  0.00000000000E+00  0.13698865551E+04  0.13698865551E+04  0.25500000920E-02 0.  1.
        2   -1    0    0  501    0  0.00000000000E+00  0.00000000000E+00 -0.15225425765E+04  0.15225425765E+04  0.25500000920E-02 0. -1.
    10030    2    1    2    0    0  0.00000000000E+00  0.00000000000E+00 -0.15265602142E+03  0.28924291317E+04  0.28883978986E+04 0.  0.
        5    1    3    3  502    0  0.22141548098E+03  0.14265983308E+04 -0.11486421751E+03  0.14482484217E+04  0.46999998093E+01 0.  1.
       -5    1    3    3    0  502 -0.22141548098E+03 -0.14265983308E+04 -0.37791803910E+02  0.14441807099E+04  0.46999998093E+01 0. -1.
</event>
<event>
 5   0  0.6393633E-06  0.2882111E+04  0.7818609E-02  0.8278220E-01
        2   -1    0    0  501    0  0.00000000000E+00  0.00000000000E+00  0.20354620959E+04  0.20354620959E+04  0.25500000920E-02 0.  1.
       -2   -1    0    0    0  501  0.00000000000E+00  0.00000000000E+00 -0.10202310654E+04  0.10202310654E+04  0.25500000920E-02 0. -1.
    10030    2    1    2    0    0  0.00000000000E+00  0.00000000000E+00  0.10152310305E+04  0.30556931613E+04  0.28821114918E+04 0.  0.
        4    1    3    3  502    0 -0.88156099420E+03 -0.36421792205E+03  0.16528747299E+04  0.19083503261E+04  0.12699999809E+01 0.  1.
       -4    1    3    3    0  502  0.88156099420E+03  0.36421792205E+03 -0.63764369946E+03  0.11473428352E+04  0.12699999809E+01 0. -1.
</event>
<event>
 5   0  0.2474769E-06  0.2892823E+04  0.7818609E-02  0.8275016E-01
       -1   -1    0    0    0  501  0.00000000000E+00  0.00000000000E+00  0.23888364050E+04  0.23888364050E+04  0.50400001928E-02 0. -1.
        1   -1    0    0  501    0  0.00000000000E+00  0.00000000000E+00 -0.87578465247E+03  0.87578465248E+03  0.50400001928E-02 0.  1.
    10030    2    1    2    0    0  0.00000000000E+00  0.00000000000E+00  0.15130517525E+04  0.32646210575E+04  0.28928230231E+04 0.  0.
        1    1    3    3  502    0 -0.67337458734E+03 -0.51475948609E+03 -0.56615832307E+03  0.10192869617E+04  0.50400001928E-02 0.  1.
       -1    1    3    3    0  502  0.67337458734E+03  0.51475948609E+03  0.20792100756E+04  0.22453340958E+04  0.50400001928E-02 0. -1.
</event>
<event>
 5   0  0.6733688E-06  0.2873169E+04  0.7818609E-02  0.8280906E-01
        2   -1    0    0  501    0  0.00000000000E+00  0.00000000000E+00  0.20793657609E+04  0.20793657610E+04  0.25500000920E-02 0. -1.
       -2   -1    0    0    0  501  0.00000000000E+00  0.00000000000E+00 -0.99250214224E+03  0.99250214224E+03  0.25500000920E-02 0.  1.
    10030    2    1    2    0    0  0.00000000000E+00  0.00000000000E+00  0.10868636187E+04  0.30718679032E+04  0.28731689628E+04 0.  0.
        5    1    3    3  502    0  0.53357286791E+03 -0.12424596737E+04  0.24756527177E+02  0.13524204309E+04  0.46999998093E+01 0.  1.
       -5    1    3    3    0  502 -0.53357286791E+03  0.12424596737E+04  0.10621070915E+04  0.17194474723E+04  0.46999998093E+01 0. -1.
</event>
<event>
 5   0  0.2348684E-06  0.2887500E+04  0.7818609E-02  0.8276606E-01
        1   -1    0    0  501    0  0.00000000000E+00  0.00000000000E+00  0.13882807023E+04  0.13882807023E+04  0.50400001928E-02 0.  1.
       -1   -1    0    0    0  501  0.00000000000E+00  0.00000000000E+00 -0.15014352435E+04  0.15014352435E+04  0.50400001928E-02 0. -1.
    10030    2    1    2    0    0  0.00000000000E+00  0.00000000000E+00 -0.11315454124E+03  0.28897159458E+04  0.28874996619E+04 0.  0.
        5    1    3    3  502    0  0.87433654320E+03 -0.11471471504E+04 -0.11971697080E+03  0.14473303764E+04  0.46999998093E+01 0.  1.
       -5    1    3    3    0  502 -0.87433654320E+03  0.11471471504E+04  0.65624295611E+01  0.14423855694E+04  0.46999998093E+01 0. -1.
</event>
<event>
 5   0  0.6612533E-06  0.2498313E+04  0.7818609E-02  0.8403587E-01
        2   -1    0    0  501    0  0.00000000000E+00  0.00000000000E+00  0.16183409410E+04  0.16183409410E+04  0.25500000920E-02 0.  1.
       -2   -1    0    0    0  501  0.00000000000E+00  0.00000000000E+00 -0.96419239741E+03  0.96419239742E+03  0.25500000920E-02 0. -1.
    10030    2    1    2    0    0  0.00000000000E+00  0.00000000000E+00  0.65414854359E+03  0.25825333384E+04  0.24983130562E+04 0.  0.
        3    1    3    3  502    0 -0.10496397212E+04 -0.27374083828E+03  0.96740323365E+03  0.14534602222E+04  0.10100000352E+00 0.  1.
       -3    1    3    3    0  502  0.10496397212E+04  0.27374083828E+03 -0.31325469007E+03  0.11290731162E+04  0.10100000352E+00 0. -1.
</event>
<event>
 5   0  0.6733688E-06  0.2898508E+04  0.7818609E-02  0.8273322E-01
       -2   -1    0    0    0  501  0.00000000000E+00  0.00000000000E+00  0.12000246211E+04  0.12000246211E+04  0.25500000920E-02 0.  1.
        2   -1    0    0  501    0  0.00000000000E+00  0.00000000000E+00 -0.17502444577E+04  0.17502444577E+04  0.25500000920E-02 0. -1.
    10030    2    1    2    0    0  0.00000000000E+00  0.00000000000E+00 -0.55021983654E+03  0.29502690788E+04  0.28985075071E+04 0.  0.
        5    1    3    3  502    0  0.89413345961E+03 -0.10781363262E+04  0.10363964316E+03  0.14044984326E+04  0.46999998093E+01 0.  1.
       -5    1    3    3    0  502 -0.89413345961E+03  0.10781363262E+04 -0.65385947970E+03  0.15457706462E+04  0.46999998093E+01 0. -1.
</event>
<event>
 5   0  0.2336512E-06  0.2530064E+04  0.7818609E-02  0.8392353E-01
       -1   -1    0    0    0  501  0.00000000000E+00  0.00000000000E+00  0.15684864642E+04  0.15684864642E+04  0.50400001928E-02 0. -1.
        1   -1    0    0  501    0  0.00000000000E+00  0.00000000000E+00 -0.10202864659E+04  0.10202864659E+04  0.50400001928E-02 0.  1.
    10030    2    1    2    0    0  0.00000000000E+00  0.00000000000E+00  0.54819999827E+03  0.25887729301E+04  0.25300636446E+04 0.  0.
        4    1    3    3  502    0 -0.10842517899E+04  0.48817842614E+03 -0.16763984012E+03  0.12008433906E+04  0.12699999809E+01 0.  1.
       -4    1    3    3    0  502  0.10842517899E+04 -0.48817842614E+03  0.71583983839E+03  0.13879295396E+04  0.12699999809E+01 0. -1.
</event>
<event>
 5   0  0.6612533E-06  0.2887450E+04  0.7818609E-02  0.8276621E-01
       -2   -1    0    0    0  501  0.00000000000E+00  0.00000000000E+00  0.14688669743E+04  0.14688669743E+04  0.25500000920E-02 0. -1.
        2   -1    0    0  501    0  0.00000000000E+00  0.00000000000E+00 -0.14190137800E+04  0.14190137800E+04  0.25500000920E-02 0.  1.
    10030    2    1    2    0    0  0.00000000000E+00  0.00000000000E+00  0.49853194335E+02  0.28878807543E+04  0.28874504169E+04 0.  0.
        3    1    3    3  502    0 -0.71156631490E+03  0.90107463616E+03 -0.85046400868E+03  0.14288285974E+04  0.10100000352E+00 0.  1.
       -3    1    3    3    0  502  0.71156631490E+03 -0.90107463616E+03  0.90031720302E+03  0.14590521569E+04  0.10100000352E+00 0. -1.
</event>
<event>
 5   0  0.6615403E-06  0.3038583E+04  0.7818609E-02  0.8232798E-01
        2   -1    0    0  501    0  0.00000000000E+00  0.00000000000E+00  0.23595494701E+04  0.23595494702E+04  0.25500000920E-02 0.  1.
       -2   -1    0    0    0  501  0.00000000000E+00  0.00000000000E+00 -0.97825760617E+03  0.97825760617E+03  0.25500000920E-02 0. -1.
    10030    2    1    2    0    0  0.00000000000E+00  0.00000000000E+00  0.13812918640E+04  0.33378070763E+04  0.30385833649E+04 0.  0.
        2    1    3    3  502    0 -0.25384208814E+03 -0.13632356427E+03 -0.94797034478E+03  0.99079144853E+03  0.25500000920E-02 0. -1.
       -2    1    3    3    0  502  0.25384208814E+03  0.13632356427E+03  0.23292622088E+04  0.23470156278E+04  0.25500000920E-02 0.  1.
</event>
<event>
 5   0  0.6393633E-06  0.2893843E+04  0.7818609E-02  0.8274712E-01
       -2   -1    0    0    0  501  0.00000000000E+00  0.00000000000E+00  0.15906393647E+04  0.15906393647E+04  0.25500000920E-02 0. -1.
        2   -1    0    0  501    0  0.00000000000E+00  0.00000000000E+00 -0.13161893005E+04  0.13161893005E+04  0.25500000920E-02 0.  1.
    10030    2    1    2    0    0  0.00000000000E+00  0.00000000000E+00  0.27445006421E+03  0.29068286653E+04  0.28938434739E+04 0.  0.
        4    1    3    3  502    0  0.38900320968E+03 -0.13889204886E+04  0.22005146260E+02  0.14425357743E+04  0.12699999809E+01 0. -1.
       -4    1    3    3    0  502 -0.38900320968E+03  0.13889204886E+04  0.25244491795E+03  0.14642928909E+04  0.12699999809E+01 0.  1.
</event>
<event>
 5   0  0.6733688E-06  0.2879259E+04  0.7818609E-02  0.8279075E-01
        2   -1    0    0  501    0  0.00000000000E+00  0.00000000000E+00  0.14404999537E+04  0.14404999537E+04  0.25500000920E-02 0. -1.
       -2   -1    0    0    0  501  0.00000000000E+00  0.00000000000E+00 -0.14387600309E+04  0.14387600309E+04  0.25500000920E-02 0.  1.
    10030    2    1    2    0    0  0.00000000000E+00  0.00000000000E+00  0.17399228231E+01  0.28792599845E+04  0.28792594588E+04 0.  0.
        5    1    3    3  502    0 -0.50778477914E+02 -0.56000359909E+02  0.14385061909E+04  0.14404987489E+04  0.46999998093E+01 0. -1.
       -5    1    3    3    0  502  0.50778477914E+02  0.56000359909E+02 -0.14367662681E+04  0.14387612357E+04  0.46999998093E+01 0.  1.
</event>
<event>
 5   0  0.6513041E-06  0.2886050E+04  0.7818609E-02  0.8277040E-01
       -2   -1    0    0    0  501  0.00000000000E+00  0.00000000000E+00  0.13388430951E+04  0.13388430951E+04  0.25500000920E-02 0.  1.
        2   -1    0    0  501    0  0.00000000000E+00  0.00000000000E+00 -0.15553135507E+04  0.15553135507E+04  0.25500000920E-02 0. -1.
    10030    2    1    2    0    0  0.00000000000E+00  0.00000000000E+00 -0.21647045556E+03  0.28941566457E+04  0.28860497626E+04 0.  0.
        1    1    3    3  502    0 -0.57074888363E+03  0.11809035862E+04 -0.71161735514E+03  0.14922087080E+04  0.50400001928E-02 0.  1.
       -1    1    3    3    0  502  0.57074888363E+03 -0.11809035862E+04  0.49514689959E+03  0.14019479378E+04  0.50400001928E-02 0. -1.
</event>
<event>
 5   0  0.6513041E-06  0.2865115E+04  0.7818609E-02  0.8283333E-01
        2   -1    0    0  501    0  0.00000000000E+00  0.00000000000E+00  0.17932402760E+04  0.17932402760E+04  0.25500000920E-02 0. -1.
       -2   -1    0    0    0  501  0.00000000000E+00  0.00000000000E+00 -0.11444204520E+04  0.11444204520E+04  0.25500000920E-02 0.  1.
    10030    2    1    2    0    0  0.00000000000E+00  0.00000000000E+00  0.64881982403E+03  0.29376607280E+04  0.28651148998E+04 0.  0.
        1    1    3    3  502    0  0.30420848353E+03  0.64344085872E+03  0.15991359185E+04  0.17503698540E+04  0.50400001928E-02 0. -1.
       -1    1    3    3    0  502 -0.30420848353E+03 -0.64344085872E+03 -0.95031609443E+03  0.11872908740E+04  0.50400001928E-02 0.  1.
</event>
<event>
 5   0  0.2474769E-06  0.2879998E+04  0.7818609E-02  0.8278854E-01
        1   -1    0    0  501    0  0.00000000000E+00  0.00000000000E+00  0.17983597854E+04  0.17983597854E+04  0.50400001928E-02 0. -1.
       -1   -1    0    0    0  501  0.00000000000E+00  0.00000000000E+00 -0.11530492964E+04  0.11530492964E+04  0.50400001928E-02 0.  1.
    10030    2    1    2    0    0  0.00000000000E+00  0.00000000000E+00  0.64531048905E+03  0.29514090818E+04  0.28799982536E+04 0.  0.
        1    1    3    3  502    0  0.78525010705E+03 -0.11977497370E+04  0.47594807116E+03  0.15092212328E+04  0.50400001928E-02 0. -1.
       -1    1    3    3    0  502 -0.78525010705E+03  0.11977497370E+04  0.16936241789E+03  0.14421878490E+04  0.50400001928E-02 0.  1.
</event>
<event>
 5   0  0.2429358E-06  0.2904724E+04  0.7818609E-02  0.8271473E-01
        1   -1    0    0  501    0  0.00000000000E+00  0.00000000000E+00  0.13174670798E+04  0.13174670798E+04  0.50400001928E-02 0. -1.
       -1   -1    0    0    0  501  0.00000000000E+00  0.00000000000E+00 -0.16010691140E+04  0.16010691140E+04  0.50400001928E-02 0.  1.
    10030    2    1    2    0    0  0.00000000000E+00  0.00000000000E+00 -0.28360203420E+03  0.29185361938E+04  0.29047243244E+04 0.  0.
        2    1    3    3  502    0 -0.34882450640E+03 -0.11427042998E+04 -0.97150245690E+03  0.15398924238E+04  0.25500000920E-02 0.  1.
       -2    1    3    3    0  502  0.34882450640E+03  0.11427042998E+04  0.68790042270E+03  0.13786437700E+04  0.25500000920E-02 0. -1.
</event>
<event>
 5   0  0.6513041E-06  0.2881950E+04  0.7818609E-02  0.8278268E-01
       -2   -1    0    0    0  501  0.00000000000E+00  0.00000000000E+00  0.69573261877E+03  0.69573261878E+03  0.25500000920E-02 0.  1.
        2   -1    0    0  501    0  0.00000000000E+00  0.00000000000E+00 -0.29844936151E+04  0.29844936151E+04  0.25500000920E-02 0. -1.
    10030    2    1    2    0    0  0.00000000000E+00  0.00000000000E+00 -0.22887609964E+04  0.36802262339E+04  0.28819504219E+04 0.  0.
        1    1    3    3  502    0  0.43794513830E+03 -0.10499642529E+04 -0.22737700748E+04  0.25424891798E+04  0.50400001928E-02 0. -1.
       -1    1    3    3    0  502 -0.43794513830E+03  0.10499642529E+04 -0.14990921593E+02  0.11377370541E+04  0.50400001928E-02 0.  1.
</event>
<event>
 5   0  0.2348684E-06  0.2452336E+04  0.7818609E-02  0.8420166E-01
       -1   -1    0    0    0  501  0.00000000000E+00  0.00000000000E+00  0.11170277108E+04  0.11170277108E+04  0.50400001928E-02 0. -1.
        1   -1    0    0  501    0  0.00000000000E+00  0.00000000000E+00 -0.13459721130E+04  0.13459721130E+04  0.50400001928E-02 0.  1.
    10030    2    1    2    0    0  0.00000000000E+00  0.00000000000E+00 -0.22894440224E+03  0.24629998238E+04  0.24523361500E+04 0.  0.
        5    1    3    3  502    0 -0.56203119263E+03  0.60416147542E+03 -0.10253757068E+04  0.13161715617E+04  0.46999998093E+01 0.  1.
       -5    1    3    3    0  502  0.56203119263E+03 -0.60416147542E+03  0.79643130452E+03  0.11468282621E+04  0.46999998093E+01 0. -1.
</event>
<event>
 5   0  0.6733688E-06  0.2855091E+04  0.7818609E-02  0.8286366E-01
        2   -1    0    0  501    0  0.00000000000E+00  0.00000000000E+00  0.15831998737E+04  0.15831998737E+04  0.25500000920E-02 0. -1.
       -2   -1    0    0    0  501  0.00000000000E+00  0.00000000000E+00 -0.12871943691E+04  0.12871943691E+04  0.25500000920E-02 0.  1.
    10030    2    1    2    0    0  0.00000000000E+00  0.00000000000E+00  0.29600550459E+03  0.28703942428E+04  0.28550908655E+04 0.  0.
        5    1    3    3  502    0 -0.11013820439E+04  0.37995397375E+03  0.97732206912E+03  0.15207195487E+04  0.46999998093E+01 0. -1.
       -5    1    3    3    0  502  0.11013820439E+04 -0.37995397375E+03 -0.68131656454E+03  0.13496746941E+04  0.46999998093E+01 0.  1.
</event>
<event>
 5   0  0.2508094E-06  0.2888604E+04  0.7818609E-02  0.8276276E-01
        1   -1    0    0  501    0  0.00000000000E+00  0.00000000000E+00  0.17218954665E+04  0.17218954665E+04  0.50400001928E-02 0. -1.
       -1   -1    0    0    0  501  0.00000000000E+00  0.00000000000E+00 -0.12114608332E+04  0.12114608332E+04  0.50400001928E-02 0.  1.
    10030    2    1    2    0    0  0.00000000000E+00  0.00000000000E+00  0.51043463330E+03  0.29333562998E+04  0.28886044497E+04 0.  0.
        3    1    3    3  502    0 -0.33310114725E+03 -0.78629547297E+03  0.14380773900E+04  0.16725081569E+04  0.10100000352E+00 0. -1.
       -3    1    3    3    0  502  0.33310114725E+03  0.78629547297E+03 -0.92764275671E+03  0.12608481429E+04  0.10100000352E+00 0.  1.
</event>
<event>
 5   0  0.6615403E-06  0.2882455E+04  0.7818609E-02  0.8278117E-01
        2   -1    0    0  501    0  0.00000000000E+00  0.00000000000E+00  0.18347043067E+04  0.18347043067E+04  0.25500000920E-02 0.  1.
       -2   -1    0    0    0  501  0.00000000000E+00  0.00000000000E+00 -0.11321373285E+04  0.11321373285E+04  0.25500000920E-02 0. -1.
    10030    2    1    2    0    0  0.00000000000E+00  0.00000000000E+00  0.70256697819E+03  0.29668416351E+04  0.28824553646E+04 0.  0.
        2    1    3    3  502    0  0.13223053505E+04  0.49511047355E+03  0.53839849943E+02  0.14129842711E+04  0.25500000920E-02 0.  1.
       -2    1    3    3    0  502 -0.13223053505E+04 -0.49511047355E+03  0.64872712825E+03  0.15538573640E+04  0.25500000920E-02 0. -1.
</event>
<event>
 5   0  0.2336512E-06  0.2882929E+04  0.7818609E-02  0.8277975E-01
       -1   -1    0    0    0  501  0.00000000000E+00  0.00000000000E+00  0.12301160056E+04  0.12301160057E+04  0.50400001928E-02 0.  1.
        1   -1    0    0  501    0  0.00000000000E+00  0.00000000000E+00 -0.16891254126E+04  0.16891254126E+04  0.50400001928E-02 0. -1.
    10030    2    1    2    0    0  0.00000000000E+00  0.00000000000E+00 -0.45900940696E+03  0.29192414183E+04  0.28829292087E+04 0.  0.
        4    1    3    3  502    0 -0.46635135505E+03 -0.65790876313E+02  0.11500082670E+04  0.12427118141E+04  0.12699999809E+01 0.  1.
       -4    1    3    3    0  502  0.46635135505E+03  0.65790876313E+02 -0.16090176739E+04  0.16765296042E+04  0.12699999809E+01 0. -1.
</event>
<event>
 5   0  0.2348684E-06  0.2879134E+04  0.7818609E-02  0.8279113E-01
        1   -1    0    0  501    0  0.00000000000E+00  0.00000000000E+00  0.96097564659E+03  0.96097564660E+03  0.50400001928E-02 0. -1.
       -1   -1    0    0    0  501  0.00000000000E+00  0.00000000000E+00 -0.21565093374E+04  0.21565093374E+04  0.50400001928E-02 0.  1.
    10030    2    1    2    0    0  0.00000000000E+00  0.00000000000E+00 -0.11955336908E+04  0.31174849840E+04  0.28791338662E+04 0.  0.
        5    1    3    3  502    0 -0.10642671218E+04 -0.76957678202E+03 -0.12359842295E+04  0.18034943957E+04  0.46999998093E+01 0. -1.
       -5    1    3    3    0  502  0.10642671218E+04  0.76957678202E+03  0.40450538639E+02  0.13139905883E+04  0.46999998093E+01 0.  1.
</event>
<event>
 5   0  0.2474769E-06  0.2892701E+04  0.7818609E-02  0.8275052E-01
       -1   -1    0    0    0  501  0.00000000000E+00  0.00000000000E+00  0.11587342506E+04  0.11587342506E+04  0.50400001928E-02 0.  1.
        1   -1    0    0  501    0  0.00000000000E+00  0.00000000000E+00 -0.18053575877E+04  0.18053575877E+04  0.50400001928E-02 0. -1.
    10030    2    1    2    0    0  0.00000000000E+00  0.00000000000E+00 -0.64662333709E+03  0.29640918383E+04  0.28927009327E+04 0.  0.
        1    1    3    3  502    0  0.97347948835E+03 -0.37069210493E+03 -0.13514972876E+04  0.17063469369E+04  0.50400001928E-02 0. -1.
       -1    1    3    3    0  502 -0.97347948835E+03  0.37069210493E+03  0.70487395047E+03  0.12577449014E+04  0.50400001928E-02 0.  1.
</event>
<event>
 5   0  0.2429358E-06  0.2897270E+04  0.7818609E-02  0.8273690E-01
       -1   -1    0    0    0  501  0.00000000000E+00  0.00000000000E+00  0.16222108153E+04  0.16222108153E+04  0.50400001928E-02 0. -1.
        1   -1    0    0  501    0  0.00000000000E+00  0.00000000000E+00 -0.12936314315E+04  0.12936314315E+04  0.50400001928E-02 0.  1.
    10030    2    1    2    0    0  0.00000000000E+00  0.00000000000E+00  0.32857938375E+03  0.29158422468E+04  0.28972696797E+04 0.  0.
        2    1    3    3  502    0  0.48907775538E+03  0.19431818457E+03 -0.11940236834E+04  0.13048559937E+04  0.25500000920E-02 0.  1.
       -2    1    3    3    0  502 -0.48907775538E+03 -0.19431818457E+03  0.15226030672E+04  0.16109862531E+04  0.25500000920E-02 0. -1.
</event>
<event>
 5   0  0.6612533E-06  0.2929137E+04  0.7818609E-02  0.8264261E-01
       -2   -1    0    0    0  501  0.00000000000E+00  0.00000000000E+00  0.97824748883E+03  0.97824748884E+03  0.25500000920E-02 0.  1.
        2   -1    0    0  501    0  0.00000000000E+00  0.00000000000E+00 -0.21926571735E+04  0.21926571735E+04  0.25500000920E-02 0. -1.
    10030    2    1    2    0    0  0.00000000000E+00  0.00000000000E+00 -0.12144096847E+04  0.31709046623E+04  0.29291373296E+04 0.  0.
        3    1    3    3  502    0  0.27393707528E+03 -0.13247274678E+04 -0.12147945827E+04  0.18181502340E+04  0.10100000352E+00 0. -1.
       -3    1    3    3    0  502 -0.27393707528E+03  0.13247274678E+04  0.38489801037E+00  0.13527544283E+04  0.10100000352E+00 0.  1.
</event>
<event>
 5   0  0.6513041E-06  0.2901552E+04  0.7818609E-02  0.8272416E-01
       -2   -1    0    0    0  501  0.00000000000E+00  0.00000000000E+00  0.86288615108E+03  0.86288615108E+03  0.25500000920E-02 0.  1.
        2   -1    0    0  501    0  0.00000000000E+00  0.00000000000E+00 -0.24391983159E+04  0.24391983159E+04  0.25500000920E-02 0. -1.
    10030    2    1    2    0    0  0.00000000000E+00  0.00000000000E+00 -0.15763121648E+04  0.33020844670E+04  0.29015516170E+04 0.  0.
        1    1    3    3  502    0 -0.28743077088E+03 -0.66827682112E+03  0.64031879377E+03  0.96913286776E+03  0.50400001928E-02 0.  1.
       -1    1    3    3    0  502  0.28743077088E+03  0.66827682112E+03 -0.22166309586E+04  0.23329515992E+04  0.50400001928E-02 0. -1.
</event>
<event>
 5   0  0.2429358E-06  0.2924373E+04  0.7818609E-02  0.8265662E-01
       -1   -1    0    0    0  501  0.00000000000E+00  0.00000000000E+00  0.12546583813E+04  0.12546583813E+04  0.50400001928E-02 0. -1.
        1   -1    0    0  501    0  0.00000000000E+00  0.00000000000E+00 -0.17040415198E+04  0.17040415198E+04  0.50400001928E-02 0.  1.
    10030    2    1    2    0    0  0.00000000000E+00  0.00000000000E+00 -0.44938313855E+03  0.29586999011E+04  0.29243734200E+04 0.  0.
        2    1    3    3  502    0  0.13502977900E+04 -0.39788098859E+03  0.17539496433E+03  0.14185826716E+04  0.25500000920E-02 0. -1.
       -2    1    3    3    0  502 -0.13502977900E+04  0.39788098859E+03 -0.62477810288E+03  0.15401172295E+04  0.25500000920E-02 0.  1.
</event>
<event>
 5   0  0.2336512E-06  0.2900120E+04  0.7818609E-02  0.8272842E-01
        1   -1    0    0  501    0  0.00000000000E+00  0.00000000000E+00  0.26470327495E+04  0.26470327495E+04  0.50400001928E-02 0.  1.
       -1   -1    0    0    0  501  0.00000000000E+00  0.00000000000E+00 -0.79435137266E+03  0.79435137268E+03  0.50400001928E-02 0. -1.
    10030    2    1    2    0    0  0.00000000000E+00  0.00000000000E+00  0.18526813769E+04  0.34413841222E+04  0.29001200652E+04 0.  0.
        4    1    3    3  502    0  0.37020666791E+03 -0.76871774168E+03  0.23176380476E+04  0.24697019407E+04  0.12699999809E+01 0.  1.
       -4    1    3    3    0  502 -0.37020666791E+03  0.76871774168E+03 -0.46495667072E+03  0.97168218152E+03  0.12699999809E+01 0. -1.
</event>
<event>
 5   0  0.2508094E-06  0.2840757E+04  0.7818609E-02  0.8290726E-01
        1   -1    0    0  501    0  0.00000000000E+00  0.00000000000E+00  0.11309625100E+04  0.11309625100E+04  0.50400001928E-02 0. -1.
       -1   -1    0    0    0  501  0.00000000000E+00  0.00000000000E+00 -0.17838562483E+04  0.17838562483E+04  0.50400001928E-02 0.  1.
    10030    2    1    2    0    0  0.00000000000E+00  0.00000000000E+00 -0.65289373832E+03  0.29148187584E+04  0.28407566176E+04 0.  0.
        3    1    3    3  502    0 -0.72135473536E+03  0.97754365953E+03 -0.10815197931E+04  0.16265390661E+04  0.10100000352E+00 0. -1.
       -3    1    3    3    0  502  0.72135473536E+03 -0.97754365953E+03  0.42862605477E+03  0.12882796923E+04  0.10100000352E+00 0.  1.
</event>
<event>
 5   0  0.2336512E-06  0.2555884E+04  0.7818609E-02  0.8383343E-01
        1   -1    0    0  501    0  0.00000000000E+00  0.00000000000E+00  0.86697246954E+03  0.86697246956E+03  0.50400001928E-02 0.  1.
       -1   -1    0    0    0  501  0.00000000000E+00  0.00000000000E+00 -0.18837220451E+04  0.18837220452E+04  0.50400001928E-02 0. -1.
    10030    2    1    2    0    0  0.00000000000E+00  0.00000000000E+00 -0.10167495756E+04  0.27506945147E+04  0.25558835290E+04 0.  0.
        4    1    3    3  502    0 -0.98403622949E+03  0.66393084485E+03  0.98812542953E+00  0.11870695249E+04  0.12699999809E+01 0.  1.
       -4    1    3    3    0  502  0.98403622949E+03 -0.66393084485E+03 -0.10177377010E+04  0.15636249898E+04  0.12699999809E+01 0. -1.
</event>
<event>
 5   0  0.6615403E-06  0.2898869E+04  0.7818609E-02  0.8273214E-01
        2   -1    0    0  501    0  0.00000000000E+00  0.00000000000E+00  0.16606341762E+04  0.16606341762E+04  0.25500000920E-02 0.  1.
       -2   -1    0    0    0  501  0.00000000000E+00  0.00000000000E+00 -0.12650951236E+04  0.12650951236E+04  0.25500000920E-02 0. -1.
    10030    2    1    2    0    0  0.00000000000E+00  0.00000000000E+00  0.39553905258E+03  0.29257292998E+04  0.28988688817E+04 0.  0.
        2    1    3    3  502    0 -0.66803256649E+03  0.30397825464E+03 -0.10636875658E+04  0.12923240797E+04  0.25500000920E-02 0. -1.
       -2    1    3    3    0  502  0.66803256649E+03 -0.30397825464E+03  0.14592266184E+04  0.16334052201E+04  0.25500000920E-02 0.  1.
</event>
<event>
 5   0  0.6513041E-06  0.2776320E+04  0.7818609E-02  0.8310658E-01
        2   -1    0    0  501    0  0.00000000000E+00  0.00000000000E+00  0.15993454494E+04  0.15993454494E+04  0.25500000920E-02 0.  1.
       -2   -1    0    0    0  501  0.00000000000E+00  0.00000000000E+00 -0.12048601841E+04  0.12048601841E+04  0.25500000920E-02 0. -1.
    10030    2    1    2    0    0  0.00000000000E+00  0.00000000000E+00  0.39448526535E+03  0.28042056335E+04  0.27763196160E+04 0.  0.
        1    1    3    3  502    0  0.10955817606E+04  0.62734300128E+03  0.78021319821E+03  0.14841129573E+04  0.50400001928E-02 0.  1.
       -1    1    3    3    0  502 -0.10955817606E+04 -0.62734300128E+03 -0.38572793286E+03  0.13200926762E+04  0.50400001928E-02 0. -1.
</event>
<event>
 5   0  0.2474769E-06  0.2913877E+04  0.7818609E-02  0.8268761E-01
        1   -1    0    0  501    0  0.00000000000E+00  0.00000000000E+00  0.18628293795E+04  0.18628293795E+04  0.50400001928E-02 0. -1.
       -1   -1    0    0    0  501  0.00000000000E+00  0.00000000000E+00 -0.11394869614E+04  0.11394869614E+04  0.50400001928E-02 0.  1.
    10030    2    1    2    0    0  0.00000000000E+00  0.00000000000E+00  0.72334241812E+03  0.30023163410E+04  0.29138769976E+04 0.  0.
        1    1    3    3  502    0  0.31370411041E+03  0.79625722502E+03  0.15765394536E+04  0.17938540872E+04  0.50400001928E-02 0. -1.
       -1    1    3    3    0  502 -0.31370411041E+03 -0.79625722502E+03 -0.85319703552E+03  0.12084622537E+04  0.50400001928E-02 0.  1.
</event>
<event>
 5   0  0.6615403E-06  0.2871810E+04  0.7818609E-02  0.8281314E-01
       -2   -1    0    0    0  501  0.00000000000E+00  0.00000000000E+00  0.93881319186E+03  0.93881319186E+03  0.25500000920E-02 0.  1.
        2   -1    0    0  501    0  0.00000000000E+00  0.00000000000E+00 -0.21962022722E+04  0.21962022722E+04  0.25500000920E-02 0. -1.
    10030    2    1    2    0    0  0.00000000000E+00  0.00000000000E+00 -0.12573890804E+04  0.31350154641E+04  0.28718103455E+04 0.  0.
        2    1    3    3  502    0 -0.13268677923E+04  0.49859330867E+03 -0.87918091452E+03  0.16679725736E+04  0.25500000920E-02 0.  1.
       -2    1    3    3    0  502  0.13268677923E+04 -0.49859330867E+03 -0.37820816584E+03  0.14670428905E+04  0.25500000920E-02 0. -1.
</event>
<event>
 5   0  0.2508094E-06  0.2936230E+04  0.7818609E-02  0.8262179E-01
       -1   -1    0    0    0  501  0.00000000000E+00  0.00000000000E+00  0.77112422449E+03  0.77112422451E+03  0.50400001928E-02 0.  1.
        1   -1    0    0  501    0  0.00000000000E+00  0.00000000000E+00 -0.27950898671E+04  0.27950898671E+04  0.50400001928E-02 0. -1.
    10030    2    1    2    0    0  0.00000000000E+00  0.00000000000E+00 -0.20239656426E+04  0.35662140916E+04  0.29362298998E+04 0.  0.
        3    1    3    3  502    0 -0.75206953073E+03  0.11850114443E+04 -0.15350894715E+04  0.20799904802E+04  0.10100000352E+00 0.  1.
       -3    1    3    3    0  502  0.75206953073E+03 -0.11850114443E+04 -0.48887617111E+03  0.14862236114E+04  0.10100000352E+00 0. -1.
</event>
<event>
 5   0  0.6513041E-06  0.2933893E+04  0.7818609E-02  0.8262864E-01
       -2   -1    0    0    0  501  0.00000000000E+00  0.00000000000E+00  0.81398315644E+03  0.81398315645E+03  0.25500000920E-02 0. -1.
        2   -1    0    0  501    0  0.00000000000E+00  0.00000000000E+00 -0.26437054863E+04  0.26437054863E+04  0.25500000920E-02 0.  1.
    10030    2    1    2    0    0  0.00000000000E+00  0.00000000000E+00 -0.18297223299E+04  0.34576886427E+04  0.29338927973E+04 0.  0.
        1    1    3    3  502    0 -0.33652732826E+03  0.12661287046E+04 -0.16926920398E+04  0.21404529616E+04  0.50400001928E-02 0.  1.
       -1    1    3    3    0  502  0.33652732826E+03 -0.12661287046E+04 -0.13703029004E+03  0.13172356811E+04  0.50400001928E-02 0. -1.
</event>
<event>
 5   0  0.2508094E-06  0.2886237E+04  0.7818609E-02  0.8276984E-01
       -1   -1    0    0    0  501  0.00000000000E+00  0.00000000000E+00  0.17921510953E+04  0.17921510953E+04  0.50400001928E-02 0. -1.
        1   -1    0    0  501    0  0.00000000000E+00  0.00000000000E+00 -0.11620621717E+04  0.11620621717E+04  0.50400001928E-02 0.  1.
    10030    2    1    2    0    0  0.00000000000E+00  0.00000000000E+00  0.63008892356E+03  0.29542132670E+04  0.28862369922E+04 0.  0.
        3    1    3    3  502    0  0.26275305822E+03 -0.68365530784E+03  0.15877797578E+04  0.17485617859E+04  0.10100000352E+00 0. -1.
       -3    1    3    3    0  502 -0.26275305822E+03  0.68365530784E+03 -0.95769083429E+03  0.12056514811E+04  0.10100000352E+00 0.  1.
</event>
<event>
 5   0  0.6733688E-06  0.2840032E+04  0.7818609E-02  0.8290947E-01
       -2   -1    0    0    0  501  0.00000000000E+00  0.00000000000E+00  0.73083336223E+03  0.73083336224E+03  0.25500000920E-02 0. -1.
        2   -1    0    0  501    0  0.00000000000E+00  0.00000000000E+00 -0.27591038542E+04  0.27591038542E+04  0.25500000920E-02 0.  1.
    10030    2    1    2    0    0  0.00000000000E+00  0.00000000000E+00 -0.20282704920E+04  0.34899372165E+04  0.28400317932E+04 0.  0.
        5    1    3    3  502    0 -0.51147946743E+03 -0.12747576394E+04 -0.14568660513E+04  0.20022734744E+04  0.46999998093E+01 0.  1.
       -5    1    3    3    0  502  0.51147946743E+03  0.12747576394E+04 -0.57140444071E+03  0.14876637421E+04  0.46999998093E+01 0. -1.
</event>
<event>
 5   0  0.6513041E-06  0.2897097E+04  0.7818609E-02  0.8273742E-01
       -2   -1    0    0    0  501  0.00000000000E+00  0.00000000000E+00  0.10075468652E+04  0.10075468652E+04  0.25500000920E-02 0.  1.
        2   -1    0    0  501    0  0.00000000000E+00  0.00000000000E+00 -0.20825752390E+04  0.20825752390E+04  0.25500000920E-02 0. -1.
    10030    2    1    2    0    0  0.00000000000E+00  0.00000000000E+00 -0.10750283738E+04  0.30901221042E+04  0.28970965835E+04 0.  0.
        1    1    3    3  502    0  0.21436994998E+03  0.11048427572E+04 -0.15102291921E+04  0.18834606994E+04  0.50400001928E-02 0. -1.
       -1    1    3    3    0  502 -0.21436994998E+03 -0.11048427572E+04  0.43520081825E+03  0.12066614048E+04  0.50400001928E-02 0.  1.
</event>
<event>
 5   0  0.2429358E-06  0.2765802E+04  0.7818609E-02  0.8313965E-01
        1   -1    0    0  501    0  0.00000000000E+00  0.00000000000E+00  0.12258231711E+04  0.12258231712E+04  0.50400001928E-02 0. -1.
       -1   -1    0    0    0  501  0.00000000000E+00  0.00000000000E+00 -0.15601068983E+04  0.15601068983E+04  0.50400001928E-02 0.  1.
    10030    2    1    2    0    0  0.00000000000E+00  0.00000000000E+00 -0.33428372718E+03  0.27859300695E+04  0.27658020070E+04 0.  0.
        2    1    3    3  502    0 -0.59508851714E+03  0.92403681347E+03 -0.10125596435E+04  0.14944067075E+04  0.25500000920E-02 0.  1.
       -2    1    3    3    0  502  0.59508851714E+03 -0.92403681347E+03  0.67827591630E+03  0.12915233620E+04  0.25500000920E-02 0. -1.
</event>
<event>
 5   0  0.6615403E-06  0.2895343E+04  0.7818609E-02  0.8274264E-01
       -2   -1    0    0    0  501  0.00000000000E+00  0.00000000000E+00  0.10247654541E+04  0.10247654541E+04  0.25500000920E-02 0. -1.
        2   -1    0    0  501    0  0.00000000000E+00  0.00000000000E+00 -0.20451051492E+04  0.20451051492E+04  0.25500000920E-02 0.  1.
    10030    2    1    2    0    0  0.00000000000E+00  0.00000000000E+00 -0.10203396951E+04  0.30698706033E+04  0.28953432314E+04 0.  0.
        2    1    3    3  502    0  0.42341614864E+03 -0.66256108660E+03 -0.17989579200E+04  0.19632926491E+04  0.25500000920E-02 0.  1.
       -2    1    3    3    0  502 -0.42341614864E+03  0.66256108660E+03  0.77861822489E+03  0.11065779541E+04  0.25500000920E-02 0. -1.
</event>
<event>
 5   0  0.6513041E-06  0.2857914E+04  0.7818609E-02  0.8285511E-01
        2   -1    0    0  501    0  0.00000000000E+00  0.00000000000E+00  0.17996320719E+04  0.17996320719E+04  0.25500000920E-02 0. -1.
       -2   -1    0    0    0  501  0.00000000000E+00  0.00000000000E+00 -0.11346304883E+04  0.11346304884E+04  0.25500000920E-02 0.  1.
    10030    2    1    2    0    0  0.00000000000E+00  0.00000000000E+00  0.66500158353E+03  0.29342625602E+04  0.28579135162E+04 0.  0.
        1    1    3    3  502    0  0.11909297711E+04  0.29535354683E+03 -0.41943736072E+03  0.12967170613E+04  0.50400001928E-02 0.  1.
       -1    1    3    3    0  502 -0.11909297711E+04 -0.29535354683E+03  0.10844389442E+04  0.16375454990E+04  0.50400001928E-02 0. -1.
</event>
<event>
 5   0  0.2429358E-06  0.2885348E+04  0.7818609E-02  0.8277250E-01
       -1   -1    0    0    0  501  0.00000000000E+00  0.00000000000E+00  0.10910582418E+04  0.10910582418E+04  0.50400001928E-02 0.  1.
        1   -1    0    0  501    0  0.00000000000E+00  0.00000000000E+00 -0.19076049473E+04  0.19076049473E+04  0.50400001928E-02 0. -1.
    10030    2    1    2    0    0  0.00000000000E+00  0.00000000000E+00 -0.81654670548E+03  0.29986631891E+04  0.28853478819E+04 0.  0.
        2    1    3    3  502    0 -0.96737040701E+03 -0.73581173068E+03  0.39947868349E+03  0.12793778277E+04  0.25500000920E-02 0.  1.
       -2    1    3    3    0  502  0.96737040701E+03  0.73581173068E+03 -0.12160253890E+04  0.17192853614E+04  0.25500000920E-02 0. -1.
</event>
<event>
 5   0  0.2336512E-06  0.2850343E+04  0.7818609E-02  0.8287807E-01
       -1   -1    0    0    0  501  0.00000000000E+00  0.00000000000E+00  0.13551229788E+04  0.13551229788E+04  0.50400001928E-02 0.  1.
        1   -1    0    0  501    0  0.00000000000E+00  0.00000000000E+00 -0.14988407164E+04  0.14988407164E+04  0.50400001928E-02 0. -1.
    10030    2    1    2    0    0  0.00000000000E+00  0.00000000000E+00 -0.14371773760E+03  0.28539636953E+04  0.28503427839E+04 0.  0.
        4    1    3    3  502    0 -0.58798923074E+03  0.51611775149E+02 -0.13707024857E+04  0.14923880287E+04  0.12699999809E+01 0. -1.
       -4    1    3    3    0  502  0.58798923074E+03 -0.51611775149E+02  0.12269847481E+04  0.13615756666E+04  0.12699999809E+01 0.  1.
</event>
<event>
 5   0  0.6733688E-06  0.2883684E+04  0.7818609E-02  0.8277749E-01
        2   -1    0    0  501    0  0.00000000000E+00  0.00000000000E+00  0.24962322424E+04  0.24962322424E+04  0.25500000920E-02 0. -1.
       -2   -1    0    0    0  501  0.00000000000E+00  0.00000000000E+00 -0.83281846828E+03  0.83281846828E+03  0.25500000920E-02 0.  1.
    10030    2    1    2    0    0  0.00000000000E+00  0.00000000000E+00  0.16634137741E+04  0.33290507107E+04  0.28836839720E+04 0.  0.
        5    1    3    3  502    0 -0.51816211110E+01 -0.10764612738E+04  0.19390648177E+04  0.22178345701E+04  0.46999998093E+01 0.  1.
       -5    1    3    3    0  502  0.51816211110E+01  0.10764612738E+04 -0.27565104354E+03  0.11112161406E+04  0.46999998093E+01 0. -1.
</event>
<event>
 5   0  0.2348684E-06  0.2837110E+04  0.7818609E-02  0.8291839E-01
       -1   -1    0    0    0  501  0.00000000000E+00  0.00000000000E+00  0.97902209374E+03  0.97902209375E+03  0.50400001928E-02 0. -1.
        1   -1    0    0  501    0  0.00000000000E+00  0.00000000000E+00 -0.20554169047E+04  0.20554169047E+04  0.50400001928E-02 0.  1.
    10030    2    1    2    0    0  0.00000000000E+00  0.00000000000E+00 -0.10763948110E+04  0.30344389985E+04  0.28371101928E+04 0.  0.
        5    1    3    3  502    0  0.10674239623E+04  0.62583042060E+03 -0.12801454912E+04  0.17804078744E+04  0.46999998093E+01 0.  1.
       -5    1    3    3    0  502 -0.10674239623E+04 -0.62583042060E+03  0.20375068020E+03  0.12540311241E+04  0.46999998093E+01 0. -1.
</event>
<event>
 5   0  0.2508094E-06  0.2896680E+04  0.7818609E-02  0.8273866E-01
       -1   -1    0    0    0  501  0.00000000000E+00  0.00000000000E+00  0.13132130484E+04  0.13132130484E+04  0.50400001928E-02 0. -1.
        1   -1    0    0  501    0  0.00000000000E+00  0.00000000000E+00 -0.15973714264E+04  0.15973714264E+04  0.50400001928E-02 0.  1.
    10030    2    1    2    0    0  0.00000000000E+00  0.00000000000E+00 -0.28415837800E+03  0.29105844748E+04  0.28966801689E+04 0.  0.
        3    1    3    3  502    0  0.94082108639E+03  0.85150970564E+03  0.55946694362E+03  0.13868007667E+04  0.10100000352E+00 0. -1.
       -3    1    3    3    0  502 -0.94082108639E+03 -0.85150970564E+03 -0.84362532161E+03  0.15237837080E+04  0.10100000352E+00 0.  1.
</event>
<event>
 5   0  0.6612533E-06  0.2522851E+04  0.7818609E-02  0.8394890E-01
       -2   -1    0    0    0  501  0.00000000000E+00  0.00000000000E+00  0.74074838136E+03  0.74074838136E+03  0.25500000920E-02 0.  1.
        2   -1    0    0  501    0  0.00000000000E+00  0.00000000000E+00 -0.21480895079E+04  0.21480895079E+04  0.25500000920E-02 0. -1.
    10030    2    1    2    0    0  0.00000000000E+00  0.00000000000E+00 -0.14073411266E+04  0.28888378893E+04  0.25228506306E+04 0.  0.
        3    1    3    3  502    0 -0.56893198487E+03  0.52944420450E+03  0.43404578073E+03  0.89016319799E+03  0.10100000352E+00 0.  1.
       -3    1    3    3    0  502  0.56893198487E+03 -0.52944420450E+03 -0.18413869073E+04  0.19986746913E+04  0.10100000352E+00 0. -1.
</event>
<event>
 5   0  0.6733688E-06  0.2881205E+04  0.7818609E-02  0.8278492E-01
        2   -1    0    0  501    0  0.00000000000E+00  0.00000000000E+00  0.25333872978E+04  0.25333872978E+04  0.25500000920E-02 0. -1.
       -2   -1    0    0    0  501  0.00000000000E+00  0.00000000000E+00 -0.81919384329E+03  0.81919384330E+03  0.25500000920E-02 0.  1.
    10030    2    1    2    0    0  0.00000000000E+00  0.00000000000E+00  0.17141934545E+04  0.33525811411E+04  0.28812048015E+04 0.  0.
        5    1    3    3  502    0 -0.14370387980E+04 -0.28675472939E+02  0.96997468685E+03  0.17340057015E+04  0.46999998093E+01 0.  1.
       -5    1    3    3    0  502  0.14370387980E+04  0.28675472939E+02  0.74421876761E+03  0.16185754396E+04  0.46999998093E+01 0. -1.
</event>
<event>
 5   0  0.2348684E-06  0.3238023E+04  0.7818609E-02  0.8178847E-01
        1   -1    0    0  501    0  0.00000000000E+00  0.00000000000E+00  0.22430154925E+04  0.22430154925E+04  0.50400001928E-02 0.  1.
       -1   -1    0    0    0  501  0.00000000000E+00  0.00000000000E+00 -0.11686045784E+04  0.11686045784E+04  0.50400001928E-02 0. -1.
    10030    2    1    2    0    0  0.00000000000E+00  0.00000000000E+00  0.10744109141E+04  0.34116200710E+04  0.32380229610E+04 0.  0.
        5    1    3    3  502    0  0.13564273478E+04  0.86137846552E+02 -0.38965056172E+03  0.14139181479E+04  0.46999998093E+01 0. -1.
       -5    1    3    3    0  502 -0.13564273478E+04 -0.86137846552E+02  0.14640614758E+04  0.19977019231E+04  0.46999998093E+01 0.  1.
</event>
<event>
 5   0  0.2429358E-06  0.2865391E+04  0.7818609E-02  0.8283250E-01
        1   -1    0    0  501    0  0.00000000000E+00  0.00000000000E+00  0.90392031888E+03  0.90392031890E+03  0.50400001928E-02 0.  1.
       -1   -1    0    0    0  501  0.00000000000E+00  0.00000000000E+00 -0.22707940016E+04  0.22707940016E+04  0.50400001928E-02 0. -1.
    10030    2    1    2    0    0  0.00000000000E+00  0.00000000000E+00 -0.13668736827E+04  0.31747143205E+04  0.28653913087E+04 0.  0.
        2    1    3    3  502    0 -0.11433609283E+04 -0.67907380299E+03 -0.12740917465E+04  0.18416637100E+04  0.25500000920E-02 0. -1.
       -2    1    3    3    0  502  0.11433609283E+04  0.67907380299E+03 -0.92781936196E+02  0.13330506104E+04  0.25500000920E-02 0.  1.
</event>
<event>
 5   0  0.6393633E-06  0.2893008E+04  0.7818609E-02  0.8274961E-01
       -2   -1    0    0    0  501  0.00000000000E+00  0.00000000000E+00  0.18074528948E+04  0.18074528948E+04  0.25500000920E-02 0.  1.
        2   -1    0    0  501    0  0.00000000000E+00  0.00000000000E+00 -0.11576370421E+04  0.11576370421E+04  0.25500000920E-02 0. -1.
    10030    2    1    2    0    0  0.00000000000E+00  0.00000000000E+00  0.64981585269E+03  0.29650899369E+04  0.28930084153E+04 0.  0.
        4    1    3    3  502    0 -0.15189662520E+03  0.10305052635E+04  0.13535880224E+04  0.17079858987E+04  0.12699999809E+01 0.  1.
       -4    1    3    3    0  502  0.15189662520E+03 -0.10305052635E+04 -0.70377216975E+03  0.12571040381E+04  0.12699999809E+01 0. -1.
</event>
<event>
 5   0  0.6733688E-06  0.2922575E+04  0.7818609E-02  0.8266192E-01
       -2   -1    0    0    0  501  0.00000000000E+00  0.00000000000E+00  0.16295388028E+04  0.16295388028E+04  0.25500000920E-02 0. -1.
        2   -1    0    0  501    0  0.00000000000E+00  0.00000000000E+00 -0.13104082570E+04  0.13104082570E+04  0.25500000920E-02 0.  1.
    10030    2    1    2    0    0  0.00000000000E+00  0.00000000000E+00  0.31913054579E+03  0.29399470598E+04  0.29225749621E+04 0.  0.
        5    1    3    3  502    0  0.66327921071E+03  0.69735425495E+03  0.12656907019E+04  0.15900431790E+04  0.46999998093E+01 0. -1.
       -5    1    3    3    0  502 -0.66327921071E+03 -0.69735425495E+03 -0.94656015612E+03  0.13499038808E+04  0.46999998093E+01 0.  1.
</event>
<event>
 5   0  0.2474769E-06  0.2886893E+04  0.7818609E-02  0.8276788E-01
        1   -1    0    0  501    0  0.00000000000E+00  0.00000000000E+00  0.13676848702E+04  0.13676848702E+04  0.50400001928E-02 0. -1.
       -1   -1    0    0    0  501  0.00000000000E+00  0.00000000000E+00 -0.15234047426E+04  0.15234047426E+04  0.50400001928E-02 0.  1.
    10030    2    1    2    0    0  0.00000000000E+00  0.00000000000E+00 -0.15571987236E+03  0.28910896128E+04  0.28868928748E+04 0.  0.
        1    1    3    3  502    0 -0.60480517077E+02  0.43090164629E+03  0.13004414776E+04  0.13713067339E+04  0.50400001928E-02 0. -1.
       -1    1    3    3    0  502  0.60480517077E+02 -0.43090164629E+03 -0.14561613500E+04  0.15197828789E+04  0.50400001928E-02 0.  1.
</event>
<event>
 5   0  0.6615403E-06  0.2972959E+04  0.7818609E-02  0.8251495E-01
        2   -1    0    0  501    0  0.00000000000E+00  0.00000000000E+00  0.24643402641E+04  0.24643402641E+04  0.25500000920E-02 0.  1.
       -2   -1    0    0    0  501  0.00000000000E+00  0.00000000000E+00 -0.89663833780E+03  0.89663833780E+03  0.25500000920E-02 0. -1.
    10030    2    1    2    0    0  0.00000000000E+00  0.00000000000E+00  0.15677019263E+04  0.33609786019E+04  0.29729594402E+04 0.  0.
        2    1    3    3  502    0 -0.12176186854E+04  0.33372507895E+02  0.17470566579E+04  0.21297689906E+04  0.25500000920E-02 0.  1.
       -2    1    3    3    0  502  0.12176186854E+04 -0.33372507895E+02 -0.17935473160E+03  0.12312096113E+04  0.25500000920E-02 0. -1.
</event>
<event>
 5   0  0.2429358E-06  0.2929518E+04  0.7818609E-02  0.8264149E-01
        1   -1    0    0  501    0  0.00000000000E+00  0.00000000000E+00  0.18115108108E+04  0.18115108108E+04  0.50400001928E-02 0.  1.
       -1   -1    0    0    0  501  0.00000000000E+00  0.00000000000E+00 -0.11843810362E+04  0.11843810363E+04  0.50400001928E-02 0. -1.
    10030    2    1    2    0    0  0.00000000000E+00  0.00000000000E+00  0.62712977460E+03  0.29958918471E+04  0.29295180841E+04 0.  0.
        2    1    3    3  502    0  0.11584259289E+03 -0.14481030438E+04  0.12197804266E+03  0.14578410664E+04  0.25500000920E-02 0. -1.
       -2    1    3    3    0  502 -0.11584259289E+03  0.14481030438E+04  0.50515173193E+03  0.15380507807E+04  0.25500000920E-02 0.  1.
</event>
<event>
 5   0  0.6513041E-06  0.2924346E+04  0.7818609E-02  0.8265671E-01
       -2   -1    0    0    0  501  0.00000000000E+00  0.00000000000E+00  0.11348187680E+04  0.11348187680E+04  0.25500000920E-02 0. -1.
        2   -1    0    0  501    0  0.00000000000E+00  0.00000000000E+00 -0.18839568938E+04  0.18839568938E+04  0.25500000920E-02 0.  1.
    10030    2    1    2    0    0  0.00000000000E+00  0.00000000000E+00 -0.74913812585E+03  0.30187756618E+04  0.29243458354E+04 0.  0.
        1    1    3    3  502    0 -0.91355508239E+03  0.24710466503E+03  0.77600983993E+03  0.12238606439E+04  0.50400001928E-02 0. -1.
       -1    1    3    3    0  502  0.91355508239E+03 -0.24710466503E+03 -0.15251479658E+04  0.17949150179E+04  0.50400001928E-02 0.  1.
</event>
<event>
 5   0  0.2508094E-06  0.3009499E+04  0.7818609E-02  0.8241023E-01
        1   -1    0    0  501    0  0.00000000000E+00  0.00000000000E+00  0.20578160107E+04  0.20578160107E+04  0.50400001928E-02 0.  1.
       -1   -1    0    0    0  501  0.00000000000E+00  0.00000000000E+00 -0.11003275283E+04  0.11003275283E+04  0.50400001928E-02 0. -1.
    10030    2    1    2    0    0  0.00000000000E+00  0.00000000000E+00  0.95748848232E+03  0.31581435390E+04  0.30094993635E+04 0.  0.
        3    1    3    3  502    0  0.12663886786E+04 -0.27099795554E+03 -0.32531949378E+03  0.13352950837E+04  0.10100000352E+00 0.  1.
       -3    1    3    3    0  502 -0.12663886786E+04  0.27099795554E+03  0.12828079761E+04  0.18228484553E+04  0.10100000352E+00 0. -1.
</event>
<event>
 5   0  0.2508094E-06  0.2527669E+04  0.7818609E-02  0.8393194E-01
        1   -1    0    0  501    0  0.00000000000E+00  0.00000000000E+00  0.16903632543E+04  0.16903632543E+04  0.50400001928E-02 0. -1.
       -1   -1    0    0    0  501  0.00000000000E+00  0.00000000000E+00 -0.94493139867E+03  0.94493139868E+03  0.50400001928E-02 0.  1.
    10030    2    1    2    0    0  0.00000000000E+00  0.00000000000E+00  0.74543185567E+03  0.26352946530E+04  0.25276687395E+04 0.  0.
        3    1    3    3  502    0  0.53460046745E+03  0.35149280227E+03  0.15090470387E+04  0.16390752957E+04  0.10100000352E+00 0. -1.
       -3    1    3    3    0  502 -0.53460046745E+03 -0.35149280227E+03 -0.76361518304E+03  0.99621935729E+03  0.10100000352E+00 0.  1.
</event>
<event>
 5   0  0.6393633E-06  0.2905767E+04  0.7818609E-02  0.8271164E-01
       -2   -1    0    0    0  501  0.00000000000E+00  0.00000000000E+00  0.23873675668E+04  0.23873675668E+04  0.25500000920E-02 0.  1.
        2   -1    0    0  501    0  0.00000000000E+00  0.00000000000E+00 -0.88418328075E+03  0.88418328076E+03  0.25500000920E-02 0. -1.
    10030    2    1    2    0    0  0.00000000000E+00  0.00000000000E+00  0.15031842861E+04  0.32715508476E+04  0.29057670159E+04 0.  0.
        4    1    3    3  502    0 -0.93323169115E+03  0.10040937555E+04  0.20959574638E+03  0.13867435412E+04  0.12699999809E+01 0. -1.
       -4    1    3    3    0  502  0.93323169115E+03 -0.10040937555E+04  0.12935885397E+04  0.18848073064E+04  0.12699999809E+01 0.  1.
</event>
<event>
 5   0  0.6513041E-06  0.2884355E+04  0.7818609E-02  0.8277548E-01
       -2   -1    0    0    0  501  0.00000000000E+00  0.00000000000E+00  0.21268009678E+04  0.21268009678E+04  0.25500000920E-02 0.  1.
        2   -1    0    0  501    0  0.00000000000E+00  0.00000000000E+00 -0.97793624223E+03  0.97793624223E+03  0.25500000920E-02 0. -1.
    10030    2    1    2    0    0  0.00000000000E+00  0.00000000000E+00  0.11488647256E+04  0.31047372101E+04  0.28843548648E+04 0.  0.
        1    1    3    3  502    0  0.37509983309E+03  0.45418384537E+03 -0.84254207749E+03  0.10280369655E+04  0.50400001928E-02 0. -1.
       -1    1    3    3    0  502 -0.37509983309E+03 -0.45418384537E+03  0.19914068031E+04  0.20767002445E+04  0.50400001928E-02 0.  1.
</event>
<event>
 5   0  0.2429358E-06  0.2902378E+04  0.7818609E-02  0.8272170E-01
       -1   -1    0    0    0  501  0.00000000000E+00  0.00000000000E+00  0.11798641534E+04  0.11798641534E+04  0.50400001928E-02 0.  1.
        1   -1    0    0  501    0  0.00000000000E+00  0.00000000000E+00 -0.17849079577E+04  0.17849079577E+04  0.50400001928E-02 0. -1.
    10030    2    1    2    0    0  0.00000000000E+00  0.00000000000E+00 -0.60504380432E+03  0.29647721111E+04  0.29023775884E+04 0.  0.
        2    1    3    3  502    0 -0.44047440207E+03  0.10615346712E+04 -0.12076146357E+04  0.16670952778E+04  0.25500000920E-02 0. -1.
       -2    1    3    3    0  502  0.44047440207E+03 -0.10615346712E+04  0.60257083134E+03  0.12976768333E+04  0.25500000920E-02 0.  1.
</event>
<event>
 5   0  0.2336512E-06  0.2963719E+04  0.7818609E-02  0.8254168E-01
        1   -1    0    0  501    0  0.00000000000E+00  0.00000000000E+00  0.16322300309E+04  0.16322300309E+04  0.50400001928E-02 0.  1.
       -1   -1    0    0    0  501  0.00000000000E+00  0.00000000000E+00 -0.13453415470E+04  0.13453415470E+04  0.50400001928E-02 0. -1.
    10030    2    1    2    0    0  0.00000000000E+00  0.00000000000E+00  0.28688848383E+03  0.29775715779E+04  0.29637185257E+04 0.  0.
        4    1    3    3  502    0  0.53650114379E+03 -0.23090698929E+03  0.15117034641E+04  0.16206173179E+04  0.12699999809E+01 0.  1.
       -4    1    3    3    0  502 -0.53650114379E+03  0.23090698929E+03 -0.12248149802E+04  0.13569542600E+04  0.12699999809E+01 0. -1.
</event>
<event>
 5   0  0.2348684E-06  0.2874009E+04  0.7818609E-02  0.8280653E-01
        1   -1    0    0  501    0  0.00000000000E+00  0.00000000000E+00  0.13363750966E+04  0.13363750966E+04  0.50400001928E-02 0. -1.
       -1   -1    0    0    0  501  0.00000000000E+00  0.00000000000E+00 -0.15452116106E+04  0.15452116106E+04  0.50400001928E-02 0.  1.
    10030    2    1    2    0    0  0.00000000000E+00  0.00000000000E+00 -0.20883651402E+03  0.28815867071E+04  0.28740092660E+04 0.  0.
        5    1    3    3  502    0 -0.11566101408E+04  0.79740668846E+03  0.19862982868E+03  0.14188306253E+04  0.46999998093E+01 0. -1.
       -5    1    3    3    0  502  0.11566101408E+04 -0.79740668846E+03 -0.40746634269E+03  0.14627560818E+04  0.46999998093E+01 0.  1.
</event>
<event>
 5   0  0.6615403E-06  0.2880249E+04  0.7818609E-02  0.8278778E-01
        2   -1    0    0  501    0  0.00000000000E+00  0.00000000000E+00  0.16716025736E+04  0.16716025736E+04  0.25500000920E-02 0.  1.
       -2   -1    0    0    0  501  0.00000000000E+00  0.00000000000E+00 -0.12407009878E+04  0.12407009878E+04  0.25500000920E-02 0. -1.
    10030    2    1    2    0    0  0.00000000000E+00  0.00000000000E+00  0.43090158585E+03  0.29123035614E+04  0.28802492700E+04 0.  0.
        2    1    3    3  502    0 -0.11122843948E+04 -0.40233681341E+03  0.10461210992E+04  0.15790569466E+04  0.25500000920E-02 0.  1.
       -2    1    3    3    0  502  0.11122843948E+04  0.40233681341E+03 -0.61521951335E+03  0.13332466148E+04  0.25500000920E-02 0. -1.
</event>
<event>
 5   0  0.2336512E-06  0.2917912E+04  0.7818609E-02  0.8267568E-01
       -1   -1    0    0    0  501  0.00000000000E+00  0.00000000000E+00  0.14217928337E+04  0.14217928337E+04  0.50400001928E-02 0. -1.
        1   -1    0    0  501    0  0.00000000000E+00  0.00000000000E+00 -0.14970904352E+04  0.14970904352E+04  0.50400001928E-02 0.  1.
    10030    2    1    2    0    0  0.00000000000E+00  0.00000000000E+00 -0.75297601486E+02  0.29188832689E+04  0.29179118919E+04 0.  0.
        4    1    3    3  502    0  0.14437470114E+03  0.79150897305E+03 -0.12551079152E+04  0.14908480810E+04  0.12699999809E+01 0.  1.
       -4    1    3    3    0  502 -0.14437470114E+03 -0.79150897305E+03  0.11798103138E+04  0.14280351880E+04  0.12699999809E+01 0. -1.
</event>
<event>
 5   0  0.6733688E-06  0.2910579E+04  0.7818609E-02  0.8269737E-01
        2   -1    0    0  501    0  0.00000000000E+00  0.00000000000E+00  0.18471181371E+04  0.18471181371E+04  0.25500000920E-02 0. -1.
       -2   -1    0    0    0  501  0.00000000000E+00  0.00000000000E+00 -0.11465791923E+04  0.11465791923E+04  0.25500000920E-02 0.  1.
    10030    2    1    2    0    0  0.00000000000E+00  0.00000000000E+00  0.70053894475E+03  0.29936973294E+04  0.29105787889E+04 0.  0.
        5    1    3    3  502    0 -0.41786593711E+03 -0.12545105912E+04  0.97543979303E+03  0.16431413952E+04  0.46999998093E+01 0. -1.
       -5    1    3    3    0  502  0.41786593711E+03  0.12545105912E+04 -0.27490084828E+03  0.13505559341E+04  0.46999998093E+01 0.  1.
</event>
<event>
 5   0  0.2348684E-06  0.2884161E+04  0.7818609E-02  0.8277606E-01
        1   -1    0    0  501    0  0.00000000000E+00  0.00000000000E+00  0.70476604225E+03  0.70476604226E+03  0.50400001928E-02 0. -1.
       -1   -1    0    0    0  501  0.00000000000E+00  0.00000000000E+00 -0.29507619825E+04  0.29507619825E+04  0.50400001928E-02 0.  1.
    10030    2    1    2    0    0  0.00000000000E+00  0.00000000000E+00 -0.22459959402E+04  0.36555280247E+04  0.28841614685E+04 0.  0.
        5    1    3    3  502    0  0.21538576869E+03  0.90024088143E+03  0.27852234477E+03  0.96665477834E+03  0.46999998093E+01 0. -1.
       -5    1    3    3    0  502 -0.21538576869E+03 -0.90024088143E+03 -0.25245182850E+04  0.26888732464E+04  0.46999998093E+01 0.  1.
</event>
<event>
 5   0  0.2474769E-06  0.2735510E+04  0.7818609E-02  0.8323574E-01
       -1   -1    0    0    0  501  0.00000000000E+00  0.00000000000E+00  0.20002495926E+04  0.20002495926E+04  0.50400001928E-02 0. -1.
        1   -1    0    0  501    0  0.00000000000E+00  0.00000000000E+00 -0.93526021508E+03  0.93526021510E+03  0.50400001928E-02 0.  1.
    10030    2    1    2    0    0  0.00000000000E+00  0.00000000000E+00  0.10649893775E+04  0.29355098077E+04  0.27355100908E+04 0.  0.
        1    1    3    3  502    0  0.56694676627E+03 -0.23158101667E+03  0.18448964437E+04  0.19438881889E+04  0.50400001928E-02 0. -1.
       -1    1    3    3    0  502 -0.56694676627E+03  0.23158101667E+03 -0.77990706614E+03  0.99162161881E+03  0.50400001928E-02 0.  1.
</event>
<event>
 5   0  0.6615403E-06  0.2897717E+04  0.7818609E-02  0.8273557E-01
        2   -1    0    0  501    0  0.00000000000E+00  0.00000000000E+00  0.20732508148E+04  0.20732508148E+04  0.25500000920E-02 0. -1.
       -2   -1    0    0    0  501  0.00000000000E+00  0.00000000000E+00 -0.10125121089E+04  0.10125121089E+04  0.25500000920E-02 0.  1.
    10030    2    1    2    0    0  0.00000000000E+00  0.00000000000E+00  0.10607387059E+04  0.30857629236E+04  0.28977174152E+04 0.  0.
        2    1    3    3  502    0  0.33421849817E+03 -0.10949531293E+04  0.14760094495E+04  0.18679476049E+04  0.25500000920E-02 0. -1.
       -2    1    3    3    0  502 -0.33421849817E+03  0.10949531293E+04 -0.41527074356E+03  0.12178153187E+04  0.25500000920E-02 0.  1.
</event>
<event>
 5   0  0.2348684E-06  0.2895106E+04  0.7818609E-02  0.8274335E-01
        1   -1    0    0  501    0  0.00000000000E+00  0.00000000000E+00  0.25496892978E+04  0.25496892978E+04  0.50400001928E-02 0. -1.
       -1   -1    0    0    0  501  0.00000000000E+00  0.00000000000E+00 -0.82182921012E+03  0.82182921014E+03  0.50400001928E-02 0.  1.
    10030    2    1    2    0    0  0.00000000000E+00  0.00000000000E+00  0.17278600877E+04  0.33715185080E+04  0.28951056227E+04 0.  0.
        5    1    3    3  502    0 -0.10231478490E+04 -0.10026396140E+04  0.11061730498E+04  0.18099056944E+04  0.46999998093E+01 0. -1.
       -5    1    3    3    0  502  0.10231478490E+04  0.10026396140E+04  0.62168703786E+03  0.15616128136E+04  0.46999998093E+01 0.  1.
</event>
<event>
 5   0  0.6513041E-06  0.2887951E+04  0.7818609E-02  0.8276472E-01
       -2   -1    0    0    0  501  0.00000000000E+00  0.00000000000E+00  0.17889459875E+04  0.17889459875E+04  0.25500000920E-02 0. -1.
        2   -1    0    0  501    0  0.00000000000E+00  0.00000000000E+00 -0.11655270534E+04  0.11655270534E+04  0.25500000920E-02 0.  1.
    10030    2    1    2    0    0  0.00000000000E+00  0.00000000000E+00  0.62341893411E+03  0.29544730408E+04  0.28879507928E+04 0.  0.
        1    1    3    3  502    0  0.14411106098E+03  0.20528910870E+03 -0.11430704053E+04  0.11702655970E+04  0.50400001928E-02 0.  1.
       -1    1    3    3    0  502 -0.14411106098E+03 -0.20528910870E+03  0.17664893394E+04  0.17842074438E+04  0.50400001928E-02 0. -1.
</event>
<event>
 5   0  0.2474769E-06  0.2875166E+04  0.7818609E-02  0.8280305E-01
        1   -1    0    0  501    0  0.00000000000E+00  0.00000000000E+00  0.21623481764E+04  0.21623481764E+04  0.50400001928E-02 0. -1.
       -1   -1    0    0    0  501  0.00000000000E+00  0.00000000000E+00 -0.95574102005E+03  0.95574102007E+03  0.50400001928E-02 0.  1.
    10030    2    1    2    0    0  0.00000000000E+00  0.00000000000E+00  0.12066071563E+04  0.31180891965E+04  0.28751659791E+04 0.  0.
        1    1    3    3  502    0  0.79937736481E+03 -0.36811111395E+03  0.18360664332E+04  0.20360869114E+04  0.50400001928E-02 0. -1.
       -1    1    3    3    0  502 -0.79937736481E+03  0.36811111395E+03 -0.62945927688E+03  0.10820022851E+04  0.50400001928E-02 0.  1.
</event>
<event>
 5   0  0.2429358E-06  0.2900096E+04  0.7818609E-02  0.8272849E-01
       -1   -1    0    0    0  501  0.00000000000E+00  0.00000000000E+00  0.16734735196E+04  0.16734735196E+04  0.50400001928E-02 0.  1.
        1   -1    0    0  501    0  0.00000000000E+00  0.00000000000E+00 -0.12564516053E+04  0.12564516053E+04  0.50400001928E-02 0. -1.
    10030    2    1    2    0    0  0.00000000000E+00  0.00000000000E+00  0.41702191431E+03  0.29299251249E+04  0.29000955089E+04 0.  0.
        2    1    3    3  502    0  0.44146524802E+03 -0.11295935854E+04  0.10115230594E+04  0.15792568293E+04  0.25500000920E-02 0.  1.
       -2    1    3    3    0  502 -0.44146524802E+03  0.11295935854E+04 -0.59450114507E+03  0.13506682956E+04  0.25500000920E-02 0. -1.
</event>
<event>
 5   0  0.6393633E-06  0.2943983E+04  0.7818609E-02  0.8259910E-01
        2   -1    0    0  501    0  0.00000000000E+00  0.00000000000E+00  0.17221980003E+04  0.17221980003E+04  0.25500000920E-02 0.  1.
       -2   -1    0    0    0  501  0.00000000000E+00  0.00000000000E+00 -0.12581354436E+04  0.12581354436E+04  0.25500000920E-02 0. -1.
    10030    2    1    2    0    0  0.00000000000E+00  0.00000000000E+00  0.46406255676E+03  0.29803334439E+04  0.29439825713E+04 0.  0.
        4    1    3    3  502    0 -0.76749881772E+03 -0.92416437456E+03 -0.62913230149E+03  0.13560764330E+04  0.12699999809E+01 0. -1.
       -4    1    3    3    0  502  0.76749881772E+03  0.92416437456E+03  0.10931948583E+04  0.16242570109E+04  0.12699999809E+01 0.  1.
</event>
<event>
 5   0  0.6615403E-06  0.2910281E+04  0.7818609E-02  0.8269825E-01
        2   -1    0    0  501    0  0.00000000000E+00  0.00000000000E+00  0.25430101246E+04  0.25430101246E+04  0.25500000920E-02 0.  1.
       -2   -1    0    0    0  501  0.00000000000E+00  0.00000000000E+00 -0.83264877258E+03  0.83264877258E+03  0.25500000920E-02 0. -1.
    10030    2    1    2    0    0  0.00000000000E+00  0.00000000000E+00  0.17103613520E+04  0.33756588971E+04  0.29102812640E+04 0.  0.
        2    1    3    3  502    0  0.86681744863E+03  0.25925183608E+03  0.21770944696E+04  0.23576098773E+04  0.25500000920E-02 0.  1.
       -2    1    3    3    0  502 -0.86681744863E+03 -0.25925183608E+03 -0.46673311764E+03  0.10180490199E+04  0.25500000920E-02 0. -1.
</event>
<event>
 5   0  0.6393633E-06  0.2649815E+04  0.7818609E-02  0.8351474E-01
        2   -1    0    0  501    0  0.00000000000E+00  0.00000000000E+00  0.20220988436E+04  0.20220988436E+04  0.25500000920E-02 0. -1.
       -2   -1    0    0    0  501  0.00000000000E+00  0.00000000000E+00 -0.86809808922E+03  0.86809808923E+03  0.25500000920E-02 0.  1.
    10030    2    1    2    0    0  0.00000000000E+00  0.00000000000E+00  0.11540007544E+04  0.28901969329E+04  0.26498151954E+04 0.  0.
        4    1    3    3  502    0 -0.92096869186E+03 -0.18709963809E+03 -0.44163119547E+03  0.10383782219E+04  0.12699999809E+01 0.  1.
       -4    1    3    3    0  502  0.92096869186E+03  0.18709963809E+03  0.15956319499E+04  0.18518187110E+04  0.12699999809E+01 0. -1.
</event>
<event>
 5   0  0.2429358E-06  0.2555545E+04  0.7818609E-02  0.8383460E-01
       -1   -1    0    0    0  501  0.00000000000E+00  0.00000000000E+00  0.98325520410E+03  0.98325520411E+03  0.50400001928E-02 0. -1.
        1   -1    0    0  501    0  0.00000000000E+00  0.00000000000E+00 -0.16605080078E+04  0.16605080078E+04  0.50400001928E-02 0.  1.
    10030    2    1    2    0    0  0.00000000000E+00  0.00000000000E+00 -0.67725280369E+03  0.26437632119E+04  0.25555454526E+04 0.  0.
        2    1    3    3  502    0 -0.68686022972E+03 -0.21843813035E+03  0.75288349993E+03  0.10422695220E+04  0.25500000920E-02 0. -1.
       -2    1    3    3    0  502  0.68686022972E+03  0.21843813035E+03 -0.14301363036E+04  0.16014936899E+04  0.25500000920E-02 0.  1.
</event>
<event>
 5   0  0.6513041E-06  0.2880735E+04  0.7818609E-02  0.8278633E-01
       -2   -1    0    0    0  501  0.00000000000E+00  0.00000000000E+00  0.19351635441E+04  0.19351635441E+04  0.25500000920E-02 0.  1.
        2   -1    0    0  501    0  0.00000000000E+00  0.00000000000E+00 -0.10720843509E+04  0.10720843509E+04  0.25500000920E-02 0. -1.
    10030    2    1    2    0    0  0.00000000000E+00  0.00000000000E+00  0.86307919323E+03  0.30072478950E+04  0.28807350118E+04 0.  0.
        1    1    3    3  502    0 -0.45325040315E+03  0.12415961973E+04  0.10290956231E+04  0.16751223378E+04  0.50400001928E-02 0.  1.
       -1    1    3    3    0  502  0.45325040315E+03 -0.12415961973E+04 -0.16601642990E+03  0.13321255572E+04  0.50400001928E-02 0. -1.
</event>
<event>
 5   0  0.2336512E-06  0.2905154E+04  0.7818609E-02  0.8271346E-01
       -1   -1    0    0    0  501  0.00000000000E+00  0.00000000000E+00  0.17917480820E+04  0.17917480820E+04  0.50400001928E-02 0. -1.
        1   -1    0    0  501    0  0.00000000000E+00  0.00000000000E+00 -0.11776095100E+04  0.11776095100E+04  0.50400001928E-02 0.  1.
    10030    2    1    2    0    0  0.00000000000E+00  0.00000000000E+00  0.61413857196E+03  0.29693575920E+04  0.29051537521E+04 0.  0.
        4    1    3    3  502    0 -0.11564193605E+04 -0.76353276685E+03  0.75222867172E+03  0.15767490640E+04  0.12699999809E+01 0. -1.
       -4    1    3    3    0  502  0.11564193605E+04  0.76353276685E+03 -0.13809009975E+03  0.13926085279E+04  0.12699999809E+01 0.  1.
</event>
<event>
 5   0  0.2429358E-06  0.2861839E+04  0.7818609E-02  0.8284323E-01
        1   -1    0    0  501    0  0.00000000000E+00  0.00000000000E+00  0.25215728310E+04  0.25215728310E+04  0.50400001928E-02 0.  1.
       -1   -1    0    0    0  501  0.00000000000E+00  0.00000000000E+00 -0.81200550362E+03  0.81200550364E+03  0.50400001928E-02 0. -1.
    10030    2    1    2    0    0  0.00000000000E+00  0.00000000000E+00  0.17095673274E+04  0.33335783347E+04  0.28618392803E+04 0.  0.
        2    1    3    3  502    0 -0.46746141715E+03 -0.96385592280E+03  0.19598412081E+04  0.22334985958E+04  0.25500000920E-02 0.  1.
       -2    1    3    3    0  502  0.46746141715E+03  0.96385592280E+03 -0.25027388073E+03  0.11000797388E+04  0.25500000920E-02 0. -1.
</event>
<event>
 5   0  0.2474769E-06  0.2898263E+04  0.7818609E-02  0.8273394E-01
       -1   -1    0    0    0  501  0.00000000000E+00  0.00000000000E+00  0.16144196346E+04  0.16144196346E+04  0.50400001928E-02 0.  1.
        1   -1    0    0  501    0  0.00000000000E+00  0.00000000000E+00 -0.13007659815E+04  0.13007659815E+04  0.50400001928E-02 0. -1.
    10030    2    1    2    0    0  0.00000000000E+00  0.00000000000E+00  0.31365365310E+03  0.29151856162E+04  0.28982630251E+04 0.  0.
        1    1    3    3  502    0  0.11597845049E+04 -0.69691630148E+03  0.67869119416E+03  0.15137417766E+04  0.50400001928E-02 0.  1.
       -1    1    3    3    0  502 -0.11597845049E+04  0.69691630148E+03 -0.36503754106E+03  0.14014438396E+04  0.50400001928E-02 0. -1.
</event>
<event>
 5   0  0.6513041E-06  0.2894874E+04  0.7818609E-02  0.8274404E-01
        2   -1    0    0  501    0  0.00000000000E+00  0.00000000000E+00  0.16245799050E+04  0.16245799050E+04  0.25500000920E-02 0.  1.
       -2   -1    0    0    0  501  0.00000000000E+00  0.00000000000E+00 -0.12896099742E+04  0.12896099742E+04  0.25500000920E-02 0. -1.
    10030    2    1    2    0    0  0.00000000000E+00  0.00000000000E+00  0.33496993085E+03  0.29141898792E+04  0.28948744010E+04 0.  0.
        1    1    3    3  502    0  0.68643232111E+03 -0.23584924083E+03  0.14281426850E+04  0.16020005383E+04  0.50400001928E-02 0.  1.
       -1    1    3    3    0  502 -0.68643232111E+03  0.23584924083E+03 -0.10931727542E+04  0.13121893409E+04  0.50400001928E-02 0. -1.
</event>
<event>
 5   0  0.2508094E-06  0.2910182E+04  0.7818609E-02  0.8269855E-01
       -1   -1    0    0    0  501  0.00000000000E+00  0.00000000000E+00  0.10313849370E+04  0.10313849370E+04  0.50400001928E-02 0. -1.
        1   -1    0    0  501    0  0.00000000000E+00  0.00000000000E+00 -0.20528604861E+04  0.20528604861E+04  0.50400001928E-02 0.  1.
    10030    2    1    2    0    0  0.00000000000E+00  0.00000000000E+00 -0.10214755491E+04  0.30842454231E+04  0.29101817009E+04 0.  0.
        3    1    3    3  502    0 -0.85168396799E+03 -0.10739333722E+04  0.69355234761E+01  0.13706737690E+04  0.10100000352E+00 0. -1.
       -3    1    3    3    0  502  0.85168396799E+03  0.10739333722E+04 -0.10284110726E+04  0.17135716541E+04  0.10100000352E+00 0.  1.
</event>
<event>
 5   0  0.2348684E-06  0.2885143E+04  0.7818609E-02  0.8277312E-01
        1   -1    0    0  501    0  0.00000000000E+00  0.00000000000E+00  0.21580878111E+04  0.21580878111E+04  0.50400001928E-02 0. -1.
       -1   -1    0    0    0  501  0.00000000000E+00  0.00000000000E+00 -0.96428516093E+03  0.96428516094E+03  0.50400001928E-02 0.  1.
    10030    2    1    2    0    0  0.00000000000E+00  0.00000000000E+00  0.11938026501E+04  0.31223729720E+04  0.28851426670E+04 0.  0.
        5    1    3    3  502    0  0.52575461220E+03 -0.86980767209E+03  0.17047986342E+04  0.19847780158E+04  0.46999998093E+01 0. -1.
       -5    1    3    3    0  502 -0.52575461220E+03  0.86980767209E+03 -0.51099598409E+03  0.11375949562E+04  0.46999998093E+01 0.  1.
</event>
<event>
 5   0  0.2508094E-06  0.2893319E+04  0.7818609E-02  0.8274868E-01
        1   -1    0    0  501    0  0.00000000000E+00  0.00000000000E+00  0.12622104972E+04  0.12622104972E+04  0.50400001928E-02 0.  1.
       -1   -1    0    0    0  501  0.00000000000E+00  0.00000000000E+00 -0.16580626671E+04  0.16580626671E+04  0.50400001928E-02 0. -1.
    10030    2    1    2    0    0  0.00000000000E+00  0.00000000000E+00 -0.39585216993E+03  0.29202731643E+04  0.28933192727E+04 0.  0.
        3    1    3    3  502    0  0.11710106847E+04  0.51223944148E+03 -0.88185869952E+03  0.15528457892E+04  0.10100000352E+00 0. -1.
       -3    1    3    3    0  502 -0.11710106847E+04 -0.51223944148E+03  0.48600652959E+03  0.13674273751E+04  0.10100000352E+00 0.  1.
</event>
<event>
 5   0  0.6615403E-06  0.2409925E+04  0.7818609E-02  0.8435797E-01
        2   -1    0    0  501    0  0.00000000000E+00  0.00000000000E+00  0.20857589173E+04  0.20857589173E+04  0.25500000920E-02 0. -1.
       -2   -1    0    0    0  501  0.00000000000E+00  0.00000000000E+00 -0.69611805463E+03  0.69611805463E+03  0.25500000920E-02 0.  1.
    10030    2    1    2    0    0  0.00000000000E+00  0.00000000000E+00  0.13896408627E+04  0.27818769719E+04  0.24099248452E+04 0.  0.
        2    1    3    3  502    0 -0.70266622499E+03  0.52464311992E+03 -0.25913269367E+03  0.91440690065E+03  0.25500000920E-02 0.  1.
       -2    1    3    3    0  502  0.70266622499E+03 -0.52464311992E+03  0.16487735563E+04  0.18674700713E+04  0.25500000920E-02 0. -1.
</event>
<event>
 5   0  0.6615403E-06  0.2880766E+04  0.7818609E-02  0.8278623E-01
       -2   -1    0    0    0  501  0.00000000000E+00  0.00000000000E+00  0.18199514892E+04  0.18199514892E+04  0.25500000920E-02 0. -1.
        2   -1    0    0  501    0  0.00000000000E+00  0.00000000000E+00 -0.11399772613E+04  0.11399772613E+04  0.25500000920E-02 0.  1.
    10030    2    1    2    0    0  0.00000000000E+00  0.00000000000E+00  0.67997422793E+03  0.29599287505E+04  0.28807660886E+04 0.  0.
        2    1    3    3  502    0  0.55978366854E+03  0.11754018931E+04 -0.29320717574E+03  0.13345028339E+04  0.25500000920E-02 0.  1.
       -2    1    3    3    0  502 -0.55978366854E+03 -0.11754018931E+04  0.97318140366E+03  0.16254259166E+04  0.25500000920E-02 0. -1.
</event>
<event>
 5   0  0.6393633E-06  0.2914412E+04  0.7818609E-02  0.8268602E-01
        2   -1    0    0  501    0  0.00000000000E+00  0.00000000000E+00  0.13956993897E+04  0.13956993897E+04  0.25500000920E-02 0. -1.
       -2   -1    0    0    0  501  0.00000000000E+00  0.00000000000E+00 -0.15214231510E+04  0.15214231510E+04  0.25500000920E-02 0.  1.
    10030    2    1    2    0    0  0.00000000000E+00  0.00000000000E+00 -0.12572376130E+03  0.29171225407E+04  0.29144120253E+04 0.  0.
        4    1    3    3  502    0 -0.91787320308E+03  0.97012470943E+03  0.52061644526E+03  0.14334141986E+04  0.12699999809E+01 0. -1.
       -4    1    3    3    0  502  0.91787320308E+03 -0.97012470943E+03 -0.64634020656E+03  0.14837083421E+04  0.12699999809E+01 0.  1.
</event>
<event>
 5   0  0.2159500E-06  0.2902887E+04  0.7818609E-02  0.8272019E-01
        3   -1    0    0  501    0  0.00000000000E+00  0.00000000000E+00  0.19983219104E+04  0.19983219130E+04  0.10100000352E+00 0. -1.
       -3   -1    0    0    0  501  0.00000000000E+00  0.00000000000E+00 -0.10542285181E+04  0.10542285230E+04  0.10100000352E+00 0.  1.
    10030    2    1    2    0    0  0.00000000000E+00  0.00000000000E+00  0.94409339227E+03  0.30525504359E+04  0.29028868098E+04 0.  0.
        3    1    3    3  502    0 -0.14355794145E+04 -0.20730868282E+03  0.52791596136E+03  0.15435544752E+04  0.10100000352E+00 0.  1.
       -3    1    3    3    0  502  0.14355794145E+04  0.20730868282E+03  0.41617743092E+03  0.15089959608E+04  0.10100000352E+00 0. -1.
</event>
<event>
 5   0  0.2508094E-06  0.2825814E+04  0.7818609E-02  0.8295299E-01
       -1   -1    0    0    0  501  0.00000000000E+00  0.00000000000E+00  0.14858824024E+04  0.14858824024E+04  0.50400001928E-02 0.  1.
        1   -1    0    0  501    0  0.00000000000E+00  0.00000000000E+00 -0.13435152452E+04  0.13435152453E+04  0.50400001928E-02 0. -1.
    10030    2    1    2    0    0  0.00000000000E+00  0.00000000000E+00  0.14236715713E+03  0.28293976476E+04  0.28258136246E+04 0.  0.
        3    1    3    3  502    0  0.67972564407E+03  0.92167254733E+03 -0.75739146133E+03  0.13730073094E+04  0.10100000352E+00 0. -1.
       -3    1    3    3    0  502 -0.67972564407E+03 -0.92167254733E+03  0.89975861846E+03  0.14563903383E+04  0.10100000352E+00 0.  1.
</event>
<event>
 5   0  0.2336512E-06  0.2919135E+04  0.7818609E-02  0.8267207E-01
       -1   -1    0    0    0  501  0.00000000000E+00  0.00000000000E+00  0.14012890513E+04  0.14012890513E+04  0.50400001928E-02 0.  1.
        1   -1    0    0  501    0  0.00000000000E+00  0.00000000000E+00 -0.15202700643E+04  0.15202700643E+04  0.50400001928E-02 0. -1.
    10030    2    1    2    0    0  0.00000000000E+00  0.00000000000E+00 -0.11898101302E+03  0.29215591157E+04  0.29191353488E+04 0.  0.
        4    1    3    3  502    0 -0.23593563929E+03 -0.13597550856E+04 -0.53500252524E+03  0.14801448691E+04  0.12699999809E+01 0.  1.
       -4    1    3    3    0  502  0.23593563929E+03  0.13597550856E+04  0.41602151222E+03  0.14414142466E+04  0.12699999809E+01 0. -1.
</event>
<event>
 5   0  0.6733688E-06  0.2911673E+04  0.7818609E-02  0.8269413E-01
       -2   -1    0    0    0  501  0.00000000000E+00  0.00000000000E+00  0.81144601081E+03  0.81144601082E+03  0.25500000920E-02 0. -1.
        2   -1    0    0  501    0  0.00000000000E+00  0.00000000000E+00 -0.26119543976E+04  0.26119543976E+04  0.25500000920E-02 0.  1.
    10030    2    1    2    0    0  0.00000000000E+00  0.00000000000E+00 -0.18005083868E+04  0.34234004084E+04  0.29116730423E+04 0.  0.
        5    1    3    3  502    0  0.14409957772E+04 -0.16551389805E+03 -0.10469839002E+04  0.17888714481E+04  0.46999998093E+01 0. -1.
       -5    1    3    3    0  502 -0.14409957772E+04  0.16551389805E+03 -0.75352448658E+03  0.16345289604E+04  0.46999998093E+01 0.  1.
</event>
<event>
 5   0  0.2348684E-06  0.2843612E+04  0.7818609E-02  0.8289855E-01
        1   -1    0    0  501    0  0.00000000000E+00  0.00000000000E+00  0.25231334728E+04  0.25231334728E+04  0.50400001928E-02 0.  1.
       -1   -1    0    0    0  501  0.00000000000E+00  0.00000000000E+00 -0.80119922686E+03  0.80119922688E+03  0.50400001928E-02 0. -1.
    10030    2    1    2    0    0  0.00000000000E+00  0.00000000000E+00  0.17219342459E+04  0.33243326997E+04  0.28436122012E+04 0.  0.
        5    1    3    3  502    0  0.52356709724E+03  0.77306575961E+02  0.24036790592E+04  0.24612586052E+04  0.46999998093E+01 0.  1.
       -5    1    3    3    0  502 -0.52356709724E+03 -0.77306575961E+02 -0.68174481332E+03  0.86307409444E+03  0.46999998093E+01 0. -1.
</event>
<event>
 5   0  0.2429358E-06  0.2895866E+04  0.7818609E-02  0.8274108E-01
       -1   -1    0    0    0  501  0.00000000000E+00  0.00000000000E+00  0.12035431765E+04  0.12035431765E+04  0.50400001928E-02 0.  1.
        1   -1    0    0  501    0  0.00000000000E+00  0.00000000000E+00 -0.17419487588E+04  0.17419487588E+04  0.50400001928E-02 0. -1.
    10030    2    1    2    0    0  0.00000000000E+00  0.00000000000E+00 -0.53840558232E+03  0.29454919354E+04  0.28958663937E+04 0.  0.
        2    1    3    3  502    0 -0.44521169359E+02  0.10701290831E+04  0.72184132382E+03  0.12915933129E+04  0.25500000920E-02 0.  1.
       -2    1    3    3    0  502  0.44521169359E+02 -0.10701290831E+04 -0.12602469061E+04  0.16538986225E+04  0.25500000920E-02 0. -1.
</event>
<event>
 5   0  0.6612533E-06  0.2885889E+04  0.7818609E-02  0.8277088E-01
        2   -1    0    0  501    0  0.00000000000E+00  0.00000000000E+00  0.16346866138E+04  0.16346866139E+04  0.25500000920E-02 0. -1.
       -2   -1    0    0    0  501  0.00000000000E+00  0.00000000000E+00 -0.12736930383E+04  0.12736930383E+04  0.25500000920E-02 0.  1.
    10030    2    1    2    0    0  0.00000000000E+00  0.00000000000E+00  0.36099357552E+03  0.29083796522E+04  0.28858890900E+04 0.  0.
        3    1    3    3  502    0  0.38780204687E+03 -0.77585288242E+03 -0.98163825162E+03  0.13099434301E+04  0.10100000352E+00 0.  1.
       -3    1    3    3    0  502 -0.38780204687E+03  0.77585288242E+03  0.13426318271E+04  0.15984362221E+04  0.10100000352E+00 0. -1.
</event>
<event>
 5   0  0.2508094E-06  0.2894896E+04  0.7818609E-02  0.8274398E-01
        1   -1    0    0  501    0  0.00000000000E+00  0.00000000000E+00  0.19764065014E+04  0.19764065014E+04  0.50400001928E-02 0.  1.
       -1   -1    0    0    0  501  0.00000000000E+00  0.00000000000E+00 -0.10600582837E+04  0.10600582837E+04  0.50400001928E-02 0. -1.
    10030    2    1    2    0    0  0.00000000000E+00  0.00000000000E+00  0.91634821769E+03  0.30364647850E+04  0.28948962563E+04 0.  0.
        3    1    3    3  502    0  0.17049159955E+03  0.11031449950E+04 -0.50835997346E+03  0.12265505038E+04  0.10100000352E+00 0. -1.
       -3    1    3    3    0  502 -0.17049159955E+03 -0.11031449950E+04  0.14247081911E+04  0.18099142813E+04  0.10100000352E+00 0.  1.
</event>
<event>
 5   0  0.2508094E-06  0.2909697E+04  0.7818609E-02  0.8269998E-01
       -1   -1    0    0    0  501  0.00000000000E+00  0.00000000000E+00  0.22341993246E+04  0.22341993246E+04  0.50400001928E-02 0.  1.
        1   -1    0    0  501    0  0.00000000000E+00  0.00000000000E+00 -0.94735676964E+03  0.94735676965E+03  0.50400001928E-02 0. -1.
    10030    2    1    2    0    0  0.00000000000E+00  0.00000000000E+00  0.12868425550E+04  0.31815560943E+04  0.29096967917E+04 0.  0.
        3    1    3    3  502    0 -0.58491486910E+03  0.11058209244E+03 -0.80809914233E+03  0.10036822392E+04  0.10100000352E+00 0. -1.
       -3    1    3    3    0  502  0.58491486910E+03 -0.11058209244E+03  0.20949416973E+04  0.21778738551E+04  0.10100000352E+00 0.  1.
</event>
<event>
 5   0  0.2508094E-06  0.2901742E+04  0.7818609E-02  0.8272359E-01
        1   -1    0    0  501    0  0.00000000000E+00  0.00000000000E+00  0.15076604316E+04  0.15076604316E+04  0.50400001928E-02 0. -1.
       -1   -1    0    0    0  501  0.00000000000E+00  0.00000000000E+00 -0.13962206642E+04  0.13962206642E+04  0.50400001928E-02 0.  1.
    10030    2    1    2    0    0  0.00000000000E+00  0.00000000000E+00  0.11143976740E+03  0.29038810957E+04  0.29017419934E+04 0.  0.
        3    1    3    3  502    0  0.13126343314E+04 -0.61752393711E+03  0.81853079097E+02  0.14529434392E+04  0.10100000352E+00 0.  1.
       -3    1    3    3    0  502 -0.13126343314E+04  0.61752393711E+03  0.29586688308E+02  0.14509376565E+04  0.10100000352E+00 0. -1.
</event>
<event>
 5   0  0.2429358E-06  0.2919753E+04  0.7818609E-02  0.8267025E-01
       -1   -1    0    0    0  501  0.00000000000E+00  0.00000000000E+00  0.14919806679E+04  0.14919806679E+04  0.50400001928E-02 0.  1.
        1   -1    0    0  501    0  0.00000000000E+00  0.00000000000E+00 -0.14284630836E+04  0.14284630836E+04  0.50400001928E-02 0. -1.
    10030    2    1    2    0    0  0.00000000000E+00  0.00000000000E+00  0.63517584276E+02  0.29204437515E+04  0.29197529386E+04 0.  0.
        2    1    3    3  502    0 -0.16995623952E+03  0.51671606995E+03  0.13868334318E+04  0.14896937899E+04  0.25500000920E-02 0.  1.
       -2    1    3    3    0  502  0.16995623952E+03 -0.51671606995E+03 -0.13233158475E+04  0.14307499616E+04  0.25500000920E-02 0. -1.
</event>
<event>
 5   0  0.2336512E-06  0.2924661E+04  0.7818609E-02  0.8265578E-01
        1   -1    0    0  501    0  0.00000000000E+00  0.00000000000E+00  0.20638203313E+04  0.20638203313E+04  0.50400001928E-02 0. -1.
       -1   -1    0    0    0  501  0.00000000000E+00  0.00000000000E+00 -0.10361414531E+04  0.10361414531E+04  0.50400001928E-02 0.  1.
    10030    2    1    2    0    0  0.00000000000E+00  0.00000000000E+00  0.10276788782E+04  0.30999617844E+04  0.29246605253E+04 0.  0.
        4    1    3    3  502    0  0.92292046294E+03  0.88298118745E+03 -0.24085665737E+03  0.12997890216E+04  0.12699999809E+01 0.  1.
       -4    1    3    3    0  502 -0.92292046294E+03 -0.88298118745E+03  0.12685355355E+04  0.18001727628E+04  0.12699999809E+01 0. -1.
</event>
<event>
 5   0  0.2336512E-06  0.2931446E+04  0.7818609E-02  0.8263582E-01
        1   -1    0    0  501    0  0.00000000000E+00  0.00000000000E+00  0.19327609937E+04  0.19327609937E+04  0.50400001928E-02 0.  1.
       -1   -1    0    0    0  501  0.00000000000E+00  0.00000000000E+00 -0.11115411866E+04  0.11115411866E+04  0.50400001928E-02 0. -1.
    10030    2    1    2    0    0  0.00000000000E+00  0.00000000000E+00  0.82121980717E+03  0.30443021803E+04  0.29314456831E+04 0.  0.
        4    1    3    3  502    0 -0.58536072121E+02  0.84903217917E+03 -0.82867171676E+03  0.11878470188E+04  0.12699999809E+01 0. -1.
       -4    1    3    3    0  502  0.58536072121E+02 -0.84903217917E+03  0.16498915239E+04  0.18564551615E+04  0.12699999809E+01 0.  1.
</event>
<event>
 5   0  0.6612533E-06  0.2828642E+04  0.7818609E-02  0.8294431E-01
        2   -1    0    0  501    0  0.00000000000E+00  0.00000000000E+00  0.31863532010E+04  0.31863532010E+04  0.25500000920E-02 0.  1.
       -2   -1    0    0    0  501  0.00000000000E+00  0.00000000000E+00 -0.62777228740E+03  0.62777228740E+03  0.25500000920E-02 0. -1.
    10030    2    1    2    0    0  0.00000000000E+00  0.00000000000E+00  0.25585809136E+04  0.38141254884E+04  0.28286422449E+04 0.  0.
        3    1    3    3  502    0  0.94173971809E+03  0.90190212614E+03  0.20178403084E+04  0.24024946747E+04  0.10100000352E+00 0.  1.
       -3    1    3    3    0  502 -0.94173971809E+03 -0.90190212614E+03  0.54074060522E+03  0.14116308137E+04  0.10100000352E+00 0. -1.
</event>
<event>
 5   0  0.6393633E-06  0.2886270E+04  0.7818609E-02  0.8276974E-01
       -2   -1    0    0    0  501  0.00000000000E+00  0.00000000000E+00  0.97667615527E+03  0.97667615528E+03  0.25500000920E-02 0.  1.
        2   -1    0    0  501    0  0.00000000000E+00  0.00000000000E+00 -0.21323736626E+04  0.21323736626E+04  0.25500000920E-02 0. -1.
    10030    2    1    2    0    0  0.00000000000E+00  0.00000000000E+00 -0.11556975073E+04  0.31090498179E+04  0.28862699184E+04 0.  0.
        4    1    3    3  502    0 -0.13653438942E+04  0.12560624023E+02 -0.10811554447E+04  0.17416143164E+04  0.12699999809E+01 0. -1.
       -4    1    3    3    0  502  0.13653438942E+04 -0.12560624023E+02 -0.74542062592E+02  0.13674355014E+04  0.12699999809E+01 0.  1.
</event>
<event>
 5   0  0.6393633E-06  0.2907943E+04  0.7818609E-02  0.8270518E-01
       -2   -1    0    0    0  501  0.00000000000E+00  0.00000000000E+00  0.17851598407E+04  0.17851598407E+04  0.25500000920E-02 0.  1.
        2   -1    0    0  501    0  0.00000000000E+00  0.00000000000E+00 -0.11842265330E+04  0.11842265330E+04  0.25500000920E-02 0. -1.
    10030    2    1    2    0    0  0.00000000000E+00  0.00000000000E+00  0.60093330775E+03  0.29693863737E+04  0.29079433619E+04 0.  0.
        4    1    3    3  502    0  0.91033557650E+03 -0.63286144021E+03 -0.66005062747E+03  0.12903072921E+04  0.12699999809E+01 0. -1.
       -4    1    3    3    0  502 -0.91033557650E+03  0.63286144021E+03  0.12609839352E+04  0.16790790816E+04  0.12699999809E+01 0.  1.
</event>
<event>
 5   0  0.2348684E-06  0.2834342E+04  0.7818609E-02  0.8292685E-01
        1   -1    0    0  501    0  0.00000000000E+00  0.00000000000E+00  0.22563484145E+04  0.22563484145E+04  0.50400001928E-02 0.  1.
       -1   -1    0    0    0  501  0.00000000000E+00  0.00000000000E+00 -0.89009910721E+03  0.89009910722E+03  0.50400001928E-02 0. -1.
    10030    2    1    2    0    0  0.00000000000E+00  0.00000000000E+00  0.13662493073E+04  0.31464475217E+04  0.28343420466E+04 0.  0.
        5    1    3    3  502    0 -0.52039454283E+02 -0.13029831382E+04  0.12990922743E+04  0.18406889988E+04  0.46999998093E+01 0.  1.
       -5    1    3    3    0  502  0.52039454283E+02  0.13029831382E+04  0.67157032983E+02  0.13057585229E+04  0.46999998093E+01 0. -1.
</event>
<event>
 5   0  0.2508094E-06  0.2912535E+04  0.7818609E-02  0.8269158E-01
        1   -1    0    0  501    0  0.00000000000E+00  0.00000000000E+00  0.17198373251E+04  0.17198373251E+04  0.50400001928E-02 0.  1.
       -1   -1    0    0    0  501  0.00000000000E+00  0.00000000000E+00 -0.12330902973E+04  0.12330902973E+04  0.50400001928E-02 0. -1.
    10030    2    1    2    0    0  0.00000000000E+00  0.00000000000E+00  0.48674702782E+03  0.29529276224E+04  0.29125347850E+04 0.  0.
        3    1    3    3  502    0 -0.12849548098E+04 -0.57638738383E+02 -0.44894630070E+03  0.13623449924E+04  0.10100000352E+00 0. -1.
       -3    1    3    3    0  502  0.12849548098E+04  0.57638738383E+02  0.93569332852E+03  0.15905826299E+04  0.10100000352E+00 0.  1.
</event>
<event>
 5   0  0.6393633E-06  0.2636043E+04  0.7818609E-02  0.8356060E-01
        2   -1    0    0  501    0  0.00000000000E+00  0.00000000000E+00  0.16478328719E+04  0.16478328719E+04  0.25500000920E-02 0.  1.
       -2   -1    0    0    0  501  0.00000000000E+00  0.00000000000E+00 -0.10542215047E+04  0.10542215047E+04  0.25500000920E-02 0. -1.
    10030    2    1    2    0    0  0.00000000000E+00  0.00000000000E+00  0.59361136721E+03  0.27020543766E+04  0.26360431330E+04 0.  0.
        4    1    3    3  502    0 -0.10573443015E+04  0.78656837977E+03  0.27360147206E+03  0.13459294805E+04  0.12699999809E+01 0. -1.
       -4    1    3    3    0  502  0.10573443015E+04 -0.78656837977E+03  0.32000989515E+03  0.13561248961E+04  0.12699999809E+01 0.  1.
</event>
<event>
 5   0  0.6733688E-06  0.2903584E+04  0.7818609E-02  0.8271812E-01
        2   -1    0    0  501    0  0.00000000000E+00  0.00000000000E+00  0.20698790957E+04  0.20698790957E+04  0.25500000920E-02 0.  1.
       -2   -1    0    0    0  501  0.00000000000E+00  0.00000000000E+00 -0.10182717259E+04  0.10182717259E+04  0.25500000920E-02 0. -1.
    10030    2    1    2    0    0  0.00000000000E+00  0.00000000000E+00  0.10516073698E+04  0.30881508216E+04  0.29035835508E+04 0.  0.
        5    1    3    3  502    0  0.40538910381E+03 -0.12566096086E+04 -0.11610820802E+03  0.13254852847E+04  0.46999998093E+01 0. -1.
       -5    1    3    3    0  502 -0.40538910381E+03  0.12566096086E+04  0.11677155779E+04  0.17626655368E+04  0.46999998093E+01 0.  1.
</event>
<event>
 5   0  0.2348684E-06  0.2889038E+04  0.7818609E-02  0.8276146E-01
        1   -1    0    0  501    0  0.00000000000E+00  0.00000000000E+00  0.13268778509E+04  0.13268778509E+04  0.50400001928E-02 0.  1.
       -1   -1    0    0    0  501  0.00000000000E+00  0.00000000000E+00 -0.15725906167E+04  0.15725906167E+04  0.50400001928E-02 0. -1.
    10030    2    1    2    0    0  0.00000000000E+00  0.00000000000E+00 -0.24571276574E+03  0.28994684676E+04  0.28890383575E+04 0.  0.
        5    1    3    3  502    0 -0.18290419954E+03  0.14100723815E+04 -0.37844322354E+03  0.14713937035E+04  0.46999998093E+01 0.  1.
       -5    1    3    3    0  502  0.18290419954E+03 -0.14100723815E+04  0.13273045780E+03  0.14280747641E+04  0.46999998093E+01 0. -1.
</event>
<event>
 5   0  0.2508094E-06  0.2818169E+04  0.7818609E-02  0.8297650E-01
        1   -1    0    0  501    0  0.00000000000E+00  0.00000000000E+00  0.27387976979E+04  0.27387976979E+04  0.50400001928E-02 0. -1.
       -1   -1    0    0    0  501  0.00000000000E+00  0.00000000000E+00 -0.72495995524E+03  0.72495995526E+03  0.50400001928E-02 0.  1.
    10030    2    1    2    0    0  0.00000000000E+00  0.00000000000E+00  0.20138377426E+04  0.34637576531E+04  0.28181686653E+04 0.  0.
        3    1    3    3  502    0 -0.30917695025E+03 -0.13728286813E+04  0.10961409409E+04  0.17837527708E+04  0.10100000352E+00 0.  1.
       -3    1    3    3    0  502  0.30917695025E+03  0.13728286813E+04  0.91769680172E+03  0.16800048824E+04  0.10100000352E+00 0. -1.
</event>
<event>
 5   0  0.6615403E-06  0.3438460E+04  0.7818609E-02  0.8128531E-01
       -2   -1    0    0    0  501  0.00000000000E+00  0.00000000000E+00  0.24280246073E+04  0.24280246073E+04  0.25500000920E-02 0.  1.
        2   -1    0    0  501    0  0.00000000000E+00  0.00000000000E+00 -0.12173482401E+04  0.12173482401E+04  0.25500000920E-02 0. -1.
    10030    2    1    2    0    0  0.00000000000E+00  0.00000000000E+00  0.12106763671E+04  0.36453728474E+04  0.34384598195E+04 0.  0.
        2    1    3    3  502    0  0.42621608434E+03  0.16535463311E+04  0.39363224119E+03  0.17523760900E+04  0.25500000920E-02 0. -1.
       -2    1    3    3    0  502 -0.42621608434E+03 -0.16535463311E+04  0.81704412595E+03  0.18929967574E+04  0.25500000920E-02 0.  1.
</event>
<event>
 5   0  0.6733688E-06  0.2804242E+04  0.7818609E-02  0.8301953E-01
        2   -1    0    0  501    0  0.00000000000E+00  0.00000000000E+00  0.13512878111E+04  0.13512878111E+04  0.25500000920E-02 0.  1.
       -2   -1    0    0    0  501  0.00000000000E+00  0.00000000000E+00 -0.14548666839E+04  0.14548666839E+04  0.25500000920E-02 0. -1.
    10030    2    1    2    0    0  0.00000000000E+00  0.00000000000E+00 -0.10357887278E+03  0.28061544951E+04  0.28042422269E+04 0.  0.
        5    1    3    3  502    0  0.17814058321E+03  0.83043370406E+03  0.10645730905E+04  0.13618708306E+04  0.46999998093E+01 0.  1.
       -5    1    3    3    0  502 -0.17814058321E+03 -0.83043370406E+03 -0.11681519633E+04  0.14442836645E+04  0.46999998093E+01 0. -1.
</event>
<event>
 5   0  0.6513041E-06  0.2916440E+04  0.7818609E-02  0.8268003E-01
        2   -1    0    0  501    0  0.00000000000E+00  0.00000000000E+00  0.19164208081E+04  0.19164208081E+04  0.25500000920E-02 0.  1.
       -2   -1    0    0    0  501  0.00000000000E+00  0.00000000000E+00 -0.11095713440E+04  0.11095713440E+04  0.25500000920E-02 0. -1.
    10030    2    1    2    0    0  0.00000000000E+00  0.00000000000E+00  0.80684946411E+03  0.30259921520E+04  0.29164400296E+04 0.  0.
        1    1    3    3  502    0  0.80788977461E+03 -0.38446192781E+03  0.15981596728E+04  0.18315597729E+04  0.50400001928E-02 0.  1.
       -1    1    3    3    0  502 -0.80788977461E+03  0.38446192781E+03 -0.79131020871E+03  0.11944323791E+04  0.50400001928E-02 0. -1.
</event>
<event>
 5   0  0.6393633E-06  0.2905702E+04  0.7818609E-02  0.8271183E-01
        2   -1    0    0  501    0  0.00000000000E+00  0.00000000000E+00  0.16200315491E+04  0.16200315491E+04  0.25500000920E-02 0.  1.
       -2   -1    0    0    0  501  0.00000000000E+00  0.00000000000E+00 -0.13029228117E+04  0.13029228117E+04  0.25500000920E-02 0. -1.
    10030    2    1    2    0    0  0.00000000000E+00  0.00000000000E+00  0.31710873749E+03  0.29229543608E+04  0.29057020226E+04 0.  0.
        4    1    3    3  502    0  0.33908021373E+03  0.58839510574E+03 -0.11334351782E+04  0.13213103753E+04  0.12699999809E+01 0. -1.
       -4    1    3    3    0  502 -0.33908021373E+03 -0.58839510574E+03  0.14505439157E+04  0.16016439855E+04  0.12699999809E+01 0.  1.
</event>
<event>
 5   0  0.6733688E-06  0.2923271E+04  0.7818609E-02  0.8265987E-01
       -2   -1    0    0    0  501  0.00000000000E+00  0.00000000000E+00  0.93824283766E+03  0.93824283767E+03  0.25500000920E-02 0.  1.
        2   -1    0    0  501    0  0.00000000000E+00  0.00000000000E+00 -0.22769988298E+04  0.22769988298E+04  0.25500000920E-02 0. -1.
    10030    2    1    2    0    0  0.00000000000E+00  0.00000000000E+00 -0.13387559922E+04  0.32152416675E+04  0.29232706638E+04 0.  0.
        5    1    3    3  502    0 -0.91830043838E+03  0.29418037300E+03 -0.18775119480E+04  0.21106612689E+04  0.46999998093E+01 0. -1.
       -5    1    3    3    0  502  0.91830043838E+03 -0.29418037300E+03  0.53875595588E+03  0.11045803986E+04  0.46999998093E+01 0.  1.
</event>
<event>
 5   0  0.6612533E-06  0.2759294E+04  0.7818609E-02  0.8316019E-01
       -2   -1    0    0    0  501  0.00000000000E+00  0.00000000000E+00  0.69508549820E+03  0.69508549821E+03  0.25500000920E-02 0.  1.
        2   -1    0    0  501    0  0.00000000000E+00  0.00000000000E+00 -0.27384045931E+04  0.27384045931E+04  0.25500000920E-02 0. -1.
    10030    2    1    2    0    0  0.00000000000E+00  0.00000000000E+00 -0.20433190949E+04  0.34334900913E+04  0.27592936204E+04 0.  0.
        3    1    3    3  502    0 -0.70285185273E+03 -0.11781660153E+04 -0.12034750726E+04  0.18249460669E+04  0.10100000352E+00 0. -1.
       -3    1    3    3    0  502  0.70285185273E+03  0.11781660153E+04 -0.83984402229E+03  0.16085440244E+04  0.10100000352E+00 0.  1.
</event>
<event>
 5   0  0.2336512E-06  0.2920258E+04  0.7818609E-02  0.8266876E-01
        1   -1    0    0  501    0  0.00000000000E+00  0.00000000000E+00  0.12440175568E+04  0.12440175568E+04  0.50400001928E-02 0.  1.
       -1   -1    0    0    0  501  0.00000000000E+00  0.00000000000E+00 -0.17137833335E+04  0.17137833335E+04  0.50400001928E-02 0. -1.
    10030    2    1    2    0    0  0.00000000000E+00  0.00000000000E+00 -0.46976577672E+03  0.29578008903E+04  0.29202579033E+04 0.  0.
        4    1    3    3  502    0 -0.64573837164E+03 -0.11507030336E+04 -0.86812404506E+03  0.15794734840E+04  0.12699999809E+01 0.  1.
       -4    1    3    3    0  502  0.64573837164E+03  0.11507030336E+04  0.39835826833E+03  0.13783274063E+04  0.12699999809E+01 0. -1.
</event>
<event>
 5   0  0.6733688E-06  0.2808816E+04  0.7818609E-02  0.8300536E-01
       -2   -1    0    0    0  501  0.00000000000E+00  0.00000000000E+00  0.77996999218E+03  0.77996999219E+03  0.25500000920E-02 0.  1.
        2   -1    0    0  501    0  0.00000000000E+00  0.00000000000E+00 -0.25287671787E+04  0.25287671787E+04  0.25500000920E-02 0. -1.
    10030    2    1    2    0    0  0.00000000000E+00  0.00000000000E+00 -0.17487971865E+04  0.33087371708E+04  0.28088164885E+04 0.  0.
        5    1    3    3  502    0 -0.14031612924E+04  0.12702647216E+02 -0.94224729585E+03  0.16902292821E+04  0.46999998093E+01 0.  1.
       -5    1    3    3    0  502  0.14031612924E+04 -0.12702647216E+02 -0.80654989062E+03  0.16185078887E+04  0.46999998093E+01 0. -1.
</event>
<event>
 5   0  0.2348684E-06  0.2926993E+04  0.7818609E-02  0.8264891E-01
       -1   -1    0    0    0  501  0.00000000000E+00  0.00000000000E+00  0.15775338576E+04  0.15775338576E+04  0.50400001928E-02 0.  1.
        1   -1    0    0  501    0  0.00000000000E+00  0.00000000000E+00 -0.13577026749E+04  0.13577026749E+04  0.50400001928E-02 0. -1.
    10030    2    1    2    0    0  0.00000000000E+00  0.00000000000E+00  0.21983118273E+03  0.29352365325E+04  0.29269929540E+04 0.  0.
        5    1    3    3  502    0 -0.11035788085E+03 -0.14398055968E+04 -0.12862159012E+03  0.14497532969E+04  0.46999998093E+01 0. -1.
       -5    1    3    3    0  502  0.11035788085E+03  0.14398055968E+04  0.34845277285E+03  0.14854832356E+04  0.46999998093E+01 0.  1.
</event>
<event>
 5   0  0.2348684E-06  0.2499316E+04  0.7818609E-02  0.8403229E-01
        1   -1    0    0  501    0  0.00000000000E+00  0.00000000000E+00  0.18040110247E+04  0.18040110247E+04  0.50400001928E-02 0. -1.
       -1   -1    0    0    0  501  0.00000000000E+00  0.00000000000E+00 -0.86565196001E+03  0.86565196002E+03  0.50400001928E-02 0.  1.
    10030    2    1    2    0    0  0.00000000000E+00  0.00000000000E+00  0.93835906473E+03  0.26696629848E+04  0.24993164501E+04 0.  0.
        5    1    3    3  502    0 -0.21357267076E+03 -0.11918057725E+04  0.79946181064E+03  0.14509223142E+04  0.46999998093E+01 0. -1.
       -5    1    3    3    0  502  0.21357267076E+03  0.11918057725E+04  0.13889725409E+03  0.12187406706E+04  0.46999998093E+01 0.  1.
</event>
<event>
 5   0  0.2348684E-06  0.2811972E+04  0.7818609E-02  0.8299561E-01
       -1   -1    0    0    0  501  0.00000000000E+00  0.00000000000E+00  0.96816425815E+03  0.96816425816E+03  0.50400001928E-02 0.  1.
        1   -1    0    0  501    0  0.00000000000E+00  0.00000000000E+00 -0.20417985945E+04  0.20417985945E+04  0.50400001928E-02 0. -1.
    10030    2    1    2    0    0  0.00000000000E+00  0.00000000000E+00 -0.10736343363E+04  0.30099628526E+04  0.28119718502E+04 0.  0.
        5    1    3    3  502    0 -0.71933917864E+03 -0.10804757483E+04 -0.11151334973E+04  0.17112631310E+04  0.46999998093E+01 0. -1.
       -5    1    3    3    0  502  0.71933917864E+03  0.10804757483E+04  0.41499160970E+02  0.12986997217E+04  0.46999998093E+01 0.  1.
</event>
<event>
 5   0  0.2474769E-06  0.3048444E+04  0.7818609E-02  0.8230031E-01
        1   -1    0    0  501    0  0.00000000000E+00  0.00000000000E+00  0.23340100374E+04  0.23340100374E+04  0.50400001928E-02 0.  1.
       -1   -1    0    0    0  501  0.00000000000E+00  0.00000000000E+00 -0.99539092848E+03  0.99539092849E+03  0.50400001928E-02 0. -1.
    10030    2    1    2    0    0  0.00000000000E+00  0.00000000000E+00  0.13386191089E+04  0.33294009659E+04  0.30484438117E+04 0.  0.
        1    1    3    3  502    0  0.15097336493E+03  0.65633008359E+03 -0.82407873702E+03  0.10642687162E+04  0.50400001928E-02 0. -1.
       -1    1    3    3    0  502 -0.15097336493E+03 -0.65633008359E+03  0.21626978459E+04  0.22651322496E+04  0.50400001928E-02 0.  1.
</event>
<event>
 5   0  0.6612533E-06  0.2926520E+04  0.7818609E-02  0.8265030E-01
       -2   -1    0    0    0  501  0.00000000000E+00  0.00000000000E+00  0.13773146259E+04  0.13773146259E+04  0.25500000920E-02 0.  1.
        2   -1    0    0  501    0  0.00000000000E+00  0.00000000000E+00 -0.15545683520E+04  0.15545683520E+04  0.25500000920E-02 0. -1.
    10030    2    1    2    0    0  0.00000000000E+00  0.00000000000E+00 -0.17725372613E+03  0.29318829779E+04  0.29265199321E+04 0.  0.
        3    1    3    3  502    0  0.70241640163E+03 -0.12607019269E+04  0.15341797557E+03  0.14513081118E+04  0.10100000352E+00 0.  1.
       -3    1    3    3    0  502 -0.70241640163E+03  0.12607019269E+04 -0.33067170170E+03  0.14805748662E+04  0.10100000352E+00 0. -1.
</event>
<event>
 5   0  0.2429358E-06  0.2907896E+04  0.7818609E-02  0.8270532E-01
       -1   -1    0    0    0  501  0.00000000000E+00  0.00000000000E+00  0.11936488818E+04  0.11936488818E+04  0.50400001928E-02 0. -1.
        1   -1    0    0  501    0  0.00000000000E+00  0.00000000000E+00 -0.17710109038E+04  0.17710109038E+04  0.50400001928E-02 0.  1.
    10030    2    1    2    0    0  0.00000000000E+00  0.00000000000E+00 -0.57736202203E+03  0.29646597856E+04  0.29078962739E+04 0.  0.
        2    1    3    3  502    0  0.22243190819E+03 -0.60052631124E+03 -0.16194803343E+04  0.17415006050E+04  0.25500000920E-02 0.  1.
       -2    1    3    3    0  502 -0.22243190819E+03  0.60052631124E+03  0.10421183122E+04  0.12231591805E+04  0.25500000920E-02 0. -1.
</event>
<event>
 5   0  0.2336512E-06  0.2857693E+04  0.7818609E-02  0.8285578E-01
       -1   -1    0    0    0  501  0.00000000000E+00  0.00000000000E+00  0.35673465016E+04  0.35673465016E+04  0.50400001928E-02 0. -1.
        1   -1    0    0  501    0  0.00000000000E+00  0.00000000000E+00 -0.57230270334E+03  0.57230270337E+03  0.50400001928E-02 0.  1.
    10030    2    1    2    0    0  0.00000000000E+00  0.00000000000E+00  0.29950437983E+04  0.41396492050E+04  0.28576928083E+04 0.  0.
        4    1    3    3  502    0 -0.17304228684E+03 -0.38751600676E+03  0.34739368749E+04  0.34997644652E+04  0.12699999809E+01 0. -1.
       -4    1    3    3    0  502  0.17304228684E+03  0.38751600676E+03 -0.47889307657E+03  0.63988473979E+03  0.12699999809E+01 0.  1.
</event>
<event>
 5   0  0.6615403E-06  0.2897180E+04  0.7818609E-02  0.8273717E-01
       -2   -1    0    0    0  501  0.00000000000E+00  0.00000000000E+00  0.15923530807E+04  0.15923530807E+04  0.25500000920E-02 0.  1.
        2   -1    0    0  501    0  0.00000000000E+00  0.00000000000E+00 -0.13178059019E+04  0.13178059019E+04  0.25500000920E-02 0. -1.
    10030    2    1    2    0    0  0.00000000000E+00  0.00000000000E+00  0.27454717879E+03  0.29101589827E+04  0.28971795166E+04 0.  0.
        2    1    3    3  502    0  0.71271617476E+03  0.37486964775E+03  0.13467946440E+04  0.15691868632E+04  0.25500000920E-02 0.  1.
       -2    1    3    3    0  502 -0.71271617476E+03 -0.37486964775E+03 -0.10722474652E+04  0.13409721195E+04  0.25500000920E-02 0. -1.
</event>
<event>
 5   0  0.6615403E-06  0.3012278E+04  0.7818609E-02  0.8240234E-01
       -2   -1    0    0    0  501  0.00000000000E+00  0.00000000000E+00  0.17222642069E+04  0.17222642069E+04  0.25500000920E-02 0.  1.
        2   -1    0    0  501    0  0.00000000000E+00  0.00000000000E+00 -0.13171350126E+04  0.13171350126E+04  0.25500000920E-02 0. -1.
    10030    2    1    2    0    0  0.00000000000E+00  0.00000000000E+00  0.40512919428E+03  0.30393992194E+04  0.30122778675E+04 0.  0.
        2    1    3    3  502    0  0.11447994137E+04 -0.62436447114E+02 -0.78295380308E+03  0.13883373744E+04  0.25500000920E-02 0. -1.
       -2    1    3    3    0  502 -0.11447994137E+04  0.62436447114E+02  0.11880829974E+04  0.16510618450E+04  0.25500000920E-02 0.  1.
</event>
<event>
 5   0  0.2474769E-06  0.2899838E+04  0.7818609E-02  0.8272926E-01
       -1   -1    0    0    0  501  0.00000000000E+00  0.00000000000E+00  0.13861851410E+04  0.13861851410E+04  0.50400001928E-02 0.  1.
        1   -1    0    0  501    0  0.00000000000E+00  0.00000000000E+00 -0.15165831734E+04  0.15165831734E+04  0.50400001928E-02 0. -1.
    10030    2    1    2    0    0  0.00000000000E+00  0.00000000000E+00 -0.13039803235E+03  0.29027683144E+04  0.28998379679E+04 0.  0.
        1    1    3    3  502    0 -0.59893862132E+03  0.22608728380E+03  0.12370468560E+04  0.13928847246E+04  0.50400001928E-02 0.  1.
       -1    1    3    3    0  502  0.59893862132E+03 -0.22608728380E+03 -0.13674448884E+04  0.15098835898E+04  0.50400001928E-02 0. -1.
</event>
<event>
 5   0  0.6733688E-06  0.2882035E+04  0.7818609E-02  0.8278243E-01
       -2   -1    0    0    0  501  0.00000000000E+00  0.00000000000E+00  0.85800962343E+03  0.85800962343E+03  0.25500000920E-02 0.  1.
        2   -1    0    0  501    0  0.00000000000E+00  0.00000000000E+00 -0.24201734021E+04  0.24201734021E+04  0.25500000920E-02 0. -1.
    10030    2    1    2    0    0  0.00000000000E+00  0.00000000000E+00 -0.15621637786E+04  0.32781830255E+04  0.28820354400E+04 0.  0.
        5    1    3    3  502    0 -0.10993901748E+04  0.32101131654E+02 -0.18400881491E+04  0.21437433908E+04  0.46999998093E+01 0. -1.
       -5    1    3    3    0  502  0.10993901748E+04 -0.32101131654E+02  0.27792437045E+03  0.11344396347E+04  0.46999998093E+01 0.  1.
</event>
<event>
 5   0  0.2508094E-06  0.2880840E+04  0.7818609E-02  0.8278601E-01
       -1   -1    0    0    0  501  0.00000000000E+00  0.00000000000E+00  0.13228080880E+04  0.13228080880E+04  0.50400001928E-02 0. -1.
        1   -1    0    0  501    0  0.00000000000E+00  0.00000000000E+00 -0.15684886057E+04  0.15684886057E+04  0.50400001928E-02 0.  1.
    10030    2    1    2    0    0  0.00000000000E+00  0.00000000000E+00 -0.24568051774E+03  0.28912966937E+04  0.28808397481E+04 0.  0.
        3    1    3    3  502    0 -0.40330000594E+03  0.96714993665E+03  0.86906873731E+03  0.13613634251E+04  0.10100000352E+00 0. -1.
       -3    1    3    3    0  502  0.40330000594E+03 -0.96714993665E+03 -0.11147492550E+04  0.15299332687E+04  0.10100000352E+00 0.  1.
</event>
<event>
 5   0  0.6393633E-06  0.2904845E+04  0.7818609E-02  0.8271437E-01
        2   -1    0    0  501    0  0.00000000000E+00  0.00000000000E+00  0.21149019855E+04  0.21149019855E+04  0.25500000920E-02 0.  1.
       -2   -1    0    0    0  501  0.00000000000E+00  0.00000000000E+00 -0.99746070146E+03  0.99746070147E+03  0.25500000920E-02 0. -1.
    10030    2    1    2    0    0  0.00000000000E+00  0.00000000000E+00  0.11174412841E+04  0.31123626870E+04  0.29048453439E+04 0.  0.
        4    1    3    3  502    0  0.33195201854E+03 -0.31911349368E+03  0.20346262583E+04  0.20860803408E+04  0.12699999809E+01 0.  1.
       -4    1    3    3    0  502 -0.33195201854E+03  0.31911349368E+03 -0.91718497417E+03  0.10262823462E+04  0.12699999809E+01 0. -1.
</event>
<event>
 5   0  0.2429358E-06  0.2893025E+04  0.7818609E-02  0.8274956E-01
        1   -1    0    0  501    0  0.00000000000E+00  0.00000000000E+00  0.18808069359E+04  0.18808069359E+04  0.50400001928E-02 0. -1.
       -1   -1    0    0    0  501  0.00000000000E+00  0.00000000000E+00 -0.11125007330E+04  0.11125007331E+04  0.50400001928E-02 0.  1.
    10030    2    1    2    0    0  0.00000000000E+00  0.00000000000E+00  0.76830620288E+03  0.29933076690E+04  0.28930254717E+04 0.  0.
        2    1    3    3  502    0 -0.62701464007E+03 -0.20523909119E+03 -0.94776405799E+03  0.11547844617E+04  0.25500000920E-02 0.  1.
       -2    1    3    3    0  502  0.62701464007E+03  0.20523909119E+03  0.17160702609E+04  0.18385232073E+04  0.25500000920E-02 0. -1.
</event>
<event>
 5   0  0.2474769E-06  0.2895993E+04  0.7818609E-02  0.8274071E-01
       -1   -1    0    0    0  501  0.00000000000E+00  0.00000000000E+00  0.14171739148E+04  0.14171739148E+04  0.50400001928E-02 0.  1.
        1   -1    0    0  501    0  0.00000000000E+00  0.00000000000E+00 -0.14794893688E+04  0.14794893688E+04  0.50400001928E-02 0. -1.
    10030    2    1    2    0    0  0.00000000000E+00  0.00000000000E+00 -0.62315454054E+02  0.28966632836E+04  0.28959929148E+04 0.  0.
        1    1    3    3  502    0 -0.15033076346E+03  0.13842071388E+04  0.36650819551E+03  0.14397767184E+04  0.50400001928E-02 0.  1.
       -1    1    3    3    0  502  0.15033076346E+03 -0.13842071388E+04 -0.42882364957E+03  0.14568865652E+04  0.50400001928E-02 0. -1.
</event>
<event>
 5   0  0.2474769E-06  0.2923744E+04  0.7818609E-02  0.8265848E-01
        1   -1    0    0  501    0  0.00000000000E+00  0.00000000000E+00  0.63071867781E+03  0.63071867783E+03  0.50400001928E-02 0. -1.
       -1   -1    0    0    0  501  0.00000000000E+00  0.00000000000E+00 -0.33883082101E+04  0.33883082101E+04  0.50400001928E-02 0.  1.
    10030    2    1    2    0    0  0.00000000000E+00  0.00000000000E+00 -0.27575895323E+04  0.40190268880E+04  0.29237436785E+04 0.  0.
        1    1    3    3  502    0 -0.79008140700E+03  0.46442845056E+02  0.31074488493E+03  0.85026345980E+03  0.50400001928E-02 0. -1.
       -1    1    3    3    0  502  0.79008140700E+03 -0.46442845056E+02 -0.30683344173E+04  0.31687634282E+04  0.50400001928E-02 0.  1.
</event>
<event>
 5   0  0.2508094E-06  0.2891362E+04  0.7818609E-02  0.8275452E-01
        1   -1    0    0  501    0  0.00000000000E+00  0.00000000000E+00  0.17074752705E+04  0.17074752705E+04  0.50400001928E-02 0.  1.
       -1   -1    0    0    0  501  0.00000000000E+00  0.00000000000E+00 -0.12240257374E+04  0.12240257374E+04  0.50400001928E-02 0. -1.
    10030    2    1    2    0    0  0.00000000000E+00  0.00000000000E+00  0.48344953305E+03  0.29315010079E+04  0.28913620853E+04 0.  0.
        3    1    3    3  502    0  0.12330849416E+04  0.23774617496E+03  0.96788819850E+03  0.15855060050E+04  0.10100000352E+00 0.  1.
       -3    1    3    3    0  502 -0.12330849416E+04 -0.23774617496E+03 -0.48443866545E+03  0.13459950029E+04  0.10100000352E+00 0. -1.
</event>
<event>
 5   0  0.6393633E-06  0.2910129E+04  0.7818609E-02  0.8269870E-01
        2   -1    0    0  501    0  0.00000000000E+00  0.00000000000E+00  0.13525070514E+04  0.13525070514E+04  0.25500000920E-02 0. -1.
       -2   -1    0    0    0  501  0.00000000000E+00  0.00000000000E+00 -0.15653987243E+04  0.15653987243E+04  0.25500000920E-02 0.  1.
    10030    2    1    2    0    0  0.00000000000E+00  0.00000000000E+00 -0.21289167283E+03  0.29179057757E+04  0.29101290781E+04 0.  0.
        4    1    3    3  502    0 -0.50096979610E+03 -0.10868451355E+04 -0.93630972995E+03  0.15195001180E+04  0.12699999809E+01 0.  1.
       -4    1    3    3    0  502  0.50096979610E+03  0.10868451355E+04  0.72341805712E+03  0.13984056577E+04  0.12699999809E+01 0. -1.
</event>
<event>
 5   0  0.6513041E-06  0.2888903E+04  0.7818609E-02  0.8276187E-01
        2   -1    0    0  501    0  0.00000000000E+00  0.00000000000E+00  0.19842163057E+04  0.19842163057E+04  0.25500000920E-02 0.  1.
       -2   -1    0    0    0  501  0.00000000000E+00  0.00000000000E+00 -0.10515187000E+04  0.10515187000E+04  0.25500000920E-02 0. -1.
    10030    2    1    2    0    0  0.00000000000E+00  0.00000000000E+00  0.93269760561E+03  0.30357350057E+04  0.28889032869E+04 0.  0.
        1    1    3    3  502    0  0.74157490004E+03  0.92359132169E+03 -0.40240308000E+03  0.12509526373E+04  0.50400001928E-02 0. -1.
       -1    1    3    3    0  502 -0.74157490004E+03 -0.92359132169E+03  0.13351006856E+04  0.17847823684E+04  0.50400001928E-02 0.  1.
</event>
<event>
 5   0  0.2429358E-06  0.2881874E+04  0.7818609E-02  0.8278291E-01
        1   -1    0    0  501    0  0.00000000000E+00  0.00000000000E+00  0.18396207359E+04  0.18396207359E+04  0.50400001928E-02 0. -1.
       -1   -1    0    0    0  501  0.00000000000E+00  0.00000000000E+00 -0.11286565539E+04  0.11286565539E+04  0.50400001928E-02 0.  1.
    10030    2    1    2    0    0  0.00000000000E+00  0.00000000000E+00  0.71096418203E+03  0.29682772898E+04  0.28818743902E+04 0.  0.
        2    1    3    3  502    0 -0.46772168396E+03  0.95093223331E+02 -0.10448737579E+04  0.11487242771E+04  0.25500000920E-02 0.  1.
       -2    1    3    3    0  502  0.46772168396E+03 -0.95093223331E+02  0.17558379399E+04  0.18195530127E+04  0.25500000920E-02 0. -1.
</event>
<event>
 5   0  0.2429358E-06  0.2852743E+04  0.7818609E-02  0.8287078E-01
        1   -1    0    0  501    0  0.00000000000E+00  0.00000000000E+00  0.18423135397E+04  0.18423135397E+04  0.50400001928E-02 0. -1.
       -1   -1    0    0    0  501  0.00000000000E+00  0.00000000000E+00 -0.11043370492E+04  0.11043370492E+04  0.50400001928E-02 0.  1.
    10030    2    1    2    0    0  0.00000000000E+00  0.00000000000E+00  0.73797649050E+03  0.29466505890E+04  0.28527426090E+04 0.  0.
        2    1    3    3  502    0  0.16322646291E+03 -0.38545239439E+03 -0.10394667264E+04  0.11205835541E+04  0.25500000920E-02 0.  1.
       -2    1    3    3    0  502 -0.16322646291E+03  0.38545239439E+03  0.17774432169E+04  0.18260670349E+04  0.25500000920E-02 0. -1.
</event>
<event>
 5   0  0.2159500E-06  0.2897966E+04  0.7818609E-02  0.8273483E-01
        3   -1    0    0  501    0  0.00000000000E+00  0.00000000000E+00  0.22115027440E+04  0.22115027463E+04  0.10100000352E+00 0. -1.
       -3   -1    0    0    0  501  0.00000000000E+00  0.00000000000E+00 -0.94937772886E+03  0.94937773423E+03  0.10100000352E+00 0.  1.
    10030    2    1    2    0    0  0.00000000000E+00  0.00000000000E+00  0.12621250151E+04  0.31608804805E+04  0.28979658139E+04 0.  0.
        2    1    3    3  502    0  0.83696089369E+03  0.32978332516E+03 -0.60790133228E+03  0.10857276864E+04  0.25500000920E-02 0.  1.
       -2    1    3    3    0  502 -0.83696089369E+03 -0.32978332516E+03  0.18700263474E+04  0.20751527942E+04  0.25500000920E-02 0. -1.
</event>
<event>
 5   0  0.6393633E-06  0.2970954E+04  0.7818609E-02  0.8252074E-01
        2   -1    0    0  501    0  0.00000000000E+00  0.00000000000E+00  0.23726680610E+04  0.23726680610E+04  0.25500000920E-02 0. -1.
       -2   -1    0    0    0  501  0.00000000000E+00  0.00000000000E+00 -0.93002559401E+03  0.93002559401E+03  0.25500000920E-02 0.  1.
    10030    2    1    2    0    0  0.00000000000E+00  0.00000000000E+00  0.14426424670E+04  0.33026936550E+04  0.29709540709E+04 0.  0.
        4    1    3    3  502    0  0.35893124709E+02 -0.95560726176E+03 -0.54234288097E+03  0.10993684408E+04  0.12699999809E+01 0.  1.
       -4    1    3    3    0  502 -0.35893124709E+02  0.95560726176E+03  0.19849853479E+04  0.22033252142E+04  0.12699999809E+01 0. -1.
</event>
<event>
 5   0  0.2508094E-06  0.2964848E+04  0.7818609E-02  0.8253841E-01
       -1   -1    0    0    0  501  0.00000000000E+00  0.00000000000E+00  0.86814254840E+03  0.86814254842E+03  0.50400001928E-02 0. -1.
        1   -1    0    0  501    0  0.00000000000E+00  0.00000000000E+00 -0.25313594344E+04  0.25313594344E+04  0.50400001928E-02 0.  1.
    10030    2    1    2    0    0  0.00000000000E+00  0.00000000000E+00 -0.16632168860E+04  0.33995019828E+04  0.29648479424E+04 0.  0.
        3    1    3    3  502    0 -0.76243304932E+02 -0.11797404556E+04  0.19393131786E+03  0.11980024835E+04  0.10100000352E+00 0. -1.
       -3    1    3    3    0  502  0.76243304932E+02  0.11797404556E+04 -0.18571482038E+04  0.22014994993E+04  0.10100000352E+00 0.  1.
</event>
<event>
 5   0  0.6393633E-06  0.2867312E+04  0.7818609E-02  0.8282670E-01
        2   -1    0    0  501    0  0.00000000000E+00  0.00000000000E+00  0.12806359716E+04  0.12806359717E+04  0.25500000920E-02 0.  1.
       -2   -1    0    0    0  501  0.00000000000E+00  0.00000000000E+00 -0.16049596338E+04  0.16049596338E+04  0.25500000920E-02 0. -1.
    10030    2    1    2    0    0  0.00000000000E+00  0.00000000000E+00 -0.32432366217E+03  0.28855956055E+04  0.28673116609E+04 0.  0.
        4    1    3    3  502    0  0.13034005169E+04 -0.55836716893E+02  0.43610077925E+03  0.13755566688E+04  0.12699999809E+01 0.  1.
       -4    1    3    3    0  502 -0.13034005169E+04  0.55836716893E+02 -0.76042444142E+03  0.15100389367E+04  0.12699999809E+01 0. -1.
</event>
<event>
 5   0  0.2508094E-06  0.2865473E+04  0.7818609E-02  0.8283225E-01
       -1   -1    0    0    0  501  0.00000000000E+00  0.00000000000E+00  0.99113909024E+03  0.99113909026E+03  0.50400001928E-02 0.  1.
        1   -1    0    0  501    0  0.00000000000E+00  0.00000000000E+00 -0.20710852219E+04  0.20710852219E+04  0.50400001928E-02 0. -1.
    10030    2    1    2    0    0  0.00000000000E+00  0.00000000000E+00 -0.10799461316E+04  0.30622243122E+04  0.28654727517E+04 0.  0.
        3    1    3    3  502    0 -0.12513463342E+04 -0.41404538877E+03  0.60223885369E+02  0.13194423665E+04  0.10100000352E+00 0.  1.
       -3    1    3    3    0  502  0.12513463342E+04  0.41404538877E+03 -0.11401700170E+04  0.17427819456E+04  0.10100000352E+00 0. -1.
</event>
<event>
 5   0  0.2508094E-06  0.2922540E+04  0.7818609E-02  0.8266203E-01
       -1   -1    0    0    0  501  0.00000000000E+00  0.00000000000E+00  0.16466665440E+04  0.16466665441E+04  0.50400001928E-02 0. -1.
        1   -1    0    0  501    0  0.00000000000E+00  0.00000000000E+00 -0.12967466390E+04  0.12967466390E+04  0.50400001928E-02 0.  1.
    10030    2    1    2    0    0  0.00000000000E+00  0.00000000000E+00  0.34991990508E+03  0.29434131830E+04  0.29225395166E+04 0.  0.
        3    1    3    3  502    0 -0.11104807895E+04 -0.35245465346E+03  0.10632557136E+04  0.15773092878E+04  0.10100000352E+00 0. -1.
       -3    1    3    3    0  502  0.11104807895E+04  0.35245465346E+03 -0.71333580849E+03  0.13661038952E+04  0.10100000352E+00 0.  1.
</event>
<event>
 5   0  0.6393633E-06  0.2864086E+04  0.7818609E-02  0.8283644E-01
        2   -1    0    0  501    0  0.00000000000E+00  0.00000000000E+00  0.11773574530E+04  0.11773574530E+04  0.25500000920E-02 0.  1.
       -2   -1    0    0    0  501  0.00000000000E+00  0.00000000000E+00 -0.17418222434E+04  0.17418222434E+04  0.25500000920E-02 0. -1.
    10030    2    1    2    0    0  0.00000000000E+00  0.00000000000E+00 -0.56446479040E+03  0.29191796964E+04  0.28640861720E+04 0.  0.
        4    1    3    3  502    0 -0.61732671345E+03  0.12242877223E+04 -0.70342861672E+03  0.15410341105E+04  0.12699999809E+01 0. -1.
       -4    1    3    3    0  502  0.61732671345E+03 -0.12242877223E+04  0.13896382632E+03  0.13781455859E+04  0.12699999809E+01 0.  1.
</event>
<event>
 5   0  0.6513041E-06  0.2911801E+04  0.7818609E-02  0.8269375E-01
       -2   -1    0    0    0  501  0.00000000000E+00  0.00000000000E+00  0.14166306317E+04  0.14166306317E+04  0.25500000920E-02 0. -1.
        2   -1    0    0  501    0  0.00000000000E+00  0.00000000000E+00 -0.14962585861E+04  0.14962585861E+04  0.25500000920E-02 0.  1.
    10030    2    1    2    0    0  0.00000000000E+00  0.00000000000E+00 -0.79627954339E+02  0.29128892178E+04  0.29118006429E+04 0.  0.
        1    1    3    3  502    0  0.51592471941E+03  0.32535426533E+03  0.12826530219E+04  0.14202930996E+04  0.50400001928E-02 0. -1.
       -1    1    3    3    0  502 -0.51592471941E+03 -0.32535426533E+03 -0.13622809762E+04  0.14925961183E+04  0.50400001928E-02 0.  1.
</event>
<event>
 5   0  0.6393633E-06  0.2877813E+04  0.7818609E-02  0.8279510E-01
       -2   -1    0    0    0  501  0.00000000000E+00  0.00000000000E+00  0.93309626840E+03  0.93309626840E+03  0.25500000920E-02 0.  1.
        2   -1    0    0  501    0  0.00000000000E+00  0.00000000000E+00 -0.22189044089E+04  0.22189044089E+04  0.25500000920E-02 0. -1.
    10030    2    1    2    0    0  0.00000000000E+00  0.00000000000E+00 -0.12858081405E+04  0.31520006773E+04  0.28778126582E+04 0.  0.
        4    1    3    3  502    0  0.53983338935E+03 -0.66495076225E+03  0.62348865180E+03  0.10593957317E+04  0.12699999809E+01 0.  1.
       -4    1    3    3    0  502 -0.53983338935E+03  0.66495076225E+03 -0.19092967923E+04  0.20926049456E+04  0.12699999809E+01 0. -1.
</event>
<event>
 5   0  0.6393633E-06  0.2888187E+04  0.7818609E-02  0.8276401E-01
       -2   -1    0    0    0  501  0.00000000000E+00  0.00000000000E+00  0.11358979160E+04  0.11358979160E+04  0.25500000920E-02 0.  1.
        2   -1    0    0  501    0  0.00000000000E+00  0.00000000000E+00 -0.18359099919E+04  0.18359099919E+04  0.25500000920E-02 0. -1.
    10030    2    1    2    0    0  0.00000000000E+00  0.00000000000E+00 -0.70001207596E+03  0.29718079079E+04  0.28881872057E+04 0.  0.
        4    1    3    3  502    0  0.70886124965E+03 -0.10111794985E+04 -0.11203037169E+04  0.16673482781E+04  0.12699999809E+01 0. -1.
       -4    1    3    3    0  502 -0.70886124965E+03  0.10111794985E+04  0.42029164094E+03  0.13044596298E+04  0.12699999809E+01 0.  1.
</event>
<event>
 5   0  0.2474769E-06  0.2797224E+04  0.7818609E-02  0.8304131E-01
       -1   -1    0    0    0  501  0.00000000000E+00  0.00000000000E+00  0.13932131166E+04  0.13932131166E+04  0.50400001928E-02 0. -1.
        1   -1    0    0  501    0  0.00000000000E+00  0.00000000000E+00 -0.14040320454E+04  0.14040320454E+04  0.50400001928E-02 0.  1.
    10030    2    1    2    0    0  0.00000000000E+00  0.00000000000E+00 -0.10818928772E+02  0.27972451619E+04  0.27972242396E+04 0.  0.
        1    1    3    3  502    0  0.10219863233E+04 -0.65452676720E+02  0.94716039532E+03  0.13949383185E+04  0.50400001928E-02 0. -1.
       -1    1    3    3    0  502 -0.10219863233E+04  0.65452676720E+02 -0.95797932410E+03  0.14023068435E+04  0.50400001928E-02 0.  1.
</event>
<event>
 5   0  0.2508094E-06  0.2899930E+04  0.7818609E-02  0.8272898E-01
       -1   -1    0    0    0  501  0.00000000000E+00  0.00000000000E+00  0.22259468541E+04  0.22259468541E+04  0.50400001928E-02 0. -1.
        1   -1    0    0  501    0  0.00000000000E+00  0.00000000000E+00 -0.94449598953E+03  0.94449598954E+03  0.50400001928E-02 0.  1.
    10030    2    1    2    0    0  0.00000000000E+00  0.00000000000E+00  0.12814508645E+04  0.31704428436E+04  0.28999295692E+04 0.  0.
        3    1    3    3  502    0 -0.13139180187E+04 -0.59181770504E+03  0.46522338334E+03  0.15142858259E+04  0.10100000352E+00 0. -1.
       -3    1    3    3    0  502  0.13139180187E+04  0.59181770504E+03  0.81622748119E+03  0.16561570177E+04  0.10100000352E+00 0.  1.
</event>
<event>
 5   0  0.6615403E-06  0.2921520E+04  0.7818609E-02  0.8266503E-01
       -2   -1    0    0    0  501  0.00000000000E+00  0.00000000000E+00  0.83614421805E+03  0.83614421806E+03  0.25500000920E-02 0.  1.
        2   -1    0    0  501    0  0.00000000000E+00  0.00000000000E+00 -0.25519764692E+04  0.25519764692E+04  0.25500000920E-02 0. -1.
    10030    2    1    2    0    0  0.00000000000E+00  0.00000000000E+00 -0.17158322511E+04  0.33881206873E+04  0.29215204051E+04 0.  0.
        2    1    3    3  502    0 -0.31327006177E+03 -0.47266593609E+03 -0.24191260261E+04  0.24846975568E+04  0.25500000920E-02 0. -1.
       -2    1    3    3    0  502  0.31327006177E+03  0.47266593609E+03  0.70329377494E+03  0.90342313044E+03  0.25500000920E-02 0.  1.
</event>
<event>
 5   0  0.2429358E-06  0.2764389E+04  0.7818609E-02  0.8314410E-01
        1   -1    0    0  501    0  0.00000000000E+00  0.00000000000E+00  0.19543862570E+04  0.19543862570E+04  0.50400001928E-02 0.  1.
       -1   -1    0    0    0  501  0.00000000000E+00  0.00000000000E+00 -0.97752481589E+03  0.97752481590E+03  0.50400001928E-02 0. -1.
    10030    2    1    2    0    0  0.00000000000E+00  0.00000000000E+00  0.97686144112E+03  0.29319110729E+04  0.27643885878E+04 0.  0.
        2    1    3    3  502    0  0.63355217105E+03  0.22733063198E+03  0.17688143591E+04  0.18925569494E+04  0.25500000920E-02 0.  1.
       -2    1    3    3    0  502 -0.63355217105E+03 -0.22733063198E+03 -0.79195291802E+03  0.10393541235E+04  0.25500000920E-02 0. -1.
</event>
<event>
 5   0  0.2336512E-06  0.2923816E+04  0.7818609E-02  0.8265826E-01
       -1   -1    0    0    0  501  0.00000000000E+00  0.00000000000E+00  0.16908780338E+04  0.16908780338E+04  0.50400001928E-02 0. -1.
        1   -1    0    0  501    0  0.00000000000E+00  0.00000000000E+00 -0.12639442089E+04  0.12639442089E+04  0.50400001928E-02 0.  1.
    10030    2    1    2    0    0  0.00000000000E+00  0.00000000000E+00  0.42693382488E+03  0.29548222427E+04  0.29238163409E+04 0.  0.
        4    1    3    3  502    0  0.13766577424E+04 -0.49166716856E+03  0.22946965313E+03  0.14797233116E+04  0.12699999809E+01 0. -1.
       -4    1    3    3    0  502 -0.13766577424E+04  0.49166716856E+03  0.19746417175E+03  0.14750989311E+04  0.12699999809E+01 0.  1.
</event>
<event>
 5   0  0.2336512E-06  0.2866942E+04  0.7818609E-02  0.8282782E-01
        1   -1    0    0  501    0  0.00000000000E+00  0.00000000000E+00  0.14469982194E+04  0.14469982194E+04  0.50400001928E-02 0. -1.
       -1   -1    0    0    0  501  0.00000000000E+00  0.00000000000E+00 -0.14200706958E+04  0.14200706958E+04  0.50400001928E-02 0.  1.
    10030    2    1    2    0    0  0.00000000000E+00  0.00000000000E+00  0.26927523654E+02  0.28670689152E+04  0.28669424607E+04 0.  0.
        4    1    3    3  502    0  0.84292897199E+03  0.42150868638E+03  0.10936221988E+04  0.14436793103E+04  0.12699999809E+01 0. -1.
       -4    1    3    3    0  502 -0.84292897199E+03 -0.42150868638E+03 -0.10666946751E+04  0.14233896049E+04  0.12699999809E+01 0.  1.
</event>
<event>
 5   0  0.6615403E-06  0.2873359E+04  0.7818609E-02  0.8280848E-01
       -2   -1    0    0    0  501  0.00000000000E+00  0.00000000000E+00  0.18015065522E+04  0.18015065522E+04  0.25500000920E-02 0.  1.
        2   -1    0    0  501    0  0.00000000000E+00  0.00000000000E+00 -0.11457344463E+04  0.11457344463E+04  0.25500000920E-02 0. -1.
    10030    2    1    2    0    0  0.00000000000E+00  0.00000000000E+00  0.65577210592E+03  0.29472409985E+04  0.28733590880E+04 0.  0.
        2    1    3    3  502    0 -0.56108578644E+03 -0.91151637969E+03  0.13108425393E+04  0.16923319807E+04  0.25500000920E-02 0.  1.
       -2    1    3    3    0  502  0.56108578644E+03  0.91151637969E+03 -0.65507043337E+03  0.12549090178E+04  0.25500000920E-02 0. -1.
</event>
<event>
 5   0  0.2474769E-06  0.2929786E+04  0.7818609E-02  0.8264070E-01
       -1   -1    0    0    0  501  0.00000000000E+00  0.00000000000E+00  0.16227608401E+04  0.16227608401E+04  0.50400001928E-02 0.  1.
        1   -1    0    0  501    0  0.00000000000E+00  0.00000000000E+00 -0.13223832653E+04  0.13223832653E+04  0.50400001928E-02 0. -1.
    10030    2    1    2    0    0  0.00000000000E+00  0.00000000000E+00  0.30037757475E+03  0.29451441054E+04  0.29297861892E+04 0.  0.
        1    1    3    3  502    0  0.32519938104E+03 -0.13551962772E+04 -0.30339728728E+03  0.14263104505E+04  0.50400001928E-02 0.  1.
       -1    1    3    3    0  502 -0.32519938104E+03  0.13551962772E+04  0.60377486203E+03  0.15188336549E+04  0.50400001928E-02 0. -1.
</event>
<event>
 5   0  0.6615403E-06  0.2900151E+04  0.7818609E-02  0.8272833E-01
       -2   -1    0    0    0  501  0.00000000000E+00  0.00000000000E+00  0.87565508419E+03  0.87565508420E+03  0.25500000920E-02 0.  1.
        2   -1    0    0  501    0  0.00000000000E+00  0.00000000000E+00 -0.24013097392E+04  0.24013097392E+04  0.25500000920E-02 0. -1.
    10030    2    1    2    0    0  0.00000000000E+00  0.00000000000E+00 -0.15256546550E+04  0.32769648234E+04  0.29001510870E+04 0.  0.
        2    1    3    3  502    0  0.77655320093E+03  0.12223467604E+04 -0.84702489741E+03  0.16776822266E+04  0.25500000920E-02 0. -1.
       -2    1    3    3    0  502 -0.77655320093E+03 -0.12223467604E+04 -0.67862975763E+03  0.15992825968E+04  0.25500000920E-02 0.  1.
</event>
<event>
 5   0  0.6615403E-06  0.2887208E+04  0.7818609E-02  0.8276694E-01
        2   -1    0    0  501    0  0.00000000000E+00  0.00000000000E+00  0.13649388992E+04  0.13649388992E+04  0.25500000920E-02 0. -1.
       -2   -1    0    0    0  501  0.00000000000E+00  0.00000000000E+00 -0.15268025759E+04  0.15268025759E+04  0.25500000920E-02 0.  1.
    10030    2    1    2    0    0  0.00000000000E+00  0.00000000000E+00 -0.16186367673E+03  0.28917414751E+04  0.28872078050E+04 0.  0.
        2    1    3    3  502    0  0.11312969425E+04  0.81199453275E+03 -0.46208733810E+03  0.14672057120E+04  0.25500000920E-02 0.  1.
       -2    1    3    3    0  502 -0.11312969425E+04 -0.81199453275E+03  0.30022366137E+03  0.14245357631E+04  0.25500000920E-02 0. -1.
</event>
<event>
 5   0  0.6615403E-06  0.2886980E+04  0.7818609E-02  0.8276762E-01
        2   -1    0    0  501    0  0.00000000000E+00  0.00000000000E+00  0.25851160008E+04  0.25851160008E+04  0.25500000920E-02 0.  1.
       -2   -1    0    0    0  501  0.00000000000E+00  0.00000000000E+00 -0.80602319411E+03  0.80602319411E+03  0.25500000920E-02 0. -1.
    10030    2    1    2    0    0  0.00000000000E+00  0.00000000000E+00  0.17790928067E+04  0.33911391949E+04  0.28869800526E+04 0.  0.
        2    1    3    3  502    0  0.54366558725E+03  0.10309037796E+04 -0.11084333720E+03  0.11707352899E+04  0.25500000920E-02 0. -1.
       -2    1    3    3    0  502 -0.54366558725E+03 -0.10309037796E+04  0.18899361439E+04  0.22204039050E+04  0.25500000920E-02 0.  1.
</event>
<event>
 5   0  0.6513041E-06  0.2929625E+04  0.7818609E-02  0.8264117E-01
       -2   -1    0    0    0  501  0.00000000000E+00  0.00000000000E+00  0.20370636958E+04  0.20370636958E+04  0.25500000920E-02 0.  1.
        2   -1    0    0  501    0  0.00000000000E+00  0.00000000000E+00 -0.10533181669E+04  0.10533181669E+04  0.25500000920E-02 0. -1.
    10030    2    1    2    0    0  0.00000000000E+00  0.00000000000E+00  0.98374552887E+03  0.30903818627E+04  0.29296253671E+04 0.  0.
        1    1    3    3  502    0 -0.31871452375E+03 -0.11754396789E+04 -0.36669176768E+03  0.12718884538E+04  0.50400001928E-02 0. -1.
       -1    1    3    3    0  502  0.31871452375E+03  0.11754396789E+04  0.13504372965E+04  0.18184934089E+04  0.50400001928E-02 0.  1.
</event>
<event>
 5   0  0.2429358E-06  0.2909259E+04  0.7818609E-02  0.8270128E-01
        1   -1    0    0  501    0  0.00000000000E+00  0.00000000000E+00  0.15656524485E+04  0.15656524485E+04  0.50400001928E-02 0.  1.
       -1   -1    0    0    0  501  0.00000000000E+00  0.00000000000E+00 -0.13514797624E+04  0.13514797624E+04  0.50400001928E-02 0. -1.
    10030    2    1    2    0    0  0.00000000000E+00  0.00000000000E+00  0.21417268602E+03  0.29171322109E+04  0.29092594241E+04 0.  0.
        2    1    3    3  502    0 -0.11494394311E+04 -0.56105344278E+03  0.80174940635E+03  0.15095675149E+04  0.25500000920E-02 0.  1.
       -2    1    3    3    0  502  0.11494394311E+04  0.56105344278E+03 -0.58757672034E+03  0.14075646961E+04  0.25500000920E-02 0. -1.
</event>
<event>
 5   0  0.6393633E-06  0.2943105E+04  0.7818609E-02  0.8260167E-01
       -2   -1    0    0    0  501  0.00000000000E+00  0.00000000000E+00  0.90481880776E+03  0.90481880776E+03  0.25500000920E-02 0.  1.
        2   -1    0    0  501    0  0.00000000000E+00  0.00000000000E+00 -0.23932606461E+04  0.23932606461E+04  0.25500000920E-02 0. -1.
    10030    2    1    2    0    0  0.00000000000E+00  0.00000000000E+00 -0.14884418384E+04  0.32980794539E+04  0.29431053291E+04 0.  0.
        4    1    3    3  502    0  0.29392679085E+03  0.14239790926E+04 -0.99817302670E+03  0.17636497438E+04  0.12699999809E+01 0. -1.
       -4    1    3    3    0  502 -0.29392679085E+03 -0.14239790926E+04 -0.49026881169E+03  0.15344297101E+04  0.12699999809E+01 0.  1.
</event>
<event>
 5   0  0.6733688E-06  0.2884316E+04  0.7818609E-02  0.8277559E-01
        2   -1    0    0  501    0  0.00000000000E+00  0.00000000000E+00  0.16916886679E+04  0.16916886679E+04  0.25500000920E-02 0. -1.
       -2   -1    0    0    0  501  0.00000000000E+00  0.00000000000E+00 -0.12294339055E+04  0.12294339055E+04  0.25500000920E-02 0.  1.
    10030    2    1    2    0    0  0.00000000000E+00  0.00000000000E+00  0.46225476243E+03  0.29211225735E+04  0.28843157982E+04 0.  0.
        5    1    3    3  502    0  0.15887338879E+03 -0.92095377703E+03  0.13435063336E+04  0.16365903493E+04  0.46999998093E+01 0. -1.
       -5    1    3    3    0  502 -0.15887338879E+03  0.92095377703E+03 -0.88125157119E+03  0.12845322241E+04  0.46999998093E+01 0.  1.
</event>
<event>
 5   0  0.2508094E-06  0.2431309E+04  0.7818609E-02  0.8427874E-01
        1   -1    0    0  501    0  0.00000000000E+00  0.00000000000E+00  0.14675083063E+04  0.14675083063E+04  0.50400001928E-02 0.  1.
       -1   -1    0    0    0  501  0.00000000000E+00  0.00000000000E+00 -0.10070235774E+04  0.10070235774E+04  0.50400001928E-02 0. -1.
    10030    2    1    2    0    0  0.00000000000E+00  0.00000000000E+00  0.46048472889E+03  0.24745318838E+04  0.24313086719E+04 0.  0.
        3    1    3    3  502    0  0.16850713403E+03  0.94243408276E+03  0.99271945339E+03  0.13791550232E+04  0.10100000352E+00 0.  1.
       -3    1    3    3    0  502 -0.16850713403E+03 -0.94243408276E+03 -0.53223472450E+03  0.10953768606E+04  0.10100000352E+00 0. -1.
</event>
<event>
 5   0  0.6733688E-06  0.3000884E+04  0.7818609E-02  0.8243478E-01
       -2   -1    0    0    0  501  0.00000000000E+00  0.00000000000E+00  0.11808087326E+04  0.11808087326E+04  0.25500000920E-02 0.  1.
        2   -1    0    0  501    0  0.00000000000E+00  0.00000000000E+00 -0.19065970890E+04  0.19065970890E+04  0.25500000920E-02 0. -1.
    10030    2    1    2    0    0  0.00000000000E+00  0.00000000000E+00 -0.72578835640E+03  0.30874058216E+04  0.30008841978E+04 0.  0.
        5    1    3    3  502    0  0.27734702661E+03 -0.14545219842E+03 -0.18725896729E+04  0.18986026146E+04  0.46999998093E+01 0. -1.
       -5    1    3    3    0  502 -0.27734702661E+03  0.14545219842E+03  0.11468013165E+04  0.11888032069E+04  0.46999998093E+01 0.  1.
</event>
<event>
 5   0  0.2348684E-06  0.2697637E+04  0.7818609E-02  0.8335772E-01
        1   -1    0    0  501    0  0.00000000000E+00  0.00000000000E+00  0.22832970825E+04  0.22832970825E+04  0.50400001928E-02 0.  1.
       -1   -1    0    0    0  501  0.00000000000E+00  0.00000000000E+00 -0.79679125201E+03  0.79679125203E+03  0.50400001928E-02 0. -1.
    10030    2    1    2    0    0  0.00000000000E+00  0.00000000000E+00  0.14865058305E+04  0.30800883345E+04  0.26976368481E+04 0.  0.
        5    1    3    3  502    0  0.19788647038E+02 -0.17640977726E+03  0.22698919608E+04  0.22768275305E+04  0.46999998093E+01 0.  1.
       -5    1    3    3    0  502 -0.19788647038E+02  0.17640977726E+03 -0.78338613032E+03  0.80326080400E+03  0.46999998093E+01 0. -1.
</event>
<event>
 5   0  0.6733688E-06  0.2458751E+04  0.7818609E-02  0.8417830E-01
        2   -1    0    0  501    0  0.00000000000E+00  0.00000000000E+00  0.20366652974E+04  0.20366652974E+04  0.25500000920E-02 0. -1.
       -2   -1    0    0    0  501  0.00000000000E+00  0.00000000000E+00 -0.74207790967E+03  0.74207790967E+03  0.25500000920E-02 0.  1.
    10030    2    1    2    0    0  0.00000000000E+00  0.00000000000E+00  0.12945873877E+04  0.27787432070E+04  0.24587511680E+04 0.  0.
        5    1    3    3  502    0 -0.18277367099E+03 -0.12156795599E+04  0.63859603091E+03  0.13853194534E+04  0.46999998093E+01 0.  1.
       -5    1    3    3    0  502  0.18277367099E+03  0.12156795599E+04  0.65599135680E+03  0.13934237537E+04  0.46999998093E+01 0. -1.
</event>
<event>
 5   0  0.6615403E-06  0.2808239E+04  0.7818609E-02  0.8300715E-01
        2   -1    0    0  501    0  0.00000000000E+00  0.00000000000E+00  0.25437719279E+04  0.25437719279E+04  0.25500000920E-02 0.  1.
       -2   -1    0    0    0  501  0.00000000000E+00  0.00000000000E+00 -0.77505038326E+03  0.77505038326E+03  0.25500000920E-02 0. -1.
    10030    2    1    2    0    0  0.00000000000E+00  0.00000000000E+00  0.17687215447E+04  0.33188223112E+04  0.28082388842E+04 0.  0.
        2    1    3    3  502    0 -0.13892408747E+04 -0.14101720914E+03  0.10583542536E+04  0.17521386324E+04  0.25500000920E-02 0. -1.
       -2    1    3    3    0  502  0.13892408747E+04  0.14101720914E+03  0.71036729104E+03  0.15666836788E+04  0.25500000920E-02 0.  1.
</event>
<event>
 5   0  0.2474769E-06  0.2870722E+04  0.7818609E-02  0.8281642E-01
       -1   -1    0    0    0  501  0.00000000000E+00  0.00000000000E+00  0.11268613152E+04  0.11268613152E+04  0.50400001928E-02 0.  1.
        1   -1    0    0  501    0  0.00000000000E+00  0.00000000000E+00 -0.18283178540E+04  0.18283178540E+04  0.50400001928E-02 0. -1.
    10030    2    1    2    0    0  0.00000000000E+00  0.00000000000E+00 -0.70145653877E+03  0.29551791692E+04  0.28707216247E+04 0.  0.
        1    1    3    3  502    0 -0.40884416266E+03  0.13680190036E+04 -0.50213048139E+03  0.15135271930E+04  0.50400001928E-02 0.  1.
       -1    1    3    3    0  502  0.40884416266E+03 -0.13680190036E+04 -0.19932605738E+03  0.14416519763E+04  0.50400001928E-02 0. -1.
</event>
<event>
 5   0  0.2508094E-06  0.2872623E+04  0.7818609E-02  0.8281070E-01
       -1   -1    0    0    0  501  0.00000000000E+00  0.00000000000E+00  0.10759546823E+04  0.10759546823E+04  0.50400001928E-02 0. -1.
        1   -1    0    0  501    0  0.00000000000E+00  0.00000000000E+00 -0.19173578616E+04  0.19173578616E+04  0.50400001928E-02 0.  1.
    10030    2    1    2    0    0  0.00000000000E+00  0.00000000000E+00 -0.84140317937E+03  0.29933125439E+04  0.28726226127E+04 0.  0.
        3    1    3    3  502    0  0.78319153495E+02  0.89478320550E+02 -0.19122198069E+04  0.19159135836E+04  0.10100000352E+00 0.  1.
       -3    1    3    3    0  502 -0.78319153495E+02 -0.89478320550E+02  0.10708166275E+04  0.10773989603E+04  0.10100000352E+00 0. -1.
</event>
<event>
 5   0  0.6393633E-06  0.2953005E+04  0.7818609E-02  0.8257279E-01
        2   -1    0    0  501    0  0.00000000000E+00  0.00000000000E+00  0.19681795894E+04  0.19681795894E+04  0.25500000920E-02 0. -1.
       -2   -1    0    0    0  501  0.00000000000E+00  0.00000000000E+00 -0.11076524580E+04  0.11076524580E+04  0.25500000920E-02 0.  1.
    10030    2    1    2    0    0  0.00000000000E+00  0.00000000000E+00  0.86052713143E+03  0.30758320474E+04  0.29530045445E+04 0.  0.
        4    1    3    3  502    0 -0.75045984533E+03 -0.12700519365E+04  0.36575662352E+03  0.15198688829E+04  0.12699999809E+01 0. -1.
       -4    1    3    3    0  502  0.75045984533E+03  0.12700519365E+04  0.49477050791E+03  0.15559631645E+04  0.12699999809E+01 0.  1.
</event>
<event>
 5   0  0.6393633E-06  0.2922309E+04  0.7818609E-02  0.8266271E-01
       -2   -1    0    0    0  501  0.00000000000E+00  0.00000000000E+00  0.10512749966E+04  0.10512749966E+04  0.25500000920E-02 0.  1.
        2   -1    0    0  501    0  0.00000000000E+00  0.00000000000E+00 -0.20308415182E+04  0.20308415182E+04  0.25500000920E-02 0. -1.
    10030    2    1    2    0    0  0.00000000000E+00  0.00000000000E+00 -0.97956652160E+03  0.30821165149E+04  0.29223092993E+04 0.  0.
        4    1    3    3  502    0  0.63245335223E+03 -0.11168097130E+04 -0.12263358421E+04  0.17751513706E+04  0.12699999809E+01 0. -1.
       -4    1    3    3    0  502 -0.63245335223E+03  0.11168097130E+04  0.24676932053E+03  0.13069651443E+04  0.12699999809E+01 0.  1.
</event>
<event>
 5   0  0.6513041E-06  0.2922247E+04  0.7818609E-02  0.8266289E-01
       -2   -1    0    0    0  501  0.00000000000E+00  0.00000000000E+00  0.73446745217E+03  0.73446745217E+03  0.25500000920E-02 0.  1.
        2   -1    0    0  501    0  0.00000000000E+00  0.00000000000E+00 -0.29067063884E+04  0.29067063884E+04  0.25500000920E-02 0. -1.
    10030    2    1    2    0    0  0.00000000000E+00  0.00000000000E+00 -0.21722389363E+04  0.36411738406E+04  0.29222465572E+04 0.  0.
        1    1    3    3  502    0 -0.12224918482E+04 -0.70203045036E+03 -0.15647401510E+04  0.21061207971E+04  0.50400001928E-02 0.  1.
       -1    1    3    3    0  502  0.12224918482E+04  0.70203045036E+03 -0.60749878529E+03  0.15350530435E+04  0.50400001928E-02 0. -1.
</event>
<event>
 5   0  0.2159500E-06  0.2912629E+04  0.7818609E-02  0.8269130E-01
        4   -1    0    0  501    0  0.00000000000E+00  0.00000000000E+00  0.16457941137E+04  0.16457946037E+04  0.12699999809E+01 0. -1.
       -4   -1    0    0    0  501  0.00000000000E+00  0.00000000000E+00 -0.12886489664E+04  0.12886495922E+04  0.12699999809E+01 0.  1.
    10030    2    1    2    0    0  0.00000000000E+00  0.00000000000E+00  0.35714514728E+03  0.29344441959E+04  0.29126294104E+04 0.  0.
        2    1    3    3  502    0 -0.24610081484E+03 -0.14272005821E+04  0.24504340803E+02  0.14484707713E+04  0.25500000920E-02 0.  1.
       -2    1    3    3    0  502  0.24610081484E+03  0.14272005821E+04  0.33264080648E+03  0.14859734246E+04  0.25500000920E-02 0. -1.
</event>
<event>
 5   0  0.2508094E-06  0.2951229E+04  0.7818609E-02  0.8257797E-01
       -1   -1    0    0    0  501  0.00000000000E+00  0.00000000000E+00  0.15736120206E+04  0.15736120206E+04  0.50400001928E-02 0.  1.
        1   -1    0    0  501    0  0.00000000000E+00  0.00000000000E+00 -0.13837194344E+04  0.13837194344E+04  0.50400001928E-02 0. -1.
    10030    2    1    2    0    0  0.00000000000E+00  0.00000000000E+00  0.18989258615E+03  0.29573314550E+04  0.29512285815E+04 0.  0.
        3    1    3    3  502    0 -0.29143891588E+03  0.66470522377E+03  0.13823862997E+04  0.15613332662E+04  0.10100000352E+00 0.  1.
       -3    1    3    3    0  502  0.29143891588E+03 -0.66470522377E+03 -0.11924937136E+04  0.13959981888E+04  0.10100000352E+00 0. -1.
</event>
<event>
 5   0  0.2474769E-06  0.2748430E+04  0.7818609E-02  0.8319460E-01
        1   -1    0    0  501    0  0.00000000000E+00  0.00000000000E+00  0.11141848779E+04  0.11141848780E+04  0.50400001928E-02 0. -1.
       -1   -1    0    0    0  501  0.00000000000E+00  0.00000000000E+00 -0.16949313248E+04  0.16949313248E+04  0.50400001928E-02 0.  1.
    10030    2    1    2    0    0  0.00000000000E+00  0.00000000000E+00 -0.58074644689E+03  0.28091162028E+04  0.27484299892E+04 0.  0.
        1    1    3    3  502    0 -0.40584374952E+03 -0.11692077980E+04  0.32006704122E+03  0.12783579056E+04  0.50400001928E-02 0. -1.
       -1    1    3    3    0  502  0.40584374952E+03  0.11692077980E+04 -0.90081348811E+03  0.15307582972E+04  0.50400001928E-02 0.  1.
</event>
<event>
 5   0  0.6615403E-06  0.2952237E+04  0.7818609E-02  0.8257503E-01
        2   -1    0    0  501    0  0.00000000000E+00  0.00000000000E+00  0.17495652142E+04  0.17495652142E+04  0.25500000920E-02 0. -1.
       -2   -1    0    0    0  501  0.00000000000E+00  0.00000000000E+00 -0.12454098388E+04  0.12454098388E+04  0.25500000920E-02 0.  1.
    10030    2    1    2    0    0  0.00000000000E+00  0.00000000000E+00  0.50415537543E+03  0.29949750530E+04  0.29522369359E+04 0.  0.
        2    1    3    3  502    0 -0.88305624571E+03  0.11405265295E+04 -0.66048681372E+02  0.14439361225E+04  0.25500000920E-02 0.  1.
       -2    1    3    3    0  502  0.88305624571E+03 -0.11405265295E+04  0.57020405681E+03  0.15510389305E+04  0.25500000920E-02 0. -1.
</event>
<event>
 5   0  0.2348684E-06  0.2825230E+04  0.7818609E-02  0.8295478E-01
        1   -1    0    0  501    0  0.00000000000E+00  0.00000000000E+00  0.17699653757E+04  0.17699653757E+04  0.50400001928E-02 0. -1.
       -1   -1    0    0    0  501  0.00000000000E+00  0.00000000000E+00 -0.11274125798E+04  0.11274125798E+04  0.50400001928E-02 0.  1.
    10030    2    1    2    0    0  0.00000000000E+00  0.00000000000E+00  0.64255279587E+03  0.28973779555E+04  0.28252300653E+04 0.  0.
        5    1    3    3  502    0 -0.12782697664E+04 -0.43798672107E+03 -0.10113179245E+03  0.13550113258E+04  0.46999998093E+01 0. -1.
       -5    1    3    3    0  502  0.12782697664E+04  0.43798672107E+03  0.74368458831E+03  0.15423666297E+04  0.46999998093E+01 0.  1.
</event>
<event>
 5   0  0.2508094E-06  0.2933108E+04  0.7818609E-02  0.8263095E-01
       -1   -1    0    0    0  501  0.00000000000E+00  0.00000000000E+00  0.14629038812E+04  0.14629038812E+04  0.50400001928E-02 0. -1.
        1   -1    0    0  501    0  0.00000000000E+00  0.00000000000E+00 -0.14702131334E+04  0.14702131334E+04  0.50400001928E-02 0.  1.
    10030    2    1    2    0    0  0.00000000000E+00  0.00000000000E+00 -0.73092521995E+01  0.29331170146E+04  0.29331079073E+04 0.  0.
        3    1    3    3  502    0 -0.11817993306E+03  0.51207040685E+02  0.14572372537E+04  0.14629180023E+04  0.10100000352E+00 0. -1.
       -3    1    3    3    0  502  0.11817993306E+03 -0.51207040685E+02 -0.14645465059E+04  0.14701990123E+04  0.10100000352E+00 0.  1.
</event>
<event>
 5   0  0.2429358E-06  0.2887366E+04  0.7818609E-02  0.8276646E-01
       -1   -1    0    0    0  501  0.00000000000E+00  0.00000000000E+00  0.16052090527E+04  0.16052090527E+04  0.50400001928E-02 0. -1.
        1   -1    0    0  501    0  0.00000000000E+00  0.00000000000E+00 -0.12984104184E+04  0.12984104184E+04  0.50400001928E-02 0.  1.
    10030    2    1    2    0    0  0.00000000000E+00  0.00000000000E+00  0.30679863434E+03  0.29036194711E+04  0.28873656906E+04 0.  0.
        2    1    3    3  502    0 -0.78530461304E+03 -0.63351760690E+03 -0.88496940705E+03  0.13420949091E+04  0.25500000920E-02 0.  1.
       -2    1    3    3    0  502  0.78530461304E+03  0.63351760690E+03  0.11917680414E+04  0.15615245621E+04  0.25500000920E-02 0. -1.
</event>
<event>
 5   0  0.6615403E-06  0.2867462E+04  0.7818609E-02  0.8282625E-01
        2   -1    0    0  501    0  0.00000000000E+00  0.00000000000E+00  0.11938170039E+04  0.11938170039E+04  0.25500000920E-02 0. -1.
       -2   -1    0    0    0  501  0.00000000000E+00  0.00000000000E+00 -0.17218585956E+04  0.17218585956E+04  0.25500000920E-02 0.  1.
    10030    2    1    2    0    0  0.00000000000E+00  0.00000000000E+00 -0.52804159167E+03  0.29156755995E+04  0.28674616438E+04 0.  0.
        2    1    3    3  502    0  0.37708039503E+03 -0.21954159888E+03 -0.16527060207E+04  0.17093347621E+04  0.25500000920E-02 0.  1.
       -2    1    3    3    0  502 -0.37708039503E+03  0.21954159888E+03  0.11246644291E+04  0.12063408374E+04  0.25500000920E-02 0. -1.
</event>
<event>
 5   0  0.6612533E-06  0.2902572E+04  0.7818609E-02  0.8272113E-01
       -2   -1    0    0    0  501  0.00000000000E+00  0.00000000000E+00  0.13086133718E+04  0.13086133718E+04  0.25500000920E-02 0.  1.
        2   -1    0    0  501    0  0.00000000000E+00  0.00000000000E+00 -0.16095140539E+04  0.16095140539E+04  0.25500000920E-02 0. -1.
    10030    2    1    2    0    0  0.00000000000E+00  0.00000000000E+00 -0.30090068205E+03  0.29181274257E+04  0.29025723853E+04 0.  0.
        3    1    3    3  502    0  0.11758589919E+04  0.47542254034E+03 -0.85961029462E+03  0.15321882487E+04  0.10100000352E+00 0. -1.
       -3    1    3    3    0  502 -0.11758589919E+04 -0.47542254034E+03  0.55870961257E+03  0.13859391769E+04  0.10100000352E+00 0.  1.
</event>
<event>
 5   0  0.2348684E-06  0.2900709E+04  0.7818609E-02  0.8272667E-01
        1   -1    0    0  501    0  0.00000000000E+00  0.00000000000E+00  0.18251507218E+04  0.18251507218E+04  0.50400001928E-02 0. -1.
       -1   -1    0    0    0  501  0.00000000000E+00  0.00000000000E+00 -0.11525227529E+04  0.11525227529E+04  0.50400001928E-02 0.  1.
    10030    2    1    2    0    0  0.00000000000E+00  0.00000000000E+00  0.67262796893E+03  0.29776734747E+04  0.29007086957E+04 0.  0.
        5    1    3    3  502    0 -0.31991755007E+03  0.11365803451E+04  0.12008861701E+04  0.16841353281E+04  0.46999998093E+01 0. -1.
       -5    1    3    3    0  502  0.31991755007E+03 -0.11365803451E+04 -0.52825820119E+03  0.12935381466E+04  0.46999998093E+01 0.  1.
</event>
<event>
 5   0  0.2474769E-06  0.2870968E+04  0.7818609E-02  0.8281568E-01
       -1   -1    0    0    0  501  0.00000000000E+00  0.00000000000E+00  0.13145827223E+04  0.13145827223E+04  0.50400001928E-02 0. -1.
        1   -1    0    0  501    0  0.00000000000E+00  0.00000000000E+00 -0.15675039414E+04  0.15675039414E+04  0.50400001928E-02 0.  1.
    10030    2    1    2    0    0  0.00000000000E+00  0.00000000000E+00 -0.25292121908E+03  0.28820866637E+04  0.28709675013E+04 0.  0.
        1    1    3    3  502    0  0.30858857230E+03 -0.75724046053E+03  0.10579280898E+04  0.13371057794E+04  0.50400001928E-02 0. -1.
       -1    1    3    3    0  502 -0.30858857230E+03  0.75724046053E+03 -0.13108493089E+04  0.15449808843E+04  0.50400001928E-02 0.  1.
</event>
<event>
 5   0  0.2348684E-06  0.2853706E+04  0.7818609E-02  0.8286786E-01
        1   -1    0    0  501    0  0.00000000000E+00  0.00000000000E+00  0.15874850447E+04  0.15874850447E+04  0.50400001928E-02 0. -1.
       -1   -1    0    0    0  501  0.00000000000E+00  0.00000000000E+00 -0.12824744484E+04  0.12824744484E+04  0.50400001928E-02 0.  1.
    10030    2    1    2    0    0  0.00000000000E+00  0.00000000000E+00  0.30501059628E+03  0.28699594932E+04  0.28537056661E+04 0.  0.
        5    1    3    3  502    0  0.34938306907E+03 -0.13476419646E+04 -0.16181205281E+03  0.14015750512E+04  0.46999998093E+01 0.  1.
       -5    1    3    3    0  502 -0.34938306907E+03  0.13476419646E+04  0.46682264909E+03  0.14683844420E+04  0.46999998093E+01 0. -1.
</event>
<event>
 5   0  0.6733688E-06  0.2887904E+04  0.7818609E-02  0.8276485E-01
       -2   -1    0    0    0  501  0.00000000000E+00  0.00000000000E+00  0.15825858084E+04  0.15825858084E+04  0.25500000920E-02 0. -1.
        2   -1    0    0  501    0  0.00000000000E+00  0.00000000000E+00 -0.13174624678E+04  0.13174624678E+04  0.25500000920E-02 0.  1.
    10030    2    1    2    0    0  0.00000000000E+00  0.00000000000E+00  0.26512334064E+03  0.29000482762E+04  0.28879040182E+04 0.  0.
        5    1    3    3  502    0  0.11316810539E+04 -0.69499018954E+03 -0.43662158284E+03  0.13979892231E+04  0.46999998093E+01 0.  1.
       -5    1    3    3    0  502 -0.11316810539E+04  0.69499018954E+03  0.70174492348E+03  0.15020590531E+04  0.46999998093E+01 0. -1.
</event>
<event>
 5   0  0.2159500E-06  0.2914983E+04  0.7818609E-02  0.8268434E-01
       -3   -1    0    0    0  501  0.00000000000E+00  0.00000000000E+00  0.20702355858E+04  0.20702355882E+04  0.10100000352E+00 0. -1.
        3   -1    0    0  501    0  0.00000000000E+00  0.00000000000E+00 -0.10261059332E+04  0.10261059382E+04  0.10100000352E+00 0.  1.
    10030    2    1    2    0    0  0.00000000000E+00  0.00000000000E+00  0.10441296526E+04  0.30963415264E+04  0.29149826958E+04 0.  0.
        5    1    3    3  502    0  0.12234073104E+04  0.46654751838E+03  0.12021045817E+04  0.17774896764E+04  0.46999998093E+01 0. -1.
       -5    1    3    3    0  502 -0.12234073104E+04 -0.46654751838E+03 -0.15797492917E+03  0.13188518501E+04  0.46999998093E+01 0.  1.
</event>
<event>
 5   0  0.6615403E-06  0.2918892E+04  0.7818609E-02  0.8267279E-01
       -2   -1    0    0    0  501  0.00000000000E+00  0.00000000000E+00  0.15877460120E+04  0.15877460120E+04  0.25500000920E-02 0.  1.
        2   -1    0    0  501    0  0.00000000000E+00  0.00000000000E+00 -0.13415134217E+04  0.13415134217E+04  0.25500000920E-02 0. -1.
    10030    2    1    2    0    0  0.00000000000E+00  0.00000000000E+00  0.24623259037E+03  0.29292594337E+04  0.29188919715E+04 0.  0.
        2    1    3    3  502    0  0.12700101870E+04  0.42663791495E+03 -0.45776323309E+03  0.14158011736E+04  0.25500000920E-02 0.  1.
       -2    1    3    3    0  502 -0.12700101870E+04 -0.42663791495E+03  0.70399582347E+03  0.15134582601E+04  0.25500000920E-02 0. -1.
</event>
<event>
 5   0  0.6615403E-06  0.2902360E+04  0.7818609E-02  0.8272176E-01
       -2   -1    0    0    0  501  0.00000000000E+00  0.00000000000E+00  0.11411691213E+04  0.11411691213E+04  0.25500000920E-02 0. -1.
        2   -1    0    0  501    0  0.00000000000E+00  0.00000000000E+00 -0.18454092688E+04  0.18454092688E+04  0.25500000920E-02 0.  1.
    10030    2    1    2    0    0  0.00000000000E+00  0.00000000000E+00 -0.70424014748E+03  0.29865783901E+04  0.29023604694E+04 0.  0.
        2    1    3    3  502    0 -0.12921326159E+04  0.50676552870E+03 -0.78809563363E+03  0.15960929566E+04  0.25500000920E-02 0.  1.
       -2    1    3    3    0  502  0.12921326159E+04 -0.50676552870E+03  0.83855486149E+02  0.13904854335E+04  0.25500000920E-02 0. -1.
</event>
<event>
 5   0  0.6733688E-06  0.2936129E+04  0.7818609E-02  0.8262208E-01
       -2   -1    0    0    0  501  0.00000000000E+00  0.00000000000E+00  0.14671305489E+04  0.14671305489E+04  0.25500000920E-02 0.  1.
        2   -1    0    0  501    0  0.00000000000E+00  0.00000000000E+00 -0.14689993215E+04  0.14689993215E+04  0.25500000920E-02 0. -1.
    10030    2    1    2    0    0  0.00000000000E+00  0.00000000000E+00 -0.18687726337E+01  0.29361298704E+04  0.29361292757E+04 0.  0.
        5    1    3    3  502    0 -0.56671382444E+03 -0.11087460933E+03  0.13487821362E+04  0.14672058747E+04  0.46999998093E+01 0.  1.
       -5    1    3    3    0  502  0.56671382444E+03  0.11087460933E+03 -0.13506509088E+04  0.14689239957E+04  0.46999998093E+01 0. -1.
</event>
<event>
 5   0  0.6513041E-06  0.2883740E+04  0.7818609E-02  0.8277732E-01
        2   -1    0    0  501    0  0.00000000000E+00  0.00000000000E+00  0.17897491337E+04  0.17897491337E+04  0.25500000920E-02 0.  1.
       -2   -1    0    0    0  501  0.00000000000E+00  0.00000000000E+00 -0.11616089366E+04  0.11616089366E+04  0.25500000920E-02 0. -1.
    10030    2    1    2    0    0  0.00000000000E+00  0.00000000000E+00  0.62814019709E+03  0.29513580704E+04  0.28837396471E+04 0.  0.
        1    1    3    3  502    0 -0.71319092571E+03  0.70171874673E+03  0.13766528558E+04  0.17018294807E+04  0.50400001928E-02 0.  1.
       -1    1    3    3    0  502  0.71319092571E+03 -0.70171874673E+03 -0.74851265872E+03  0.12495285896E+04  0.50400001928E-02 0. -1.
</event>
<event>
 5   0  0.6615403E-06  0.2873300E+04  0.7818609E-02  0.8280866E-01
        2   -1    0    0  501    0  0.00000000000E+00  0.00000000000E+00  0.16622680350E+04  0.16622680350E+04  0.25500000920E-02 0. -1.
       -2   -1    0    0    0  501  0.00000000000E+00  0.00000000000E+00 -0.12416544892E+04  0.12416544892E+04  0.25500000920E-02 0.  1.
    10030    2    1    2    0    0  0.00000000000E+00  0.00000000000E+00  0.42061354580E+03  0.29039225242E+04  0.28732995443E+04 0.  0.
        2    1    3    3  502    0 -0.73882901544E+00 -0.56301458742E+03 -0.11255123761E+04  0.12584768891E+04  0.25500000920E-02 0.  1.
       -2    1    3    3    0  502  0.73882901544E+00  0.56301458742E+03  0.15461259219E+04  0.16454456351E+04  0.25500000920E-02 0. -1.
</event>
<event>
 5   0  0.6513041E-06  0.2952684E+04  0.7818609E-02  0.8257373E-01
       -2   -1    0    0    0  501  0.00000000000E+00  0.00000000000E+00  0.15150248857E+04  0.15150248857E+04  0.25500000920E-02 0. -1.
        2   -1    0    0  501    0  0.00000000000E+00  0.00000000000E+00 -0.14386466086E+04  0.14386466086E+04  0.25500000920E-02 0.  1.
    10030    2    1    2    0    0  0.00000000000E+00  0.00000000000E+00  0.76378277096E+02  0.29536714943E+04  0.29526838055E+04 0.  0.
        1    1    3    3  502    0  0.50696650681E+03  0.13743107182E+04  0.22220834434E+03  0.14815942553E+04  0.50400001928E-02 0. -1.
       -1    1    3    3    0  502 -0.50696650681E+03 -0.13743107182E+04 -0.14583006725E+03  0.14720772390E+04  0.50400001928E-02 0.  1.
</event>
<event>
 5   0  0.2336512E-06  0.2856930E+04  0.7818609E-02  0.8285809E-01
        1   -1    0    0  501    0  0.00000000000E+00  0.00000000000E+00  0.16867732059E+04  0.16867732059E+04  0.50400001928E-02 0.  1.
       -1   -1    0    0    0  501  0.00000000000E+00  0.00000000000E+00 -0.12097132046E+04  0.12097132046E+04  0.50400001928E-02 0. -1.
    10030    2    1    2    0    0  0.00000000000E+00  0.00000000000E+00  0.47706000133E+03  0.28964864106E+04  0.28569296949E+04 0.  0.
        4    1    3    3  502    0 -0.13444246407E+04 -0.25080561977E+03  0.65670810333E+03  0.15171183933E+04  0.12699999809E+01 0.  1.
       -4    1    3    3    0  502  0.13444246407E+04  0.25080561977E+03 -0.17964810200E+03  0.13793680172E+04  0.12699999809E+01 0. -1.
</event>
<event>
 5   0  0.2336512E-06  0.2888431E+04  0.7818609E-02  0.8276328E-01
        1   -1    0    0  501    0  0.00000000000E+00  0.00000000000E+00  0.15543795715E+04  0.15543795715E+04  0.50400001928E-02 0. -1.
       -1   -1    0    0    0  501  0.00000000000E+00  0.00000000000E+00 -0.13418595880E+04  0.13418595880E+04  0.50400001928E-02 0.  1.
    10030    2    1    2    0    0  0.00000000000E+00  0.00000000000E+00  0.21251998356E+03  0.28962391595E+04  0.28884314992E+04 0.  0.
        4    1    3    3  502    0 -0.98575968852E+03  0.10548789563E+04  0.14193343636E+03  0.14507372226E+04  0.12699999809E+01 0. -1.
       -4    1    3    3    0  502  0.98575968852E+03 -0.10548789563E+04  0.70586547196E+02  0.14455019369E+04  0.12699999809E+01 0.  1.
</event>
<event>
 5   0  0.2336512E-06  0.2893166E+04  0.7818609E-02  0.8274914E-01
       -1   -1    0    0    0  501  0.00000000000E+00  0.00000000000E+00  0.69671172361E+03  0.69671172363E+03  0.50400001928E-02 0.  1.
        1   -1    0    0  501    0  0.00000000000E+00  0.00000000000E+00 -0.30035413189E+04  0.30035413189E+04  0.50400001928E-02 0. -1.
    10030    2    1    2    0    0  0.00000000000E+00  0.00000000000E+00 -0.23068295953E+04  0.37002530425E+04  0.28931660507E+04 0.  0.
        4    1    3    3  502    0  0.24362138359E+03  0.13891930258E+04 -0.15646610387E+04  0.21065076360E+04  0.12699999809E+01 0. -1.
       -4    1    3    3    0  502 -0.24362138359E+03 -0.13891930258E+04 -0.74216855657E+03  0.15937454065E+04  0.12699999809E+01 0.  1.
</event>
<event>
 5   0  0.6393633E-06  0.2904867E+04  0.7818609E-02  0.8271431E-01
        2   -1    0    0  501    0  0.00000000000E+00  0.00000000000E+00  0.19623820420E+04  0.19623820420E+04  0.25500000920E-02 0. -1.
       -2   -1    0    0    0  501  0.00000000000E+00  0.00000000000E+00 -0.10750011227E+04  0.10750011227E+04  0.25500000920E-02 0.  1.
    10030    2    1    2    0    0  0.00000000000E+00  0.00000000000E+00  0.88738091934E+03  0.30373831647E+04  0.29048668804E+04 0.  0.
        4    1    3    3  502    0 -0.37559750397E+03 -0.13587002865E+04  0.80953947990E+03  0.16255755092E+04  0.12699999809E+01 0. -1.
       -4    1    3    3    0  502  0.37559750397E+03  0.13587002865E+04  0.77841439445E+02  0.14118076555E+04  0.12699999809E+01 0.  1.
</event>
<event>
 5   0  0.2348684E-06  0.2888576E+04  0.7818609E-02  0.8276285E-01
       -1   -1    0    0    0  501  0.00000000000E+00  0.00000000000E+00  0.92771858511E+03  0.92771858512E+03  0.50400001928E-02 0. -1.
        1   -1    0    0  501    0  0.00000000000E+00  0.00000000000E+00 -0.22484916837E+04  0.22484916837E+04  0.50400001928E-02 0.  1.
    10030    2    1    2    0    0  0.00000000000E+00  0.00000000000E+00 -0.13207730986E+04  0.31762102688E+04  0.28885757899E+04 0.  0.
        5    1    3    3  502    0 -0.76868452772E+03  0.50265845807E+03 -0.18860095424E+04  0.20977596413E+04  0.46999998093E+01 0.  1.
       -5    1    3    3    0  502  0.76868452772E+03 -0.50265845807E+03  0.56523644380E+03  0.10784506275E+04  0.46999998093E+01 0. -1.
</event>
<event>
 5   0  0.2429358E-06  0.2916762E+04  0.7818609E-02  0.8267908E-01
        1   -1    0    0  501    0  0.00000000000E+00  0.00000000000E+00  0.13566300424E+04  0.13566300424E+04  0.50400001928E-02 0.  1.
       -1   -1    0    0    0  501  0.00000000000E+00  0.00000000000E+00 -0.15677638425E+04  0.15677638425E+04  0.50400001928E-02 0. -1.
    10030    2    1    2    0    0  0.00000000000E+00  0.00000000000E+00 -0.21113380007E+03  0.29243938849E+04  0.29167622653E+04 0.  0.
        2    1    3    3  502    0  0.13804945910E+04 -0.42134243532E+03  0.10373937873E+03  0.14470855615E+04  0.25500000920E-02 0. -1.
       -2    1    3    3    0  502 -0.13804945910E+04  0.42134243532E+03 -0.31487317880E+03  0.14773083234E+04  0.25500000920E-02 0.  1.
</event>
<event>
 5   0  0.2336512E-06  0.2871916E+04  0.7818609E-02  0.8281283E-01
        1   -1    0    0  501    0  0.00000000000E+00  0.00000000000E+00  0.21648314191E+04  0.21648314191E+04  0.50400001928E-02 0.  1.
       -1   -1    0    0    0  501  0.00000000000E+00  0.00000000000E+00 -0.95248797855E+03  0.95248797856E+03  0.50400001928E-02 0. -1.
    10030    2    1    2    0    0  0.00000000000E+00  0.00000000000E+00  0.12123434406E+04  0.31173193977E+04  0.28719163653E+04 0.  0.
        4    1    3    3  502    0  0.87018315875E+03  0.11562448738E+03  0.18396674232E+04  0.20383732712E+04  0.12699999809E+01 0.  1.
       -4    1    3    3    0  502 -0.87018315875E+03 -0.11562448738E+03 -0.62732398260E+03  0.10789461265E+04  0.12699999809E+01 0. -1.
</event>
<event>
 5   0  0.2336512E-06  0.2950725E+04  0.7818609E-02  0.8257943E-01
        1   -1    0    0  501    0  0.00000000000E+00  0.00000000000E+00  0.19460160363E+04  0.19460160363E+04  0.50400001928E-02 0. -1.
       -1   -1    0    0    0  501  0.00000000000E+00  0.00000000000E+00 -0.11185387611E+04  0.11185387611E+04  0.50400001928E-02 0.  1.
    10030    2    1    2    0    0  0.00000000000E+00  0.00000000000E+00  0.82747727522E+03  0.30645547974E+04  0.29507249050E+04 0.  0.
        4    1    3    3  502    0 -0.34265746583E+03 -0.77314917441E+03 -0.84183126682E+03  0.11932540716E+04  0.12699999809E+01 0.  1.
       -4    1    3    3    0  502  0.34265746583E+03  0.77314917441E+03  0.16693085420E+04  0.18713007257E+04  0.12699999809E+01 0. -1.
</event>
<event>
 5   0  0.6612533E-06  0.2903658E+04  0.7818609E-02  0.8271790E-01
       -2   -1    0    0    0  501  0.00000000000E+00  0.00000000000E+00  0.11759348739E+04  0.11759348739E+04  0.25500000920E-02 0. -1.
        2   -1    0    0  501    0  0.00000000000E+00  0.00000000000E+00 -0.17924527046E+04  0.17924527046E+04  0.25500000920E-02 0.  1.
    10030    2    1    2    0    0  0.00000000000E+00  0.00000000000E+00 -0.61651783078E+03  0.29683875785E+04  0.29036581377E+04 0.  0.
        3    1    3    3  502    0  0.12813197993E+04 -0.45740706789E+03  0.20979825540E+03  0.13765961543E+04  0.10100000352E+00 0. -1.
       -3    1    3    3    0  502 -0.12813197993E+04  0.45740706789E+03 -0.82631608617E+03  0.15917914242E+04  0.10100000352E+00 0.  1.
</event>
<event>
 5   0  0.2429358E-06  0.2886598E+04  0.7818609E-02  0.8276876E-01
       -1   -1    0    0    0  501  0.00000000000E+00  0.00000000000E+00  0.11893923462E+04  0.11893923462E+04  0.50400001928E-02 0.  1.
        1   -1    0    0  501    0  0.00000000000E+00  0.00000000000E+00 -0.17514082303E+04  0.17514082303E+04  0.50400001928E-02 0. -1.
    10030    2    1    2    0    0  0.00000000000E+00  0.00000000000E+00 -0.56201588409E+03  0.29408005765E+04  0.28865976819E+04 0.  0.
        2    1    3    3  502    0  0.19662999459E+03 -0.95505143019E+02  0.11724297169E+04  0.11926340714E+04  0.25500000920E-02 0.  1.
       -2    1    3    3    0  502 -0.19662999459E+03  0.95505143019E+02 -0.17344456010E+04  0.17481665052E+04  0.25500000920E-02 0. -1.
</event>
<event>
 5   0  0.6612533E-06  0.2879068E+04  0.7818609E-02  0.8279133E-01
       -2   -1    0    0    0  501  0.00000000000E+00  0.00000000000E+00  0.86741429559E+03  0.86741429559E+03  0.25500000920E-02 0.  1.
        2   -1    0    0  501    0  0.00000000000E+00  0.00000000000E+00 -0.23890058729E+04  0.23890058729E+04  0.25500000920E-02 0. -1.
    10030    2    1    2    0    0  0.00000000000E+00  0.00000000000E+00 -0.15215915774E+04  0.32564201685E+04  0.28790677980E+04 0.  0.
        3    1    3    3  502    0 -0.19637704157E+03  0.18092688276E+00  0.85219294020E+03  0.87452661064E+03  0.10100000352E+00 0.  1.
       -3    1    3    3    0  502  0.19637704157E+03 -0.18092688276E+00 -0.23737845175E+04  0.23818935579E+04  0.10100000352E+00 0. -1.
</event>
<event>
 5   0  0.2348684E-06  0.2863294E+04  0.7818609E-02  0.8283883E-01
       -1   -1    0    0    0  501  0.00000000000E+00  0.00000000000E+00  0.11894153402E+04  0.11894153402E+04  0.50400001928E-02 0.  1.
        1   -1    0    0  501    0  0.00000000000E+00  0.00000000000E+00 -0.17232104895E+04  0.17232104895E+04  0.50400001928E-02 0. -1.
    10030    2    1    2    0    0  0.00000000000E+00  0.00000000000E+00 -0.53379514924E+03  0.29126258297E+04  0.28632939009E+04 0.  0.
        5    1    3    3  502    0  0.34412003198E+02 -0.87246176381E+03  0.88720572605E+03  0.12448011109E+04  0.46999998093E+01 0.  1.
       -5    1    3    3    0  502 -0.34412003198E+02  0.87246176381E+03 -0.14210008753E+04  0.16678247189E+04  0.46999998093E+01 0. -1.
</event>
<event>
 5   0  0.6612533E-06  0.2854930E+04  0.7818609E-02  0.8286415E-01
       -2   -1    0    0    0  501  0.00000000000E+00  0.00000000000E+00  0.10687283099E+04  0.10687283100E+04  0.25500000920E-02 0. -1.
        2   -1    0    0  501    0  0.00000000000E+00  0.00000000000E+00 -0.19066178762E+04  0.19066178762E+04  0.25500000920E-02 0.  1.
    10030    2    1    2    0    0  0.00000000000E+00  0.00000000000E+00 -0.83788956623E+03  0.29753461861E+04  0.28549301221E+04 0.  0.
        3    1    3    3  502    0  0.22137873126E+03 -0.45632532453E+03  0.97165661306E+03  0.10960647464E+04  0.10100000352E+00 0. -1.
       -3    1    3    3    0  502 -0.22137873126E+03  0.45632532453E+03 -0.18095461793E+04  0.18792814397E+04  0.10100000352E+00 0.  1.
</event>
<event>
 5   0  0.2508094E-06  0.2940099E+04  0.7818609E-02  0.8261046E-01
       -1   -1    0    0    0  501  0.00000000000E+00  0.00000000000E+00  0.99739777945E+03  0.99739777947E+03  0.50400001928E-02 0.  1.
        1   -1    0    0  501    0  0.00000000000E+00  0.00000000000E+00 -0.21666836640E+04  0.21666836640E+04  0.50400001928E-02 0. -1.
    10030    2    1    2    0    0  0.00000000000E+00  0.00000000000E+00 -0.11692858845E+04  0.31640814434E+04  0.29400989611E+04 0.  0.
        3    1    3    3  502    0  0.13161374416E+04  0.39252586551E+03 -0.11487421119E+04  0.17905034962E+04  0.10100000352E+00 0.  1.
       -3    1    3    3    0  502 -0.13161374416E+04 -0.39252586551E+03 -0.20543772587E+02  0.13735779472E+04  0.10100000352E+00 0. -1.
</event>
<event>
 5   0  0.2348684E-06  0.2869673E+04  0.7818609E-02  0.8281958E-01
        1   -1    0    0  501    0  0.00000000000E+00  0.00000000000E+00  0.19677292764E+04  0.19677292764E+04  0.50400001928E-02 0.  1.
       -1   -1    0    0    0  501  0.00000000000E+00  0.00000000000E+00 -0.10462596938E+04  0.10462596938E+04  0.50400001928E-02 0. -1.
    10030    2    1    2    0    0  0.00000000000E+00  0.00000000000E+00  0.92146958262E+03  0.30139889702E+04  0.28696730337E+04 0.  0.
        5    1    3    3  502    0 -0.60514762682E+03 -0.12492458497E+04  0.84220107913E+03  0.16236205194E+04  0.46999998093E+01 0.  1.
       -5    1    3    3    0  502  0.60514762682E+03  0.12492458497E+04  0.79268503484E+02  0.13903684508E+04  0.46999998093E+01 0. -1.
</event>
<event>
 5   0  0.6733688E-06  0.2878250E+04  0.7818609E-02  0.8279378E-01
       -2   -1    0    0    0  501  0.00000000000E+00  0.00000000000E+00  0.81854320362E+03  0.81854320363E+03  0.25500000920E-02 0. -1.
        2   -1    0    0  501    0  0.00000000000E+00  0.00000000000E+00 -0.25302040820E+04  0.25302040820E+04  0.25500000920E-02 0.  1.
    10030    2    1    2    0    0  0.00000000000E+00  0.00000000000E+00 -0.17116608783E+04  0.33487472856E+04  0.28782504096E+04 0.  0.
        5    1    3    3  502    0  0.86902392877E+03  0.67711338851E+03 -0.19331362154E+04  0.22250219879E+04  0.46999998093E+01 0.  1.
       -5    1    3    3    0  502 -0.86902392877E+03 -0.67711338851E+03  0.22147533702E+03  0.11237252977E+04  0.46999998093E+01 0. -1.
</event>
<event>
 5   0  0.2508094E-06  0.2810990E+04  0.7818609E-02  0.8299865E-01
        1   -1    0    0  501    0  0.00000000000E+00  0.00000000000E+00  0.13631159014E+04  0.13631159014E+04  0.50400001928E-02 0. -1.
       -1   -1    0    0    0  501  0.00000000000E+00  0.00000000000E+00 -0.14491914688E+04  0.14491914688E+04  0.50400001928E-02 0.  1.
    10030    2    1    2    0    0  0.00000000000E+00  0.00000000000E+00 -0.86075567446E+02  0.28123073702E+04  0.28109898152E+04 0.  0.
        3    1    3    3  502    0  0.90673963401E+03 -0.10569692463E+04  0.14693321572E+03  0.14003392916E+04  0.10100000352E+00 0. -1.
       -3    1    3    3    0  502 -0.90673963401E+03  0.10569692463E+04 -0.23300878316E+03  0.14119680786E+04  0.10100000352E+00 0.  1.
</event>
<event>
 5   0  0.2429358E-06  0.2904851E+04  0.7818609E-02  0.8271436E-01
       -1   -1    0    0    0  501  0.00000000000E+00  0.00000000000E+00  0.19074719022E+04  0.19074719022E+04  0.50400001928E-02 0. -1.
        1   -1    0    0  501    0  0.00000000000E+00  0.00000000000E+00 -0.11059351406E+04  0.11059351406E+04  0.50400001928E-02 0.  1.
    10030    2    1    2    0    0  0.00000000000E+00  0.00000000000E+00  0.80153676160E+03  0.30134070429E+04  0.29048512571E+04 0.  0.
        2    1    3    3  502    0  0.12066632666E+04 -0.70650481152E+03  0.80833080472E+03  0.16151111347E+04  0.25500000920E-02 0. -1.
       -2    1    3    3    0  502 -0.12066632666E+04  0.70650481152E+03 -0.67940431109E+01  0.13982959081E+04  0.25500000920E-02 0.  1.
</event>
<event>
 5   0  0.6615403E-06  0.2911697E+04  0.7818609E-02  0.8269406E-01
        2   -1    0    0  501    0  0.00000000000E+00  0.00000000000E+00  0.16114551589E+04  0.16114551589E+04  0.25500000920E-02 0. -1.
       -2   -1    0    0    0  501  0.00000000000E+00  0.00000000000E+00 -0.13152675324E+04  0.13152675324E+04  0.25500000920E-02 0.  1.
    10030    2    1    2    0    0  0.00000000000E+00  0.00000000000E+00  0.29618762643E+03  0.29267226913E+04  0.29116968595E+04 0.  0.
        2    1    3    3  502    0  0.25222756614E+03 -0.12862912038E+04 -0.48868218603E+03  0.13989188987E+04  0.25500000920E-02 0.  1.
       -2    1    3    3    0  502 -0.25222756614E+03  0.12862912038E+04  0.78486981246E+03  0.15278037926E+04  0.25500000920E-02 0. -1.
</event>
<event>
 5   0  0.6615403E-06  0.2885507E+04  0.7818609E-02  0.8277203E-01
        2   -1    0    0  501    0  0.00000000000E+00  0.00000000000E+00  0.25604618065E+04  0.25604618065E+04  0.25500000920E-02 0. -1.
       -2   -1    0    0    0  501  0.00000000000E+00  0.00000000000E+00 -0.81295421982E+03  0.81295421982E+03  0.25500000920E-02 0.  1.
    10030    2    1    2    0    0  0.00000000000E+00  0.00000000000E+00  0.17475075867E+04  0.33734160264E+04  0.28855073941E+04 0.  0.
        2    1    3    3  502    0  0.83369323192E+03  0.67171860684E+03 -0.25687587964E+03  0.11010156717E+04  0.25500000920E-02 0.  1.
       -2    1    3    3    0  502 -0.83369323192E+03 -0.67171860684E+03  0.20043834664E+04  0.22724003547E+04  0.25500000920E-02 0. -1.
</event>
<event>
 5   0  0.6393633E-06  0.2930484E+04  0.7818609E-02  0.8263865E-01
       -2   -1    0    0    0  501  0.00000000000E+00  0.00000000000E+00  0.11844276576E+04  0.11844276576E+04  0.25500000920E-02 0. -1.
        2   -1    0    0  501    0  0.00000000000E+00  0.00000000000E+00 -0.18126345458E+04  0.18126345458E+04  0.25500000920E-02 0.  1.
    10030    2    1    2    0    0  0.00000000000E+00  0.00000000000E+00 -0.62820688825E+03  0.29970622034E+04  0.29304842529E+04 0.  0.
        4    1    3    3  502    0 -0.19539653719E+03  0.47221780664E+03 -0.17185330222E+04  0.17929101553E+04  0.12699999809E+01 0.  1.
       -4    1    3    3    0  502  0.19539653719E+03 -0.47221780664E+03  0.10903261340E+04  0.12041520481E+04  0.12699999809E+01 0. -1.
</event>
<event>
 5   0  0.6513041E-06  0.2912949E+04  0.7818609E-02  0.8269035E-01
        2   -1    0    0  501    0  0.00000000000E+00  0.00000000000E+00  0.20578632688E+04  0.20578632689E+04  0.25500000920E-02 0. -1.
       -2   -1    0    0    0  501  0.00000000000E+00  0.00000000000E+00 -0.10308351937E+04  0.10308351937E+04  0.25500000920E-02 0.  1.
    10030    2    1    2    0    0  0.00000000000E+00  0.00000000000E+00  0.10270280751E+04  0.30886984626E+04  0.29129489398E+04 0.  0.
        1    1    3    3  502    0  0.14034884961E+04  0.36096755393E+03  0.35898024890E+03  0.14929649536E+04  0.50400001928E-02 0.  1.
       -1    1    3    3    0  502 -0.14034884961E+04 -0.36096755393E+03  0.66804782622E+03  0.15957335090E+04  0.50400001928E-02 0. -1.
</event>
<event>
 5   0  0.2429358E-06  0.2916454E+04  0.7818609E-02  0.8267999E-01
       -1   -1    0    0    0  501  0.00000000000E+00  0.00000000000E+00  0.12509594011E+04  0.12509594011E+04  0.50400001928E-02 0.  1.
        1   -1    0    0  501    0  0.00000000000E+00  0.00000000000E+00 -0.16998361037E+04  0.16998361037E+04  0.50400001928E-02 0. -1.
    10030    2    1    2    0    0  0.00000000000E+00  0.00000000000E+00 -0.44887670257E+03  0.29507955048E+04  0.29164539799E+04 0.  0.
        2    1    3    3  502    0 -0.98931693437E+03 -0.49872690845E+03  0.73485540015E+03  0.13294694374E+04  0.25500000920E-02 0.  1.
       -2    1    3    3    0  502  0.98931693437E+03  0.49872690845E+03 -0.11837321027E+04  0.16213260674E+04  0.25500000920E-02 0. -1.
</event>
<event>
 5   0  0.6393633E-06  0.2885458E+04  0.7818609E-02  0.8277217E-01
        2   -1    0    0  501    0  0.00000000000E+00  0.00000000000E+00  0.21436573418E+04  0.21436573418E+04  0.25500000920E-02 0.  1.
       -2   -1    0    0    0  501  0.00000000000E+00  0.00000000000E+00 -0.97098842731E+03  0.97098842731E+03  0.25500000920E-02 0. -1.
    10030    2    1    2    0    0  0.00000000000E+00  0.00000000000E+00  0.11726689145E+04  0.31146457691E+04  0.28854576559E+04 0.  0.
        4    1    3    3  502    0 -0.24161453332E+03  0.10286734462E+04 -0.47399104885E+03  0.11581087034E+04  0.12699999809E+01 0. -1.
       -4    1    3    3    0  502  0.24161453332E+03 -0.10286734462E+04  0.16466599633E+04  0.19565370657E+04  0.12699999809E+01 0.  1.
</event>
<event>
 5   0  0.6612533E-06  0.3084944E+04  0.7818609E-02  0.8219882E-01
        2   -1    0    0  501    0  0.00000000000E+00  0.00000000000E+00  0.20417242350E+04  0.20417242350E+04  0.25500000920E-02 0.  1.
       -2   -1    0    0    0  501  0.00000000000E+00  0.00000000000E+00 -0.11652995283E+04  0.11652995283E+04  0.25500000920E-02 0. -1.
    10030    2    1    2    0    0  0.00000000000E+00  0.00000000000E+00  0.87642470673E+03  0.32070237633E+04  0.30849442705E+04 0.  0.
        3    1    3    3  502    0  0.70447996753E+03 -0.12612789025E+04  0.10000663131E+04  0.17570569528E+04  0.10100000352E+00 0. -1.
       -3    1    3    3    0  502 -0.70447996753E+03  0.12612789025E+04 -0.12364160639E+03  0.14499668105E+04  0.10100000352E+00 0.  1.
</event>
<event>
 5   0  0.2508094E-06  0.2857473E+04  0.7818609E-02  0.8285644E-01
        1   -1    0    0  501    0  0.00000000000E+00  0.00000000000E+00  0.22549085806E+04  0.22549085806E+04  0.50400001928E-02 0.  1.
       -1   -1    0    0    0  501  0.00000000000E+00  0.00000000000E+00 -0.90526390790E+03  0.90526390791E+03  0.50400001928E-02 0. -1.
    10030    2    1    2    0    0  0.00000000000E+00  0.00000000000E+00  0.13496446727E+04  0.31601724885E+04  0.28574725571E+04 0.  0.
        3    1    3    3  502    0  0.29137267506E+03  0.41477580420E+03 -0.80247795584E+03  0.94916167397E+03  0.10100000352E+00 0. -1.
       -3    1    3    3    0  502 -0.29137267506E+03 -0.41477580420E+03  0.21521226285E+04  0.22110108145E+04  0.10100000352E+00 0.  1.
</event>
<event>
 5   0  0.6733688E-06  0.2853764E+04  0.7818609E-02  0.8286768E-01
       -2   -1    0    0    0  501  0.00000000000E+00  0.00000000000E+00  0.22358606062E+04  0.22358606062E+04  0.25500000920E-02 0. -1.
        2   -1    0    0  501    0  0.00000000000E+00  0.00000000000E+00 -0.91060811903E+03  0.91060811904E+03  0.25500000920E-02 0.  1.
    10030    2    1    2    0    0  0.00000000000E+00  0.00000000000E+00  0.13252524872E+04  0.31464687253E+04  0.28537644059E+04 0.  0.
        5    1    3    3  502    0 -0.10334768586E+04  0.96703386310E+03  0.46311989484E+03  0.14892048337E+04  0.46999998093E+01 0. -1.
       -5    1    3    3    0  502  0.10334768586E+04 -0.96703386310E+03  0.86213259235E+03  0.16572638916E+04  0.46999998093E+01 0.  1.
</event>
<event>
 5   0  0.2336512E-06  0.2774696E+04  0.7818609E-02  0.8311168E-01
       -1   -1    0    0    0  501  0.00000000000E+00  0.00000000000E+00  0.17687549647E+04  0.17687549647E+04  0.50400001928E-02 0.  1.
        1   -1    0    0  501    0  0.00000000000E+00  0.00000000000E+00 -0.10881858522E+04  0.10881858523E+04  0.50400001928E-02 0. -1.
    10030    2    1    2    0    0  0.00000000000E+00  0.00000000000E+00  0.68056911244E+03  0.28569408170E+04  0.27746957517E+04 0.  0.
        4    1    3    3  502    0  0.12008046879E+04  0.18729915526E+03 -0.34866741857E+03  0.12643510010E+04  0.12699999809E+01 0. -1.
       -4    1    3    3    0  502 -0.12008046879E+04 -0.18729915526E+03  0.10292365310E+04  0.15925898159E+04  0.12699999809E+01 0.  1.
</event>
<event>
 5   0  0.6513041E-06  0.2903910E+04  0.7818609E-02  0.8271715E-01
       -2   -1    0    0    0  501  0.00000000000E+00  0.00000000000E+00  0.11825949509E+04  0.11825949509E+04  0.25500000920E-02 0.  1.
        2   -1    0    0  501    0  0.00000000000E+00  0.00000000000E+00 -0.17826673932E+04  0.17826673932E+04  0.25500000920E-02 0. -1.
    10030    2    1    2    0    0  0.00000000000E+00  0.00000000000E+00 -0.60007244230E+03  0.29652623440E+04  0.29039100938E+04 0.  0.
        1    1    3    3  502    0 -0.13233888176E+03 -0.14223686757E+04 -0.56538642209E+03  0.15363294033E+04  0.50400001928E-02 0. -1.
       -1    1    3    3    0  502  0.13233888176E+03  0.14223686757E+04 -0.34686020201E+02  0.14289329407E+04  0.50400001928E-02 0.  1.
</event>
<event>
 5   0  0.6615403E-06  0.2917388E+04  0.7818609E-02  0.8267723E-01
       -2   -1    0    0    0  501  0.00000000000E+00  0.00000000000E+00  0.13842021841E+04  0.13842021841E+04  0.25500000920E-02 0. -1.
        2   -1    0    0  501    0  0.00000000000E+00  0.00000000000E+00 -0.15371950973E+04  0.15371950973E+04  0.25500000920E-02 0.  1.
    10030    2    1    2    0    0  0.00000000000E+00  0.00000000000E+00 -0.15299291326E+03  0.29213972814E+04  0.29173884287E+04 0.  0.
        2    1    3    3  502    0 -0.11909365875E+03 -0.56961801846E+02  0.13782078581E+04  0.13845161055E+04  0.25500000920E-02 0. -1.
       -2    1    3    3    0  502  0.11909365875E+03  0.56961801846E+02 -0.15312007713E+04  0.15368811758E+04  0.25500000920E-02 0.  1.
</event>
<event>
 5   0  0.2348684E-06  0.2553428E+04  0.7818609E-02  0.8384195E-01
        1   -1    0    0  501    0  0.00000000000E+00  0.00000000000E+00  0.21910145660E+04  0.21910145660E+04  0.50400001928E-02 0.  1.
       -1   -1    0    0    0  501  0.00000000000E+00  0.00000000000E+00 -0.74394713508E+03  0.74394713509E+03  0.50400001928E-02 0. -1.
    10030    2    1    2    0    0  0.00000000000E+00  0.00000000000E+00  0.14470674310E+04  0.29349617011E+04  0.25534282910E+04 0.  0.
        5    1    3    3  502    0 -0.96095061442E+03 -0.59046823826E+03  0.35897935672E+02  0.11284456458E+04  0.46999998093E+01 0. -1.
       -5    1    3    3    0  502  0.96095061442E+03  0.59046823826E+03  0.14111694953E+04  0.18065160553E+04  0.46999998093E+01 0.  1.
</event>
<event>
 5   0  0.6393633E-06  0.2925070E+04  0.7818609E-02  0.8265457E-01
        2   -1    0    0  501    0  0.00000000000E+00  0.00000000000E+00  0.21928392517E+04  0.21928392517E+04  0.25500000920E-02 0.  1.
       -2   -1    0    0    0  501  0.00000000000E+00  0.00000000000E+00 -0.97545157589E+03  0.97545157589E+03  0.25500000920E-02 0. -1.
    10030    2    1    2    0    0  0.00000000000E+00  0.00000000000E+00  0.12173876758E+04  0.31682908276E+04  0.29250699163E+04 0.  0.
        4    1    3    3  502    0  0.10435858084E+04  0.35046265569E+03  0.16516228957E+04  0.19848816627E+04  0.12699999809E+01 0.  1.
       -4    1    3    3    0  502 -0.10435858084E+04 -0.35046265569E+03 -0.43423521987E+03  0.11834091649E+04  0.12699999809E+01 0. -1.
</event>
<event>
 5   0  0.6733688E-06  0.2874806E+04  0.7818609E-02  0.8280413E-01
       -2   -1    0    0    0  501  0.00000000000E+00  0.00000000000E+00  0.12781020840E+04  0.12781020840E+04  0.25500000920E-02 0. -1.
        2   -1    0    0  501    0  0.00000000000E+00  0.00000000000E+00 -0.16165590408E+04  0.16165590409E+04  0.25500000920E-02 0.  1.
    10030    2    1    2    0    0  0.00000000000E+00  0.00000000000E+00 -0.33845695689E+03  0.28946611248E+04  0.28748060658E+04 0.  0.
        5    1    3    3  502    0  0.84673144966E+03  0.11722463846E+03  0.99435200199E+03  0.13112794353E+04  0.46999998093E+01 0. -1.
       -5    1    3    3    0  502 -0.84673144966E+03 -0.11722463846E+03 -0.13328089589E+04  0.15833816895E+04  0.46999998093E+01 0.  1.
</event>
<event>
 5   0  0.2336512E-06  0.2836126E+04  0.7818609E-02  0.8292140E-01
       -1   -1    0    0    0  501  0.00000000000E+00  0.00000000000E+00  0.11681497936E+04  0.11681497936E+04  0.50400001928E-02 0. -1.
        1   -1    0    0  501    0  0.00000000000E+00  0.00000000000E+00 -0.17214422884E+04  0.17214422884E+04  0.50400001928E-02 0.  1.
    10030    2    1    2    0    0  0.00000000000E+00  0.00000000000E+00 -0.55329249475E+03  0.28895920820E+04  0.28361258462E+04 0.  0.
        4    1    3    3  502    0 -0.11076272370E+04 -0.87335092338E+03 -0.42541574745E+03  0.14732820852E+04  0.12699999809E+01 0. -1.
       -4    1    3    3    0  502  0.11076272370E+04  0.87335092338E+03 -0.12787674730E+03  0.14163099968E+04  0.12699999809E+01 0.  1.
</event>
<event>
 5   0  0.6612533E-06  0.2910274E+04  0.7818609E-02  0.8269827E-01
        2   -1    0    0  501    0  0.00000000000E+00  0.00000000000E+00  0.25183528374E+04  0.25183528374E+04  0.25500000920E-02 0. -1.
       -2   -1    0    0    0  501  0.00000000000E+00  0.00000000000E+00 -0.84079731653E+03  0.84079731653E+03  0.25500000920E-02 0.  1.
    10030    2    1    2    0    0  0.00000000000E+00  0.00000000000E+00  0.16775555209E+04  0.33591501540E+04  0.29102744254E+04 0.  0.
        3    1    3    3  502    0 -0.55545826077E+03 -0.10361872413E+04  0.18284698965E+04  0.21738261318E+04  0.10100000352E+00 0.  1.
       -3    1    3    3    0  502  0.55545826077E+03  0.10361872413E+04 -0.15091437563E+03  0.11853240222E+04  0.10100000352E+00 0. -1.
</event>
<event>
 5   0  0.2348684E-06  0.2909900E+04  0.7818609E-02  0.8269938E-01
        1   -1    0    0  501    0  0.00000000000E+00  0.00000000000E+00  0.18807691092E+04  0.18807691092E+04  0.50400001928E-02 0.  1.
       -1   -1    0    0    0  501  0.00000000000E+00  0.00000000000E+00 -0.11255391038E+04  0.11255391038E+04  0.50400001928E-02 0. -1.
    10030    2    1    2    0    0  0.00000000000E+00  0.00000000000E+00  0.75523000541E+03  0.30063082131E+04  0.29098997768E+04 0.  0.
        5    1    3    3  502    0  0.11027592676E+04  0.94053860052E+02  0.13533268488E+04  0.17482676513E+04  0.46999998093E+01 0.  1.
       -5    1    3    3    0  502 -0.11027592676E+04 -0.94053860052E+02 -0.59809684343E+03  0.12580405618E+04  0.46999998093E+01 0. -1.
</event>
<event>
 5   0  0.2508094E-06  0.2915153E+04  0.7818609E-02  0.8268383E-01
       -1   -1    0    0    0  501  0.00000000000E+00  0.00000000000E+00  0.11143246351E+04  0.11143246351E+04  0.50400001928E-02 0.  1.
        1   -1    0    0  501    0  0.00000000000E+00  0.00000000000E+00 -0.19065618096E+04  0.19065618096E+04  0.50400001928E-02 0. -1.
    10030    2    1    2    0    0  0.00000000000E+00  0.00000000000E+00 -0.79223717447E+03  0.30208864447E+04  0.29151526841E+04 0.  0.
        3    1    3    3  502    0 -0.11290533225E+03  0.36903252951E+03 -0.18526577991E+04  0.18924253097E+04  0.10100000352E+00 0. -1.
       -3    1    3    3    0  502  0.11290533225E+03 -0.36903252951E+03  0.10604206247E+04  0.11284611350E+04  0.10100000352E+00 0.  1.
</event>
<event>
 5   0  0.2508094E-06  0.2903629E+04  0.7818609E-02  0.8271798E-01
       -1   -1    0    0    0  501  0.00000000000E+00  0.00000000000E+00  0.16718273228E+04  0.16718273228E+04  0.50400001928E-02 0.  1.
        1   -1    0    0  501    0  0.00000000000E+00  0.00000000000E+00 -0.12607557296E+04  0.12607557296E+04  0.50400001928E-02 0. -1.
    10030    2    1    2    0    0  0.00000000000E+00  0.00000000000E+00  0.41107159313E+03  0.29325830524E+04  0.29036293676E+04 0.  0.
        3    1    3    3  502    0  0.21429120636E+03  0.15080520912E+03  0.16477465018E+04  0.16684518203E+04  0.10100000352E+00 0.  1.
       -3    1    3    3    0  502 -0.21429120636E+03 -0.15080520912E+03 -0.12366749086E+04  0.12641312321E+04  0.10100000352E+00 0. -1.
</event>
<event>
 5   0  0.2474769E-06  0.2906667E+04  0.7818609E-02  0.8270897E-01
       -1   -1    0    0    0  501  0.00000000000E+00  0.00000000000E+00  0.21508986491E+04  0.21508986491E+04  0.50400001928E-02 0.  1.
        1   -1    0    0  501    0  0.00000000000E+00  0.00000000000E+00 -0.98199809970E+03  0.98199809971E+03  0.50400001928E-02 0. -1.
    10030    2    1    2    0    0  0.00000000000E+00  0.00000000000E+00  0.11689005494E+04  0.31328967488E+04  0.29066670853E+04 0.  0.
        1    1    3    3  502    0 -0.33173870665E+03 -0.45146922547E+03 -0.86093047591E+03  0.10271690783E+04  0.50400001928E-02 0. -1.
       -1    1    3    3    0  502  0.33173870665E+03  0.45146922547E+03  0.20298310253E+04  0.21057276705E+04  0.50400001928E-02 0.  1.
</event>
<event>
 5   0  0.6612533E-06  0.2943185E+04  0.7818609E-02  0.8260143E-01
        2   -1    0    0  501    0  0.00000000000E+00  0.00000000000E+00  0.22835092939E+04  0.22835092939E+04  0.25500000920E-02 0. -1.
       -2   -1    0    0    0  501  0.00000000000E+00  0.00000000000E+00 -0.94835824140E+03  0.94835824140E+03  0.25500000920E-02 0.  1.
    10030    2    1    2    0    0  0.00000000000E+00  0.00000000000E+00  0.13351510525E+04  0.32318675353E+04  0.29431852529E+04 0.  0.
        3    1    3    3  502    0  0.12363262522E+04 -0.77034521163E+03  0.89699515371E+03  0.17107117416E+04  0.10100000352E+00 0. -1.
       -3    1    3    3    0  502 -0.12363262522E+04  0.77034521163E+03  0.43815589883E+03  0.15211557937E+04  0.10100000352E+00 0.  1.
</event>
<event>
 5   0  0.2159500E-06  0.2661239E+04  0.7818609E-02  0.8347692E-01
        3   -1    0    0  501    0  0.00000000000E+00  0.00000000000E+00  0.11734640908E+04  0.11734640952E+04  0.10100000352E+00 0.  1.
       -3   -1    0    0    0  501  0.00000000000E+00  0.00000000000E+00 -0.15088215751E+04  0.15088215785E+04  0.10100000352E+00 0. -1.
    10030    2    1    2    0    0  0.00000000000E+00  0.00000000000E+00 -0.33535748430E+03  0.26822856737E+04  0.26612387704E+04 0.  0.
        1    1    3    3  502    0  0.77162097045E+03  0.25193973503E+03 -0.12303775296E+04  0.14740086219E+04  0.50400001928E-02 0. -1.
       -1    1    3    3    0  502 -0.77162097045E+03 -0.25193973503E+03  0.89502004534E+03  0.12082770517E+04  0.50400001928E-02 0.  1.
</event>
<event>
 5   0  0.6612533E-06  0.2886867E+04  0.7818609E-02  0.8276796E-01
        2   -1    0    0  501    0  0.00000000000E+00  0.00000000000E+00  0.27357506466E+04  0.27357506466E+04  0.25500000920E-02 0. -1.
       -2   -1    0    0    0  501  0.00000000000E+00  0.00000000000E+00 -0.76158275049E+03  0.76158275049E+03  0.25500000920E-02 0.  1.
    10030    2    1    2    0    0  0.00000000000E+00  0.00000000000E+00  0.19741678961E+04  0.34973333971E+04  0.28868671615E+04 0.  0.
        3    1    3    3  502    0 -0.68505051402E+03 -0.12700832085E+04  0.10271709085E+04  0.17712949073E+04  0.10100000352E+00 0.  1.
       -3    1    3    3    0  502  0.68505051402E+03  0.12700832085E+04  0.94699698764E+03  0.17260384898E+04  0.10100000352E+00 0. -1.
</event>
<event>
 5   0  0.6733688E-06  0.2842629E+04  0.7818609E-02  0.8290155E-01
       -2   -1    0    0    0  501  0.00000000000E+00  0.00000000000E+00  0.12410120802E+04  0.12410120803E+04  0.25500000920E-02 0.  1.
        2   -1    0    0  501    0  0.00000000000E+00  0.00000000000E+00 -0.16278119328E+04  0.16278119328E+04  0.25500000920E-02 0. -1.
    10030    2    1    2    0    0  0.00000000000E+00  0.00000000000E+00 -0.38679985258E+03  0.28688240131E+04  0.28426285533E+04 0.  0.
        5    1    3    3  502    0 -0.13304288538E+04  0.48698884601E+03 -0.78716872749E+02  0.14189494379E+04  0.46999998093E+01 0.  1.
       -5    1    3    3    0  502  0.13304288538E+04 -0.48698884601E+03 -0.30808297984E+03  0.14498745752E+04  0.46999998093E+01 0. -1.
</event>
<event>
 5   0  0.2336512E-06  0.2736309E+04  0.7818609E-02  0.8323319E-01
        1   -1    0    0  501    0  0.00000000000E+00  0.00000000000E+00  0.87270845000E+03  0.87270845001E+03  0.50400001928E-02 0. -1.
       -1   -1    0    0    0  501  0.00000000000E+00  0.00000000000E+00 -0.21448704473E+04  0.21448704473E+04  0.50400001928E-02 0.  1.
    10030    2    1    2    0    0  0.00000000000E+00  0.00000000000E+00 -0.12721619973E+04  0.30175788974E+04  0.27363088741E+04 0.  0.
        4    1    3    3  502    0 -0.11380426350E+04 -0.29362533961E+03  0.13625760042E+03  0.11831841047E+04  0.12699999809E+01 0. -1.
       -4    1    3    3    0  502  0.11380426350E+04  0.29362533961E+03 -0.14084195978E+04  0.18343947926E+04  0.12699999809E+01 0.  1.
</event>
<event>
 5   0  0.2336512E-06  0.2901291E+04  0.7818609E-02  0.8272494E-01
       -1   -1    0    0    0  501  0.00000000000E+00  0.00000000000E+00  0.10780929594E+04  0.10780929594E+04  0.50400001928E-02 0.  1.
        1   -1    0    0  501    0  0.00000000000E+00  0.00000000000E+00 -0.19519393382E+04  0.19519393382E+04  0.50400001928E-02 0. -1.
    10030    2    1    2    0    0  0.00000000000E+00  0.00000000000E+00 -0.87384637879E+03  0.30300322976E+04  0.29012907870E+04 0.  0.
        4    1    3    3  502    0 -0.33538790980E+03  0.91064411891E+01 -0.19108609049E+04  0.19400925205E+04  0.12699999809E+01 0. -1.
       -4    1    3    3    0  502  0.33538790980E+03 -0.91064411891E+01  0.10370145261E+04  0.10899397771E+04  0.12699999809E+01 0.  1.
</event>
<event>
 5   0  0.6615403E-06  0.2887986E+04  0.7818609E-02  0.8276461E-01
       -2   -1    0    0    0  501  0.00000000000E+00  0.00000000000E+00  0.67300793598E+03  0.67300793599E+03  0.25500000920E-02 0. -1.
        2   -1    0    0  501    0  0.00000000000E+00  0.00000000000E+00 -0.30982040555E+04  0.30982040555E+04  0.25500000920E-02 0.  1.
    10030    2    1    2    0    0  0.00000000000E+00  0.00000000000E+00 -0.24251961195E+04  0.37712119914E+04  0.28879860918E+04 0.  0.
        2    1    3    3  502    0 -0.35073335100E+03  0.38566311275E+03 -0.29710422235E+04  0.30164286522E+04  0.25500000920E-02 0.  1.
       -2    1    3    3    0  502  0.35073335100E+03 -0.38566311275E+03  0.54584610397E+03  0.75478333929E+03  0.25500000920E-02 0. -1.
</event>
<event>
 5   0  0.6612533E-06  0.2856241E+04  0.7818609E-02  0.8286017E-01
        2   -1    0    0  501    0  0.00000000000E+00  0.00000000000E+00  0.76551517787E+03  0.76551517788E+03  0.25500000920E-02 0. -1.
       -2   -1    0    0    0  501  0.00000000000E+00  0.00000000000E+00 -0.26642555359E+04  0.26642555359E+04  0.25500000920E-02 0.  1.
    10030    2    1    2    0    0  0.00000000000E+00  0.00000000000E+00 -0.18987403580E+04  0.34297707137E+04  0.28562409215E+04 0.  0.
        3    1    3    3  502    0 -0.78967947299E+03  0.11478360992E+04 -0.13260587949E+04  0.19234222933E+04  0.10100000352E+00 0.  1.
       -3    1    3    3    0  502  0.78967947299E+03 -0.11478360992E+04 -0.57268156310E+03  0.15063484204E+04  0.10100000352E+00 0. -1.
</event>
<event>
 5   0  0.2474769E-06  0.2890808E+04  0.7818609E-02  0.8275618E-01
       -1   -1    0    0    0  501  0.00000000000E+00  0.00000000000E+00  0.15343431854E+04  0.15343431854E+04  0.50400001928E-02 0. -1.
        1   -1    0    0  501    0  0.00000000000E+00  0.00000000000E+00 -0.13616204849E+04  0.13616204849E+04  0.50400001928E-02 0.  1.
    10030    2    1    2    0    0  0.00000000000E+00  0.00000000000E+00  0.17272270057E+03  0.28959636703E+04  0.28908082691E+04 0.  0.
        1    1    3    3  502    0 -0.33256955945E+03  0.77037512633E+03  0.12653683592E+04  0.15183008370E+04  0.50400001928E-02 0. -1.
       -1    1    3    3    0  502  0.33256955945E+03 -0.77037512633E+03 -0.10926456586E+04  0.13776628333E+04  0.50400001928E-02 0.  1.
</event>
<event>
 5   0  0.6733688E-06  0.3102446E+04  0.7818609E-02  0.8215067E-01
        2   -1    0    0  501    0  0.00000000000E+00  0.00000000000E+00  0.25620227697E+04  0.25620227697E+04  0.25500000920E-02 0.  1.
       -2   -1    0    0    0  501  0.00000000000E+00  0.00000000000E+00 -0.93921623781E+03  0.93921623781E+03  0.25500000920E-02 0. -1.
    10030    2    1    2    0    0  0.00000000000E+00  0.00000000000E+00  0.16228065319E+04  0.35012390075E+04  0.31024463811E+04 0.  0.
        5    1    3    3  502    0  0.10190672591E+04  0.33457844488E+03 -0.45328352948E+03  0.11644435849E+04  0.46999998093E+01 0. -1.
       -5    1    3    3    0  502 -0.10190672591E+04 -0.33457844488E+03  0.20760900614E+04  0.23367954226E+04  0.46999998093E+01 0.  1.
</event>
<event>
 5   0  0.2336512E-06  0.2893452E+04  0.7818609E-02  0.8274828E-01
        1   -1    0    0  501    0  0.00000000000E+00  0.00000000000E+00  0.21488778672E+04  0.21488778672E+04  0.50400001928E-02 0.  1.
       -1   -1    0    0    0  501  0.00000000000E+00  0.00000000000E+00 -0.97400394964E+03  0.97400394966E+03  0.50400001928E-02 0. -1.
    10030    2    1    2    0    0  0.00000000000E+00  0.00000000000E+00  0.11748739176E+04  0.31228818169E+04  0.28934515928E+04 0.  0.
        4    1    3    3  502    0  0.60986910350E+03  0.10329686362E+04 -0.28542305873E+03  0.12330581747E+04  0.12699999809E+01 0. -1.
       -4    1    3    3    0  502 -0.60986910350E+03 -0.10329686362E+04  0.14602969763E+04  0.18898236422E+04  0.12699999809E+01 0.  1.
</event>
<event>
 5   0  0.2348684E-06  0.2910783E+04  0.7818609E-02  0.8269676E-01
       -1   -1    0    0    0  501  0.00000000000E+00  0.00000000000E+00  0.14270135679E+04  0.14270135679E+04  0.50400001928E-02 0.  1.
        1   -1    0    0  501    0  0.00000000000E+00  0.00000000000E+00 -0.14843341414E+04  0.14843341414E+04  0.50400001928E-02 0. -1.
    10030    2    1    2    0    0  0.00000000000E+00  0.00000000000E+00 -0.57320573514E+02  0.29113477094E+04  0.29107833717E+04 0.  0.
        5    1    3    3  502    0 -0.20806222068E+03  0.13856501417E+04  0.36489619865E+03  0.14479252497E+04  0.46999998093E+01 0.  1.
       -5    1    3    3    0  502  0.20806222068E+03 -0.13856501417E+04 -0.42221677216E+03  0.14634224597E+04  0.46999998093E+01 0. -1.
</event>
<event>
 5   0  0.6615403E-06  0.2922438E+04  0.7818609E-02  0.8266233E-01
        2   -1    0    0  501    0  0.00000000000E+00  0.00000000000E+00  0.17522942025E+04  0.17522942025E+04  0.25500000920E-02 0. -1.
       -2   -1    0    0    0  501  0.00000000000E+00  0.00000000000E+00 -0.12184945696E+04  0.12184945696E+04  0.25500000920E-02 0.  1.
    10030    2    1    2    0    0  0.00000000000E+00  0.00000000000E+00  0.53379963288E+03  0.29707887721E+04  0.29224380028E+04 0.  0.
        2    1    3    3  502    0 -0.14100728145E+04 -0.33339604476E+03  0.45897755277E+03  0.15199074508E+04  0.25500000920E-02 0. -1.
       -2    1    3    3    0  502  0.14100728145E+04  0.33339604476E+03  0.74822080113E+02  0.14508813213E+04  0.25500000920E-02 0.  1.
</event>
<event>
 5   0  0.2474769E-06  0.2896375E+04  0.7818609E-02  0.8273957E-01
        1   -1    0    0  501    0  0.00000000000E+00  0.00000000000E+00  0.21209693741E+04  0.21209693741E+04  0.50400001928E-02 0. -1.
       -1   -1    0    0    0  501  0.00000000000E+00  0.00000000000E+00 -0.98881555845E+03  0.98881555846E+03  0.50400001928E-02 0.  1.
    10030    2    1    2    0    0  0.00000000000E+00  0.00000000000E+00  0.11321538156E+04  0.31097849326E+04  0.28963753321E+04 0.  0.
        1    1    3    3  502    0 -0.61200606049E+03 -0.35446400635E+03  0.19229366503E+04  0.20488732296E+04  0.50400001928E-02 0. -1.
       -1    1    3    3    0  502  0.61200606049E+03  0.35446400635E+03 -0.79078283465E+03  0.10609117030E+04  0.50400001928E-02 0.  1.
</event>
<event>
 5   0  0.2429358E-06  0.2945856E+04  0.7818609E-02  0.8259363E-01
        1   -1    0    0  501    0  0.00000000000E+00  0.00000000000E+00  0.23389445177E+04  0.23389445177E+04  0.50400001928E-02 0.  1.
       -1   -1    0    0    0  501  0.00000000000E+00  0.00000000000E+00 -0.92756244144E+03  0.92756244145E+03  0.50400001928E-02 0. -1.
    10030    2    1    2    0    0  0.00000000000E+00  0.00000000000E+00  0.14113820762E+04  0.32665069591E+04  0.29458561317E+04 0.  0.
        2    1    3    3  502    0 -0.13009968301E+04  0.44583559669E+03  0.12905019342E+04  0.18859367363E+04  0.25500000920E-02 0.  1.
       -2    1    3    3    0  502  0.13009968301E+04 -0.44583559669E+03  0.12088014204E+03  0.13805702228E+04  0.25500000920E-02 0. -1.
</event>
<event>
 5   0  0.6733688E-06  0.3108454E+04  0.7818609E-02  0.8213422E-01
        2   -1    0    0  501    0  0.00000000000E+00  0.00000000000E+00  0.14364528357E+04  0.14364528357E+04  0.25500000920E-02 0.  1.
       -2   -1    0    0    0  501  0.00000000000E+00  0.00000000000E+00 -0.16816569146E+04  0.16816569146E+04  0.25500000920E-02 0. -1.
    10030    2    1    2    0    0  0.00000000000E+00  0.00000000000E+00 -0.24520407890E+03  0.31181097502E+04  0.31084535342E+04 0.  0.
        5    1    3    3  502    0 -0.55565094387E+02 -0.12874970970E+03 -0.16752911742E+04  0.16811563211E+04  0.46999998093E+01 0. -1.
       -5    1    3    3    0  502  0.55565094387E+02  0.12874970970E+03  0.14300870953E+04  0.14369534292E+04  0.46999998093E+01 0.  1.
</event>
<event>
 5   0  0.6393633E-06  0.2883451E+04  0.7818609E-02  0.8277818E-01
        2   -1    0    0  501    0  0.00000000000E+00  0.00000000000E+00  0.14329670825E+04  0.14329670825E+04  0.25500000920E-02 0. -1.
       -2   -1    0    0    0  501  0.00000000000E+00  0.00000000000E+00 -0.14505372695E+04  0.14505372695E+04  0.25500000920E-02 0.  1.
    10030    2    1    2    0    0  0.00000000000E+00  0.00000000000E+00 -0.17570187092E+02  0.28835043520E+04  0.28834508209E+04 0.  0.
        4    1    3    3  502    0 -0.73920241770E+02  0.69708138905E+03 -0.12686433450E+04  0.14494289271E+04  0.12699999809E+01 0.  1.
       -4    1    3    3    0  502  0.73920241770E+02 -0.69708138905E+03  0.12510731579E+04  0.14340754249E+04  0.12699999809E+01 0. -1.
</event>
<event>
 5   0  0.2429358E-06  0.2880550E+04  0.7818609E-02  0.8278688E-01
        1   -1    0    0  501    0  0.00000000000E+00  0.00000000000E+00  0.19712694457E+04  0.19712694457E+04  0.50400001928E-02 0.  1.
       -1   -1    0    0    0  501  0.00000000000E+00  0.00000000000E+00 -0.10523125515E+04  0.10523125515E+04  0.50400001928E-02 0. -1.
    10030    2    1    2    0    0  0.00000000000E+00  0.00000000000E+00  0.91895689426E+03  0.30235819972E+04  0.28805496559E+04 0.  0.
        2    1    3    3  502    0 -0.39351260162E+03 -0.12973805355E+04  0.96976943960E+03  0.16668836755E+04  0.25500000920E-02 0.  1.
       -2    1    3    3    0  502  0.39351260162E+03  0.12973805355E+04 -0.50812545344E+02  0.13566983218E+04  0.25500000920E-02 0. -1.
</event>
<event>
 5   0  0.2508094E-06  0.2881688E+04  0.7818609E-02  0.8278347E-01
       -1   -1    0    0    0  501  0.00000000000E+00  0.00000000000E+00  0.10587773031E+04  0.10587773031E+04  0.50400001928E-02 0. -1.
        1   -1    0    0  501    0  0.00000000000E+00  0.00000000000E+00 -0.19607816027E+04  0.19607816027E+04  0.50400001928E-02 0.  1.
    10030    2    1    2    0    0  0.00000000000E+00  0.00000000000E+00 -0.90200429959E+03  0.30195589058E+04  0.28816877397E+04 0.  0.
        3    1    3    3  502    0  0.41941130557E+03 -0.10076412603E+04 -0.14366352731E+04  0.18042083224E+04  0.10100000352E+00 0.  1.
       -3    1    3    3    0  502 -0.41941130557E+03  0.10076412603E+04  0.53463097348E+03  0.12153505834E+04  0.10100000352E+00 0. -1.
</event>
<event>
 5   0  0.2429358E-06  0.2884395E+04  0.7818609E-02  0.8277535E-01
       -1   -1    0    0    0  501  0.00000000000E+00  0.00000000000E+00  0.96744125089E+03  0.96744125091E+03  0.50400001928E-02 0.  1.
        1   -1    0    0  501    0  0.00000000000E+00  0.00000000000E+00 -0.21499332667E+04  0.21499332667E+04  0.50400001928E-02 0. -1.
    10030    2    1    2    0    0  0.00000000000E+00  0.00000000000E+00 -0.11824920158E+04  0.31173745176E+04  0.28843953466E+04 0.  0.
        2    1    3    3  502    0 -0.91601787380E+01  0.12862579850E+04 -0.12961470415E+04  0.18260724701E+04  0.25500000920E-02 0.  1.
       -2    1    3    3    0  502  0.91601787380E+01 -0.12862579850E+04  0.11365502569E+03  0.12913020475E+04  0.25500000920E-02 0. -1.
</event>
<event>
 5   0  0.6612533E-06  0.2903013E+04  0.7818609E-02  0.8271982E-01
       -2   -1    0    0    0  501  0.00000000000E+00  0.00000000000E+00  0.96393156050E+03  0.96393156050E+03  0.25500000920E-02 0.  1.
        2   -1    0    0  501    0  0.00000000000E+00  0.00000000000E+00 -0.21857063362E+04  0.21857063362E+04  0.25500000920E-02 0. -1.
    10030    2    1    2    0    0  0.00000000000E+00  0.00000000000E+00 -0.12217747757E+04  0.31496378967E+04  0.29030131377E+04 0.  0.
        3    1    3    3  502    0 -0.83991173230E+03 -0.57170437285E+03 -0.17355693498E+04  0.20110938780E+04  0.10100000352E+00 0. -1.
       -3    1    3    3    0  502  0.83991173230E+03  0.57170437285E+03  0.51379457408E+03  0.11385440187E+04  0.10100000352E+00 0.  1.
</event>
<event>
 5   0  0.2159500E-06  0.2904823E+04  0.7818609E-02  0.8271444E-01
        3   -1    0    0  501    0  0.00000000000E+00  0.00000000000E+00  0.29394572337E+04  0.29394572355E+04  0.10100000352E+00 0.  1.
       -3   -1    0    0    0  501  0.00000000000E+00  0.00000000000E+00 -0.71764912577E+03  0.71764913288E+03  0.10100000352E+00 0. -1.
    10030    2    1    2    0    0  0.00000000000E+00  0.00000000000E+00  0.22218081080E+04  0.36571063683E+04  0.29048228381E+04 0.  0.
        2    1    3    3  502    0  0.71751384752E+03 -0.97735130326E+03  0.21176588235E+04  0.24401886370E+04  0.25500000920E-02 0.  1.
       -2    1    3    3    0  502 -0.71751384752E+03  0.97735130326E+03  0.10414928444E+03  0.12169177313E+04  0.25500000920E-02 0. -1.
</event>
<event>
 5   0  0.2336512E-06  0.2895468E+04  0.7818609E-02  0.8274227E-01
       -1   -1    0    0    0  501  0.00000000000E+00  0.00000000000E+00  0.13175476245E+04  0.13175476245E+04  0.50400001928E-02 0. -1.
        1   -1    0    0  501    0  0.00000000000E+00  0.00000000000E+00 -0.15907839101E+04  0.15907839101E+04  0.50400001928E-02 0.  1.
    10030    2    1    2    0    0  0.00000000000E+00  0.00000000000E+00 -0.27323628560E+03  0.29083315346E+04  0.28954678806E+04 0.  0.
        4    1    3    3  502    0 -0.27883058678E+03  0.87638693134E+03 -0.12596782284E+04  0.15596766978E+04  0.12699999809E+01 0.  1.
       -4    1    3    3    0  502  0.27883058678E+03 -0.87638693134E+03  0.98644194278E+03  0.13486548368E+04  0.12699999809E+01 0. -1.
</event>
<event>
 5   0  0.2508094E-06  0.2896008E+04  0.7818609E-02  0.8274066E-01
       -1   -1    0    0    0  501  0.00000000000E+00  0.00000000000E+00  0.14518033403E+04  0.14518033404E+04  0.50400001928E-02 0.  1.
        1   -1    0    0  501    0  0.00000000000E+00  0.00000000000E+00 -0.14442141770E+04  0.14442141770E+04  0.50400001928E-02 0. -1.
    10030    2    1    2    0    0  0.00000000000E+00  0.00000000000E+00  0.75891633197E+01  0.28960175174E+04  0.28960075735E+04 0.  0.
        3    1    3    3  502    0 -0.11471974629E+04 -0.37048081465E+03 -0.79832842739E+03  0.14459067540E+04  0.10100000352E+00 0. -1.
       -3    1    3    3    0  502  0.11471974629E+04  0.37048081465E+03  0.80591759071E+03  0.14501107634E+04  0.10100000352E+00 0.  1.
</event>
<event>
 5   0  0.6513041E-06  0.2894468E+04  0.7818609E-02  0.8274525E-01
       -2   -1    0    0    0  501  0.00000000000E+00  0.00000000000E+00  0.12672229225E+04  0.12672229225E+04  0.25500000920E-02 0. -1.
        2   -1    0    0  501    0  0.00000000000E+00  0.00000000000E+00 -0.16528162007E+04  0.16528162007E+04  0.25500000920E-02 0.  1.
    10030    2    1    2    0    0  0.00000000000E+00  0.00000000000E+00 -0.38559327819E+03  0.29200391232E+04  0.28944682249E+04 0.  0.
        1    1    3    3  502    0  0.59326210429E+03  0.78558592719E+03  0.87741519994E+03  0.13186973142E+04  0.50400001928E-02 0. -1.
       -1    1    3    3    0  502 -0.59326210429E+03 -0.78558592719E+03 -0.12630084781E+04  0.16013418090E+04  0.50400001928E-02 0.  1.
</event>
<event>
 5   0  0.2474769E-06  0.2883655E+04  0.7818609E-02  0.8277757E-01
        1   -1    0    0  501    0  0.00000000000E+00  0.00000000000E+00  0.33567628353E+04  0.33567628353E+04  0.50400001928E-02 0.  1.
       -1   -1    0    0    0  501  0.00000000000E+00  0.00000000000E+00 -0.61930689517E+03  0.61930689520E+03  0.50400001928E-02 0. -1.
    10030    2    1    2    0    0  0.00000000000E+00  0.00000000000E+00  0.27374559402E+04  0.39760697305E+04  0.28836548819E+04 0.  0.
        1    1    3    3  502    0 -0.13165453028E+04 -0.26723834330E+03  0.64677057409E+03  0.14909795579E+04  0.50400001928E-02 0.  1.
       -1    1    3    3    0  502  0.13165453028E+04  0.26723834330E+03  0.20906853661E+04  0.24850901727E+04  0.50400001928E-02 0. -1.
</event>
<event>
 5   0  0.6612533E-06  0.2749759E+04  0.7818609E-02  0.8319038E-01
       -2   -1    0    0    0  501  0.00000000000E+00  0.00000000000E+00  0.16518036980E+04  0.16518036980E+04  0.25500000920E-02 0.  1.
        2   -1    0    0  501    0  0.00000000000E+00  0.00000000000E+00 -0.11443811708E+04  0.11443811708E+04  0.25500000920E-02 0. -1.
    10030    2    1    2    0    0  0.00000000000E+00  0.00000000000E+00  0.50742252719E+03  0.27961848688E+04  0.27497585711E+04 0.  0.
        3    1    3    3  502    0  0.10438292626E+04 -0.84988234722E+03  0.53846324391E+03  0.14497662601E+04  0.10100000352E+00 0.  1.
       -3    1    3    3    0  502 -0.10438292626E+04  0.84988234722E+03 -0.31040716715E+02  0.13464186087E+04  0.10100000352E+00 0. -1.
</event>
<event>
 5   0  0.6612533E-06  0.2910306E+04  0.7818609E-02  0.8269818E-01
       -2   -1    0    0    0  501  0.00000000000E+00  0.00000000000E+00  0.86639676829E+03  0.86639676830E+03  0.25500000920E-02 0.  1.
        2   -1    0    0  501    0  0.00000000000E+00  0.00000000000E+00 -0.24439953836E+04  0.24439953836E+04  0.25500000920E-02 0. -1.
    10030    2    1    2    0    0  0.00000000000E+00  0.00000000000E+00 -0.15775986153E+04  0.33103921519E+04  0.29103056211E+04 0.  0.
        3    1    3    3  502    0 -0.12929700554E+04  0.30132789449E+03 -0.14664308565E+04  0.19781277844E+04  0.10100000352E+00 0. -1.
       -3    1    3    3    0  502  0.12929700554E+04 -0.30132789449E+03 -0.11116775877E+03  0.13322643675E+04  0.10100000352E+00 0.  1.
</event>
<event>
 5   0  0.6393633E-06  0.2907239E+04  0.7818609E-02  0.8270727E-01
        2   -1    0    0  501    0  0.00000000000E+00  0.00000000000E+00  0.97019537302E+03  0.97019537302E+03  0.25500000920E-02 0. -1.
       -2   -1    0    0    0  501  0.00000000000E+00  0.00000000000E+00 -0.21779212856E+04  0.21779212856E+04  0.25500000920E-02 0.  1.
    10030    2    1    2    0    0  0.00000000000E+00  0.00000000000E+00 -0.12077259126E+04  0.31481166586E+04  0.29072386583E+04 0.  0.
        4    1    3    3  502    0  0.40175765321E+03 -0.38593848017E+03 -0.20577337665E+04  0.21318132162E+04  0.12699999809E+01 0.  1.
       -4    1    3    3    0  502 -0.40175765321E+03  0.38593848017E+03  0.85000785390E+03  0.10163034424E+04  0.12699999809E+01 0. -1.
</event>
<event>
 5   0  0.2508094E-06  0.2910163E+04  0.7818609E-02  0.8269860E-01
        1   -1    0    0  501    0  0.00000000000E+00  0.00000000000E+00  0.22763733067E+04  0.22763733067E+04  0.50400001928E-02 0.  1.
       -1   -1    0    0    0  501  0.00000000000E+00  0.00000000000E+00 -0.93010327376E+03  0.93010327377E+03  0.50400001928E-02 0. -1.
    10030    2    1    2    0    0  0.00000000000E+00  0.00000000000E+00  0.13462700330E+04  0.32064765805E+04  0.29101630641E+04 0.  0.
        3    1    3    3  502    0 -0.12377857889E+03 -0.84797664507E+03 -0.62255908561E+03  0.10592286592E+04  0.10100000352E+00 0.  1.
       -3    1    3    3    0  502  0.12377857889E+03  0.84797664507E+03  0.19688291186E+04  0.21472479213E+04  0.10100000352E+00 0. -1.
</event>
<event>
 5   0  0.6393633E-06  0.2912035E+04  0.7818609E-02  0.8269306E-01
        2   -1    0    0  501    0  0.00000000000E+00  0.00000000000E+00  0.76871641815E+03  0.76871641816E+03  0.25500000920E-02 0. -1.
       -2   -1    0    0    0  501  0.00000000000E+00  0.00000000000E+00 -0.27578277728E+04  0.27578277728E+04  0.25500000920E-02 0.  1.
    10030    2    1    2    0    0  0.00000000000E+00  0.00000000000E+00 -0.19891113546E+04  0.35265441909E+04  0.29120353620E+04 0.  0.
        4    1    3    3  502    0  0.40688985411E+03 -0.76706719913E+03  0.42085839505E+03  0.96492219528E+03  0.12699999809E+01 0. -1.
       -4    1    3    3    0  502 -0.40688985411E+03  0.76706719913E+03 -0.24099697496E+04  0.25616219956E+04  0.12699999809E+01 0.  1.
</event>
<event>
 5   0  0.2348684E-06  0.2909382E+04  0.7818609E-02  0.8270092E-01
       -1   -1    0    0    0  501  0.00000000000E+00  0.00000000000E+00  0.15313684827E+04  0.15313684827E+04  0.50400001928E-02 0. -1.
        1   -1    0    0  501    0  0.00000000000E+00  0.00000000000E+00 -0.13818528848E+04  0.13818528848E+04  0.50400001928E-02 0.  1.
    10030    2    1    2    0    0  0.00000000000E+00  0.00000000000E+00  0.14951559788E+03  0.29132213675E+04  0.29093820344E+04 0.  0.
        5    1    3    3  502    0  0.76922154036E+03 -0.31911437298E+03 -0.11195307481E+04  0.13953160743E+04  0.46999998093E+01 0.  1.
       -5    1    3    3    0  502 -0.76922154036E+03  0.31911437298E+03  0.12690463460E+04  0.15179052933E+04  0.46999998093E+01 0. -1.
</event>
<event>
 5   0  0.6513041E-06  0.2859598E+04  0.7818609E-02  0.8285001E-01
        2   -1    0    0  501    0  0.00000000000E+00  0.00000000000E+00  0.14560733257E+04  0.14560733257E+04  0.25500000920E-02 0. -1.
       -2   -1    0    0    0  501  0.00000000000E+00  0.00000000000E+00 -0.14039992552E+04  0.14039992552E+04  0.25500000920E-02 0.  1.
    10030    2    1    2    0    0  0.00000000000E+00  0.00000000000E+00  0.52074070543E+02  0.28600725809E+04  0.28595984787E+04 0.  0.
        1    1    3    3  502    0 -0.10155138143E+04 -0.80670284937E+03  0.62804053233E+03  0.14409971216E+04  0.50400001928E-02 0. -1.
       -1    1    3    3    0  502  0.10155138143E+04  0.80670284937E+03 -0.57596646178E+03  0.14190754593E+04  0.50400001928E-02 0.  1.
</event>
<event>
 5   0  0.2429358E-06  0.2787178E+04  0.7818609E-02  0.8307260E-01
        1   -1    0    0  501    0  0.00000000000E+00  0.00000000000E+00  0.20586329141E+04  0.20586329141E+04  0.50400001928E-02 0.  1.
       -1   -1    0    0    0  501  0.00000000000E+00  0.00000000000E+00 -0.94338809241E+03  0.94338809242E+03  0.50400001928E-02 0. -1.
    10030    2    1    2    0    0  0.00000000000E+00  0.00000000000E+00  0.11152448217E+04  0.30020210066E+04  0.27871776247E+04 0.  0.
        2    1    3    3  502    0  0.57163629806E+03  0.11993835593E+04  0.10473401747E+03  0.13327633676E+04  0.25500000920E-02 0. -1.
       -2    1    3    3    0  502 -0.57163629806E+03 -0.11993835593E+04  0.10105108043E+04  0.16692576389E+04  0.25500000920E-02 0.  1.
</event>
<event>
 5   0  0.6733688E-06  0.2891114E+04  0.7818609E-02  0.8275526E-01
       -2   -1    0    0    0  501  0.00000000000E+00  0.00000000000E+00  0.17435446007E+04  0.17435446007E+04  0.25500000920E-02 0. -1.
        2   -1    0    0  501    0  0.00000000000E+00  0.00000000000E+00 -0.11984982396E+04  0.11984982396E+04  0.25500000920E-02 0.  1.
    10030    2    1    2    0    0  0.00000000000E+00  0.00000000000E+00  0.54504636110E+03  0.29420428403E+04  0.28911140652E+04 0.  0.
        5    1    3    3  502    0  0.26969195213E+03 -0.13573345420E+04  0.69764084492E+03  0.15497792250E+04  0.46999998093E+01 0. -1.
       -5    1    3    3    0  502 -0.26969195213E+03  0.13573345420E+04 -0.15259448382E+03  0.13922636152E+04  0.46999998093E+01 0.  1.
</event>
<event>
 5   0  0.2508094E-06  0.3100721E+04  0.7818609E-02  0.8215540E-01
       -1   -1    0    0    0  501  0.00000000000E+00  0.00000000000E+00  0.12408907206E+04  0.12408907206E+04  0.50400001928E-02 0.  1.
        1   -1    0    0  501    0  0.00000000000E+00  0.00000000000E+00 -0.19370095341E+04  0.19370095341E+04  0.50400001928E-02 0. -1.
    10030    2    1    2    0    0  0.00000000000E+00  0.00000000000E+00 -0.69611881350E+03  0.31779002546E+04  0.31007206623E+04 0.  0.
        3    1    3    3  502    0  0.12424331628E+04  0.81172216256E+03 -0.80764509752E+03  0.16896223386E+04  0.10100000352E+00 0. -1.
       -3    1    3    3    0  502 -0.12424331628E+04 -0.81172216256E+03  0.11152628402E+03  0.14882779161E+04  0.10100000352E+00 0.  1.
</event>
<event>
 5   0  0.2508094E-06  0.2887355E+04  0.7818609E-02  0.8276650E-01
        1   -1    0    0  501    0  0.00000000000E+00  0.00000000000E+00  0.10231326303E+04  0.10231326303E+04  0.50400001928E-02 0. -1.
       -1   -1    0    0    0  501  0.00000000000E+00  0.00000000000E+00 -0.20370812890E+04  0.20370812890E+04  0.50400001928E-02 0.  1.
    10030    2    1    2    0    0  0.00000000000E+00  0.00000000000E+00 -0.10139486587E+04  0.30602139193E+04  0.28873547322E+04 0.  0.
        3    1    3    3  502    0  0.41283327513E+03  0.13087588351E+04 -0.31894248492E+02  0.13726974375E+04  0.10100000352E+00 0. -1.
       -3    1    3    3    0  502 -0.41283327513E+03 -0.13087588351E+04 -0.98205441020E+03  0.16875164818E+04  0.10100000352E+00 0.  1.
</event>
<event>
 5   0  0.2159500E-06  0.2870353E+04  0.7818609E-02  0.8281753E-01
        3   -1    0    0  501    0  0.00000000000E+00  0.00000000000E+00  0.28877338546E+04  0.28877338564E+04  0.10100000352E+00 0.  1.
       -3   -1    0    0    0  501  0.00000000000E+00  0.00000000000E+00 -0.71326909397E+03  0.71326910112E+03  0.10100000352E+00 0. -1.
    10030    2    1    2    0    0  0.00000000000E+00  0.00000000000E+00  0.21744647606E+04  0.36010029575E+04  0.28703528188E+04 0.  0.
        5    1    3    3  502    0  0.91917274623E+03  0.10938851652E+04  0.12566940047E+04  0.19028308394E+04  0.46999998093E+01 0.  1.
       -5    1    3    3    0  502 -0.91917274623E+03 -0.10938851652E+04  0.91777075596E+03  0.16981721181E+04  0.46999998093E+01 0. -1.
</event>
<event>
 5   0  0.2508094E-06  0.2950460E+04  0.7818609E-02  0.8258021E-01
       -1   -1    0    0    0  501  0.00000000000E+00  0.00000000000E+00  0.14315019866E+04  0.14315019866E+04  0.50400001928E-02 0. -1.
        1   -1    0    0  501    0  0.00000000000E+00  0.00000000000E+00 -0.15202936321E+04  0.15202936321E+04  0.50400001928E-02 0.  1.
    10030    2    1    2    0    0  0.00000000000E+00  0.00000000000E+00 -0.88791645465E+02  0.29517956187E+04  0.29504598656E+04 0.  0.
        3    1    3    3  502    0  0.12940004223E+04  0.61836428669E+03 -0.39022826672E+03  0.14863006406E+04  0.10100000352E+00 0.  1.
       -3    1    3    3    0  502 -0.12940004223E+04 -0.61836428669E+03  0.30143662125E+03  0.14654949781E+04  0.10100000352E+00 0. -1.
</event>
<event>
 5   0  0.2429358E-06  0.2987987E+04  0.7818609E-02  0.8247169E-01
       -1   -1    0    0    0  501  0.00000000000E+00  0.00000000000E+00  0.27333886869E+04  0.27333886869E+04  0.50400001928E-02 0. -1.
        1   -1    0    0  501    0  0.00000000000E+00  0.00000000000E+00 -0.81657513963E+03  0.81657513964E+03  0.50400001928E-02 0.  1.
    10030    2    1    2    0    0  0.00000000000E+00  0.00000000000E+00  0.19168135473E+04  0.35499638266E+04  0.29879874489E+04 0.  0.
        2    1    3    3  502    0  0.69377503015E+03  0.51970658891E+03  0.24040589486E+04  0.25555661133E+04  0.25500000920E-02 0. -1.
       -2    1    3    3    0  502 -0.69377503015E+03 -0.51970658891E+03 -0.48724540134E+03  0.99439771326E+03  0.25500000920E-02 0.  1.
</event>
<event>
 5   0  0.2348684E-06  0.2897684E+04  0.7818609E-02  0.8273567E-01
       -1   -1    0    0    0  501  0.00000000000E+00  0.00000000000E+00  0.95256117275E+03  0.95256117277E+03  0.50400001928E-02 0.  1.
        1   -1    0    0  501    0  0.00000000000E+00  0.00000000000E+00 -0.22036829729E+04  0.22036829729E+04  0.50400001928E-02 0. -1.
    10030    2    1    2    0    0  0.00000000000E+00  0.00000000000E+00 -0.12511218002E+04  0.31562441457E+04  0.28976837903E+04 0.  0.
        5    1    3    3  502    0 -0.14469496045E+03 -0.87629196057E+03 -0.18723827131E+04  0.20723569543E+04  0.46999998093E+01 0. -1.
       -5    1    3    3    0  502  0.14469496045E+03  0.87629196057E+03  0.62126091293E+03  0.10838871914E+04  0.46999998093E+01 0.  1.
</event>
<event>
 5   0  0.6733688E-06  0.2917663E+04  0.7818609E-02  0.8267642E-01
        2   -1    0    0  501    0  0.00000000000E+00  0.00000000000E+00  0.91381673072E+03  0.91381673072E+03  0.25500000920E-02 0. -1.
       -2   -1    0    0    0  501  0.00000000000E+00  0.00000000000E+00 -0.23289013631E+04  0.23289013631E+04  0.25500000920E-02 0.  1.
    10030    2    1    2    0    0  0.00000000000E+00  0.00000000000E+00 -0.14150846324E+04  0.32427180938E+04  0.29176627837E+04 0.  0.
        5    1    3    3  502    0 -0.13331765653E+04  0.25702993392E+01 -0.13658125996E+04  0.19086205772E+04  0.46999998093E+01 0.  1.
       -5    1    3    3    0  502  0.13331765653E+04 -0.25702993392E+01 -0.49272032787E+02  0.13340975166E+04  0.46999998093E+01 0. -1.
</event>
<event>
 5   0  0.2159500E-06  0.2927322E+04  0.7818609E-02  0.8264794E-01
       -3   -1    0    0    0  501  0.00000000000E+00  0.00000000000E+00  0.16459005139E+04  0.16459005170E+04  0.10100000352E+00 0.  1.
        3   -1    0    0  501    0  0.00000000000E+00  0.00000000000E+00 -0.13015998595E+04  0.13015998634E+04  0.10100000352E+00 0. -1.
    10030    2    1    2    0    0  0.00000000000E+00  0.00000000000E+00  0.34430065439E+03  0.29475003804E+04  0.29273222494E+04 0.  0.
        2    1    3    3  502    0 -0.66195161301E+02  0.31226026792E+03 -0.12661270693E+04  0.13057434778E+04  0.25500000920E-02 0. -1.
       -2    1    3    3    0  502  0.66195161301E+02 -0.31226026792E+03  0.16104277236E+04  0.16417569026E+04  0.25500000920E-02 0.  1.
</event>
<event>
 5   0  0.6513041E-06  0.2850490E+04  0.7818609E-02  0.8287763E-01
       -2   -1    0    0    0  501  0.00000000000E+00  0.00000000000E+00  0.83113870180E+03  0.83113870180E+03  0.25500000920E-02 0.  1.
        2   -1    0    0  501    0  0.00000000000E+00  0.00000000000E+00 -0.24440238202E+04  0.24440238202E+04  0.25500000920E-02 0. -1.
    10030    2    1    2    0    0  0.00000000000E+00  0.00000000000E+00 -0.16128851184E+04  0.32751625220E+04  0.28504896317E+04 0.  0.
        1    1    3    3  502    0 -0.82554479314E+03 -0.28750584817E+03 -0.20998206897E+04  0.22745176955E+04  0.50400001928E-02 0. -1.
       -1    1    3    3    0  502  0.82554479314E+03  0.28750584817E+03  0.48693557129E+03  0.10006448265E+04  0.50400001928E-02 0.  1.
</event>
<event>
 5   0  0.2474769E-06  0.2947980E+04  0.7818609E-02  0.8258743E-01
       -1   -1    0    0    0  501  0.00000000000E+00  0.00000000000E+00  0.10646470167E+04  0.10646470167E+04  0.50400001928E-02 0.  1.
        1   -1    0    0  501    0  0.00000000000E+00  0.00000000000E+00 -0.20407203448E+04  0.20407203448E+04  0.50400001928E-02 0. -1.
    10030    2    1    2    0    0  0.00000000000E+00  0.00000000000E+00 -0.97607332818E+03  0.31053673615E+04  0.29479802082E+04 0.  0.
        1    1    3    3  502    0  0.78846461649E+03 -0.24447206794E+03 -0.17743800538E+04  0.19570047569E+04  0.50400001928E-02 0. -1.
       -1    1    3    3    0  502 -0.78846461649E+03  0.24447206794E+03  0.79830672559E+03  0.11483626046E+04  0.50400001928E-02 0.  1.
</event>
<event>
 5   0  0.6393633E-06  0.2902681E+04  0.7818609E-02  0.8272080E-01
       -2   -1    0    0    0  501  0.00000000000E+00  0.00000000000E+00  0.19877883524E+04  0.19877883524E+04  0.25500000920E-02 0.  1.
        2   -1    0    0  501    0  0.00000000000E+00  0.00000000000E+00 -0.10596644952E+04  0.10596644952E+04  0.25500000920E-02 0. -1.
    10030    2    1    2    0    0  0.00000000000E+00  0.00000000000E+00  0.92812385727E+03  0.30474528476E+04  0.29026806514E+04 0.  0.
        4    1    3    3  502    0 -0.38879213312E+03 -0.13766360291E+04  0.72144427838E+03  0.16021140843E+04  0.12699999809E+01 0.  1.
       -4    1    3    3    0  502  0.38879213312E+03  0.13766360291E+04  0.20667957889E+03  0.14453387633E+04  0.12699999809E+01 0. -1.
</event>
<event>
 5   0  0.6612533E-06  0.2883388E+04  0.7818609E-02  0.8277837E-01
       -2   -1    0    0    0  501  0.00000000000E+00  0.00000000000E+00  0.82450284909E+03  0.82450284909E+03  0.25500000920E-02 0. -1.
        2   -1    0    0  501    0  0.00000000000E+00  0.00000000000E+00 -0.25208907961E+04  0.25208907961E+04  0.25500000920E-02 0.  1.
    10030    2    1    2    0    0  0.00000000000E+00  0.00000000000E+00 -0.16963879470E+04  0.33453936451E+04  0.28833880374E+04 0.  0.
        3    1    3    3  502    0 -0.39431451126E+03 -0.14716014125E+03 -0.24480253481E+04  0.24839420598E+04  0.10100000352E+00 0.  1.
       -3    1    3    3    0  502  0.39431451126E+03  0.14716014125E+03  0.75163740115E+03  0.86145158539E+03  0.10100000352E+00 0. -1.
</event>
<event>
 5   0  0.2508094E-06  0.2904144E+04  0.7818609E-02  0.8271646E-01
       -1   -1    0    0    0  501  0.00000000000E+00  0.00000000000E+00  0.10120220068E+04  0.10120220068E+04  0.50400001928E-02 0. -1.
        1   -1    0    0  501    0  0.00000000000E+00  0.00000000000E+00 -0.20834655747E+04  0.20834655747E+04  0.50400001928E-02 0.  1.
    10030    2    1    2    0    0  0.00000000000E+00  0.00000000000E+00 -0.10714435679E+04  0.30954875815E+04  0.29041439441E+04 0.  0.
        3    1    3    3  502    0  0.90668164731E+03  0.15584598555E+03  0.66175472355E+03  0.11332602989E+04  0.10100000352E+00 0. -1.
       -3    1    3    3    0  502 -0.90668164731E+03 -0.15584598555E+03 -0.17331982915E+04  0.19622272826E+04  0.10100000352E+00 0.  1.
</event>
<event>
 5   0  0.2348684E-06  0.2900174E+04  0.7818609E-02  0.8272826E-01
        1   -1    0    0  501    0  0.00000000000E+00  0.00000000000E+00  0.13405944797E+04  0.13405944797E+04  0.50400001928E-02 0. -1.
       -1   -1    0    0    0  501  0.00000000000E+00  0.00000000000E+00 -0.15685223587E+04  0.15685223587E+04  0.50400001928E-02 0.  1.
    10030    2    1    2    0    0  0.00000000000E+00  0.00000000000E+00 -0.22792787901E+03  0.29091168383E+04  0.29001740743E+04 0.  0.
        5    1    3    3  502    0 -0.33635306436E+03  0.12929303940E+04  0.45162569895E+03  0.14102447481E+04  0.46999998093E+01 0. -1.
       -5    1    3    3    0  502  0.33635306436E+03 -0.12929303940E+04 -0.67955357797E+03  0.14988720902E+04  0.46999998093E+01 0.  1.
</event>
<event>
 5   0  0.2336512E-06  0.2897829E+04  0.7818609E-02  0.8273524E-01
       -1   -1    0    0    0  501  0.00000000000E+00  0.00000000000E+00  0.14411244426E+04  0.14411244426E+04  0.50400001928E-02 0.  1.
        1   -1    0    0  501    0  0.00000000000E+00  0.00000000000E+00 -0.14567462089E+04  0.14567462089E+04  0.50400001928E-02 0. -1.
    10030    2    1    2    0    0  0.00000000000E+00  0.00000000000E+00 -0.15621766343E+02  0.28978706515E+04  0.28978285445E+04 0.  0.
        4    1    3    3  502    0  0.16848738811E+03 -0.20992438684E+03 -0.14315220939E+04  0.14566102314E+04  0.12699999809E+01 0. -1.
       -4    1    3    3    0  502 -0.16848738811E+03  0.20992438684E+03  0.14159003275E+04  0.14412604201E+04  0.12699999809E+01 0.  1.
</event>
<event>
 5   0  0.6612533E-06  0.2859708E+04  0.7818609E-02  0.8284967E-01
        2   -1    0    0  501    0  0.00000000000E+00  0.00000000000E+00  0.13927335056E+04  0.13927335056E+04  0.25500000920E-02 0. -1.
       -2   -1    0    0    0  501  0.00000000000E+00  0.00000000000E+00 -0.14679641336E+04  0.14679641336E+04  0.25500000920E-02 0.  1.
    10030    2    1    2    0    0  0.00000000000E+00  0.00000000000E+00 -0.75230627962E+02  0.28606976392E+04  0.28597082606E+04 0.  0.
        3    1    3    3  502    0  0.10840792439E+04 -0.32891672526E+03 -0.91030971201E+03  0.14532989373E+04  0.10100000352E+00 0.  1.
       -3    1    3    3    0  502 -0.10840792439E+04  0.32891672526E+03  0.83507908405E+03  0.14073987019E+04  0.10100000352E+00 0. -1.
</event>
<event>
 5   0  0.6615403E-06  0.2861345E+04  0.7818609E-02  0.8284472E-01
       -2   -1    0    0    0  501  0.00000000000E+00  0.00000000000E+00  0.12783249051E+04  0.12783249051E+04  0.25500000920E-02 0. -1.
        2   -1    0    0  501    0  0.00000000000E+00  0.00000000000E+00 -0.16011759986E+04  0.16011759986E+04  0.25500000920E-02 0.  1.
    10030    2    1    2    0    0  0.00000000000E+00  0.00000000000E+00 -0.32285109350E+03  0.28795009037E+04  0.28613445486E+04 0.  0.
        2    1    3    3  502    0 -0.11710482381E+04 -0.13776953692E+03 -0.97680676184E+03  0.15311714049E+04  0.25500000920E-02 0.  1.
       -2    1    3    3    0  502  0.11710482381E+04  0.13776953692E+03  0.65395566833E+03  0.13483294988E+04  0.25500000920E-02 0. -1.
</event>
<event>
 5   0  0.6612533E-06  0.2719555E+04  0.7818609E-02  0.8328688E-01
        2   -1    0    0  501    0  0.00000000000E+00  0.00000000000E+00  0.12940294460E+04  0.12940294460E+04  0.25500000920E-02 0.  1.
       -2   -1    0    0    0  501  0.00000000000E+00  0.00000000000E+00 -0.14288657933E+04  0.14288657933E+04  0.25500000920E-02 0. -1.
    10030    2    1    2    0    0  0.00000000000E+00  0.00000000000E+00 -0.13483634725E+03  0.27228952393E+04  0.27195546775E+04 0.  0.
        3    1    3    3  502    0 -0.54215994849E+03 -0.12593440469E+03 -0.13095861100E+04  0.14229591258E+04  0.10100000352E+00 0. -1.
       -3    1    3    3    0  502  0.54215994849E+03  0.12593440469E+03  0.11747497627E+04  0.12999361135E+04  0.10100000352E+00 0.  1.
</event>
<event>
 5   0  0.6615403E-06  0.2903310E+04  0.7818609E-02  0.8271893E-01
        2   -1    0    0  501    0  0.00000000000E+00  0.00000000000E+00  0.19090265402E+04  0.19090265402E+04  0.25500000920E-02 0.  1.
       -2   -1    0    0    0  501  0.00000000000E+00  0.00000000000E+00 -0.11038620970E+04  0.11038620970E+04  0.25500000920E-02 0. -1.
    10030    2    1    2    0    0  0.00000000000E+00  0.00000000000E+00  0.80516444319E+03  0.30128886372E+04  0.29033098629E+04 0.  0.
        2    1    3    3  502    0 -0.24179604037E+03  0.12557283236E+03  0.18822549229E+04  0.19018720925E+04  0.25500000920E-02 0.  1.
       -2    1    3    3    0  502  0.24179604037E+03 -0.12557283236E+03 -0.10770904797E+04  0.11110165448E+04  0.25500000920E-02 0. -1.
</event>
<event>
 5   0  0.6612533E-06  0.2896825E+04  0.7818609E-02  0.8273823E-01
       -2   -1    0    0    0  501  0.00000000000E+00  0.00000000000E+00  0.12300628348E+04  0.12300628349E+04  0.25500000920E-02 0.  1.
        2   -1    0    0  501    0  0.00000000000E+00  0.00000000000E+00 -0.17055218361E+04  0.17055218361E+04  0.25500000920E-02 0. -1.
    10030    2    1    2    0    0  0.00000000000E+00  0.00000000000E+00 -0.47545900126E+03  0.29355846710E+04  0.28968251757E+04 0.  0.
        3    1    3    3  502    0  0.11856771136E+04 -0.84826777219E+02 -0.10763730593E+04  0.16036223910E+04  0.10100000352E+00 0. -1.
       -3    1    3    3    0  502 -0.11856771136E+04  0.84826777219E+02  0.60091405807E+03  0.13319622800E+04  0.10100000352E+00 0.  1.
</event>
<event>
 5   0  0.6733688E-06  0.2793019E+04  0.7818609E-02  0.8305439E-01
       -2   -1    0    0    0  501  0.00000000000E+00  0.00000000000E+00  0.10804161021E+04  0.10804161021E+04  0.25500000920E-02 0. -1.
        2   -1    0    0  501    0  0.00000000000E+00  0.00000000000E+00 -0.18050815551E+04  0.18050815551E+04  0.25500000920E-02 0.  1.
    10030    2    1    2    0    0  0.00000000000E+00  0.00000000000E+00 -0.72466545304E+03  0.28854976572E+04  0.27930192822E+04 0.  0.
        5    1    3    3  502    0 -0.34782903426E+02  0.80155208922E+03  0.81854537792E+03  0.11461824583E+04  0.46999998093E+01 0. -1.
       -5    1    3    3    0  502  0.34782903426E+02 -0.80155208922E+03 -0.15432108310E+04  0.17393151988E+04  0.46999998093E+01 0.  1.
</event>
<event>
 5   0  0.6393633E-06  0.2907240E+04  0.7818609E-02  0.8270727E-01
        2   -1    0    0  501    0  0.00000000000E+00  0.00000000000E+00  0.23708547446E+04  0.23708547446E+04  0.25500000920E-02 0. -1.
       -2   -1    0    0    0  501  0.00000000000E+00  0.00000000000E+00 -0.89124435614E+03  0.89124435614E+03  0.25500000920E-02 0.  1.
    10030    2    1    2    0    0  0.00000000000E+00  0.00000000000E+00  0.14796103885E+04  0.32620991007E+04  0.29072398665E+04 0.  0.
        4    1    3    3  502    0  0.11911351625E+04  0.82202898416E+03  0.89231741551E+03  0.17002254583E+04  0.12699999809E+01 0.  1.
       -4    1    3    3    0  502 -0.11911351625E+04 -0.82202898416E+03  0.58729297295E+03  0.15618736425E+04  0.12699999809E+01 0. -1.
</event>
<event>
 5   0  0.6393633E-06  0.2851519E+04  0.7818609E-02  0.8287450E-01
       -2   -1    0    0    0  501  0.00000000000E+00  0.00000000000E+00  0.83348300092E+03  0.83348300093E+03  0.25500000920E-02 0.  1.
        2   -1    0    0  501    0  0.00000000000E+00  0.00000000000E+00 -0.24389108419E+04  0.24389108419E+04  0.25500000920E-02 0. -1.
    10030    2    1    2    0    0  0.00000000000E+00  0.00000000000E+00 -0.16054278410E+04  0.32723938428E+04  0.28515194037E+04 0.  0.
        4    1    3    3  502    0  0.12272345113E+03  0.13864382917E+04 -0.11573879746E+04  0.18101990826E+04  0.12699999809E+01 0. -1.
       -4    1    3    3    0  502 -0.12272345113E+03 -0.13864382917E+04 -0.44803986641E+03  0.14621947602E+04  0.12699999809E+01 0.  1.
</event>
<event>
 5   0  0.2474769E-06  0.2897251E+04  0.7818609E-02  0.8273696E-01
        1   -1    0    0  501    0  0.00000000000E+00  0.00000000000E+00  0.23055205594E+04  0.23055205594E+04  0.50400001928E-02 0.  1.
       -1   -1    0    0    0  501  0.00000000000E+00  0.00000000000E+00 -0.91021357752E+03  0.91021357754E+03  0.50400001928E-02 0. -1.
    10030    2    1    2    0    0  0.00000000000E+00  0.00000000000E+00  0.13953069819E+04  0.32157341369E+04  0.28972511914E+04 0.  0.
        1    1    3    3  502    0  0.83748551406E+03  0.11647793375E+04  0.92080995233E+03  0.17046946529E+04  0.50400001928E-02 0.  1.
       -1    1    3    3    0  502 -0.83748551406E+03 -0.11647793375E+04  0.47449702954E+03  0.15110394840E+04  0.50400001928E-02 0. -1.
</event>
<event>
 5   0  0.6615403E-06  0.2875350E+04  0.7818609E-02  0.8280250E-01
       -2   -1    0    0    0  501  0.00000000000E+00  0.00000000000E+00  0.92971731522E+03  0.92971731523E+03  0.25500000920E-02 0.  1.
        2   -1    0    0  501    0  0.00000000000E+00  0.00000000000E+00 -0.22231587634E+04  0.22231587634E+04  0.25500000920E-02 0. -1.
    10030    2    1    2    0    0  0.00000000000E+00  0.00000000000E+00 -0.12934414482E+04  0.31528760786E+04  0.28753498548E+04 0.  0.
        2    1    3    3  502    0  0.97213320019E+03 -0.66889587006E+03 -0.15472323679E+04  0.19458655257E+04  0.25500000920E-02 0. -1.
       -2    1    3    3    0  502 -0.97213320019E+03  0.66889587006E+03  0.25379091973E+03  0.12070105529E+04  0.25500000920E-02 0.  1.
</event>
<event>
 5   0  0.2348684E-06  0.2920782E+04  0.7818609E-02  0.8266721E-01
        1   -1    0    0  501    0  0.00000000000E+00  0.00000000000E+00  0.14296728577E+04  0.14296728577E+04  0.50400001928E-02 0. -1.
       -1   -1    0    0    0  501  0.00000000000E+00  0.00000000000E+00 -0.14917696474E+04  0.14917696474E+04  0.50400001928E-02 0.  1.
    10030    2    1    2    0    0  0.00000000000E+00  0.00000000000E+00 -0.62096789697E+02  0.29214425051E+04  0.29207824806E+04 0.  0.
        5    1    3    3  502    0  0.36773473043E+03  0.12343186240E+04  0.65754685135E+03  0.14460848001E+04  0.46999998093E+01 0. -1.
       -5    1    3    3    0  502 -0.36773473043E+03 -0.12343186240E+04 -0.71964364104E+03  0.14753577049E+04  0.46999998093E+01 0.  1.
</event>
<event>
 5   0  0.2474769E-06  0.2886109E+04  0.7818609E-02  0.8277022E-01
       -1   -1    0    0    0  501  0.00000000000E+00  0.00000000000E+00  0.89868085785E+03  0.89868085786E+03  0.50400001928E-02 0. -1.
        1   -1    0    0  501    0  0.00000000000E+00  0.00000000000E+00 -0.23171815618E+04  0.23171815618E+04  0.50400001928E-02 0.  1.
    10030    2    1    2    0    0  0.00000000000E+00  0.00000000000E+00 -0.14185007039E+04  0.32158624197E+04  0.28861092937E+04 0.  0.
        1    1    3    3  502    0 -0.23851158004E+03  0.11442493755E+04  0.23373636843E+03  0.11919845205E+04  0.50400001928E-02 0. -1.
       -1    1    3    3    0  502  0.23851158004E+03 -0.11442493755E+04 -0.16522370724E+04  0.20238778991E+04  0.50400001928E-02 0.  1.
</event>
<event>
 5   0  0.2348684E-06  0.2909334E+04  0.7818609E-02  0.8270106E-01
        1   -1    0    0  501    0  0.00000000000E+00  0.00000000000E+00  0.15782599275E+04  0.15782599275E+04  0.50400001928E-02 0. -1.
       -1   -1    0    0    0  501  0.00000000000E+00  0.00000000000E+00 -0.13407523469E+04  0.13407523469E+04  0.50400001928E-02 0.  1.
    10030    2    1    2    0    0  0.00000000000E+00  0.00000000000E+00  0.23750758057E+03  0.29190122744E+04  0.29093337394E+04 0.  0.
        5    1    3    3  502    0  0.10055798441E+04 -0.89627148897E+03  0.66970734832E+03  0.15043348786E+04  0.46999998093E+01 0. -1.
       -5    1    3    3    0  502 -0.10055798441E+04  0.89627148897E+03 -0.43219976775E+03  0.14146773957E+04  0.46999998093E+01 0.  1.
</event>
<event>
 5   0  0.6513041E-06  0.2889620E+04  0.7818609E-02  0.8275973E-01
       -2   -1    0    0    0  501  0.00000000000E+00  0.00000000000E+00  0.12215237944E+04  0.12215237944E+04  0.25500000920E-02 0.  1.
        2   -1    0    0  501    0  0.00000000000E+00  0.00000000000E+00 -0.17089108340E+04  0.17089108340E+04  0.25500000920E-02 0. -1.
    10030    2    1    2    0    0  0.00000000000E+00  0.00000000000E+00 -0.48738703962E+03  0.29304346283E+04  0.28896195225E+04 0.  0.
        1    1    3    3  502    0 -0.13173154729E+04 -0.58938374071E+03 -0.17356478044E+03  0.14535535704E+04  0.50400001928E-02 0.  1.
       -1    1    3    3    0  502  0.13173154729E+04  0.58938374071E+03 -0.31382225918E+03  0.14768810580E+04  0.50400001928E-02 0. -1.
</event>
<event>
 5   0  0.6612533E-06  0.2896661E+04  0.7818609E-02  0.8273872E-01
       -2   -1    0    0    0  501  0.00000000000E+00  0.00000000000E+00  0.18253562464E+04  0.18253562464E+04  0.25500000920E-02 0. -1.
        2   -1    0    0  501    0  0.00000000000E+00  0.00000000000E+00 -0.11491789616E+04  0.11491789616E+04  0.25500000920E-02 0.  1.
    10030    2    1    2    0    0  0.00000000000E+00  0.00000000000E+00  0.67617728484E+03  0.29745352080E+04  0.28966608333E+04 0.  0.
        3    1    3    3  502    0 -0.96334003189E+03  0.47111593499E+03  0.13377522215E+04  0.17145131256E+04  0.10100000352E+00 0. -1.
       -3    1    3    3    0  502  0.96334003189E+03 -0.47111593499E+03 -0.66157493671E+03  0.12600220825E+04  0.10100000352E+00 0.  1.
</event>
<event>
 5   0  0.6733688E-06  0.2970168E+04  0.7818609E-02  0.8252301E-01
        2   -1    0    0  501    0  0.00000000000E+00  0.00000000000E+00  0.17788635603E+04  0.17788635603E+04  0.25500000920E-02 0. -1.
       -2   -1    0    0    0  501  0.00000000000E+00  0.00000000000E+00 -0.12398224439E+04  0.12398224439E+04  0.25500000920E-02 0.  1.
    10030    2    1    2    0    0  0.00000000000E+00  0.00000000000E+00  0.53904111635E+03  0.30186860042E+04  0.29701683230E+04 0.  0.
        5    1    3    3  502    0  0.11492508891E+04 -0.14463090943E+02  0.12253435490E+04  0.16800225267E+04  0.46999998093E+01 0. -1.
       -5    1    3    3    0  502 -0.11492508891E+04  0.14463090943E+02 -0.68630243260E+03  0.13386634775E+04  0.46999998093E+01 0.  1.
</event>
<event>
 5   0  0.2348684E-06  0.2891610E+04  0.7818609E-02  0.8275378E-01
       -1   -1    0    0    0  501  0.00000000000E+00  0.00000000000E+00  0.13902959587E+04  0.13902959587E+04  0.50400001928E-02 0. -1.
        1   -1    0    0  501    0  0.00000000000E+00  0.00000000000E+00 -0.15035307428E+04  0.15035307429E+04  0.50400001928E-02 0.  1.
    10030    2    1    2    0    0  0.00000000000E+00  0.00000000000E+00 -0.11323478419E+03  0.28938267015E+04  0.28916104271E+04 0.  0.
        5    1    3    3  502    0  0.39535699794E+03  0.13527185472E+04  0.26639306352E+03  0.14342740247E+04  0.46999998093E+01 0. -1.
       -5    1    3    3    0  502 -0.39535699794E+03 -0.13527185472E+04 -0.37962784771E+03  0.14595526768E+04  0.46999998093E+01 0.  1.
</event>
<event>
 5   0  0.6612533E-06  0.2913765E+04  0.7818609E-02  0.8268794E-01
       -2   -1    0    0    0  501  0.00000000000E+00  0.00000000000E+00  0.13037102292E+04  0.13037102292E+04  0.25500000920E-02 0.  1.
        2   -1    0    0  501    0  0.00000000000E+00  0.00000000000E+00 -0.16280509103E+04  0.16280509103E+04  0.25500000920E-02 0. -1.
    10030    2    1    2    0    0  0.00000000000E+00  0.00000000000E+00 -0.32434068105E+03  0.29317611395E+04  0.29137650045E+04 0.  0.
        3    1    3    3  502    0  0.25100500002E+03  0.80780652350E+02  0.12795006696E+04  0.13063885324E+04  0.10100000352E+00 0.  1.
       -3    1    3    3    0  502 -0.25100500002E+03 -0.80780652350E+02 -0.16038413506E+04  0.16253726071E+04  0.10100000352E+00 0. -1.
</event>
<event>
 5   0  0.6393633E-06  0.2912228E+04  0.7818609E-02  0.8269249E-01
        2   -1    0    0  501    0  0.00000000000E+00  0.00000000000E+00  0.17017628756E+04  0.17017628756E+04  0.25500000920E-02 0. -1.
       -2   -1    0    0    0  501  0.00000000000E+00  0.00000000000E+00 -0.12459244771E+04  0.12459244771E+04  0.25500000920E-02 0.  1.
    10030    2    1    2    0    0  0.00000000000E+00  0.00000000000E+00  0.45583839856E+03  0.29476873527E+04  0.29122280274E+04 0.  0.
        4    1    3    3  502    0 -0.12565309785E+04  0.71050394585E+03  0.34330247214E+02  0.14439065537E+04  0.12699999809E+01 0. -1.
       -4    1    3    3    0  502  0.12565309785E+04 -0.71050394585E+03  0.42150815135E+03  0.15037807990E+04  0.12699999809E+01 0.  1.
</event>
<event>
 5   0  0.6733688E-06  0.2562547E+04  0.7818609E-02  0.8381036E-01
       -2   -1    0    0    0  501  0.00000000000E+00  0.00000000000E+00  0.56250393281E+03  0.56250393282E+03  0.25500000920E-02 0. -1.
        2   -1    0    0  501    0  0.00000000000E+00  0.00000000000E+00 -0.29184890172E+04  0.29184890172E+04  0.25500000920E-02 0.  1.
    10030    2    1    2    0    0  0.00000000000E+00  0.00000000000E+00 -0.23559850844E+04  0.34809929500E+04  0.25625468191E+04 0.  0.
        5    1    3    3  502    0  0.25499951607E+02 -0.30745968219E+03 -0.28672675830E+04  0.28838216287E+04  0.46999998093E+01 0.  1.
       -5    1    3    3    0  502 -0.25499951607E+02  0.30745968219E+03  0.51128249857E+03  0.59717132135E+03  0.46999998093E+01 0. -1.
</event>
<event>
 5   0  0.2348684E-06  0.2618665E+04  0.7818609E-02  0.8361889E-01
        1   -1    0    0  501    0  0.00000000000E+00  0.00000000000E+00  0.15475258882E+04  0.15475258883E+04  0.50400001928E-02 0.  1.
       -1   -1    0    0    0  501  0.00000000000E+00  0.00000000000E+00 -0.11078015259E+04  0.11078015260E+04  0.50400001928E-02 0. -1.
    10030    2    1    2    0    0  0.00000000000E+00  0.00000000000E+00  0.43972436230E+03  0.26553274142E+04  0.26186649579E+04 0.  0.
        5    1    3    3  502    0  0.97254104517E+03 -0.62666687325E+03  0.84145519817E+03  0.14306000123E+04  0.46999998093E+01 0. -1.
       -5    1    3    3    0  502 -0.97254104517E+03  0.62666687325E+03 -0.40173083587E+03  0.12247274019E+04  0.46999998093E+01 0.  1.
</event>
<event>
 5   0  0.6612533E-06  0.2805940E+04  0.7818609E-02  0.8301427E-01
        2   -1    0    0  501    0  0.00000000000E+00  0.00000000000E+00  0.20222321743E+04  0.20222321743E+04  0.25500000920E-02 0. -1.
       -2   -1    0    0    0  501  0.00000000000E+00  0.00000000000E+00 -0.97334285040E+03  0.97334285040E+03  0.25500000920E-02 0.  1.
    10030    2    1    2    0    0  0.00000000000E+00  0.00000000000E+00  0.10488893239E+04  0.29955750247E+04  0.28059402906E+04 0.  0.
        3    1    3    3  502    0  0.13479871893E+04  0.38191311024E+03  0.60288212494E+03  0.15252520949E+04  0.10100000352E+00 0. -1.
       -3    1    3    3    0  502 -0.13479871893E+04 -0.38191311024E+03  0.44600719893E+03  0.14703229298E+04  0.10100000352E+00 0.  1.
</event>
<event>
 5   0  0.6513041E-06  0.2850831E+04  0.7818609E-02  0.8287659E-01
       -2   -1    0    0    0  501  0.00000000000E+00  0.00000000000E+00  0.14303150704E+04  0.14303150705E+04  0.25500000920E-02 0.  1.
        2   -1    0    0  501    0  0.00000000000E+00  0.00000000000E+00 -0.14205329198E+04  0.14205329198E+04  0.25500000920E-02 0. -1.
    10030    2    1    2    0    0  0.00000000000E+00  0.00000000000E+00  0.97821506895E+01  0.28508479902E+04  0.28508312074E+04 0.  0.
        1    1    3    3  502    0  0.17711219245E+03 -0.85930923981E+03 -0.11185159764E+04  0.14215692343E+04  0.50400001928E-02 0. -1.
       -1    1    3    3    0  502 -0.17711219245E+03  0.85930923981E+03  0.11282981271E+04  0.14292787559E+04  0.50400001928E-02 0.  1.
</event>
<event>
 5   0  0.6393633E-06  0.2901472E+04  0.7818609E-02  0.8272440E-01
        2   -1    0    0  501    0  0.00000000000E+00  0.00000000000E+00  0.21575391179E+04  0.21575391179E+04  0.25500000920E-02 0. -1.
       -2   -1    0    0    0  501  0.00000000000E+00  0.00000000000E+00 -0.97547956987E+03  0.97547956988E+03  0.25500000920E-02 0.  1.
    10030    2    1    2    0    0  0.00000000000E+00  0.00000000000E+00  0.11820595481E+04  0.31330186878E+04  0.29014722682E+04 0.  0.
        4    1    3    3  502    0 -0.46098380584E+03  0.41284324385E+03 -0.82581346069E+03  0.10319472360E+04  0.12699999809E+01 0.  1.
       -4    1    3    3    0  502  0.46098380584E+03 -0.41284324385E+03  0.20078730088E+04  0.21010714518E+04  0.12699999809E+01 0. -1.
</event>
<event>
 5   0  0.6513041E-06  0.2904861E+04  0.7818609E-02  0.8271433E-01
        2   -1    0    0  501    0  0.00000000000E+00  0.00000000000E+00  0.15759858648E+04  0.15759858648E+04  0.25500000920E-02 0. -1.
       -2   -1    0    0    0  501  0.00000000000E+00  0.00000000000E+00 -0.13385617514E+04  0.13385617514E+04  0.25500000920E-02 0.  1.
    10030    2    1    2    0    0  0.00000000000E+00  0.00000000000E+00  0.23742411339E+03  0.29145476161E+04  0.29048610289E+04 0.  0.
        1    1    3    3  502    0 -0.25897121999E+03  0.13494497064E+04  0.59089138477E+03  0.14957383566E+04  0.50400001928E-02 0. -1.
       -1    1    3    3    0  502  0.25897121999E+03 -0.13494497064E+04 -0.35346727138E+03  0.14188092595E+04  0.50400001928E-02 0.  1.
</event>
<event>
 5   0  0.6612533E-06  0.2875744E+04  0.7818609E-02  0.8280131E-01
        2   -1    0    0  501    0  0.00000000000E+00  0.00000000000E+00  0.13670788128E+04  0.13670788128E+04  0.25500000920E-02 0.  1.
       -2   -1    0    0    0  501  0.00000000000E+00  0.00000000000E+00 -0.15123313809E+04  0.15123313809E+04  0.25500000920E-02 0. -1.
    10030    2    1    2    0    0  0.00000000000E+00  0.00000000000E+00 -0.14525256808E+03  0.28794101937E+04  0.28757442089E+04 0.  0.
        3    1    3    3  502    0  0.11293022035E+04  0.77673452226E+03  0.36248054816E+03  0.14177560238E+04  0.10100000352E+00 0. -1.
       -3    1    3    3    0  502 -0.11293022035E+04 -0.77673452226E+03 -0.50773311624E+03  0.14616541699E+04  0.10100000352E+00 0.  1.
</event>
<event>
 5   0  0.6615403E-06  0.2961771E+04  0.7818609E-02  0.8254732E-01
        2   -1    0    0  501    0  0.00000000000E+00  0.00000000000E+00  0.14913839441E+04  0.14913839441E+04  0.25500000920E-02 0. -1.
       -2   -1    0    0    0  501  0.00000000000E+00  0.00000000000E+00 -0.14704608665E+04  0.14704608665E+04  0.25500000920E-02 0.  1.
    10030    2    1    2    0    0  0.00000000000E+00  0.00000000000E+00  0.20923077591E+02  0.29618448105E+04  0.29617709072E+04 0.  0.
        2    1    3    3  502    0  0.12100255682E+03  0.14635129958E+04  0.20154173417E+03  0.14822722349E+04  0.25500000920E-02 0. -1.
       -2    1    3    3    0  502 -0.12100255682E+03 -0.14635129958E+04 -0.18061865658E+03  0.14795725757E+04  0.25500000920E-02 0.  1.
</event>
<event>
 5   0  0.6513041E-06  0.2849651E+04  0.7818609E-02  0.8288017E-01
       -2   -1    0    0    0  501  0.00000000000E+00  0.00000000000E+00  0.12214514223E+04  0.12214514223E+04  0.25500000920E-02 0.  1.
        2   -1    0    0  501    0  0.00000000000E+00  0.00000000000E+00 -0.16620623139E+04  0.16620623139E+04  0.25500000920E-02 0. -1.
    10030    2    1    2    0    0  0.00000000000E+00  0.00000000000E+00 -0.44061089158E+03  0.28835137362E+04  0.28496514716E+04 0.  0.
        1    1    3    3  502    0  0.79638271145E+03  0.25278123992E+03 -0.13881448915E+04  0.16202067825E+04  0.50400001928E-02 0. -1.
       -1    1    3    3    0  502 -0.79638271145E+03 -0.25278123992E+03  0.94753399990E+03  0.12633069537E+04  0.50400001928E-02 0.  1.
</event>
<event>
 5   0  0.6615403E-06  0.2827798E+04  0.7818609E-02  0.8294690E-01
        2   -1    0    0  501    0  0.00000000000E+00  0.00000000000E+00  0.19799796083E+04  0.19799796083E+04  0.25500000920E-02 0. -1.
       -2   -1    0    0    0  501  0.00000000000E+00  0.00000000000E+00 -0.10096618682E+04  0.10096618682E+04  0.25500000920E-02 0.  1.
    10030    2    1    2    0    0  0.00000000000E+00  0.00000000000E+00  0.97031774012E+03  0.29896414765E+04  0.28277976662E+04 0.  0.
        2    1    3    3  502    0 -0.12571191188E+04 -0.39072423783E+03 -0.60209507683E+02  0.13178160318E+04  0.25500000920E-02 0. -1.
       -2    1    3    3    0  502  0.12571191188E+04  0.39072423783E+03  0.10305272478E+04  0.16718254446E+04  0.25500000920E-02 0.  1.
</event>
<event>
 5   0  0.2474769E-06  0.2850678E+04  0.7818609E-02  0.8287705E-01
       -1   -1    0    0    0  501  0.00000000000E+00  0.00000000000E+00  0.31257847246E+04  0.31257847246E+04  0.50400001928E-02 0. -1.
        1   -1    0    0  501    0  0.00000000000E+00  0.00000000000E+00 -0.64994607138E+03  0.64994607140E+03  0.50400001928E-02 0.  1.
    10030    2    1    2    0    0  0.00000000000E+00  0.00000000000E+00  0.24758386533E+04  0.37757307960E+04  0.28506781662E+04 0.  0.
        1    1    3    3  502    0  0.32640380579E+03  0.24429109537E+03  0.30469077301E+04  0.30740631580E+04  0.50400001928E-02 0. -1.
       -1    1    3    3    0  502 -0.32640380579E+03 -0.24429109537E+03 -0.57106907683E+03  0.70166763803E+03  0.50400001928E-02 0.  1.
</event>
<event>
 5   0  0.2429358E-06  0.2899991E+04  0.7818609E-02  0.8272880E-01
        1   -1    0    0  501    0  0.00000000000E+00  0.00000000000E+00  0.27716238548E+04  0.27716238548E+04  0.50400001928E-02 0.  1.
       -1   -1    0    0    0  501  0.00000000000E+00  0.00000000000E+00 -0.75857594676E+03  0.75857594678E+03  0.50400001928E-02 0. -1.
    10030    2    1    2    0    0  0.00000000000E+00  0.00000000000E+00  0.20130479080E+04  0.35301998015E+04  0.28999911653E+04 0.  0.
        2    1    3    3  502    0 -0.94502668168E+03  0.73811812443E+03  0.19989099377E+04  0.23309943659E+04  0.25500000920E-02 0.  1.
       -2    1    3    3    0  502  0.94502668168E+03 -0.73811812443E+03  0.14137970295E+02  0.11992054357E+04  0.25500000920E-02 0. -1.
</event>
<event>
 5   0  0.2336512E-06  0.2895244E+04  0.7818609E-02  0.8274294E-01
        1   -1    0    0  501    0  0.00000000000E+00  0.00000000000E+00  0.11281399464E+04  0.11281399464E+04  0.50400001928E-02 0.  1.
       -1   -1    0    0    0  501  0.00000000000E+00  0.00000000000E+00 -0.18575795844E+04  0.18575795844E+04  0.50400001928E-02 0. -1.
    10030    2    1    2    0    0  0.00000000000E+00  0.00000000000E+00 -0.72943963798E+03  0.29857195308E+04  0.28952441920E+04 0.  0.
        4    1    3    3  502    0 -0.11775226033E+04  0.19854566514E+03 -0.12085998225E+04  0.16990276649E+04  0.12699999809E+01 0. -1.
       -4    1    3    3    0  502  0.11775226033E+04 -0.19854566514E+03  0.47916018450E+03  0.12866918659E+04  0.12699999809E+01 0.  1.
</event>
<event>
 5   0  0.2348684E-06  0.2416989E+04  0.7818609E-02  0.8433170E-01
       -1   -1    0    0    0  501  0.00000000000E+00  0.00000000000E+00  0.84193413008E+03  0.84193413010E+03  0.50400001928E-02 0. -1.
        1   -1    0    0  501    0  0.00000000000E+00  0.00000000000E+00 -0.17346478957E+04  0.17346478957E+04  0.50400001928E-02 0.  1.
    10030    2    1    2    0    0  0.00000000000E+00  0.00000000000E+00 -0.89271376557E+03  0.25765820258E+04  0.24169892570E+04 0.  0.
        5    1    3    3  502    0 -0.11328554616E+03  0.11676691818E+04 -0.75560146743E+03  0.13954356312E+04  0.46999998093E+01 0.  1.
       -5    1    3    3    0  502  0.11328554616E+03 -0.11676691818E+04 -0.13711229815E+03  0.11811463946E+04  0.46999998093E+01 0. -1.
</event>
<event>
 5   0  0.6612533E-06  0.2932752E+04  0.7818609E-02  0.8263199E-01
       -2   -1    0    0    0  501  0.00000000000E+00  0.00000000000E+00  0.28870442950E+04  0.28870442950E+04  0.25500000920E-02 0.  1.
        2   -1    0    0  501    0  0.00000000000E+00  0.00000000000E+00 -0.74479592162E+03  0.74479592162E+03  0.25500000920E-02 0. -1.
    10030    2    1    2    0    0  0.00000000000E+00  0.00000000000E+00  0.21422483734E+04  0.36318402167E+04  0.29327521658E+04 0.  0.
        3    1    3    3  502    0 -0.57393519870E+03  0.80232517993E+03  0.24147052060E+04  0.26084341181E+04  0.10100000352E+00 0.  1.
       -3    1    3    3    0  502  0.57393519870E+03 -0.80232517993E+03 -0.27245683258E+03  0.10234060985E+04  0.10100000352E+00 0. -1.
</event>
<event>
 5   0  0.6612533E-06  0.2860775E+04  0.7818609E-02  0.8284645E-01
       -2   -1    0    0    0  501  0.00000000000E+00  0.00000000000E+00  0.11272527394E+04  0.11272527394E+04  0.25500000920E-02 0.  1.
        2   -1    0    0  501    0  0.00000000000E+00  0.00000000000E+00 -0.18150401577E+04  0.18150401577E+04  0.25500000920E-02 0. -1.
    10030    2    1    2    0    0  0.00000000000E+00  0.00000000000E+00 -0.68778741831E+03  0.29422928971E+04  0.28607754123E+04 0.  0.
        3    1    3    3  502    0 -0.17767294701E+03  0.45700672881E+03 -0.17259039037E+04  0.17942037569E+04  0.10100000352E+00 0. -1.
       -3    1    3    3    0  502  0.17767294701E+03 -0.45700672881E+03  0.10381164854E+04  0.11480891402E+04  0.10100000352E+00 0.  1.
</event>
<event>
 5   0  0.2508094E-06  0.2891580E+04  0.7818609E-02  0.8275387E-01
       -1   -1    0    0    0  501  0.00000000000E+00  0.00000000000E+00  0.12095195559E+04  0.12095195559E+04  0.50400001928E-02 0.  1.
        1   -1    0    0  501    0  0.00000000000E+00  0.00000000000E+00 -0.17282140182E+04  0.17282140182E+04  0.50400001928E-02 0. -1.
    10030    2    1    2    0    0  0.00000000000E+00  0.00000000000E+00 -0.51869446237E+03  0.29377335741E+04  0.28915799500E+04 0.  0.
        3    1    3    3  502    0  0.29080027936E+03 -0.14079102296E+04 -0.41519923313E+03  0.14963844527E+04  0.10100000352E+00 0. -1.
       -3    1    3    3    0  502 -0.29080027936E+03  0.14079102296E+04 -0.10349522924E+03  0.14413491214E+04  0.10100000352E+00 0.  1.
</event>
<event>
 5   0  0.2336512E-06  0.2759029E+04  0.7818609E-02  0.8316102E-01
        1   -1    0    0  501    0  0.00000000000E+00  0.00000000000E+00  0.17423398990E+04  0.17423398991E+04  0.50400001928E-02 0. -1.
       -1   -1    0    0    0  501  0.00000000000E+00  0.00000000000E+00 -0.10922441483E+04  0.10922441483E+04  0.50400001928E-02 0.  1.
    10030    2    1    2    0    0  0.00000000000E+00  0.00000000000E+00  0.65009575076E+03  0.28345840473E+04  0.27590292199E+04 0.  0.
        4    1    3    3  502    0 -0.12231297374E+04  0.38918431750E+03  0.84440897379E+03  0.15364045416E+04  0.12699999809E+01 0. -1.
       -4    1    3    3    0  502  0.12231297374E+04 -0.38918431750E+03 -0.19431322302E+03  0.12981795057E+04  0.12699999809E+01 0.  1.
</event>
<event>
 5   0  0.2348684E-06  0.2905615E+04  0.7818609E-02  0.8271209E-01
       -1   -1    0    0    0  501  0.00000000000E+00  0.00000000000E+00  0.15106883645E+04  0.15106883645E+04  0.50400001928E-02 0. -1.
        1   -1    0    0  501    0  0.00000000000E+00  0.00000000000E+00 -0.13971442175E+04  0.13971442175E+04  0.50400001928E-02 0.  1.
    10030    2    1    2    0    0  0.00000000000E+00  0.00000000000E+00  0.11354414699E+03  0.29078325820E+04  0.29056149179E+04 0.  0.
        5    1    3    3  502    0 -0.34893757942E+03  0.11853142433E+04  0.82148886945E+03  0.14837767158E+04  0.46999998093E+01 0. -1.
       -5    1    3    3    0  502  0.34893757942E+03 -0.11853142433E+04 -0.70794472246E+03  0.14240558661E+04  0.46999998093E+01 0.  1.
</event>
<event>
 5   0  0.6393633E-06  0.2941148E+04  0.7818609E-02  0.8260739E-01
       -2   -1    0    0    0  501  0.00000000000E+00  0.00000000000E+00  0.17378166166E+04  0.17378166166E+04  0.25500000920E-02 0. -1.
        2   -1    0    0  501    0  0.00000000000E+00  0.00000000000E+00 -0.12444279422E+04  0.12444279422E+04  0.25500000920E-02 0.  1.
    10030    2    1    2    0    0  0.00000000000E+00  0.00000000000E+00  0.49338867434E+03  0.29822445588E+04  0.29411477734E+04 0.  0.
        4    1    3    3  502    0  0.25095184387E+03  0.10684375442E+04 -0.74578293848E+03  0.13269247974E+04  0.12699999809E+01 0.  1.
       -4    1    3    3    0  502 -0.25095184387E+03 -0.10684375442E+04  0.12391716128E+04  0.16553197614E+04  0.12699999809E+01 0. -1.
</event>
<event>
 5   0  0.6393633E-06  0.2875868E+04  0.7818609E-02  0.8280094E-01
        2   -1    0    0  501    0  0.00000000000E+00  0.00000000000E+00  0.18029184931E+04  0.18029184931E+04  0.25500000920E-02 0. -1.
       -2   -1    0    0    0  501  0.00000000000E+00  0.00000000000E+00 -0.11468371928E+04  0.11468371928E+04  0.25500000920E-02 0.  1.
    10030    2    1    2    0    0  0.00000000000E+00  0.00000000000E+00  0.65608130030E+03  0.29497556860E+04  0.28758678576E+04 0.  0.
        4    1    3    3  502    0  0.23586251332E+03 -0.57570167907E+03  0.16577228512E+04  0.17706242438E+04  0.12699999809E+01 0. -1.
       -4    1    3    3    0  502 -0.23586251332E+03  0.57570167907E+03 -0.10016415509E+04  0.11791314421E+04  0.12699999809E+01 0.  1.
</event>
<event>
 5   0  0.6612533E-06  0.2902872E+04  0.7818609E-02  0.8272023E-01
        2   -1    0    0  501    0  0.00000000000E+00  0.00000000000E+00  0.16278502325E+04  0.16278502325E+04  0.25500000920E-02 0.  1.
       -2   -1    0    0    0  501  0.00000000000E+00  0.00000000000E+00 -0.12941405682E+04  0.12941405682E+04  0.25500000920E-02 0. -1.
    10030    2    1    2    0    0  0.00000000000E+00  0.00000000000E+00  0.33370966433E+03  0.29219908007E+04  0.29028723877E+04 0.  0.
        3    1    3    3  502    0 -0.29462974995E+03  0.14126391022E+04  0.99077903853E+01  0.14430710644E+04  0.10100000352E+00 0. -1.
       -3    1    3    3    0  502  0.29462974995E+03 -0.14126391022E+04  0.32380187394E+03  0.14789197363E+04  0.10100000352E+00 0.  1.
</event>
<event>
 5   0  0.2474769E-06  0.2913755E+04  0.7818609E-02  0.8268797E-01
       -1   -1    0    0    0  501  0.00000000000E+00  0.00000000000E+00  0.15743691438E+04  0.15743691438E+04  0.50400001928E-02 0.  1.
        1   -1    0    0  501    0  0.00000000000E+00  0.00000000000E+00 -0.13481540331E+04  0.13481540331E+04  0.50400001928E-02 0. -1.
    10030    2    1    2    0    0  0.00000000000E+00  0.00000000000E+00  0.22621511067E+03  0.29225231770E+04  0.29137550418E+04 0.  0.
        1    1    3    3  502    0  0.12877538503E+02 -0.16299559112E+03 -0.13389223688E+04  0.13488686013E+04  0.50400001928E-02 0. -1.
       -1    1    3    3    0  502 -0.12877538503E+02  0.16299559112E+03  0.15651374795E+04  0.15736545757E+04  0.50400001928E-02 0.  1.
</event>
<event>
 5   0  0.6393633E-06  0.2927398E+04  0.7818609E-02  0.8264772E-01
       -2   -1    0    0    0  501  0.00000000000E+00  0.00000000000E+00  0.11578571252E+04  0.11578571252E+04  0.25500000920E-02 0.  1.
        2   -1    0    0  501    0  0.00000000000E+00  0.00000000000E+00 -0.18503267814E+04  0.18503267814E+04  0.25500000920E-02 0. -1.
    10030    2    1    2    0    0  0.00000000000E+00  0.00000000000E+00 -0.69246965618E+03  0.30081839066E+04  0.29273975116E+04 0.  0.
        4    1    3    3  502    0  0.73059869514E+03 -0.18196152685E+03 -0.16360745427E+04  0.18010069330E+04  0.12699999809E+01 0. -1.
       -4    1    3    3    0  502 -0.73059869514E+03  0.18196152685E+03  0.94360488655E+03  0.12071769735E+04  0.12699999809E+01 0.  1.
</event>
<event>
 5   0  0.2336512E-06  0.2883381E+04  0.7818609E-02  0.8277839E-01
       -1   -1    0    0    0  501  0.00000000000E+00  0.00000000000E+00  0.77535114405E+03  0.77535114407E+03  0.50400001928E-02 0.  1.
        1   -1    0    0  501    0  0.00000000000E+00  0.00000000000E+00 -0.26806834327E+04  0.26806834327E+04  0.50400001928E-02 0. -1.
    10030    2    1    2    0    0  0.00000000000E+00  0.00000000000E+00 -0.19053322886E+04  0.34560345768E+04  0.28833806314E+04 0.  0.
        4    1    3    3  502    0  0.60985376009E+03 -0.46355051226E+03  0.51123680487E+03  0.92095894027E+03  0.12699999809E+01 0.  1.
       -4    1    3    3    0  502 -0.60985376009E+03  0.46355051226E+03 -0.24165690935E+04  0.25350756365E+04  0.12699999809E+01 0. -1.
</event>
<event>
 5   0  0.6513041E-06  0.2866455E+04  0.7818609E-02  0.8282929E-01
        2   -1    0    0  501    0  0.00000000000E+00  0.00000000000E+00  0.16524996995E+04  0.16524996995E+04  0.25500000920E-02 0. -1.
       -2   -1    0    0    0  501  0.00000000000E+00  0.00000000000E+00 -0.12430504707E+04  0.12430504707E+04  0.25500000920E-02 0.  1.
    10030    2    1    2    0    0  0.00000000000E+00  0.00000000000E+00  0.40944922884E+03  0.28955501702E+04  0.28664546250E+04 0.  0.
        1    1    3    3  502    0  0.82453317232E+03  0.55567557442E+03 -0.83798849873E+03  0.13003288124E+04  0.50400001928E-02 0.  1.
       -1    1    3    3    0  502 -0.82453317232E+03 -0.55567557442E+03  0.12474377276E+04  0.15952213578E+04  0.50400001928E-02 0. -1.
</event>
<event>
 5   0  0.6733688E-06  0.2901403E+04  0.7818609E-02  0.8272460E-01
       -2   -1    0    0    0  501  0.00000000000E+00  0.00000000000E+00  0.23624101050E+04  0.23624101050E+04  0.25500000920E-02 0. -1.
        2   -1    0    0  501    0  0.00000000000E+00  0.00000000000E+00 -0.89084248797E+03  0.89084248797E+03  0.25500000920E-02 0.  1.
    10030    2    1    2    0    0  0.00000000000E+00  0.00000000000E+00  0.14715676170E+04  0.32532525929E+04  0.29014033126E+04 0.  0.
        5    1    3    3  502    0  0.37661088332E+03  0.67018949477E+03  0.21152284127E+04  0.22506005964E+04  0.46999998093E+01 0. -1.
       -5    1    3    3    0  502 -0.37661088332E+03 -0.67018949477E+03 -0.64366079572E+03  0.10026519966E+04  0.46999998093E+01 0.  1.
</event>
<event>
 5   0  0.2474769E-06  0.2925472E+04  0.7818609E-02  0.8265339E-01
        1   -1    0    0  501    0  0.00000000000E+00  0.00000000000E+00  0.16013050914E+04  0.16013050914E+04  0.50400001928E-02 0. -1.
       -1   -1    0    0    0  501  0.00000000000E+00  0.00000000000E+00 -0.13361580296E+04  0.13361580296E+04  0.50400001928E-02 0.  1.
    10030    2    1    2    0    0  0.00000000000E+00  0.00000000000E+00  0.26514706176E+03  0.29374631210E+04  0.29254720342E+04 0.  0.
        1    1    3    3  502    0  0.38880755708E+03  0.84246458792E+03  0.12679952493E+04  0.15712192242E+04  0.50400001928E-02 0. -1.
       -1    1    3    3    0  502 -0.38880755708E+03 -0.84246458792E+03 -0.10028481875E+04  0.13662438968E+04  0.50400001928E-02 0.  1.
</event>
<event>
 5   0  0.2474769E-06  0.2878908E+04  0.7818609E-02  0.8279181E-01
       -1   -1    0    0    0  501  0.00000000000E+00  0.00000000000E+00  0.87677170837E+03  0.87677170839E+03  0.50400001928E-02 0. -1.
        1   -1    0    0  501    0  0.00000000000E+00  0.00000000000E+00 -0.23632470806E+04  0.23632470807E+04  0.50400001928E-02 0.  1.
    10030    2    1    2    0    0  0.00000000000E+00  0.00000000000E+00 -0.14864753723E+04  0.32400187890E+04  0.28789082516E+04 0.  0.
        1    1    3    3  502    0 -0.10775900718E+03 -0.11296720065E+04 -0.17399022072E+04  0.20772651580E+04  0.50400001928E-02 0.  1.
       -1    1    3    3    0  502  0.10775900718E+03  0.11296720065E+04  0.25342683489E+03  0.11627536311E+04  0.50400001928E-02 0. -1.
</event>
<event>
 5   0  0.2336512E-06  0.2903762E+04  0.7818609E-02  0.8271759E-01
       -1   -1    0    0    0  501  0.00000000000E+00  0.00000000000E+00  0.14607303671E+04  0.14607303671E+04  0.50400001928E-02 0. -1.
        1   -1    0    0  501    0  0.00000000000E+00  0.00000000000E+00 -0.14430855019E+04  0.14430855019E+04  0.50400001928E-02 0.  1.
    10030    2    1    2    0    0  0.00000000000E+00  0.00000000000E+00  0.17644865200E+02  0.29038158689E+04  0.29037622594E+04 0.  0.
        4    1    3    3  502    0  0.91644199432E+03  0.60612939008E+03 -0.94024642333E+03  0.14461409738E+04  0.12699999809E+01 0.  1.
       -4    1    3    3    0  502 -0.91644199432E+03 -0.60612939008E+03  0.95789128853E+03  0.14576748952E+04  0.12699999809E+01 0. -1.
</event>
<event>
 5   0  0.6393633E-06  0.2904181E+04  0.7818609E-02  0.8271635E-01
       -2   -1    0    0    0  501  0.00000000000E+00  0.00000000000E+00  0.14238715873E+04  0.14238715873E+04  0.25500000920E-02 0. -1.
        2   -1    0    0  501    0  0.00000000000E+00  0.00000000000E+00 -0.14808682054E+04  0.14808682054E+04  0.25500000920E-02 0.  1.
    10030    2    1    2    0    0  0.00000000000E+00  0.00000000000E+00 -0.56996618123E+02  0.29047397928E+04  0.29041805469E+04 0.  0.
        4    1    3    3  502    0  0.58323252827E+03  0.51014958760E+03  0.11998064815E+04  0.14282681785E+04  0.12699999809E+01 0. -1.
       -4    1    3    3    0  502 -0.58323252827E+03 -0.51014958760E+03 -0.12568030996E+04  0.14764716143E+04  0.12699999809E+01 0.  1.
</event>
<event>
 5   0  0.2474769E-06  0.2883777E+04  0.7818609E-02  0.8277721E-01
        1   -1    0    0  501    0  0.00000000000E+00  0.00000000000E+00  0.26839059011E+04  0.26839059011E+04  0.50400001928E-02 0.  1.
       -1   -1    0    0    0  501  0.00000000000E+00  0.00000000000E+00 -0.77463308851E+03  0.77463308852E+03  0.50400001928E-02 0. -1.
    10030    2    1    2    0    0  0.00000000000E+00  0.00000000000E+00  0.19092728125E+04  0.34585389896E+04  0.28837769105E+04 0.  0.
        1    1    3    3  502    0  0.15699922822E+03 -0.75463634245E+03  0.24160804308E+04  0.25360539062E+04  0.50400001928E-02 0.  1.
       -1    1    3    3    0  502 -0.15699922822E+03  0.75463634245E+03 -0.50680761829E+03  0.92248508335E+03  0.50400001928E-02 0. -1.
</event>
<event>
 5   0  0.6513041E-06  0.2828503E+04  0.7818609E-02  0.8294473E-01
        2   -1    0    0  501    0  0.00000000000E+00  0.00000000000E+00  0.12841907891E+04  0.12841907891E+04  0.25500000920E-02 0. -1.
       -2   -1    0    0    0  501  0.00000000000E+00  0.00000000000E+00 -0.15574849624E+04  0.15574849624E+04  0.25500000920E-02 0.  1.
    10030    2    1    2    0    0  0.00000000000E+00  0.00000000000E+00 -0.27329417332E+03  0.28416757515E+04  0.28285033801E+04 0.  0.
        1    1    3    3  502    0 -0.43414785543E+03 -0.17184125024E+03 -0.14778149285E+04  0.15498228088E+04  0.50400001928E-02 0.  1.
       -1    1    3    3    0  502  0.43414785543E+03  0.17184125024E+03  0.12045207552E+04  0.12918529427E+04  0.50400001928E-02 0. -1.
</event>
<event>
 5   0  0.2348684E-06  0.2914650E+04  0.7818609E-02  0.8268532E-01
       -1   -1    0    0    0  501  0.00000000000E+00  0.00000000000E+00  0.12908469972E+04  0.12908469972E+04  0.50400001928E-02 0.  1.
        1   -1    0    0  501    0  0.00000000000E+00  0.00000000000E+00 -0.16452732452E+04  0.16452732452E+04  0.50400001928E-02 0. -1.
    10030    2    1    2    0    0  0.00000000000E+00  0.00000000000E+00 -0.35442624805E+03  0.29361202424E+04  0.29146499125E+04 0.  0.
        5    1    3    3  502    0  0.13844842915E+04 -0.45405485495E+03 -0.20590757087E+03  0.14715238980E+04  0.46999998093E+01 0. -1.
       -5    1    3    3    0  502 -0.13844842915E+04  0.45405485495E+03 -0.14851867718E+03  0.14645963444E+04  0.46999998093E+01 0.  1.
</event>
<event>
 5   0  0.6612533E-06  0.2894396E+04  0.7818609E-02  0.8274547E-01
       -2   -1    0    0    0  501  0.00000000000E+00  0.00000000000E+00  0.99625311318E+03  0.99625311319E+03  0.25500000920E-02 0.  1.
        2   -1    0    0  501    0  0.00000000000E+00  0.00000000000E+00 -0.21022592454E+04  0.21022592454E+04  0.25500000920E-02 0. -1.
    10030    2    1    2    0    0  0.00000000000E+00  0.00000000000E+00 -0.11060061322E+04  0.30985123586E+04  0.28943961843E+04 0.  0.
        3    1    3    3  502    0  0.10841393874E+04 -0.63083254482E+03 -0.13257639365E+04  0.18250912132E+04  0.10100000352E+00 0. -1.
       -3    1    3    3    0  502 -0.10841393874E+04  0.63083254482E+03  0.21975780421E+03  0.12734211455E+04  0.10100000352E+00 0.  1.
</event>
<event>
 5   0  0.2474769E-06  0.2957418E+04  0.7818609E-02  0.8255996E-01
       -1   -1    0    0    0  501  0.00000000000E+00  0.00000000000E+00  0.14618704700E+04  0.14618704700E+04  0.50400001928E-02 0.  1.
        1   -1    0    0  501    0  0.00000000000E+00  0.00000000000E+00 -0.14957415699E+04  0.14957415699E+04  0.50400001928E-02 0. -1.
    10030    2    1    2    0    0  0.00000000000E+00  0.00000000000E+00 -0.33871099955E+02  0.29576120399E+04  0.29574180846E+04 0.  0.
        1    1    3    3  502    0 -0.14177968111E+03  0.33227951195E+03 -0.14509296132E+04  0.14952283754E+04  0.50400001928E-02 0. -1.
       -1    1    3    3    0  502  0.14177968111E+03 -0.33227951195E+03  0.14170585133E+04  0.14623836645E+04  0.50400001928E-02 0.  1.
</event>
<event>
 5   0  0.2348684E-06  0.2768566E+04  0.7818609E-02  0.8313094E-01
        1   -1    0    0  501    0  0.00000000000E+00  0.00000000000E+00  0.14332626676E+04  0.14332626676E+04  0.50400001928E-02 0.  1.
       -1   -1    0    0    0  501  0.00000000000E+00  0.00000000000E+00 -0.13369770942E+04  0.13369770942E+04  0.50400001928E-02 0. -1.
    10030    2    1    2    0    0  0.00000000000E+00  0.00000000000E+00  0.96285573449E+02  0.27702397618E+04  0.27685659512E+04 0.  0.
        5    1    3    3  502    0 -0.63121745390E+03  0.50062993790E+03  0.11745015668E+04  0.14242688753E+04  0.46999998093E+01 0.  1.
       -5    1    3    3    0  502  0.63121745390E+03 -0.50062993790E+03 -0.10782159933E+04  0.13459708864E+04  0.46999998093E+01 0. -1.
</event>
<event>
 5   0  0.6733688E-06  0.3044842E+04  0.7818609E-02  0.8231041E-01
       -2   -1    0    0    0  501  0.00000000000E+00  0.00000000000E+00  0.11553381464E+04  0.11553381464E+04  0.25500000920E-02 0.  1.
        2   -1    0    0  501    0  0.00000000000E+00  0.00000000000E+00 -0.20061363498E+04  0.20061363498E+04  0.25500000920E-02 0. -1.
    10030    2    1    2    0    0  0.00000000000E+00  0.00000000000E+00 -0.85079820338E+03  0.31614744962E+04  0.30448420989E+04 0.  0.
        5    1    3    3  502    0  0.61693283357E+03  0.51646944854E+03 -0.17673442086E+04  0.19418739542E+04  0.46999998093E+01 0. -1.
       -5    1    3    3    0  502 -0.61693283357E+03 -0.51646944854E+03  0.91654600520E+03  0.12196005420E+04  0.46999998093E+01 0.  1.
</event>
<event>
 5   0  0.2474769E-06  0.3046811E+04  0.7818609E-02  0.8230489E-01
       -1   -1    0    0    0  501  0.00000000000E+00  0.00000000000E+00  0.16640120594E+04  0.16640120594E+04  0.50400001928E-02 0.  1.
        1   -1    0    0  501    0  0.00000000000E+00  0.00000000000E+00 -0.13946803589E+04  0.13946803589E+04  0.50400001928E-02 0. -1.
    10030    2    1    2    0    0  0.00000000000E+00  0.00000000000E+00  0.26933170054E+03  0.30586924183E+04  0.30468114062E+04 0.  0.
        1    1    3    3  502    0  0.29223315165E+03 -0.44562562264E+03  0.15673899428E+04  0.16555040451E+04  0.50400001928E-02 0.  1.
       -1    1    3    3    0  502 -0.29223315165E+03  0.44562562264E+03 -0.12980582422E+04  0.14031883732E+04  0.50400001928E-02 0. -1.
</event>
<event>
 5   0  0.2348684E-06  0.2933256E+04  0.7818609E-02  0.8263051E-01
       -1   -1    0    0    0  501  0.00000000000E+00  0.00000000000E+00  0.18374726408E+04  0.18374726408E+04  0.50400001928E-02 0. -1.
        1   -1    0    0  501    0  0.00000000000E+00  0.00000000000E+00 -0.11706283637E+04  0.11706283637E+04  0.50400001928E-02 0.  1.
    10030    2    1    2    0    0  0.00000000000E+00  0.00000000000E+00  0.66684427717E+03  0.30081010045E+04  0.29332559321E+04 0.  0.
        5    1    3    3  502    0 -0.74132358401E+03 -0.59842112943E+03  0.14769102293E+04  0.17575421530E+04  0.46999998093E+01 0. -1.
       -5    1    3    3    0  502  0.74132358401E+03  0.59842112943E+03 -0.81006595209E+03  0.12505588515E+04  0.46999998093E+01 0.  1.
</event>
<event>
 5   0  0.2508094E-06  0.2885665E+04  0.7818609E-02  0.8277155E-01
        1   -1    0    0  501    0  0.00000000000E+00  0.00000000000E+00  0.10716929594E+04  0.10716929594E+04  0.50400001928E-02 0.  1.
       -1   -1    0    0    0  501  0.00000000000E+00  0.00000000000E+00 -0.19425014569E+04  0.19425014569E+04  0.50400001928E-02 0. -1.
    10030    2    1    2    0    0  0.00000000000E+00  0.00000000000E+00 -0.87080849744E+03  0.30141944163E+04  0.28856646618E+04 0.  0.
        3    1    3    3  502    0  0.11316180501E+04  0.43176998262E+03 -0.12544070835E+04  0.17437092276E+04  0.10100000352E+00 0. -1.
       -3    1    3    3    0  502 -0.11316180501E+04 -0.43176998262E+03  0.38359858606E+03  0.12704851887E+04  0.10100000352E+00 0.  1.
</event>
<event>
 5   0  0.6393633E-06  0.2871627E+04  0.7818609E-02  0.8281370E-01
        2   -1    0    0  501    0  0.00000000000E+00  0.00000000000E+00  0.13201152634E+04  0.13201152634E+04  0.25500000920E-02 0.  1.
       -2   -1    0    0    0  501  0.00000000000E+00  0.00000000000E+00 -0.15616518802E+04  0.15616518802E+04  0.25500000920E-02 0. -1.
    10030    2    1    2    0    0  0.00000000000E+00  0.00000000000E+00 -0.24153661678E+03  0.28817671436E+04  0.28716270532E+04 0.  0.
        4    1    3    3  502    0  0.10821731537E+04  0.81198988105E+03 -0.60322843036E+03  0.14813211852E+04  0.12699999809E+01 0.  1.
       -4    1    3    3    0  502 -0.10821731537E+04 -0.81198988105E+03  0.36169181358E+03  0.14004459584E+04  0.12699999809E+01 0. -1.
</event>
<event>
 5   0  0.2429358E-06  0.2853334E+04  0.7818609E-02  0.8286899E-01
       -1   -1    0    0    0  501  0.00000000000E+00  0.00000000000E+00  0.10515703697E+04  0.10515703697E+04  0.50400001928E-02 0.  1.
        1   -1    0    0  501    0  0.00000000000E+00  0.00000000000E+00 -0.19355610378E+04  0.19355610378E+04  0.50400001928E-02 0. -1.
    10030    2    1    2    0    0  0.00000000000E+00  0.00000000000E+00 -0.88399066807E+03  0.29871314075E+04  0.28533339350E+04 0.  0.
        2    1    3    3  502    0  0.56349907509E+03  0.67858065755E+02  0.92829051590E+03  0.10880529429E+04  0.25500000920E-02 0.  1.
       -2    1    3    3    0  502 -0.56349907509E+03 -0.67858065755E+02 -0.18122811840E+04  0.18990784645E+04  0.25500000920E-02 0. -1.
</event>
<event>
 5   0  0.2159500E-06  0.2887992E+04  0.7818609E-02  0.8276459E-01
       -3   -1    0    0    0  501  0.00000000000E+00  0.00000000000E+00  0.98774861557E+03  0.98774862074E+03  0.10100000352E+00 0. -1.
        3   -1    0    0  501    0  0.00000000000E+00  0.00000000000E+00 -0.21109874155E+04  0.21109874179E+04  0.10100000352E+00 0.  1.
    10030    2    1    2    0    0  0.00000000000E+00  0.00000000000E+00 -0.11232388000E+04  0.30987360387E+04  0.28879923192E+04 0.  0.
        3    1    3    3  502    0 -0.34824226282E+03  0.12861142066E+03 -0.20589105040E+04  0.20921104285E+04  0.10100000352E+00 0.  1.
       -3    1    3    3    0  502  0.34824226282E+03 -0.12861142066E+03  0.93567170407E+03  0.10066256102E+04  0.10100000352E+00 0. -1.
</event>
<event>
 5   0  0.6513041E-06  0.2901825E+04  0.7818609E-02  0.8272335E-01
       -2   -1    0    0    0  501  0.00000000000E+00  0.00000000000E+00  0.85176305824E+03  0.85176305825E+03  0.25500000920E-02 0. -1.
        2   -1    0    0  501    0  0.00000000000E+00  0.00000000000E+00 -0.24715164124E+04  0.24715164124E+04  0.25500000920E-02 0.  1.
    10030    2    1    2    0    0  0.00000000000E+00  0.00000000000E+00 -0.16197533541E+04  0.33232794706E+04  0.29018245143E+04 0.  0.
        1    1    3    3  502    0 -0.11009643904E+04 -0.65918497469E+02 -0.18894895792E+04  0.21878388211E+04  0.50400001928E-02 0.  1.
       -1    1    3    3    0  502  0.11009643904E+04  0.65918497469E+02  0.26973622508E+03  0.11354406495E+04  0.50400001928E-02 0. -1.
</event>
<event>
 5   0  0.6393633E-06  0.3114665E+04  0.7818609E-02  0.8211725E-01
        2   -1    0    0  501    0  0.00000000000E+00  0.00000000000E+00  0.14888935107E+04  0.14888935107E+04  0.25500000920E-02 0. -1.
       -2   -1    0    0    0  501  0.00000000000E+00  0.00000000000E+00 -0.16289173570E+04  0.16289173570E+04  0.25500000920E-02 0.  1.
    10030    2    1    2    0    0  0.00000000000E+00  0.00000000000E+00 -0.14002384634E+03  0.31178108677E+04  0.31146649786E+04 0.  0.
        4    1    3    3  502    0 -0.64738229134E+03  0.53240228723E+03 -0.13838645002E+04  0.16179118005E+04  0.12699999809E+01 0.  1.
       -4    1    3    3    0  502  0.64738229134E+03 -0.53240228723E+03  0.12438406538E+04  0.14998990671E+04  0.12699999809E+01 0. -1.
</event>
<event>
 5   0  0.6393633E-06  0.2887430E+04  0.7818609E-02  0.8276627E-01
       -2   -1    0    0    0  501  0.00000000000E+00  0.00000000000E+00  0.13131388660E+04  0.13131388660E+04  0.25500000920E-02 0. -1.
        2   -1    0    0  501    0  0.00000000000E+00  0.00000000000E+00 -0.15872757701E+04  0.15872757701E+04  0.25500000920E-02 0.  1.
    10030    2    1    2    0    0  0.00000000000E+00  0.00000000000E+00 -0.27413690406E+03  0.29004146361E+04  0.28874303488E+04 0.  0.
        4    1    3    3  502    0  0.30686455710E+03  0.11984429769E+04  0.61050969168E+03  0.13795488835E+04  0.12699999809E+01 0. -1.
       -4    1    3    3    0  502 -0.30686455710E+03 -0.11984429769E+04 -0.88464659574E+03  0.15208657526E+04  0.12699999809E+01 0.  1.
</event>
<event>
 5   0  0.6615403E-06  0.2871096E+04  0.7818609E-02  0.8281529E-01
        2   -1    0    0  501    0  0.00000000000E+00  0.00000000000E+00  0.15846515687E+04  0.15846515687E+04  0.25500000920E-02 0. -1.
       -2   -1    0    0    0  501  0.00000000000E+00  0.00000000000E+00 -0.13004742961E+04  0.13004742961E+04  0.25500000920E-02 0.  1.
    10030    2    1    2    0    0  0.00000000000E+00  0.00000000000E+00  0.28417727260E+03  0.28851258649E+04  0.28710963993E+04 0.  0.
        2    1    3    3  502    0  0.33728789448E+03  0.13764904454E+04  0.37191907041E+03  0.14652006228E+04  0.25500000920E-02 0. -1.
       -2    1    3    3    0  502 -0.33728789448E+03 -0.13764904454E+04 -0.87741797812E+02  0.14199252421E+04  0.25500000920E-02 0.  1.
</event>
<event>
 5   0  0.6612533E-06  0.2879760E+04  0.7818609E-02  0.8278925E-01
        2   -1    0    0  501    0  0.00000000000E+00  0.00000000000E+00  0.17956406577E+04  0.17956406577E+04  0.25500000920E-02 0. -1.
       -2   -1    0    0    0  501  0.00000000000E+00  0.00000000000E+00 -0.11546044062E+04  0.11546044062E+04  0.25500000920E-02 0.  1.
    10030    2    1    2    0    0  0.00000000000E+00  0.00000000000E+00  0.64103625156E+03  0.29502450639E+04  0.28797601395E+04 0.  0.
        3    1    3    3  502    0  0.72108864302E+03 -0.29603305294E+03 -0.91975388462E+03  0.12056332850E+04  0.10100000352E+00 0.  1.
       -3    1    3    3    0  502 -0.72108864302E+03  0.29603305294E+03  0.15607901362E+04  0.17446117789E+04  0.10100000352E+00 0. -1.
</event>
<event>
 5   0  0.2508094E-06  0.2895792E+04  0.7818609E-02  0.8274131E-01
       -1   -1    0    0    0  501  0.00000000000E+00  0.00000000000E+00  0.18023028486E+04  0.18023028486E+04  0.50400001928E-02 0. -1.
        1   -1    0    0  501    0  0.00000000000E+00  0.00000000000E+00 -0.11631797726E+04  0.11631797726E+04  0.50400001928E-02 0.  1.
    10030    2    1    2    0    0  0.00000000000E+00  0.00000000000E+00  0.63912307595E+03  0.29654826212E+04  0.28957915792E+04 0.  0.
        3    1    3    3  502    0  0.15757083030E+03  0.11136863211E+04  0.12532474648E+04  0.16839700136E+04  0.10100000352E+00 0. -1.
       -3    1    3    3    0  502 -0.15757083030E+03 -0.11136863211E+04 -0.61412438881E+03  0.12815126076E+04  0.10100000352E+00 0.  1.
</event>
<event>
 5   0  0.2336512E-06  0.2889415E+04  0.7818609E-02  0.8276034E-01
       -1   -1    0    0    0  501  0.00000000000E+00  0.00000000000E+00  0.12431182977E+04  0.12431182977E+04  0.50400001928E-02 0. -1.
        1   -1    0    0  501    0  0.00000000000E+00  0.00000000000E+00 -0.16789872643E+04  0.16789872643E+04  0.50400001928E-02 0.  1.
    10030    2    1    2    0    0  0.00000000000E+00  0.00000000000E+00 -0.43586896665E+03  0.29221055620E+04  0.28894150203E+04 0.  0.
        4    1    3    3  502    0 -0.12580122777E+04 -0.50886504871E+03  0.28329338322E+03  0.13862883115E+04  0.12699999809E+01 0.  1.
       -4    1    3    3    0  502  0.12580122777E+04  0.50886504871E+03 -0.71916234987E+03  0.15358172505E+04  0.12699999809E+01 0. -1.
</event>
<event>
 5   0  0.6612533E-06  0.2896253E+04  0.7818609E-02  0.8273993E-01
        2   -1    0    0  501    0  0.00000000000E+00  0.00000000000E+00  0.90315445349E+03  0.90315445349E+03  0.25500000920E-02 0. -1.
       -2   -1    0    0    0  501  0.00000000000E+00  0.00000000000E+00 -0.23219404122E+04  0.23219404122E+04  0.25500000920E-02 0.  1.
    10030    2    1    2    0    0  0.00000000000E+00  0.00000000000E+00 -0.14187859587E+04  0.32250948657E+04  0.28962533205E+04 0.  0.
        3    1    3    3  502    0  0.75974309714E+03 -0.64175380210E+03 -0.18815301419E+04  0.21281948222E+04  0.10100000352E+00 0.  1.
       -3    1    3    3    0  502 -0.75974309714E+03  0.64175380210E+03  0.46274418318E+03  0.10969000435E+04  0.10100000352E+00 0. -1.
</event>
<event>
 5   0  0.6615403E-06  0.2814707E+04  0.7818609E-02  0.8298717E-01
        2   -1    0    0  501    0  0.00000000000E+00  0.00000000000E+00  0.16120906373E+04  0.16120906374E+04  0.25500000920E-02 0. -1.
       -2   -1    0    0    0  501  0.00000000000E+00  0.00000000000E+00 -0.12286184928E+04  0.12286184928E+04  0.25500000920E-02 0.  1.
    10030    2    1    2    0    0  0.00000000000E+00  0.00000000000E+00  0.38347214455E+03  0.28407091302E+04  0.28147073518E+04 0.  0.
        2    1    3    3  502    0  0.13810922124E+04  0.26585500127E+03  0.14077417587E+03  0.14134751322E+04  0.25500000920E-02 0.  1.
       -2    1    3    3    0  502 -0.13810922124E+04 -0.26585500127E+03  0.24269796868E+03  0.14272339979E+04  0.25500000920E-02 0. -1.
</event>
<event>
 5   0  0.2474769E-06  0.2905030E+04  0.7818609E-02  0.8271382E-01
       -1   -1    0    0    0  501  0.00000000000E+00  0.00000000000E+00  0.12952357428E+04  0.12952357428E+04  0.50400001928E-02 0. -1.
        1   -1    0    0  501    0  0.00000000000E+00  0.00000000000E+00 -0.16288925122E+04  0.16288925122E+04  0.50400001928E-02 0.  1.
    10030    2    1    2    0    0  0.00000000000E+00  0.00000000000E+00 -0.33365676941E+03  0.29241282550E+04  0.29050299847E+04 0.  0.
        1    1    3    3  502    0  0.12863875188E+04  0.66399638935E+03 -0.28641918374E+03  0.14757099994E+04  0.50400001928E-02 0.  1.
       -1    1    3    3    0  502 -0.12863875188E+04 -0.66399638935E+03 -0.47237585667E+02  0.14484182556E+04  0.50400001928E-02 0. -1.
</event>
<event>
 5   0  0.6513041E-06  0.2581414E+04  0.7818609E-02  0.8374542E-01
        2   -1    0    0  501    0  0.00000000000E+00  0.00000000000E+00  0.14105640534E+04  0.14105640534E+04  0.25500000920E-02 0.  1.
       -2   -1    0    0    0  501  0.00000000000E+00  0.00000000000E+00 -0.11810346541E+04  0.11810346541E+04  0.25500000920E-02 0. -1.
    10030    2    1    2    0    0  0.00000000000E+00  0.00000000000E+00  0.22952939932E+03  0.25915987075E+04  0.25814143634E+04 0.  0.
        1    1    3    3  502    0  0.18583294415E+03 -0.27783631578E+03 -0.11368285817E+04  0.11849498410E+04  0.50400001928E-02 0. -1.
       -1    1    3    3    0  502 -0.18583294415E+03  0.27783631578E+03  0.13663579810E+04  0.14066488665E+04  0.50400001928E-02 0.  1.
</event>
<event>
 5   0  0.2429358E-06  0.2884529E+04  0.7818609E-02  0.8277495E-01
        1   -1    0    0  501    0  0.00000000000E+00  0.00000000000E+00  0.20657239527E+04  0.20657239527E+04  0.50400001928E-02 0.  1.
       -1   -1    0    0    0  501  0.00000000000E+00  0.00000000000E+00 -0.10069723123E+04  0.10069723123E+04  0.50400001928E-02 0. -1.
    10030    2    1    2    0    0  0.00000000000E+00  0.00000000000E+00  0.10587516404E+04  0.30726962651E+04  0.28845289566E+04 0.  0.
        2    1    3    3  502    0  0.55158366072E+02 -0.13698143034E+04  0.10065874389E+04  0.17007798044E+04  0.25500000920E-02 0.  1.
       -2    1    3    3    0  502 -0.55158366072E+02  0.13698143034E+04  0.52164201552E+02  0.13719164606E+04  0.25500000920E-02 0. -1.
</event>
<event>
 5   0  0.6733688E-06  0.2876845E+04  0.7818609E-02  0.8279800E-01
        2   -1    0    0  501    0  0.00000000000E+00  0.00000000000E+00  0.20004288574E+04  0.20004288574E+04  0.25500000920E-02 0. -1.
       -2   -1    0    0    0  501  0.00000000000E+00  0.00000000000E+00 -0.10343077072E+04  0.10343077072E+04  0.25500000920E-02 0.  1.
    10030    2    1    2    0    0  0.00000000000E+00  0.00000000000E+00  0.96612115027E+03  0.30347365646E+04  0.28768447889E+04 0.  0.
        5    1    3    3  502    0 -0.99262817980E+03 -0.10059523985E+04  0.76569452808E+03  0.16073459901E+04  0.46999998093E+01 0.  1.
       -5    1    3    3    0  502  0.99262817980E+03  0.10059523985E+04  0.20042662219E+03  0.14273905746E+04  0.46999998093E+01 0. -1.
</event>
<event>
 5   0  0.2429358E-06  0.2898334E+04  0.7818609E-02  0.8273373E-01
       -1   -1    0    0    0  501  0.00000000000E+00  0.00000000000E+00  0.22394764895E+04  0.22394764895E+04  0.50400001928E-02 0.  1.
        1   -1    0    0  501    0  0.00000000000E+00  0.00000000000E+00 -0.93775688466E+03  0.93775688467E+03  0.50400001928E-02 0. -1.
    10030    2    1    2    0    0  0.00000000000E+00  0.00000000000E+00  0.13017196049E+04  0.31772333742E+04  0.28983336565E+04 0.  0.
        2    1    3    3  502    0 -0.12155281991E+04  0.77507553876E+03  0.81284056323E+03  0.16549805663E+04  0.25500000920E-02 0. -1.
       -2    1    3    3    0  502  0.12155281991E+04 -0.77507553876E+03  0.48887904164E+03  0.15222528079E+04  0.25500000920E-02 0.  1.
</event>
<event>
 5   0  0.2508094E-06  0.2897498E+04  0.7818609E-02  0.8273622E-01
       -1   -1    0    0    0  501  0.00000000000E+00  0.00000000000E+00  0.12233088191E+04  0.12233088191E+04  0.50400001928E-02 0. -1.
        1   -1    0    0  501    0  0.00000000000E+00  0.00000000000E+00 -0.17157346400E+04  0.17157346400E+04  0.50400001928E-02 0.  1.
    10030    2    1    2    0    0  0.00000000000E+00  0.00000000000E+00 -0.49242582091E+03  0.29390434590E+04  0.28974977593E+04 0.  0.
        3    1    3    3  502    0  0.10079016375E+04 -0.86818110495E+03  0.33583459171E+03  0.13720018313E+04  0.10100000352E+00 0. -1.
       -3    1    3    3    0  502 -0.10079016375E+04  0.86818110495E+03 -0.82826041262E+03  0.15670416278E+04  0.10100000352E+00 0.  1.
</event>
<event>
 5   0  0.2348684E-06  0.2872060E+04  0.7818609E-02  0.8281239E-01
        1   -1    0    0  501    0  0.00000000000E+00  0.00000000000E+00  0.22189898761E+04  0.22189898761E+04  0.50400001928E-02 0.  1.
       -1   -1    0    0    0  501  0.00000000000E+00  0.00000000000E+00 -0.92933390542E+03  0.92933390544E+03  0.50400001928E-02 0. -1.
    10030    2    1    2    0    0  0.00000000000E+00  0.00000000000E+00  0.12896559707E+04  0.31483237816E+04  0.28720602554E+04 0.  0.
        5    1    3    3  502    0  0.43950087523E+03  0.12338667426E+04  0.12901593219E+04  0.18385106265E+04  0.46999998093E+01 0.  1.
       -5    1    3    3    0  502 -0.43950087523E+03 -0.12338667426E+04 -0.50335125759E+00  0.13098131551E+04  0.46999998093E+01 0. -1.
</event>
<event>
 5   0  0.6513041E-06  0.2864788E+04  0.7818609E-02  0.8283432E-01
       -2   -1    0    0    0  501  0.00000000000E+00  0.00000000000E+00  0.14197745948E+04  0.14197745948E+04  0.25500000920E-02 0. -1.
        2   -1    0    0  501    0  0.00000000000E+00  0.00000000000E+00 -0.14451251457E+04  0.14451251457E+04  0.25500000920E-02 0.  1.
    10030    2    1    2    0    0  0.00000000000E+00  0.00000000000E+00 -0.25350550906E+02  0.28648997405E+04  0.28647875790E+04 0.  0.
        1    1    3    3  502    0  0.48032735129E+03 -0.73748180724E+03  0.11174832071E+04  0.14224494714E+04  0.50400001928E-02 0. -1.
       -1    1    3    3    0  502 -0.48032735129E+03  0.73748180724E+03 -0.11428337580E+04  0.14424502691E+04  0.50400001928E-02 0.  1.
</event>
<event>
 5   0  0.2508094E-06  0.2877759E+04  0.7818609E-02  0.8279526E-01
       -1   -1    0    0    0  501  0.00000000000E+00  0.00000000000E+00  0.16924505894E+04  0.16924505894E+04  0.50400001928E-02 0. -1.
        1   -1    0    0  501    0  0.00000000000E+00  0.00000000000E+00 -0.12232997644E+04  0.12232997644E+04  0.50400001928E-02 0.  1.
    10030    2    1    2    0    0  0.00000000000E+00  0.00000000000E+00  0.46915082494E+03  0.29157503538E+04  0.28777591333E+04 0.  0.
        3    1    3    3  502    0  0.28844165799E+03  0.13980880095E+04  0.51845609240E+02  0.14284735384E+04  0.10100000352E+00 0.  1.
       -3    1    3    3    0  502 -0.28844165799E+03 -0.13980880095E+04  0.41730521570E+03  0.14872768154E+04  0.10100000352E+00 0. -1.
</event>
<event>
 5   0  0.6615403E-06  0.2883183E+04  0.7818609E-02  0.8277899E-01
        2   -1    0    0  501    0  0.00000000000E+00  0.00000000000E+00  0.12588784477E+04  0.12588784477E+04  0.25500000920E-02 0. -1.
       -2   -1    0    0    0  501  0.00000000000E+00  0.00000000000E+00 -0.16508236275E+04  0.16508236275E+04  0.25500000920E-02 0.  1.
    10030    2    1    2    0    0  0.00000000000E+00  0.00000000000E+00 -0.39194517979E+03  0.29097020751E+04  0.28831831614E+04 0.  0.
        2    1    3    3  502    0  0.97570570652E+03  0.55645102625E+03 -0.11079138429E+04  0.15776921289E+04  0.25500000920E-02 0.  1.
       -2    1    3    3    0  502 -0.97570570652E+03 -0.55645102625E+03  0.71596866309E+03  0.13320099462E+04  0.25500000920E-02 0. -1.
</event>
<event>
 5   0  0.2336512E-06  0.2454190E+04  0.7818609E-02  0.8419490E-01
        1   -1    0    0  501    0  0.00000000000E+00  0.00000000000E+00  0.22275753208E+04  0.22275753208E+04  0.50400001928E-02 0.  1.
       -1   -1    0    0    0  501  0.00000000000E+00  0.00000000000E+00 -0.67596445055E+03  0.67596445057E+03  0.50400001928E-02 0. -1.
    10030    2    1    2    0    0  0.00000000000E+00  0.00000000000E+00  0.15516108702E+04  0.29035397714E+04  0.24541896649E+04 0.  0.
        4    1    3    3  502    0  0.68710978977E+01  0.39670270867E+03 -0.59798137912E+03  0.71763750858E+03  0.12699999809E+01 0. -1.
       -4    1    3    3    0  502 -0.68710978977E+01 -0.39670270867E+03  0.21495922494E+04  0.21859022628E+04  0.12699999809E+01 0.  1.
</event>
<event>
 5   0  0.2348684E-06  0.2911494E+04  0.7818609E-02  0.8269466E-01
        1   -1    0    0  501    0  0.00000000000E+00  0.00000000000E+00  0.15105283374E+04  0.15105283374E+04  0.50400001928E-02 0.  1.
       -1   -1    0    0    0  501  0.00000000000E+00  0.00000000000E+00 -0.14029523335E+04  0.14029523335E+04  0.50400001928E-02 0. -1.
    10030    2    1    2    0    0  0.00000000000E+00  0.00000000000E+00  0.10757600397E+03  0.29134806709E+04  0.29114939504E+04 0.  0.
        5    1    3    3  502    0  0.85031647330E+03  0.10479315293E+04  0.60003462570E+03  0.14769096915E+04  0.46999998093E+01 0.  1.
       -5    1    3    3    0  502 -0.85031647330E+03 -0.10479315293E+04 -0.49245862172E+03  0.14365709794E+04  0.46999998093E+01 0. -1.
</event>
<event>
 5   0  0.6733688E-06  0.2935672E+04  0.7818609E-02  0.8262343E-01
        2   -1    0    0  501    0  0.00000000000E+00  0.00000000000E+00  0.22141136638E+04  0.22141136638E+04  0.25500000920E-02 0. -1.
       -2   -1    0    0    0  501  0.00000000000E+00  0.00000000000E+00 -0.97309453739E+03  0.97309453740E+03  0.25500000920E-02 0.  1.
    10030    2    1    2    0    0  0.00000000000E+00  0.00000000000E+00  0.12410191264E+04  0.31872082012E+04  0.29356715834E+04 0.  0.
        5    1    3    3  502    0  0.64511471396E+03  0.11716254008E+04  0.12770028045E+04  0.18492261427E+04  0.46999998093E+01 0. -1.
       -5    1    3    3    0  502 -0.64511471396E+03 -0.11716254008E+04 -0.35983678123E+02  0.13379820585E+04  0.46999998093E+01 0.  1.
</event>
<event>
 5   0  0.2348684E-06  0.2852593E+04  0.7818609E-02  0.8287124E-01
        1   -1    0    0  501    0  0.00000000000E+00  0.00000000000E+00  0.83226317584E+03  0.83226317585E+03  0.50400001928E-02 0. -1.
       -1   -1    0    0    0  501  0.00000000000E+00  0.00000000000E+00 -0.24443257944E+04  0.24443257944E+04  0.50400001928E-02 0.  1.
    10030    2    1    2    0    0  0.00000000000E+00  0.00000000000E+00 -0.16120626185E+04  0.32765889702E+04  0.28525934505E+04 0.  0.
        5    1    3    3  502    0  0.82760271566E+03 -0.76573798436E+03 -0.18093753095E+04  0.21319338677E+04  0.46999998093E+01 0.  1.
       -5    1    3    3    0  502 -0.82760271566E+03  0.76573798436E+03  0.19731269098E+03  0.11446551025E+04  0.46999998093E+01 0. -1.
</event>
<event>
 5   0  0.2429358E-06  0.2846064E+04  0.7818609E-02  0.8289108E-01
       -1   -1    0    0    0  501  0.00000000000E+00  0.00000000000E+00  0.11540742233E+04  0.11540742233E+04  0.50400001928E-02 0.  1.
        1   -1    0    0  501    0  0.00000000000E+00  0.00000000000E+00 -0.17546703153E+04  0.17546703153E+04  0.50400001928E-02 0. -1.
    10030    2    1    2    0    0  0.00000000000E+00  0.00000000000E+00 -0.60059609205E+03  0.29087445386E+04  0.28460637950E+04 0.  0.
        2    1    3    3  502    0 -0.39862334758E+03  0.81496033643E+03 -0.14207822836E+04  0.16857292845E+04  0.25500000920E-02 0. -1.
       -2    1    3    3    0  502  0.39862334758E+03 -0.81496033643E+03  0.82018619150E+03  0.12230152542E+04  0.25500000920E-02 0.  1.
</event>
<event>
 5   0  0.6513041E-06  0.2914482E+04  0.7818609E-02  0.8268582E-01
        2   -1    0    0  501    0  0.00000000000E+00  0.00000000000E+00  0.25457662041E+04  0.25457662041E+04  0.25500000920E-02 0.  1.
       -2   -1    0    0    0  501  0.00000000000E+00  0.00000000000E+00 -0.83415031284E+03  0.83415031285E+03  0.25500000920E-02 0. -1.
    10030    2    1    2    0    0  0.00000000000E+00  0.00000000000E+00  0.17116158913E+04  0.33799165170E+04  0.29144822357E+04 0.  0.
        1    1    3    3  502    0  0.14566005656E+04  0.40333956493E+02  0.87376040450E+03  0.16990495226E+04  0.50400001928E-02 0.  1.
       -1    1    3    3    0  502 -0.14566005656E+04 -0.40333956493E+02  0.83785548677E+03  0.16808669943E+04  0.50400001928E-02 0. -1.
</event>
<event>
 5   0  0.2336512E-06  0.2917498E+04  0.7818609E-02  0.8267690E-01
       -1   -1    0    0    0  501  0.00000000000E+00  0.00000000000E+00  0.10086100944E+04  0.10086100944E+04  0.50400001928E-02 0.  1.
        1   -1    0    0  501    0  0.00000000000E+00  0.00000000000E+00 -0.21097833348E+04  0.21097833348E+04  0.50400001928E-02 0. -1.
    10030    2    1    2    0    0  0.00000000000E+00  0.00000000000E+00 -0.11011732404E+04  0.31183934292E+04  0.29174980846E+04 0.  0.
        4    1    3    3  502    0 -0.10980946506E+04  0.17411918183E+03  0.45880198152E+03  0.12027594200E+04  0.12699999809E+01 0.  1.
       -4    1    3    3    0  502  0.10980946506E+04 -0.17411918183E+03 -0.15599752220E+04  0.19156340092E+04  0.12699999809E+01 0. -1.
</event>
<event>
 5   0  0.6513041E-06  0.2901711E+04  0.7818609E-02  0.8272369E-01
        2   -1    0    0  501    0  0.00000000000E+00  0.00000000000E+00  0.10112451811E+04  0.10112451811E+04  0.25500000920E-02 0.  1.
       -2   -1    0    0    0  501  0.00000000000E+00  0.00000000000E+00 -0.20815743389E+04  0.20815743389E+04  0.25500000920E-02 0. -1.
    10030    2    1    2    0    0  0.00000000000E+00  0.00000000000E+00 -0.10703291578E+04  0.30928195200E+04  0.29017112326E+04 0.  0.
        1    1    3    3  502    0  0.42045907700E+02  0.43522579048E+03  0.93934578862E+03  0.10361273366E+04  0.50400001928E-02 0.  1.
       -1    1    3    3    0  502 -0.42045907700E+02 -0.43522579048E+03 -0.20096749464E+04  0.20566921834E+04  0.50400001928E-02 0. -1.
</event>
<event>
 5   0  0.6513041E-06  0.2875069E+04  0.7818609E-02  0.8280334E-01
       -2   -1    0    0    0  501  0.00000000000E+00  0.00000000000E+00  0.16584654498E+04  0.16584654498E+04  0.25500000920E-02 0. -1.
        2   -1    0    0  501    0  0.00000000000E+00  0.00000000000E+00 -0.12460342892E+04  0.12460342892E+04  0.25500000920E-02 0.  1.
    10030    2    1    2    0    0  0.00000000000E+00  0.00000000000E+00  0.41243116065E+03  0.29044997390E+04  0.28750685681E+04 0.  0.
        1    1    3    3  502    0  0.59404003401E+03  0.77639957812E+03  0.12709614109E+04  0.16034409172E+04  0.50400001928E-02 0. -1.
       -1    1    3    3    0  502 -0.59404003401E+03 -0.77639957812E+03 -0.85853025030E+03  0.13010588217E+04  0.50400001928E-02 0.  1.
</event>
<event>
 5   0  0.2336512E-06  0.2467447E+04  0.7818609E-02  0.8414675E-01
       -1   -1    0    0    0  501  0.00000000000E+00  0.00000000000E+00  0.13863631293E+04  0.13863631293E+04  0.50400001928E-02 0. -1.
        1   -1    0    0  501    0  0.00000000000E+00  0.00000000000E+00 -0.10978896647E+04  0.10978896647E+04  0.50400001928E-02 0.  1.
    10030    2    1    2    0    0  0.00000000000E+00  0.00000000000E+00  0.28847346464E+03  0.24842527940E+04  0.24674470622E+04 0.  0.
        4    1    3    3  502    0 -0.38280964720E+03  0.39036812362E+02 -0.10359265698E+04  0.11050848699E+04  0.12699999809E+01 0.  1.
       -4    1    3    3    0  502  0.38280964720E+03 -0.39036812362E+02  0.13244000344E+04  0.13791679241E+04  0.12699999809E+01 0. -1.
</event>
<event>
 5   0  0.2508094E-06  0.2887275E+04  0.7818609E-02  0.8276674E-01
       -1   -1    0    0    0  501  0.00000000000E+00  0.00000000000E+00  0.15737523834E+04  0.15737523834E+04  0.50400001928E-02 0.  1.
        1   -1    0    0  501    0  0.00000000000E+00  0.00000000000E+00 -0.13242798965E+04  0.13242798965E+04  0.50400001928E-02 0. -1.
    10030    2    1    2    0    0  0.00000000000E+00  0.00000000000E+00  0.24947248691E+03  0.28980322799E+04  0.28872745927E+04 0.  0.
        3    1    3    3  502    0  0.11675912348E+04 -0.72728029949E+03  0.56441253533E+03  0.14868649723E+04  0.10100000352E+00 0.  1.
       -3    1    3    3    0  502 -0.11675912348E+04  0.72728029949E+03 -0.31494004843E+03  0.14111673076E+04  0.10100000352E+00 0. -1.
</event>
<event>
 5   0  0.6393633E-06  0.2909367E+04  0.7818609E-02  0.8270096E-01
       -2   -1    0    0    0  501  0.00000000000E+00  0.00000000000E+00  0.90671817891E+03  0.90671817891E+03  0.25500000920E-02 0.  1.
        2   -1    0    0  501    0  0.00000000000E+00  0.00000000000E+00 -0.23338050267E+04  0.23338050267E+04  0.25500000920E-02 0. -1.
    10030    2    1    2    0    0  0.00000000000E+00  0.00000000000E+00 -0.14270868478E+04  0.32405232056E+04  0.29093665591E+04 0.  0.
        4    1    3    3  502    0  0.62546063688E+03  0.81453721526E+03  0.43398211962E+03  0.11149053666E+04  0.12699999809E+01 0.  1.
       -4    1    3    3    0  502 -0.62546063688E+03 -0.81453721526E+03 -0.18610689674E+04  0.21256178391E+04  0.12699999809E+01 0. -1.
</event>
<event>
 5   0  0.2336512E-06  0.2908635E+04  0.7818609E-02  0.8270313E-01
       -1   -1    0    0    0  501  0.00000000000E+00  0.00000000000E+00  0.16340284645E+04  0.16340284645E+04  0.50400001928E-02 0.  1.
        1   -1    0    0  501    0  0.00000000000E+00  0.00000000000E+00 -0.12943714395E+04  0.12943714395E+04  0.50400001928E-02 0. -1.
    10030    2    1    2    0    0  0.00000000000E+00  0.00000000000E+00  0.33965702500E+03  0.29283999039E+04  0.29086352646E+04 0.  0.
        4    1    3    3  502    0  0.81978910273E+03  0.12190619852E+03 -0.10333329293E+04  0.13246485760E+04  0.12699999809E+01 0.  1.
       -4    1    3    3    0  502 -0.81978910273E+03 -0.12190619852E+03  0.13729899543E+04  0.16037513279E+04  0.12699999809E+01 0. -1.
</event>
<event>
 5   0  0.2474769E-06  0.2911183E+04  0.7818609E-02  0.8269558E-01
        1   -1    0    0  501    0  0.00000000000E+00  0.00000000000E+00  0.18402515957E+04  0.18402515957E+04  0.50400001928E-02 0.  1.
       -1   -1    0    0    0  501  0.00000000000E+00  0.00000000000E+00 -0.11513354662E+04  0.11513354662E+04  0.50400001928E-02 0. -1.
    10030    2    1    2    0    0  0.00000000000E+00  0.00000000000E+00  0.68891612955E+03  0.29915870619E+04  0.29111832157E+04 0.  0.
        1    1    3    3  502    0  0.11409578476E+04  0.57831051811E+03  0.10582791065E+04  0.16601754524E+04  0.50400001928E-02 0.  1.
       -1    1    3    3    0  502 -0.11409578476E+04 -0.57831051811E+03 -0.36936297697E+03  0.13314116096E+04  0.50400001928E-02 0. -1.
</event>
<event>
 5   0  0.2348684E-06  0.2931090E+04  0.7818609E-02  0.8263687E-01
       -1   -1    0    0    0  501  0.00000000000E+00  0.00000000000E+00  0.13861559992E+04  0.13861559992E+04  0.50400001928E-02 0.  1.
        1   -1    0    0  501    0  0.00000000000E+00  0.00000000000E+00 -0.15494807569E+04  0.15494807569E+04  0.50400001928E-02 0. -1.
    10030    2    1    2    0    0  0.00000000000E+00  0.00000000000E+00 -0.16332475774E+03  0.29356367561E+04  0.29310899316E+04 0.  0.
        5    1    3    3  502    0 -0.34873981334E+03 -0.36467124212E+03 -0.14597311514E+04  0.15444875191E+04  0.46999998093E+01 0. -1.
       -5    1    3    3    0  502  0.34873981334E+03  0.36467124212E+03  0.12964063936E+04  0.13911492370E+04  0.46999998093E+01 0.  1.
</event>
<event>
 5   0  0.6393633E-06  0.2611910E+04  0.7818609E-02  0.8364167E-01
       -2   -1    0    0    0  501  0.00000000000E+00  0.00000000000E+00  0.10445157326E+04  0.10445157326E+04  0.25500000920E-02 0.  1.
        2   -1    0    0  501    0  0.00000000000E+00  0.00000000000E+00 -0.16328322107E+04  0.16328322107E+04  0.25500000920E-02 0. -1.
    10030    2    1    2    0    0  0.00000000000E+00  0.00000000000E+00 -0.58831647817E+03  0.26773479433E+04  0.26119103605E+04 0.  0.
        4    1    3    3  502    0  0.19613719966E+02  0.11723307077E+04 -0.88369622313E+03  0.14682181766E+04  0.12699999809E+01 0. -1.
       -4    1    3    3    0  502 -0.19613719966E+02 -0.11723307077E+04  0.29537974497E+03  0.12091297668E+04  0.12699999809E+01 0.  1.
</event>
<event>
 5   0  0.6615403E-06  0.2954062E+04  0.7818609E-02  0.8256972E-01
        2   -1    0    0  501    0  0.00000000000E+00  0.00000000000E+00  0.17712121910E+04  0.17712121910E+04  0.25500000920E-02 0. -1.
       -2   -1    0    0    0  501  0.00000000000E+00  0.00000000000E+00 -0.12317107634E+04  0.12317107634E+04  0.25500000920E-02 0.  1.
    10030    2    1    2    0    0  0.00000000000E+00  0.00000000000E+00  0.53950142767E+03  0.30029229544E+04  0.29540623689E+04 0.  0.
        2    1    3    3  502    0  0.87162810210E+03 -0.18916924001E+03 -0.92705016789E+03  0.12864457095E+04  0.25500000920E-02 0.  1.
       -2    1    3    3    0  502 -0.87162810210E+03  0.18916924001E+03  0.14665515956E+04  0.17164772449E+04  0.25500000920E-02 0. -1.
</event>
<event>
 5   0  0.2348684E-06  0.2917677E+04  0.7818609E-02  0.8267638E-01
        1   -1    0    0  501    0  0.00000000000E+00  0.00000000000E+00  0.88646324739E+03  0.88646324740E+03  0.50400001928E-02 0.  1.
       -1   -1    0    0    0  501  0.00000000000E+00  0.00000000000E+00 -0.24007865537E+04  0.24007865537E+04  0.50400001928E-02 0. -1.
    10030    2    1    2    0    0  0.00000000000E+00  0.00000000000E+00 -0.15143233063E+04  0.32872498011E+04  0.29176765035E+04 0.  0.
        5    1    3    3  502    0 -0.27804460526E+03 -0.72956052834E+02  0.85423037402E+03  0.90131182732E+03  0.46999998093E+01 0.  1.
       -5    1    3    3    0  502  0.27804460526E+03  0.72956052834E+02 -0.23685536803E+04  0.23859379738E+04  0.46999998093E+01 0. -1.
</event>
<event>
 5   0  0.2474769E-06  0.2881597E+04  0.7818609E-02  0.8278374E-01
       -1   -1    0    0    0  501  0.00000000000E+00  0.00000000000E+00  0.14546978689E+04  0.14546978689E+04  0.50400001928E-02 0.  1.
        1   -1    0    0  501    0  0.00000000000E+00  0.00000000000E+00 -0.14270320423E+04  0.14270320423E+04  0.50400001928E-02 0. -1.
    10030    2    1    2    0    0  0.00000000000E+00  0.00000000000E+00  0.27665826595E+02  0.28817299112E+04  0.28815971063E+04 0.  0.
        1    1    3    3  502    0  0.89030409074E+03 -0.86522879022E+03  0.74505621605E+03  0.14478850087E+04  0.50400001928E-02 0. -1.
       -1    1    3    3    0  502 -0.89030409074E+03  0.86522879022E+03 -0.71739038946E+03  0.14338449025E+04  0.50400001928E-02 0.  1.
</event>
<event>
 5   0  0.6612533E-06  0.2926804E+04  0.7818609E-02  0.8264947E-01
       -2   -1    0    0    0  501  0.00000000000E+00  0.00000000000E+00  0.13073876008E+04  0.13073876008E+04  0.25500000920E-02 0. -1.
        2   -1    0    0  501    0  0.00000000000E+00  0.00000000000E+00 -0.16380341038E+04  0.16380341038E+04  0.25500000920E-02 0.  1.
    10030    2    1    2    0    0  0.00000000000E+00  0.00000000000E+00 -0.33064650299E+03  0.29454217046E+04  0.29268040433E+04 0.  0.
        3    1    3    3  502    0  0.11177615346E+03  0.87454667797E+03 -0.13407511366E+04  0.16046617777E+04  0.10100000352E+00 0.  1.
       -3    1    3    3    0  502 -0.11177615346E+03 -0.87454667797E+03  0.10101046336E+04  0.13407599269E+04  0.10100000352E+00 0. -1.
</event>
<event>
 5   0  0.6393633E-06  0.2962621E+04  0.7818609E-02  0.8254486E-01
       -2   -1    0    0    0  501  0.00000000000E+00  0.00000000000E+00  0.16478515817E+04  0.16478515817E+04  0.25500000920E-02 0.  1.
        2   -1    0    0  501    0  0.00000000000E+00  0.00000000000E+00 -0.13316013053E+04  0.13316013053E+04  0.25500000920E-02 0. -1.
    10030    2    1    2    0    0  0.00000000000E+00  0.00000000000E+00  0.31625027641E+03  0.29794528869E+04  0.29626213508E+04 0.  0.
        4    1    3    3  502    0  0.10380620731E+04  0.84210640553E+03 -0.48390895331E+03  0.14215785430E+04  0.12699999809E+01 0. -1.
       -4    1    3    3    0  502 -0.10380620731E+04 -0.84210640553E+03  0.80015922972E+03  0.15578743440E+04  0.12699999809E+01 0.  1.
</event>
<event>
 5   0  0.6393633E-06  0.2976422E+04  0.7818609E-02  0.8250496E-01
        2   -1    0    0  501    0  0.00000000000E+00  0.00000000000E+00  0.20228926562E+04  0.20228926562E+04  0.25500000920E-02 0.  1.
       -2   -1    0    0    0  501  0.00000000000E+00  0.00000000000E+00 -0.10948538399E+04  0.10948538399E+04  0.25500000920E-02 0. -1.
    10030    2    1    2    0    0  0.00000000000E+00  0.00000000000E+00  0.92803881624E+03  0.31177464961E+04  0.29764218736E+04 0.  0.
        4    1    3    3  502    0 -0.31799222864E+03  0.10610302758E+04  0.15051262587E+04  0.18687725841E+04  0.12699999809E+01 0.  1.
       -4    1    3    3    0  502  0.31799222864E+03 -0.10610302758E+04 -0.57708744245E+03  0.12489739120E+04  0.12699999809E+01 0. -1.
</event>
<event>
 5   0  0.2508094E-06  0.2912654E+04  0.7818609E-02  0.8269122E-01
       -1   -1    0    0    0  501  0.00000000000E+00  0.00000000000E+00  0.23034979408E+04  0.23034979408E+04  0.50400001928E-02 0. -1.
        1   -1    0    0  501    0  0.00000000000E+00  0.00000000000E+00 -0.92072529427E+03  0.92072529429E+03  0.50400001928E-02 0.  1.
    10030    2    1    2    0    0  0.00000000000E+00  0.00000000000E+00  0.13827726465E+04  0.32242232351E+04  0.29126543354E+04 0.  0.
        3    1    3    3  502    0 -0.34553353390E+03  0.49506307235E+02 -0.87373276657E+03  0.94087898005E+03  0.10100000352E+00 0.  1.
       -3    1    3    3    0  502  0.34553353390E+03 -0.49506307235E+02  0.22565054131E+04  0.22833442551E+04  0.10100000352E+00 0. -1.
</event>
<event>
 5   0  0.2508094E-06  0.2884940E+04  0.7818609E-02  0.8277372E-01
        1   -1    0    0  501    0  0.00000000000E+00  0.00000000000E+00  0.12970849195E+04  0.12970849195E+04  0.50400001928E-02 0. -1.
       -1   -1    0    0    0  501  0.00000000000E+00  0.00000000000E+00 -0.16041506393E+04  0.16041506393E+04  0.50400001928E-02 0.  1.
    10030    2    1    2    0    0  0.00000000000E+00  0.00000000000E+00 -0.30706571981E+03  0.29012355588E+04  0.28849399320E+04 0.  0.
        3    1    3    3  502    0 -0.76165783993E+03  0.87750758988E+03 -0.10130990420E+04  0.15415939525E+04  0.10100000352E+00 0. -1.
       -3    1    3    3    0  502  0.76165783993E+03 -0.87750758988E+03  0.70603332214E+03  0.13596416063E+04  0.10100000352E+00 0.  1.
</event>
<event>
 5   0  0.2474769E-06  0.2899861E+04  0.7818609E-02  0.8272919E-01
        1   -1    0    0  501    0  0.00000000000E+00  0.00000000000E+00  0.16500217913E+04  0.16500217913E+04  0.50400001928E-02 0.  1.
       -1   -1    0    0    0  501  0.00000000000E+00  0.00000000000E+00 -0.12741033542E+04  0.12741033542E+04  0.50400001928E-02 0. -1.
    10030    2    1    2    0    0  0.00000000000E+00  0.00000000000E+00  0.37591843711E+03  0.29241251456E+04  0.28998608925E+04 0.  0.
        1    1    3    3  502    0 -0.98163673772E+03 -0.36114475580E+03 -0.82456520358E+03  0.13318948887E+04  0.50400001928E-02 0. -1.
       -1    1    3    3    0  502  0.98163673772E+03  0.36114475580E+03  0.12004836407E+04  0.15922302569E+04  0.50400001928E-02 0.  1.
</event>
<event>
 5   0  0.2429358E-06  0.2900671E+04  0.7818609E-02  0.8272678E-01
        1   -1    0    0  501    0  0.00000000000E+00  0.00000000000E+00  0.14641440548E+04  0.14641440548E+04  0.50400001928E-02 0. -1.
       -1   -1    0    0    0  501  0.00000000000E+00  0.00000000000E+00 -0.14366573144E+04  0.14366573144E+04  0.50400001928E-02 0.  1.
    10030    2    1    2    0    0  0.00000000000E+00  0.00000000000E+00  0.27486740414E+02  0.29008013692E+04  0.29006711400E+04 0.  0.
        2    1    3    3  502    0  0.11858294879E+04  0.81017817469E+03  0.21597266677E+03  0.14523169220E+04  0.25500000920E-02 0. -1.
       -2    1    3    3    0  502 -0.11858294879E+04 -0.81017817469E+03 -0.18848592636E+03  0.14484844472E+04  0.25500000920E-02 0.  1.
</event>
<event>
 5   0  0.6612533E-06  0.2886389E+04  0.7818609E-02  0.8276939E-01
        2   -1    0    0  501    0  0.00000000000E+00  0.00000000000E+00  0.13990509024E+04  0.13990509024E+04  0.25500000920E-02 0.  1.
       -2   -1    0    0    0  501  0.00000000000E+00  0.00000000000E+00 -0.14887310513E+04  0.14887310513E+04  0.25500000920E-02 0. -1.
    10030    2    1    2    0    0  0.00000000000E+00  0.00000000000E+00 -0.89680148885E+02  0.28877819537E+04  0.28863891080E+04 0.  0.
        3    1    3    3  502    0  0.20406168700E+03 -0.10933161907E+04 -0.96497352298E+03  0.14724657467E+04  0.10100000352E+00 0.  1.
       -3    1    3    3    0  502 -0.20406168700E+03  0.10933161907E+04  0.87529337410E+03  0.14153162070E+04  0.10100000352E+00 0. -1.
</event>
<event>
 5   0  0.6612533E-06  0.2902830E+04  0.7818609E-02  0.8272036E-01
        2   -1    0    0  501    0  0.00000000000E+00  0.00000000000E+00  0.16438041039E+04  0.16438041039E+04  0.25500000920E-02 0.  1.
       -2   -1    0    0    0  501  0.00000000000E+00  0.00000000000E+00 -0.12815433090E+04  0.12815433090E+04  0.25500000920E-02 0. -1.
    10030    2    1    2    0    0  0.00000000000E+00  0.00000000000E+00  0.36226079485E+03  0.29253474129E+04  0.29028304468E+04 0.  0.
        3    1    3    3  502    0  0.52476059051E+03 -0.10861017199E+04 -0.63235823655E+03  0.13619352308E+04  0.10100000352E+00 0. -1.
       -3    1    3    3    0  502 -0.52476059051E+03  0.10861017199E+04  0.99461903140E+03  0.15634121821E+04  0.10100000352E+00 0.  1.
</event>
<event>
 5   0  0.2508094E-06  0.2888368E+04  0.7818609E-02  0.8276347E-01
       -1   -1    0    0    0  501  0.00000000000E+00  0.00000000000E+00  0.12050130482E+04  0.12050130482E+04  0.50400001928E-02 0. -1.
        1   -1    0    0  501    0  0.00000000000E+00  0.00000000000E+00 -0.17308254061E+04  0.17308254061E+04  0.50400001928E-02 0.  1.
    10030    2    1    2    0    0  0.00000000000E+00  0.00000000000E+00 -0.52581235792E+03  0.29358384543E+04  0.28883678425E+04 0.  0.
        3    1    3    3  502    0 -0.54847218411E+03 -0.10306361459E+04  0.60114412102E+03  0.13131667322E+04  0.10100000352E+00 0. -1.
       -3    1    3    3    0  502  0.54847218411E+03  0.10306361459E+04 -0.11269564789E+04  0.16226717221E+04  0.10100000352E+00 0.  1.
</event>
<event>
 5   0  0.6615403E-06  0.2947629E+04  0.7818609E-02  0.8258846E-01
        2   -1    0    0  501    0  0.00000000000E+00  0.00000000000E+00  0.15098527585E+04  0.15098527585E+04  0.25500000920E-02 0.  1.
       -2   -1    0    0    0  501  0.00000000000E+00  0.00000000000E+00 -0.14386366969E+04  0.14386366969E+04  0.25500000920E-02 0. -1.
    10030    2    1    2    0    0  0.00000000000E+00  0.00000000000E+00  0.71216061596E+02  0.29484894554E+04  0.29476292747E+04 0.  0.
        2    1    3    3  502    0 -0.55795921019E+03  0.44926870576E+03 -0.12527774398E+04  0.14431258309E+04  0.25500000920E-02 0. -1.
       -2    1    3    3    0  502  0.55795921019E+03 -0.44926870576E+03  0.13239935014E+04  0.15053636245E+04  0.25500000920E-02 0.  1.
</event>
<event>
 5   0  0.6513041E-06  0.2644135E+04  0.7818609E-02  0.8353362E-01
       -2   -1    0    0    0  501  0.00000000000E+00  0.00000000000E+00  0.11620386374E+04  0.11620386374E+04  0.25500000920E-02 0.  1.
        2   -1    0    0  501    0  0.00000000000E+00  0.00000000000E+00 -0.15041350592E+04  0.15041350592E+04  0.25500000920E-02 0. -1.
    10030    2    1    2    0    0  0.00000000000E+00  0.00000000000E+00 -0.34209642183E+03  0.26661736965E+04  0.26441354387E+04 0.  0.
        1    1    3    3  502    0  0.89753171765E+03  0.96706988842E+03 -0.25586649590E+03  0.13439698721E+04  0.50400001928E-02 0. -1.
       -1    1    3    3    0  502 -0.89753171765E+03 -0.96706988842E+03 -0.86229925933E+02  0.13222038245E+04  0.50400001928E-02 0.  1.
</event>
<event>
 5   0  0.6393633E-06  0.2921813E+04  0.7818609E-02  0.8266417E-01
        2   -1    0    0  501    0  0.00000000000E+00  0.00000000000E+00  0.26864151301E+04  0.26864151301E+04  0.25500000920E-02 0. -1.
       -2   -1    0    0    0  501  0.00000000000E+00  0.00000000000E+00 -0.79445935768E+03  0.79445935768E+03  0.25500000920E-02 0.  1.
    10030    2    1    2    0    0  0.00000000000E+00  0.00000000000E+00  0.18919557725E+04  0.34808744878E+04  0.29218128884E+04 0.  0.
        4    1    3    3  502    0 -0.72949707619E+02  0.95691910156E+03  0.22582006562E+04  0.24536682016E+04  0.12699999809E+01 0. -1.
       -4    1    3    3    0  502  0.72949707619E+02 -0.95691910156E+03 -0.36624488374E+03  0.10272062863E+04  0.12699999809E+01 0.  1.
</event>
<event>
 5   0  0.2348684E-06  0.2917889E+04  0.7818609E-02  0.8267575E-01
       -1   -1    0    0    0  501  0.00000000000E+00  0.00000000000E+00  0.93666513847E+03  0.93666513848E+03  0.50400001928E-02 0. -1.
        1   -1    0    0  501    0  0.00000000000E+00  0.00000000000E+00 -0.22724437484E+04  0.22724437484E+04  0.50400001928E-02 0.  1.
    10030    2    1    2    0    0  0.00000000000E+00  0.00000000000E+00 -0.13357786099E+04  0.32091088869E+04  0.29178888521E+04 0.  0.
        5    1    3    3  502    0  0.66439479358E+03 -0.10479681886E+04  0.17605538522E+03  0.12532658755E+04  0.46999998093E+01 0. -1.
       -5    1    3    3    0  502 -0.66439479358E+03  0.10479681886E+04 -0.15118339951E+04  0.19558430113E+04  0.46999998093E+01 0.  1.
</event>
<event>
 5   0  0.6513041E-06  0.2813079E+04  0.7818609E-02  0.8299219E-01
       -2   -1    0    0    0  501  0.00000000000E+00  0.00000000000E+00  0.14742781174E+04  0.14742781174E+04  0.25500000920E-02 0.  1.
        2   -1    0    0  501    0  0.00000000000E+00  0.00000000000E+00 -0.13419133908E+04  0.13419133908E+04  0.25500000920E-02 0. -1.
    10030    2    1    2    0    0  0.00000000000E+00  0.00000000000E+00  0.13236472666E+03  0.28161915082E+04  0.28130791297E+04 0.  0.
        1    1    3    3  502    0  0.59380235610E+03 -0.11735920644E+04 -0.43280061473E+03  0.13846428940E+04  0.50400001928E-02 0. -1.
       -1    1    3    3    0  502 -0.59380235610E+03  0.11735920644E+04  0.56516534139E+03  0.14315486142E+04  0.50400001928E-02 0.  1.
</event>
<event>
 5   0  0.6612533E-06  0.2881716E+04  0.7818609E-02  0.8278338E-01
       -2   -1    0    0    0  501  0.00000000000E+00  0.00000000000E+00  0.95925477668E+03  0.95925477668E+03  0.25500000920E-02 0. -1.
        2   -1    0    0  501    0  0.00000000000E+00  0.00000000000E+00 -0.21642542084E+04  0.21642542084E+04  0.25500000920E-02 0.  1.
    10030    2    1    2    0    0  0.00000000000E+00  0.00000000000E+00 -0.12049994317E+04  0.31235089851E+04  0.28817155914E+04 0.  0.
        3    1    3    3  502    0 -0.12809021059E+04 -0.35402596551E+03 -0.12060189474E+04  0.17945824865E+04  0.10100000352E+00 0.  1.
       -3    1    3    3    0  502  0.12809021059E+04  0.35402596551E+03  0.10195156537E+01  0.13289264986E+04  0.10100000352E+00 0. -1.
</event>
<event>
 5   0  0.2336512E-06  0.2877668E+04  0.7818609E-02  0.8279553E-01
        1   -1    0    0  501    0  0.00000000000E+00  0.00000000000E+00  0.13222803213E+04  0.13222803213E+04  0.50400001928E-02 0. -1.
       -1   -1    0    0    0  501  0.00000000000E+00  0.00000000000E+00 -0.15656617977E+04  0.15656617977E+04  0.50400001928E-02 0.  1.
    10030    2    1    2    0    0  0.00000000000E+00  0.00000000000E+00 -0.24338147646E+03  0.28879421190E+04  0.28776683512E+04 0.  0.
        4    1    3    3  502    0 -0.12968583936E+04  0.43773200210E+03 -0.56688601871E+03  0.14814899156E+04  0.12699999809E+01 0.  1.
       -4    1    3    3    0  502  0.12968583936E+04 -0.43773200210E+03  0.32350454225E+03  0.14064522034E+04  0.12699999809E+01 0. -1.
</event>
<event>
 5   0  0.6733688E-06  0.2430746E+04  0.7818609E-02  0.8428082E-01
       -2   -1    0    0    0  501  0.00000000000E+00  0.00000000000E+00  0.65182777643E+03  0.65182777644E+03  0.25500000920E-02 0.  1.
        2   -1    0    0  501    0  0.00000000000E+00  0.00000000000E+00 -0.22661382538E+04  0.22661382538E+04  0.25500000920E-02 0. -1.
    10030    2    1    2    0    0  0.00000000000E+00  0.00000000000E+00 -0.16143104773E+04  0.29179660302E+04  0.24307462715E+04 0.  0.
        5    1    3    3  502    0 -0.54390290375E+03  0.10385153431E+04 -0.42232976412E+03  0.12460854731E+04  0.46999998093E+01 0.  1.
       -5    1    3    3    0  502  0.54390290375E+03 -0.10385153431E+04 -0.11919807132E+04  0.16718805571E+04  0.46999998093E+01 0. -1.
</event>
<event>
 5   0  0.6615403E-06  0.2933572E+04  0.7818609E-02  0.8262958E-01
        2   -1    0    0  501    0  0.00000000000E+00  0.00000000000E+00  0.11780073102E+04  0.11780073102E+04  0.25500000920E-02 0.  1.
       -2   -1    0    0    0  501  0.00000000000E+00  0.00000000000E+00 -0.18263567333E+04  0.18263567333E+04  0.25500000920E-02 0. -1.
    10030    2    1    2    0    0  0.00000000000E+00  0.00000000000E+00 -0.64834942314E+03  0.30043640435E+04  0.29335722816E+04 0.  0.
        2    1    3    3  502    0 -0.69917849811E+03 -0.12437474304E+04 -0.67253505510E+03  0.15773590724E+04  0.25500000920E-02 0. -1.
       -2    1    3    3    0  502  0.69917849811E+03  0.12437474304E+04  0.24185631958E+02  0.14270049712E+04  0.25500000920E-02 0.  1.
</event>
<event>
 5   0  0.6615403E-06  0.2735470E+04  0.7818609E-02  0.8323587E-01
        2   -1    0    0  501    0  0.00000000000E+00  0.00000000000E+00  0.26049072222E+04  0.26049072222E+04  0.25500000920E-02 0.  1.
       -2   -1    0    0    0  501  0.00000000000E+00  0.00000000000E+00 -0.71814402406E+03  0.71814402407E+03  0.25500000920E-02 0. -1.
    10030    2    1    2    0    0  0.00000000000E+00  0.00000000000E+00  0.18867631982E+04  0.33230512463E+04  0.27354696525E+04 0.  0.
        2    1    3    3  502    0 -0.40705114396E+03 -0.90560904730E+03 -0.19935824493E+03  0.10127003951E+04  0.25500000920E-02 0. -1.
       -2    1    3    3    0  502  0.40705114396E+03  0.90560904730E+03  0.20861214431E+04  0.23103508512E+04  0.25500000920E-02 0.  1.
</event>
<event>
 5   0  0.2508094E-06  0.2755307E+04  0.7818609E-02  0.8317280E-01
       -1   -1    0    0    0  501  0.00000000000E+00  0.00000000000E+00  0.11613749207E+04  0.11613749207E+04  0.50400001928E-02 0.  1.
        1   -1    0    0  501    0  0.00000000000E+00  0.00000000000E+00 -0.16342088650E+04  0.16342088650E+04  0.50400001928E-02 0. -1.
    10030    2    1    2    0    0  0.00000000000E+00  0.00000000000E+00 -0.47283394425E+03  0.27955837857E+04  0.27553070182E+04 0.  0.
        3    1    3    3  502    0 -0.12551262983E+03 -0.87493774909E+03 -0.13085852042E+04  0.15791341716E+04  0.10100000352E+00 0. -1.
       -3    1    3    3    0  502  0.12551262983E+03  0.87493774909E+03  0.83575125996E+03  0.12164496141E+04  0.10100000352E+00 0.  1.
</event>
<event>
 5   0  0.2429358E-06  0.2780665E+04  0.7818609E-02  0.8309296E-01
        1   -1    0    0  501    0  0.00000000000E+00  0.00000000000E+00  0.23775752521E+04  0.23775752521E+04  0.50400001928E-02 0. -1.
       -1   -1    0    0    0  501  0.00000000000E+00  0.00000000000E+00 -0.81302325621E+03  0.81302325623E+03  0.50400001928E-02 0.  1.
    10030    2    1    2    0    0  0.00000000000E+00  0.00000000000E+00  0.15645519959E+04  0.31905985083E+04  0.27806646496E+04 0.  0.
        2    1    3    3  502    0 -0.53180556830E+03  0.10628823832E+04  0.16100825133E+04  0.20012250804E+04  0.25500000920E-02 0.  1.
       -2    1    3    3    0  502  0.53180556830E+03 -0.10628823832E+04 -0.45530517458E+02  0.11893734279E+04  0.25500000920E-02 0. -1.
</event>
<event>
 5   0  0.6513041E-06  0.2900470E+04  0.7818609E-02  0.8272738E-01
       -2   -1    0    0    0  501  0.00000000000E+00  0.00000000000E+00  0.12601173602E+04  0.12601173602E+04  0.25500000920E-02 0. -1.
        2   -1    0    0  501    0  0.00000000000E+00  0.00000000000E+00 -0.16690356999E+04  0.16690356999E+04  0.25500000920E-02 0.  1.
    10030    2    1    2    0    0  0.00000000000E+00  0.00000000000E+00 -0.40891833970E+03  0.29291530600E+04  0.29004695207E+04 0.  0.
        1    1    3    3  502    0 -0.71921930496E+03 -0.93644864165E+03  0.64587023376E+03  0.13458680567E+04  0.50400001928E-02 0. -1.
       -1    1    3    3    0  502  0.71921930496E+03  0.93644864165E+03 -0.10547885735E+04  0.15832850033E+04  0.50400001928E-02 0.  1.
</event>
<event>
 5   0  0.2429358E-06  0.3274504E+04  0.7818609E-02  0.8169413E-01
        1   -1    0    0  501    0  0.00000000000E+00  0.00000000000E+00  0.17606165424E+04  0.17606165424E+04  0.50400001928E-02 0. -1.
       -1   -1    0    0    0  501  0.00000000000E+00  0.00000000000E+00 -0.15225310942E+04  0.15225310942E+04  0.50400001928E-02 0.  1.
    10030    2    1    2    0    0  0.00000000000E+00  0.00000000000E+00  0.23808544820E+03  0.32831476367E+04  0.32745035843E+04 0.  0.
        2    1    3    3  502    0 -0.12556453432E+04  0.73403455798E+03 -0.63470069114E+03  0.15869142786E+04  0.25500000920E-02 0.  1.
       -2    1    3    3    0  502  0.12556453432E+04 -0.73403455798E+03  0.87278613935E+03  0.16962333581E+04  0.25500000920E-02 0. -1.
</event>
<event>
 5   0  0.2348684E-06  0.2889561E+04  0.7818609E-02  0.8275990E-01
       -1   -1    0    0    0  501  0.00000000000E+00  0.00000000000E+00  0.21771511266E+04  0.21771511266E+04  0.50400001928E-02 0. -1.
        1   -1    0    0  501    0  0.00000000000E+00  0.00000000000E+00 -0.95877139852E+03  0.95877139853E+03  0.50400001928E-02 0.  1.
    10030    2    1    2    0    0  0.00000000000E+00  0.00000000000E+00  0.12183797281E+04  0.31359225252E+04  0.28895606798E+04 0.  0.
        5    1    3    3  502    0  0.13116769132E+04 -0.26933114552E+03  0.20410402247E+02  0.13392065804E+04  0.46999998093E+01 0.  1.
       -5    1    3    3    0  502 -0.13116769132E+04  0.26933114552E+03  0.11979693259E+04  0.17967159448E+04  0.46999998093E+01 0. -1.
</event>
<event>
 5   0  0.6733688E-06  0.2897971E+04  0.7818609E-02  0.8273481E-01
       -2   -1    0    0    0  501  0.00000000000E+00  0.00000000000E+00  0.13687310122E+04  0.13687310122E+04  0.25500000920E-02 0.  1.
        2   -1    0    0  501    0  0.00000000000E+00  0.00000000000E+00 -0.15339460998E+04  0.15339460998E+04  0.25500000920E-02 0. -1.
    10030    2    1    2    0    0  0.00000000000E+00  0.00000000000E+00 -0.16521508759E+03  0.29026771120E+04  0.28979714269E+04 0.  0.
        5    1    3    3  502    0  0.76014781438E+03  0.98670645701E+03 -0.82416313197E+03  0.14935465477E+04  0.46999998093E+01 0. -1.
       -5    1    3    3    0  502 -0.76014781438E+03 -0.98670645701E+03  0.65894804438E+03  0.14091305643E+04  0.46999998093E+01 0.  1.
</event>
<event>
 5   0  0.2429358E-06  0.2863173E+04  0.7818609E-02  0.8283920E-01
        1   -1    0    0  501    0  0.00000000000E+00  0.00000000000E+00  0.12189789540E+04  0.12189789540E+04  0.50400001928E-02 0.  1.
       -1   -1    0    0    0  501  0.00000000000E+00  0.00000000000E+00 -0.16812764068E+04  0.16812764068E+04  0.50400001928E-02 0. -1.
    10030    2    1    2    0    0  0.00000000000E+00  0.00000000000E+00 -0.46229745284E+03  0.29002553608E+04  0.28631734531E+04 0.  0.
        2    1    3    3  502    0 -0.13088609002E+04 -0.38811824004E+03  0.20534742476E+03  0.13805506833E+04  0.25500000920E-02 0.  1.
       -2    1    3    3    0  502  0.13088609002E+04  0.38811824004E+03 -0.66764487760E+03  0.15197046775E+04  0.25500000920E-02 0. -1.
</event>
<event>
 5   0  0.2508094E-06  0.2867698E+04  0.7818609E-02  0.8282554E-01
        1   -1    0    0  501    0  0.00000000000E+00  0.00000000000E+00  0.15778018258E+04  0.15778018259E+04  0.50400001928E-02 0. -1.
       -1   -1    0    0    0  501  0.00000000000E+00  0.00000000000E+00 -0.13030299964E+04  0.13030299964E+04  0.50400001928E-02 0.  1.
    10030    2    1    2    0    0  0.00000000000E+00  0.00000000000E+00  0.27477182947E+03  0.28808318222E+04  0.28676981065E+04 0.  0.
        3    1    3    3  502    0 -0.40612316607E+03 -0.23501360090E+02  0.15186137532E+04  0.15721565067E+04  0.10100000352E+00 0. -1.
       -3    1    3    3    0  502  0.40612316607E+03  0.23501360090E+02 -0.12438419238E+04  0.13086753155E+04  0.10100000352E+00 0.  1.
</event>
<event>
 5   0  0.2348684E-06  0.2543328E+04  0.7818609E-02  0.8387710E-01
       -1   -1    0    0    0  501  0.00000000000E+00  0.00000000000E+00  0.95961943195E+03  0.95961943196E+03  0.50400001928E-02 0. -1.
        1   -1    0    0  501    0  0.00000000000E+00  0.00000000000E+00 -0.16851782482E+04  0.16851782482E+04  0.50400001928E-02 0.  1.
    10030    2    1    2    0    0  0.00000000000E+00  0.00000000000E+00 -0.72555881629E+03  0.26447976802E+04  0.25433283652E+04 0.  0.
        5    1    3    3  502    0  0.26097540113E+03  0.94031907568E+03 -0.12106613550E+04  0.15550019713E+04  0.46999998093E+01 0.  1.
       -5    1    3    3    0  502 -0.26097540113E+03 -0.94031907568E+03  0.48510253876E+03  0.10897957089E+04  0.46999998093E+01 0. -1.
</event>
<event>
 5   0  0.6615403E-06  0.2898643E+04  0.7818609E-02  0.8273281E-01
       -2   -1    0    0    0  501  0.00000000000E+00  0.00000000000E+00  0.27955959898E+04  0.27955959898E+04  0.25500000920E-02 0.  1.
        2   -1    0    0  501    0  0.00000000000E+00  0.00000000000E+00 -0.75137209345E+03  0.75137209346E+03  0.25500000920E-02 0. -1.
    10030    2    1    2    0    0  0.00000000000E+00  0.00000000000E+00  0.20442238964E+04  0.35469680833E+04  0.28986430007E+04 0.  0.
        2    1    3    3  502    0 -0.12102309353E+04  0.76869100677E+03  0.76256791963E+03  0.16239010477E+04  0.25500000920E-02 0. -1.
       -2    1    3    3    0  502  0.12102309353E+04 -0.76869100677E+03  0.12816559767E+04  0.19230670356E+04  0.25500000920E-02 0.  1.
</event>
<event>
 5   0  0.6513041E-06  0.2913970E+04  0.7818609E-02  0.8268733E-01
       -2   -1    0    0    0  501  0.00000000000E+00  0.00000000000E+00  0.10926497386E+04  0.10926497386E+04  0.25500000920E-02 0.  1.
        2   -1    0    0  501    0  0.00000000000E+00  0.00000000000E+00 -0.19428043365E+04  0.19428043365E+04  0.25500000920E-02 0. -1.
    10030    2    1    2    0    0  0.00000000000E+00  0.00000000000E+00 -0.85015459790E+03  0.30354540750E+04  0.29139695608E+04 0.  0.
        1    1    3    3  502    0  0.13116096951E+03 -0.12246696108E+03 -0.19312489562E+04  0.19395679641E+04  0.50400001928E-02 0. -1.
       -1    1    3    3    0  502 -0.13116096951E+03  0.12246696108E+03  0.10810943583E+04  0.10958861109E+04  0.50400001928E-02 0.  1.
</event>
<event>
 5   0  0.2508094E-06  0.2897832E+04  0.7818609E-02  0.8273523E-01
       -1   -1    0    0    0  501  0.00000000000E+00  0.00000000000E+00  0.11143874234E+04  0.11143874234E+04  0.50400001928E-02 0.  1.
        1   -1    0    0  501    0  0.00000000000E+00  0.00000000000E+00 -0.18838663026E+04  0.18838663026E+04  0.50400001928E-02 0. -1.
    10030    2    1    2    0    0  0.00000000000E+00  0.00000000000E+00 -0.76947887921E+03  0.29982537260E+04  0.28978315445E+04 0.  0.
        3    1    3    3  502    0  0.39751083826E+03 -0.11984270060E+04 -0.11200829629E+04  0.16878471522E+04  0.10100000352E+00 0. -1.
       -3    1    3    3    0  502 -0.39751083826E+03  0.11984270060E+04  0.35060408364E+03  0.13104065739E+04  0.10100000352E+00 0.  1.
</event>
<event>
 5   0  0.6513041E-06  0.2892870E+04  0.7818609E-02  0.8275002E-01
       -2   -1    0    0    0  501  0.00000000000E+00  0.00000000000E+00  0.12132510646E+04  0.12132510646E+04  0.25500000920E-02 0.  1.
        2   -1    0    0  501    0  0.00000000000E+00  0.00000000000E+00 -0.17244359948E+04  0.17244359948E+04  0.25500000920E-02 0. -1.
    10030    2    1    2    0    0  0.00000000000E+00  0.00000000000E+00 -0.51118493025E+03  0.29376870594E+04  0.28928697216E+04 0.  0.
        1    1    3    3  502    0  0.99890367199E+02 -0.95521349987E+03  0.84271914411E+03  0.12777270725E+04  0.50400001928E-02 0.  1.
       -1    1    3    3    0  502 -0.99890367199E+02  0.95521349987E+03 -0.13539040744E+04  0.16599599870E+04  0.50400001928E-02 0. -1.
</event>
<event>
 5   0  0.6513041E-06  0.2598347E+04  0.7818609E-02  0.8368763E-01
       -2   -1    0    0    0  501  0.00000000000E+00  0.00000000000E+00  0.94772459646E+03  0.94772459646E+03  0.25500000920E-02 0.  1.
        2   -1    0    0  501    0  0.00000000000E+00  0.00000000000E+00 -0.17809515826E+04  0.17809515826E+04  0.25500000920E-02 0. -1.
    10030    2    1    2    0    0  0.00000000000E+00  0.00000000000E+00 -0.83322698611E+03  0.27286761790E+04  0.25983468744E+04 0.  0.
        1    1    3    3  502    0 -0.12721127555E+04  0.16668071861E+03 -0.63131453726E+03  0.14298990767E+04  0.50400001928E-02 0.  1.
       -1    1    3    3    0  502  0.12721127555E+04 -0.16668071861E+03 -0.20191244885E+03  0.12987771023E+04  0.50400001928E-02 0. -1.
</event>
<event>
 5   0  0.6733688E-06  0.2902805E+04  0.7818609E-02  0.8272043E-01
       -2   -1    0    0    0  501  0.00000000000E+00  0.00000000000E+00  0.13964039087E+04  0.13964039087E+04  0.25500000920E-02 0. -1.
        2   -1    0    0  501    0  0.00000000000E+00  0.00000000000E+00 -0.15085677781E+04  0.15085677781E+04  0.25500000920E-02 0.  1.
    10030    2    1    2    0    0  0.00000000000E+00  0.00000000000E+00 -0.11216386945E+03  0.29049716868E+04  0.29028054995E+04 0.  0.
        5    1    3    3  502    0  0.25733597835E+03  0.13447844036E+04 -0.53798146834E+03  0.14710924676E+04  0.46999998093E+01 0.  1.
       -5    1    3    3    0  502 -0.25733597835E+03 -0.13447844036E+04  0.42581759889E+03  0.14338792193E+04  0.46999998093E+01 0. -1.
</event>
<event>
 5   0  0.6612533E-06  0.2963263E+04  0.7818609E-02  0.8254300E-01
       -2   -1    0    0    0  501  0.00000000000E+00  0.00000000000E+00  0.13030644203E+04  0.13030644203E+04  0.25500000920E-02 0.  1.
        2   -1    0    0  501    0  0.00000000000E+00  0.00000000000E+00 -0.16846688333E+04  0.16846688333E+04  0.25500000920E-02 0. -1.
    10030    2    1    2    0    0  0.00000000000E+00  0.00000000000E+00 -0.38160441304E+03  0.29877332537E+04  0.29632630776E+04 0.  0.
        3    1    3    3  502    0  0.12859117898E+04 -0.73239182479E+03 -0.11764206661E+03  0.14845223414E+04  0.10100000352E+00 0. -1.
       -3    1    3    3    0  502 -0.12859117898E+04  0.73239182479E+03 -0.26396234643E+03  0.15032109122E+04  0.10100000352E+00 0.  1.
</event>
<event>
 5   0  0.2474769E-06  0.2922860E+04  0.7818609E-02  0.8266108E-01
       -1   -1    0    0    0  501  0.00000000000E+00  0.00000000000E+00  0.14134205097E+04  0.14134205098E+04  0.50400001928E-02 0.  1.
        1   -1    0    0  501    0  0.00000000000E+00  0.00000000000E+00 -0.15110705134E+04  0.15110705134E+04  0.50400001928E-02 0. -1.
    10030    2    1    2    0    0  0.00000000000E+00  0.00000000000E+00 -0.97650003686E+02  0.29244910232E+04  0.29228602809E+04 0.  0.
        1    1    3    3  502    0  0.13559952983E+04  0.50617278276E+03  0.15338654332E+03  0.14554935818E+04  0.50400001928E-02 0.  1.
       -1    1    3    3    0  502 -0.13559952983E+04 -0.50617278276E+03 -0.25103654700E+03  0.14689974414E+04  0.50400001928E-02 0. -1.
</event>
<event>
 5   0  0.2474769E-06  0.2848742E+04  0.7818609E-02  0.8288294E-01
       -1   -1    0    0    0  501  0.00000000000E+00  0.00000000000E+00  0.12689867886E+04  0.12689867886E+04  0.50400001928E-02 0.  1.
        1   -1    0    0  501    0  0.00000000000E+00  0.00000000000E+00 -0.15987815531E+04  0.15987815531E+04  0.50400001928E-02 0. -1.
    10030    2    1    2    0    0  0.00000000000E+00  0.00000000000E+00 -0.32979476451E+03  0.28677683417E+04  0.28487419461E+04 0.  0.
        1    1    3    3  502    0 -0.13689626961E+04  0.36125592975E+03 -0.32171959559E+03  0.14519188022E+04  0.50400001928E-02 0. -1.
       -1    1    3    3    0  502  0.13689626961E+04 -0.36125592975E+03 -0.80751689195E+01  0.14158495395E+04  0.50400001928E-02 0.  1.
</event>
<event>
 5   0  0.2474769E-06  0.2901663E+04  0.7818609E-02  0.8272383E-01
        1   -1    0    0  501    0  0.00000000000E+00  0.00000000000E+00  0.13575689770E+04  0.13575689770E+04  0.50400001928E-02 0.  1.
       -1   -1    0    0    0  501  0.00000000000E+00  0.00000000000E+00 -0.15505012716E+04  0.15505012716E+04  0.50400001928E-02 0. -1.
    10030    2    1    2    0    0  0.00000000000E+00  0.00000000000E+00 -0.19293229462E+03  0.29080702486E+04  0.29016632644E+04 0.  0.
        1    1    3    3  502    0  0.30415650979E+03  0.11701398441E+04 -0.90021824186E+03  0.15073590548E+04  0.50400001928E-02 0. -1.
       -1    1    3    3    0  502 -0.30415650979E+03 -0.11701398441E+04  0.70728594725E+03  0.14007111937E+04  0.50400001928E-02 0.  1.
</event>
<event>
 5   0  0.6733688E-06  0.2861708E+04  0.7818609E-02  0.8284362E-01
        2   -1    0    0  501    0  0.00000000000E+00  0.00000000000E+00  0.18993799700E+04  0.18993799700E+04  0.25500000920E-02 0.  1.
       -2   -1    0    0    0  501  0.00000000000E+00  0.00000000000E+00 -0.10779010405E+04  0.10779010405E+04  0.25500000920E-02 0. -1.
    10030    2    1    2    0    0  0.00000000000E+00  0.00000000000E+00  0.82147892945E+03  0.29772810105E+04  0.28617083332E+04 0.  0.
        5    1    3    3  502    0 -0.23685430201E+03  0.19686058739E+03  0.18644782137E+04  0.18897500233E+04  0.46999998093E+01 0.  1.
       -5    1    3    3    0  502  0.23685430201E+03 -0.19686058739E+03 -0.10429992842E+04  0.10875309872E+04  0.46999998093E+01 0. -1.
</event>
<event>
 5   0  0.6513041E-06  0.2892920E+04  0.7818609E-02  0.8274987E-01
        2   -1    0    0  501    0  0.00000000000E+00  0.00000000000E+00  0.17231910845E+04  0.17231910845E+04  0.25500000920E-02 0. -1.
       -2   -1    0    0    0  501  0.00000000000E+00  0.00000000000E+00 -0.12141697354E+04  0.12141697354E+04  0.25500000920E-02 0.  1.
    10030    2    1    2    0    0  0.00000000000E+00  0.00000000000E+00  0.50902134901E+03  0.29373608199E+04  0.28929199527E+04 0.  0.
        1    1    3    3  502    0  0.11260817661E+04  0.89479366335E+03  0.41026408249E+03  0.14956712411E+04  0.50400001928E-02 0. -1.
       -1    1    3    3    0  502 -0.11260817661E+04 -0.89479366335E+03  0.98757266524E+02  0.14416895788E+04  0.50400001928E-02 0.  1.
</event>
<event>
 5   0  0.2348684E-06  0.2885677E+04  0.7818609E-02  0.8277152E-01
       -1   -1    0    0    0  501  0.00000000000E+00  0.00000000000E+00  0.11145330030E+04  0.11145330030E+04  0.50400001928E-02 0. -1.
        1   -1    0    0  501    0  0.00000000000E+00  0.00000000000E+00 -0.18678524597E+04  0.18678524597E+04  0.50400001928E-02 0.  1.
    10030    2    1    2    0    0  0.00000000000E+00  0.00000000000E+00 -0.75331945669E+03  0.29823854627E+04  0.28856771899E+04 0.  0.
        5    1    3    3  502    0 -0.19311549495E+03 -0.94575467860E+03  0.73166722710E+03  0.12112409041E+04  0.46999998093E+01 0. -1.
       -5    1    3    3    0  502  0.19311549495E+03  0.94575467860E+03 -0.14849866838E+04  0.17711445586E+04  0.46999998093E+01 0.  1.
</event>
<event>
 5   0  0.2348684E-06  0.2896548E+04  0.7818609E-02  0.8273905E-01
       -1   -1    0    0    0  501  0.00000000000E+00  0.00000000000E+00  0.15658905071E+04  0.15658905072E+04  0.50400001928E-02 0. -1.
        1   -1    0    0  501    0  0.00000000000E+00  0.00000000000E+00 -0.13394920996E+04  0.13394920996E+04  0.50400001928E-02 0.  1.
    10030    2    1    2    0    0  0.00000000000E+00  0.00000000000E+00  0.22639840758E+03  0.29053826067E+04  0.28965482652E+04 0.  0.
        5    1    3    3  502    0  0.12331348680E+04  0.36336311711E+03  0.78218277950E+03  0.15048210352E+04  0.46999998093E+01 0. -1.
       -5    1    3    3    0  502 -0.12331348680E+04 -0.36336311711E+03 -0.55578437191E+03  0.14005615715E+04  0.46999998093E+01 0.  1.
</event>
<event>
 5   0  0.6513041E-06  0.2905311E+04  0.7818609E-02  0.8271299E-01
       -2   -1    0    0    0  501  0.00000000000E+00  0.00000000000E+00  0.84814065618E+03  0.84814065619E+03  0.25500000920E-02 0. -1.
        2   -1    0    0  501    0  0.00000000000E+00  0.00000000000E+00 -0.24880404057E+04  0.24880404057E+04  0.25500000920E-02 0.  1.
    10030    2    1    2    0    0  0.00000000000E+00  0.00000000000E+00 -0.16398997495E+04  0.33361810619E+04  0.29053111519E+04 0.  0.
        1    1    3    3  502    0 -0.89847313683E+03  0.86985297178E+03 -0.16686935626E+04  0.20852904776E+04  0.50400001928E-02 0.  1.
       -1    1    3    3    0  502  0.89847313683E+03 -0.86985297178E+03  0.28793813089E+02  0.12508905843E+04  0.50400001928E-02 0. -1.
</event>
<event>
 5   0  0.2508094E-06  0.2905930E+04  0.7818609E-02  0.8271115E-01
       -1   -1    0    0    0  501  0.00000000000E+00  0.00000000000E+00  0.14320245020E+04  0.14320245020E+04  0.50400001928E-02 0.  1.
        1   -1    0    0  501    0  0.00000000000E+00  0.00000000000E+00 -0.14742119796E+04  0.14742119796E+04  0.50400001928E-02 0. -1.
    10030    2    1    2    0    0  0.00000000000E+00  0.00000000000E+00 -0.42187477614E+02  0.29062364816E+04  0.29059302647E+04 0.  0.
        3    1    3    3  502    0 -0.13225786190E+04  0.18574833103E+03  0.55114748825E+03  0.14448114791E+04  0.10100000352E+00 0.  1.
       -3    1    3    3    0  502  0.13225786190E+04 -0.18574833103E+03 -0.59333496587E+03  0.14614250025E+04  0.10100000352E+00 0. -1.
</event>
<event>
 5   0  0.2429358E-06  0.2887073E+04  0.7818609E-02  0.8276734E-01
        1   -1    0    0  501    0  0.00000000000E+00  0.00000000000E+00  0.10072878944E+04  0.10072878944E+04  0.50400001928E-02 0. -1.
       -1   -1    0    0    0  501  0.00000000000E+00  0.00000000000E+00 -0.20687207295E+04  0.20687207295E+04  0.50400001928E-02 0.  1.
    10030    2    1    2    0    0  0.00000000000E+00  0.00000000000E+00 -0.10614328351E+04  0.30760086240E+04  0.28870728067E+04 0.  0.
        2    1    3    3  502    0  0.87607899512E+03 -0.11467396301E+04 -0.56870301696E+03  0.15511122804E+04  0.25500000920E-02 0.  1.
       -2    1    3    3    0  502 -0.87607899512E+03  0.11467396301E+04 -0.49272981817E+03  0.15248963436E+04  0.25500000920E-02 0. -1.
</event>
<event>
 5   0  0.2336512E-06  0.2896732E+04  0.7818609E-02  0.8273850E-01
        1   -1    0    0  501    0  0.00000000000E+00  0.00000000000E+00  0.73500509603E+03  0.73500509604E+03  0.50400001928E-02 0.  1.
       -1   -1    0    0    0  501  0.00000000000E+00  0.00000000000E+00 -0.28540815839E+04  0.28540815840E+04  0.50400001928E-02 0. -1.
    10030    2    1    2    0    0  0.00000000000E+00  0.00000000000E+00 -0.21190764879E+04  0.35890866800E+04  0.28967323029E+04 0.  0.
        4    1    3    3  502    0 -0.39655437371E+03  0.13064553505E+04 -0.46059156517E+03  0.14409119185E+04  0.12699999809E+01 0. -1.
       -4    1    3    3    0  502  0.39655437371E+03 -0.13064553505E+04 -0.16584849228E+04  0.21481747615E+04  0.12699999809E+01 0.  1.
</event>
<event>
 5   0  0.2336512E-06  0.2876035E+04  0.7818609E-02  0.8280044E-01
        1   -1    0    0  501    0  0.00000000000E+00  0.00000000000E+00  0.11815928115E+04  0.11815928116E+04  0.50400001928E-02 0.  1.
       -1   -1    0    0    0  501  0.00000000000E+00  0.00000000000E+00 -0.17500909826E+04  0.17500909827E+04  0.50400001928E-02 0. -1.
    10030    2    1    2    0    0  0.00000000000E+00  0.00000000000E+00 -0.56849817110E+03  0.29316837942E+04  0.28760354133E+04 0.  0.
        4    1    3    3  502    0 -0.96983322720E+03  0.98648221661E+03 -0.68449080316E+03  0.15434548665E+04  0.12699999809E+01 0. -1.
       -4    1    3    3    0  502  0.96983322720E+03 -0.98648221661E+03  0.11599263206E+03  0.13882289278E+04  0.12699999809E+01 0.  1.
</event>
<event>
 5   0  0.2474769E-06  0.2892321E+04  0.7818609E-02  0.8275166E-01
        1   -1    0    0  501    0  0.00000000000E+00  0.00000000000E+00  0.12575128281E+04  0.12575128282E+04  0.50400001928E-02 0. -1.
       -1   -1    0    0    0  501  0.00000000000E+00  0.00000000000E+00 -0.16631085413E+04  0.16631085413E+04  0.50400001928E-02 0.  1.
    10030    2    1    2    0    0  0.00000000000E+00  0.00000000000E+00 -0.40559571316E+03  0.29206213695E+04  0.28923210923E+04 0.  0.
        1    1    3    3  502    0  0.70415926130E+01  0.10939188835E+04  0.75232828001E+03  0.13276693672E+04  0.50400001928E-02 0. -1.
       -1    1    3    3    0  502 -0.70415926130E+01 -0.10939188835E+04 -0.11579239932E+04  0.15929520023E+04  0.50400001928E-02 0.  1.
</event>
<event>
 5   0  0.2508094E-06  0.2923577E+04  0.7818609E-02  0.8265897E-01
       -1   -1    0    0    0  501  0.00000000000E+00  0.00000000000E+00  0.10289264415E+04  0.10289264415E+04  0.50400001928E-02 0.  1.
        1   -1    0    0  501    0  0.00000000000E+00  0.00000000000E+00 -0.20767529634E+04  0.20767529634E+04  0.50400001928E-02 0. -1.
    10030    2    1    2    0    0  0.00000000000E+00  0.00000000000E+00 -0.10478265219E+04  0.31056794049E+04  0.29235772858E+04 0.  0.
        3    1    3    3  502    0  0.52423184322E+03 -0.10928866076E+04 -0.13918780638E+04  0.18456827239E+04  0.10100000352E+00 0. -1.
       -3    1    3    3    0  502 -0.52423184322E+03  0.10928866076E+04  0.34405154191E+03  0.12599966810E+04  0.10100000352E+00 0.  1.
</event>
<event>
 5   0  0.2336512E-06  0.2907162E+04  0.7818609E-02  0.8270750E-01
        1   -1    0    0  501    0  0.00000000000E+00  0.00000000000E+00  0.17224277603E+04  0.17224277603E+04  0.50400001928E-02 0. -1.
       -1   -1    0    0    0  501  0.00000000000E+00  0.00000000000E+00 -0.12266977701E+04  0.12266977701E+04  0.50400001928E-02 0.  1.
    10030    2    1    2    0    0  0.00000000000E+00  0.00000000000E+00  0.49572999017E+03  0.29491255304E+04  0.29071623916E+04 0.  0.
        4    1    3    3  502    0  0.89531822636E+03  0.13171302658E+03 -0.90607526027E+03  0.12805924559E+04  0.12699999809E+01 0.  1.
       -4    1    3    3    0  502 -0.89531822636E+03 -0.13171302658E+03  0.14018052504E+04  0.16685330746E+04  0.12699999809E+01 0. -1.
</event>
<event>
 5   0  0.6612533E-06  0.2846020E+04  0.7818609E-02  0.8289122E-01
       -2   -1    0    0    0  501  0.00000000000E+00  0.00000000000E+00  0.16582564113E+04  0.16582564113E+04  0.25500000920E-02 0.  1.
        2   -1    0    0  501    0  0.00000000000E+00  0.00000000000E+00 -0.12211364541E+04  0.12211364541E+04  0.25500000920E-02 0. -1.
    10030    2    1    2    0    0  0.00000000000E+00  0.00000000000E+00  0.43711995724E+03  0.28793928654E+04  0.28460199255E+04 0.  0.
        3    1    3    3  502    0 -0.22282050620E+03 -0.10211381836E+04 -0.75846854272E+03  0.12913739615E+04  0.10100000352E+00 0. -1.
       -3    1    3    3    0  502  0.22282050620E+03  0.10211381836E+04  0.11955885000E+04  0.15880189040E+04  0.10100000352E+00 0.  1.
</event>
<event>
 5   0  0.2429358E-06  0.2878653E+04  0.7818609E-02  0.8279257E-01
        1   -1    0    0  501    0  0.00000000000E+00  0.00000000000E+00  0.16498741085E+04  0.16498741085E+04  0.50400001928E-02 0. -1.
       -1   -1    0    0    0  501  0.00000000000E+00  0.00000000000E+00 -0.12556478029E+04  0.12556478029E+04  0.50400001928E-02 0.  1.
    10030    2    1    2    0    0  0.00000000000E+00  0.00000000000E+00  0.39422630565E+03  0.29055219114E+04  0.28786530180E+04 0.  0.
        2    1    3    3  502    0  0.40390864529E+02  0.11374966624E+03  0.16447563135E+04  0.16491797171E+04  0.25500000920E-02 0. -1.
       -2    1    3    3    0  502 -0.40390864529E+02 -0.11374966624E+03 -0.12505300079E+04  0.12563421943E+04  0.25500000920E-02 0.  1.
</event>
<event>
 5   0  0.2508094E-06  0.2868896E+04  0.7818609E-02  0.8282192E-01
        1   -1    0    0  501    0  0.00000000000E+00  0.00000000000E+00  0.23009264314E+04  0.23009264314E+04  0.50400001928E-02 0.  1.
       -1   -1    0    0    0  501  0.00000000000E+00  0.00000000000E+00 -0.89426653241E+03  0.89426653243E+03  0.50400001928E-02 0. -1.
    10030    2    1    2    0    0  0.00000000000E+00  0.00000000000E+00  0.14066598990E+04  0.31951929638E+04  0.28688963043E+04 0.  0.
        3    1    3    3  502    0  0.26237637008E+03 -0.20081048886E+03  0.22579694216E+04  0.22820149278E+04  0.10100000352E+00 0.  1.
       -3    1    3    3    0  502 -0.26237637008E+03  0.20081048886E+03 -0.85130952257E+03  0.91317803600E+03  0.10100000352E+00 0. -1.
</event>
<event>
 5   0  0.2429358E-06  0.2918004E+04  0.7818609E-02  0.8267541E-01
        1   -1    0    0  501    0  0.00000000000E+00  0.00000000000E+00  0.98312658456E+03  0.98312658457E+03  0.50400001928E-02 0.  1.
       -1   -1    0    0    0  501  0.00000000000E+00  0.00000000000E+00 -0.21652212098E+04  0.21652212098E+04  0.50400001928E-02 0. -1.
    10030    2    1    2    0    0  0.00000000000E+00  0.00000000000E+00 -0.11820946252E+04  0.31483477943E+04  0.29180037922E+04 0.  0.
        2    1    3    3  502    0  0.12158295170E+04  0.80650122332E+03 -0.59002654484E+03  0.15737906345E+04  0.25500000920E-02 0.  1.
       -2    1    3    3    0  502 -0.12158295170E+04 -0.80650122332E+03 -0.59206808036E+03  0.15745571598E+04  0.25500000920E-02 0. -1.
</event>
<event>
 5   0  0.6513041E-06  0.2848997E+04  0.7818609E-02  0.8288216E-01
       -2   -1    0    0    0  501  0.00000000000E+00  0.00000000000E+00  0.13203171037E+04  0.13203171037E+04  0.25500000920E-02 0. -1.
        2   -1    0    0  501    0  0.00000000000E+00  0.00000000000E+00 -0.15369008638E+04  0.15369008638E+04  0.25500000920E-02 0.  1.
    10030    2    1    2    0    0  0.00000000000E+00  0.00000000000E+00 -0.21658376010E+03  0.28572179675E+04  0.28489973655E+04 0.  0.
        1    1    3    3  502    0 -0.15332014090E+03 -0.12732220106E+04 -0.73023865862E+03  0.14757539945E+04  0.50400001928E-02 0.  1.
       -1    1    3    3    0  502  0.15332014090E+03  0.12732220106E+04  0.51365489852E+03  0.13814639729E+04  0.50400001928E-02 0. -1.
</event>
<event>
 5   0  0.2474769E-06  0.3175455E+04  0.7818609E-02  0.8195330E-01
        1   -1    0    0  501    0  0.00000000000E+00  0.00000000000E+00  0.20001853871E+04  0.20001853871E+04  0.50400001928E-02 0.  1.
       -1   -1    0    0    0  501  0.00000000000E+00  0.00000000000E+00 -0.12603228479E+04  0.12603228479E+04  0.50400001928E-02 0. -1.
    10030    2    1    2    0    0  0.00000000000E+00  0.00000000000E+00  0.73986253917E+03  0.32605082350E+04  0.31754554593E+04 0.  0.
        1    1    3    3  502    0 -0.15035161819E+04 -0.41938616164E+03  0.66828889311E+03  0.16979563323E+04  0.50400001928E-02 0. -1.
       -1    1    3    3    0  502  0.15035161819E+04  0.41938616164E+03  0.71573646059E+02  0.15625519027E+04  0.50400001928E-02 0.  1.
</event>
<event>
 5   0  0.6615403E-06  0.2885037E+04  0.7818609E-02  0.8277343E-01
        2   -1    0    0  501    0  0.00000000000E+00  0.00000000000E+00  0.17865362586E+04  0.17865362586E+04  0.25500000920E-02 0. -1.
       -2   -1    0    0    0  501  0.00000000000E+00  0.00000000000E+00 -0.11647453066E+04  0.11647453066E+04  0.25500000920E-02 0.  1.
    10030    2    1    2    0    0  0.00000000000E+00  0.00000000000E+00  0.62179095197E+03  0.29512815653E+04  0.28850370690E+04 0.  0.
        2    1    3    3  502    0  0.13907064883E+04 -0.16523197126E+03  0.66451117394E+03  0.15501423294E+04  0.25500000920E-02 0. -1.
       -2    1    3    3    0  502 -0.13907064883E+04  0.16523197126E+03 -0.42720221966E+02  0.14011392359E+04  0.25500000920E-02 0.  1.
</event>
<event>
 5   0  0.2159500E-06  0.2910240E+04  0.7818609E-02  0.8269837E-01
       -3   -1    0    0    0  501  0.00000000000E+00  0.00000000000E+00  0.12092639327E+04  0.12092639369E+04  0.10100000352E+00 0.  1.
        3   -1    0    0  501    0  0.00000000000E+00  0.00000000000E+00 -0.17509606881E+04  0.17509606910E+04  0.10100000352E+00 0. -1.
    10030    2    1    2    0    0  0.00000000000E+00  0.00000000000E+00 -0.54169675539E+03  0.29602246279E+04  0.29102395903E+04 0.  0.
        4    1    3    3  502    0 -0.21882204712E+03  0.34037148809E+03 -0.16925804687E+04  0.17402775911E+04  0.12699999809E+01 0. -1.
       -4    1    3    3    0  502  0.21882204712E+03 -0.34037148809E+03  0.11508837133E+04  0.12199470368E+04  0.12699999809E+01 0.  1.
</event>
<event>
 5   0  0.2474769E-06  0.2893391E+04  0.7818609E-02  0.8274847E-01
       -1   -1    0    0    0  501  0.00000000000E+00  0.00000000000E+00  0.10240130696E+04  0.10240130696E+04  0.50400001928E-02 0. -1.
        1   -1    0    0  501    0  0.00000000000E+00  0.00000000000E+00 -0.20438489928E+04  0.20438489928E+04  0.50400001928E-02 0.  1.
    10030    2    1    2    0    0  0.00000000000E+00  0.00000000000E+00 -0.10198359232E+04  0.30678620623E+04  0.28933911459E+04 0.  0.
        1    1    3    3  502    0 -0.25151305184E+03  0.49035610483E+02  0.99975861866E+03  0.10320758703E+04  0.50400001928E-02 0. -1.
       -1    1    3    3    0  502  0.25151305184E+03 -0.49035610483E+02 -0.20195945419E+04  0.20357861921E+04  0.50400001928E-02 0.  1.
</event>
<event>
 5   0  0.2508094E-06  0.2836275E+04  0.7818609E-02  0.8292094E-01
        1   -1    0    0  501    0  0.00000000000E+00  0.00000000000E+00  0.28395862990E+04  0.28395862990E+04  0.50400001928E-02 0.  1.
       -1   -1    0    0    0  501  0.00000000000E+00  0.00000000000E+00 -0.70824205718E+03  0.70824205720E+03  0.50400001928E-02 0. -1.
    10030    2    1    2    0    0  0.00000000000E+00  0.00000000000E+00  0.21313442418E+04  0.35478283562E+04  0.28362753336E+04 0.  0.
        3    1    3    3  502    0  0.11882011146E+04 -0.44429485667E+03  0.18586668680E+04  0.22503027230E+04  0.10100000352E+00 0. -1.
       -3    1    3    3    0  502 -0.11882011146E+04  0.44429485667E+03  0.27267737374E+03  0.12975256332E+04  0.10100000352E+00 0.  1.
</event>
<event>
 5   0  0.6612533E-06  0.2947937E+04  0.7818609E-02  0.8258756E-01
       -2   -1    0    0    0  501  0.00000000000E+00  0.00000000000E+00  0.88530859148E+03  0.88530859149E+03  0.25500000920E-02 0. -1.
        2   -1    0    0  501    0  0.00000000000E+00  0.00000000000E+00 -0.24540397105E+04  0.24540397105E+04  0.25500000920E-02 0.  1.
    10030    2    1    2    0    0  0.00000000000E+00  0.00000000000E+00 -0.15687311190E+04  0.33393483020E+04  0.29479365255E+04 0.  0.
        3    1    3    3  502    0  0.64178456565E+03 -0.34380283538E+03  0.66739691981E+03  0.98767731426E+03  0.10100000352E+00 0. -1.
       -3    1    3    3    0  502 -0.64178456565E+03  0.34380283538E+03 -0.22361280388E+04  0.23516709877E+04  0.10100000352E+00 0.  1.
</event>
<event>
 5   0  0.6393633E-06  0.2875333E+04  0.7818609E-02  0.8280255E-01
        2   -1    0    0  501    0  0.00000000000E+00  0.00000000000E+00  0.18430376437E+04  0.18430376437E+04  0.25500000920E-02 0.  1.
       -2   -1    0    0    0  501  0.00000000000E+00  0.00000000000E+00 -0.11214553509E+04  0.11214553509E+04  0.25500000920E-02 0. -1.
    10030    2    1    2    0    0  0.00000000000E+00  0.00000000000E+00  0.72158229279E+03  0.29644929945E+04  0.28753326259E+04 0.  0.
        4    1    3    3  502    0  0.43106237816E+03 -0.10248761075E+04 -0.57889680512E+03  0.12535186211E+04  0.12699999809E+01 0. -1.
       -4    1    3    3    0  502 -0.43106237816E+03  0.10248761075E+04  0.13004790979E+04  0.17109743734E+04  0.12699999809E+01 0.  1.
</event>
<event>
 5   0  0.2474769E-06  0.2655454E+04  0.7818609E-02  0.8349605E-01
       -1   -1    0    0    0  501  0.00000000000E+00  0.00000000000E+00  0.11949825901E+04  0.11949825901E+04  0.50400001928E-02 0.  1.
        1   -1    0    0  501    0  0.00000000000E+00  0.00000000000E+00 -0.14752172239E+04  0.14752172239E+04  0.50400001928E-02 0. -1.
    10030    2    1    2    0    0  0.00000000000E+00  0.00000000000E+00 -0.28023463383E+03  0.26701998140E+04  0.26554539342E+04 0.  0.
        1    1    3    3  502    0  0.85988711923E+03 -0.56630006084E+03  0.70284404137E+03  0.12466320079E+04  0.50400001928E-02 0.  1.
       -1    1    3    3    0  502 -0.85988711923E+03  0.56630006084E+03 -0.98307867520E+03  0.14235678060E+04  0.50400001928E-02 0. -1.
</event>
<event>
 5   0  0.2348684E-06  0.2858931E+04  0.7818609E-02  0.8285203E-01
        1   -1    0    0  501    0  0.00000000000E+00  0.00000000000E+00  0.23320785731E+04  0.23320785731E+04  0.50400001928E-02 0.  1.
       -1   -1    0    0    0  501  0.00000000000E+00  0.00000000000E+00 -0.87620182958E+03  0.87620182959E+03  0.50400001928E-02 0. -1.
    10030    2    1    2    0    0  0.00000000000E+00  0.00000000000E+00  0.14558767435E+04  0.32082804027E+04  0.28589309278E+04 0.  0.
        5    1    3    3  502    0  0.15481817145E+03 -0.11360520116E+04 -0.23005583050E+03  0.11694146461E+04  0.46999998093E+01 0. -1.
       -5    1    3    3    0  502 -0.15481817145E+03  0.11360520116E+04  0.16859325740E+04  0.20388657566E+04  0.46999998093E+01 0.  1.
</event>
<event>
 5   0  0.6612533E-06  0.2874686E+04  0.7818609E-02  0.8280449E-01
       -2   -1    0    0    0  501  0.00000000000E+00  0.00000000000E+00  0.13106437315E+04  0.13106437315E+04  0.25500000920E-02 0. -1.
        2   -1    0    0  501    0  0.00000000000E+00  0.00000000000E+00 -0.15762904021E+04  0.15762904021E+04  0.25500000920E-02 0.  1.
    10030    2    1    2    0    0  0.00000000000E+00  0.00000000000E+00 -0.26564667052E+03  0.28869341336E+04  0.28746861634E+04 0.  0.
        3    1    3    3  502    0  0.92050843348E+02 -0.12431631096E+03 -0.15679069320E+04  0.15755189813E+04  0.10100000352E+00 0.  1.
       -3    1    3    3    0  502 -0.92050843348E+02  0.12431631096E+03  0.13022602614E+04  0.13114151523E+04  0.10100000352E+00 0. -1.
</event>
<event>
 5   0  0.2336512E-06  0.2890099E+04  0.7818609E-02  0.8275829E-01
       -1   -1    0    0    0  501  0.00000000000E+00  0.00000000000E+00  0.77734165370E+03  0.77734165371E+03  0.50400001928E-02 0. -1.
        1   -1    0    0  501    0  0.00000000000E+00  0.00000000000E+00 -0.26862939422E+04  0.26862939422E+04  0.50400001928E-02 0.  1.
    10030    2    1    2    0    0  0.00000000000E+00  0.00000000000E+00 -0.19089522885E+04  0.34636355960E+04  0.28900990816E+04 0.  0.
        4    1    3    3  502    0 -0.83481935173E+03  0.36702602719E+03 -0.22978805739E+04  0.24722233312E+04  0.12699999809E+01 0.  1.
       -4    1    3    3    0  502  0.83481935173E+03 -0.36702602719E+03  0.38892828533E+03  0.99141226475E+03  0.12699999809E+01 0. -1.
</event>
<event>
 5   0  0.6612533E-06  0.2934746E+04  0.7818609E-02  0.8262614E-01
        2   -1    0    0  501    0  0.00000000000E+00  0.00000000000E+00  0.23211623434E+04  0.23211623434E+04  0.25500000920E-02 0. -1.
       -2   -1    0    0    0  501  0.00000000000E+00  0.00000000000E+00 -0.92763168143E+03  0.92763168144E+03  0.25500000920E-02 0.  1.
    10030    2    1    2    0    0  0.00000000000E+00  0.00000000000E+00  0.13935306619E+04  0.32487940248E+04  0.29347461406E+04 0.  0.
        3    1    3    3  502    0  0.33700082665E+03  0.12496319312E+04 -0.68621737215E+02  0.12960935436E+04  0.10100000352E+00 0.  1.
       -3    1    3    3    0  502 -0.33700082665E+03 -0.12496319312E+04  0.14621523992E+04  0.19527004812E+04  0.10100000352E+00 0. -1.
</event>
<event>
 5   0  0.2348684E-06  0.2892083E+04  0.7818609E-02  0.8275237E-01
        1   -1    0    0  501    0  0.00000000000E+00  0.00000000000E+00  0.15677122346E+04  0.15677122346E+04  0.50400001928E-02 0. -1.
       -1   -1    0    0    0  501  0.00000000000E+00  0.00000000000E+00 -0.13338133979E+04  0.13338133979E+04  0.50400001928E-02 0.  1.
    10030    2    1    2    0    0  0.00000000000E+00  0.00000000000E+00  0.23389883674E+03  0.29015256326E+04  0.28920826977E+04 0.  0.
        5    1    3    3  502    0  0.40797572870E+03 -0.59668307119E+03 -0.11395529485E+04  0.13494731917E+04  0.46999998093E+01 0.  1.
       -5    1    3    3    0  502 -0.40797572870E+03  0.59668307119E+03  0.13734517853E+04  0.15520524408E+04  0.46999998093E+01 0. -1.
</event>
<event>
 5   0  0.2429358E-06  0.2943656E+04  0.7818609E-02  0.8260006E-01
        1   -1    0    0  501    0  0.00000000000E+00  0.00000000000E+00  0.26539406617E+04  0.26539406617E+04  0.50400001928E-02 0. -1.
       -1   -1    0    0    0  501  0.00000000000E+00  0.00000000000E+00 -0.81624957246E+03  0.81624957248E+03  0.50400001928E-02 0.  1.
    10030    2    1    2    0    0  0.00000000000E+00  0.00000000000E+00  0.18376910893E+04  0.34701902342E+04  0.29436561827E+04 0.  0.
        2    1    3    3  502    0 -0.62613013545E+03  0.11287450019E+04  0.17525778466E+04  0.21766105150E+04  0.25500000920E-02 0. -1.
       -2    1    3    3    0  502  0.62613013545E+03 -0.11287450019E+04  0.85113242669E+02  0.12935797192E+04  0.25500000920E-02 0.  1.
</event>
<event>
 5   0  0.6733688E-06  0.2915923E+04  0.7818609E-02  0.8268156E-01
        2   -1    0    0  501    0  0.00000000000E+00  0.00000000000E+00  0.17541647726E+04  0.17541647726E+04  0.25500000920E-02 0. -1.
       -2   -1    0    0    0  501  0.00000000000E+00  0.00000000000E+00 -0.12117740085E+04  0.12117740085E+04  0.25500000920E-02 0.  1.
    10030    2    1    2    0    0  0.00000000000E+00  0.00000000000E+00  0.54239076407E+03  0.29659387811E+04  0.29159226863E+04 0.  0.
        5    1    3    3  502    0  0.58011926241E+03 -0.12577096855E+04  0.73425932628E+03  0.15676513834E+04  0.46999998093E+01 0. -1.
       -5    1    3    3    0  502 -0.58011926241E+03  0.12577096855E+04 -0.19186856222E+03  0.13982873978E+04  0.46999998093E+01 0.  1.
</event>
<event>
 5   0  0.2474769E-06  0.2833745E+04  0.7818609E-02  0.8292868E-01
        1   -1    0    0  501    0  0.00000000000E+00  0.00000000000E+00  0.13788790219E+04  0.13788790219E+04  0.50400001928E-02 0.  1.
       -1   -1    0    0    0  501  0.00000000000E+00  0.00000000000E+00 -0.14559128322E+04  0.14559128323E+04  0.50400001928E-02 0. -1.
    10030    2    1    2    0    0  0.00000000000E+00  0.00000000000E+00 -0.77033810313E+02  0.28347918542E+04  0.28337449865E+04 0.  0.
        1    1    3    3  502    0 -0.30219326874E+03  0.55698954014E+02 -0.14221780959E+04  0.14549961105E+04  0.50400001928E-02 0. -1.
       -1    1    3    3    0  502  0.30219326874E+03 -0.55698954014E+02  0.13451442856E+04  0.13797957437E+04  0.50400001928E-02 0.  1.
</event>
<event>
 5   0  0.2474769E-06  0.2907554E+04  0.7818609E-02  0.8270633E-01
        1   -1    0    0  501    0  0.00000000000E+00  0.00000000000E+00  0.20323812587E+04  0.20323812587E+04  0.50400001928E-02 0.  1.
       -1   -1    0    0    0  501  0.00000000000E+00  0.00000000000E+00 -0.10398974296E+04  0.10398974296E+04  0.50400001928E-02 0. -1.
    10030    2    1    2    0    0  0.00000000000E+00  0.00000000000E+00  0.99248382905E+03  0.30722786883E+04  0.29075543310E+04 0.  0.
        1    1    3    3  502    0 -0.92431793114E+03 -0.13018921758E+03 -0.68142017917E+03  0.11557016617E+04  0.50400001928E-02 0. -1.
       -1    1    3    3    0  502  0.92431793114E+03  0.13018921758E+03  0.16739040082E+04  0.19165770266E+04  0.50400001928E-02 0.  1.
</event>
<event>
 5   0  0.6612533E-06  0.2918309E+04  0.7818609E-02  0.8267451E-01
        2   -1    0    0  501    0  0.00000000000E+00  0.00000000000E+00  0.13867564477E+04  0.13867564477E+04  0.25500000920E-02 0.  1.
       -2   -1    0    0    0  501  0.00000000000E+00  0.00000000000E+00 -0.15353320106E+04  0.15353320106E+04  0.25500000920E-02 0. -1.
    10030    2    1    2    0    0  0.00000000000E+00  0.00000000000E+00 -0.14857556288E+03  0.29220884584E+04  0.29183088014E+04 0.  0.
        3    1    3    3  502    0 -0.14095252831E+04  0.16768707087E+03 -0.41273602648E+03  0.14782528590E+04  0.10100000352E+00 0. -1.
       -3    1    3    3    0  502  0.14095252831E+04 -0.16768707087E+03  0.26416046360E+03  0.14438355994E+04  0.10100000352E+00 0.  1.
</event>
<event>
 5   0  0.2336512E-06  0.2862105E+04  0.7818609E-02  0.8284243E-01
       -1   -1    0    0    0  501  0.00000000000E+00  0.00000000000E+00  0.70446264054E+03  0.70446264056E+03  0.50400001928E-02 0.  1.
        1   -1    0    0  501    0  0.00000000000E+00  0.00000000000E+00 -0.29070539682E+04  0.29070539682E+04  0.50400001928E-02 0. -1.
    10030    2    1    2    0    0  0.00000000000E+00  0.00000000000E+00 -0.22025913277E+04  0.36115166088E+04  0.28621047603E+04 0.  0.
        4    1    3    3  502    0  0.79367853368E+03 -0.60346287892E+03 -0.23966438883E+04  0.25957651283E+04  0.12699999809E+01 0. -1.
       -4    1    3    3    0  502 -0.79367853368E+03  0.60346287892E+03  0.19405256056E+03  0.10157514805E+04  0.12699999809E+01 0.  1.
</event>
<event>
 5   0  0.2474769E-06  0.2893031E+04  0.7818609E-02  0.8274954E-01
        1   -1    0    0  501    0  0.00000000000E+00  0.00000000000E+00  0.18594914311E+04  0.18594914311E+04  0.50400001928E-02 0. -1.
       -1   -1    0    0    0  501  0.00000000000E+00  0.00000000000E+00 -0.11252579612E+04  0.11252579613E+04  0.50400001928E-02 0.  1.
    10030    2    1    2    0    0  0.00000000000E+00  0.00000000000E+00  0.73423346987E+03  0.29847493924E+04  0.28930313076E+04 0.  0.
        1    1    3    3  502    0 -0.48835093380E+03  0.13124110560E+04 -0.70063568091E+01  0.14003422808E+04  0.50400001928E-02 0.  1.
       -1    1    3    3    0  502  0.48835093380E+03 -0.13124110560E+04  0.74123982668E+03  0.15844071115E+04  0.50400001928E-02 0. -1.
</event>
<event>
 5   0  0.6733688E-06  0.2921231E+04  0.7818609E-02  0.8266589E-01
       -2   -1    0    0    0  501  0.00000000000E+00  0.00000000000E+00  0.17979508235E+04  0.17979508235E+04  0.25500000920E-02 0.  1.
        2   -1    0    0  501    0  0.00000000000E+00  0.00000000000E+00 -0.11865714208E+04  0.11865714208E+04  0.25500000920E-02 0. -1.
    10030    2    1    2    0    0  0.00000000000E+00  0.00000000000E+00  0.61137940271E+03  0.29845222443E+04  0.29212306058E+04 0.  0.
        5    1    3    3  502    0  0.33241423265E+03 -0.13890755224E+04 -0.64538580231E+01  0.14283185118E+04  0.46999998093E+01 0. -1.
       -5    1    3    3    0  502 -0.33241423265E+03  0.13890755224E+04  0.61783326074E+03  0.15562037325E+04  0.46999998093E+01 0.  1.
</event>
<event>
 5   0  0.2348684E-06  0.2912379E+04  0.7818609E-02  0.8269204E-01
        1   -1    0    0  501    0  0.00000000000E+00  0.00000000000E+00  0.13765891382E+04  0.13765891382E+04  0.50400001928E-02 0. -1.
       -1   -1    0    0    0  501  0.00000000000E+00  0.00000000000E+00 -0.15403922389E+04  0.15403922389E+04  0.50400001928E-02 0.  1.
    10030    2    1    2    0    0  0.00000000000E+00  0.00000000000E+00 -0.16380310065E+03  0.29169813771E+04  0.29123785637E+04 0.  0.
        5    1    3    3  502    0  0.12313551676E+04  0.99954543725E+02 -0.85398863462E+03  0.15018472418E+04  0.46999998093E+01 0.  1.
       -5    1    3    3    0  502 -0.12313551676E+04 -0.99954543725E+02  0.69018553397E+03  0.14151341353E+04  0.46999998093E+01 0. -1.
</event>
<event>
 5   0  0.6612533E-06  0.2877756E+04  0.7818609E-02  0.8279527E-01
        2   -1    0    0  501    0  0.00000000000E+00  0.00000000000E+00  0.17914566722E+04  0.17914566722E+04  0.25500000920E-02 0.  1.
       -2   -1    0    0    0  501  0.00000000000E+00  0.00000000000E+00 -0.11556903972E+04  0.11556903972E+04  0.25500000920E-02 0. -1.
    10030    2    1    2    0    0  0.00000000000E+00  0.00000000000E+00  0.63576627498E+03  0.29471470694E+04  0.28777555651E+04 0.  0.
        3    1    3    3  502    0 -0.26602959799E+03 -0.29563844655E+03  0.17340487468E+04  0.17790724844E+04  0.10100000352E+00 0.  1.
       -3    1    3    3    0  502  0.26602959799E+03  0.29563844655E+03 -0.10982824718E+04  0.11680745850E+04  0.10100000352E+00 0. -1.
</event>
<event>
 5   0  0.2429358E-06  0.2892223E+04  0.7818609E-02  0.8275195E-01
        1   -1    0    0  501    0  0.00000000000E+00  0.00000000000E+00  0.11333563743E+04  0.11333563743E+04  0.50400001928E-02 0.  1.
       -1   -1    0    0    0  501  0.00000000000E+00  0.00000000000E+00 -0.18451731996E+04  0.18451731996E+04  0.50400001928E-02 0. -1.
    10030    2    1    2    0    0  0.00000000000E+00  0.00000000000E+00 -0.71181682534E+03  0.29785295739E+04  0.28922232331E+04 0.  0.
        2    1    3    3  502    0  0.78935149323E+03  0.10199921827E+04 -0.10294738960E+04  0.16502352363E+04  0.25500000920E-02 0.  1.
       -2    1    3    3    0  502 -0.78935149323E+03 -0.10199921827E+04  0.31765707066E+03  0.13282943376E+04  0.25500000920E-02 0. -1.
</event>
<event>
 5   0  0.2336512E-06  0.2808301E+04  0.7818609E-02  0.8300696E-01
        1   -1    0    0  501    0  0.00000000000E+00  0.00000000000E+00  0.29301458926E+04  0.29301458926E+04  0.50400001928E-02 0. -1.
       -1   -1    0    0    0  501  0.00000000000E+00  0.00000000000E+00 -0.67288062192E+03  0.67288062194E+03  0.50400001928E-02 0.  1.
    10030    2    1    2    0    0  0.00000000000E+00  0.00000000000E+00  0.22572652707E+04  0.36030265145E+04  0.28083008319E+04 0.  0.
        4    1    3    3  502    0 -0.12610217854E+04  0.45361395710E+03  0.59085369234E+03  0.14645993527E+04  0.12699999809E+01 0.  1.
       -4    1    3    3    0  502  0.12610217854E+04 -0.45361395710E+03  0.16664115783E+04  0.21384271618E+04  0.12699999809E+01 0. -1.
</event>
<event>
 5   0  0.2474769E-06  0.2912348E+04  0.7818609E-02  0.8269213E-01
       -1   -1    0    0    0  501  0.00000000000E+00  0.00000000000E+00  0.10006492502E+04  0.10006492502E+04  0.50400001928E-02 0. -1.
        1   -1    0    0  501    0  0.00000000000E+00  0.00000000000E+00 -0.21190670566E+04  0.21190670566E+04  0.50400001928E-02 0.  1.
    10030    2    1    2    0    0  0.00000000000E+00  0.00000000000E+00 -0.11184178064E+04  0.31197163069E+04  0.29123480983E+04 0.  0.
        1    1    3    3  502    0 -0.31422603605E+03 -0.12585439555E+04 -0.12679633496E+04  0.18139465112E+04  0.50400001928E-02 0.  1.
       -1    1    3    3    0  502  0.31422603605E+03  0.12585439555E+04  0.14954554314E+03  0.13057697956E+04  0.50400001928E-02 0. -1.
</event>
<event>
 5   0  0.2336512E-06  0.2900234E+04  0.7818609E-02  0.8272808E-01
        1   -1    0    0  501    0  0.00000000000E+00  0.00000000000E+00  0.15490428930E+04  0.15490428930E+04  0.50400001928E-02 0.  1.
       -1   -1    0    0    0  501  0.00000000000E+00  0.00000000000E+00 -0.13575088476E+04  0.13575088476E+04  0.50400001928E-02 0. -1.
    10030    2    1    2    0    0  0.00000000000E+00  0.00000000000E+00  0.19153404540E+03  0.29065517406E+04  0.29002340820E+04 0.  0.
        4    1    3    3  502    0  0.83105001167E+03 -0.29192936330E+03  0.12502185786E+04  0.15293511638E+04  0.12699999809E+01 0.  1.
       -4    1    3    3    0  502 -0.83105001167E+03  0.29192936330E+03 -0.10586845332E+04  0.13772005768E+04  0.12699999809E+01 0. -1.
</event>
<event>
 5   0  0.6615403E-06  0.2902299E+04  0.7818609E-02  0.8272194E-01
       -2   -1    0    0    0  501  0.00000000000E+00  0.00000000000E+00  0.12661831280E+04  0.12661831280E+04  0.25500000920E-02 0.  1.
        2   -1    0    0  501    0  0.00000000000E+00  0.00000000000E+00 -0.16631364693E+04  0.16631364693E+04  0.25500000920E-02 0. -1.
    10030    2    1    2    0    0  0.00000000000E+00  0.00000000000E+00 -0.39695334127E+03  0.29293195973E+04  0.29022993209E+04 0.  0.
        2    1    3    3  502    0  0.32276634329E+03 -0.55407217014E+03 -0.15123878474E+04  0.16427084596E+04  0.25500000920E-02 0. -1.
       -2    1    3    3    0  502 -0.32276634329E+03  0.55407217014E+03  0.11154345062E+04  0.12866111377E+04  0.25500000920E-02 0.  1.
</event>
<event>
 5   0  0.6513041E-06  0.2903187E+04  0.7818609E-02  0.8271930E-01
        2   -1    0    0  501    0  0.00000000000E+00  0.00000000000E+00  0.24634171348E+04  0.24634171348E+04  0.25500000920E-02 0.  1.
       -2   -1    0    0    0  501  0.00000000000E+00  0.00000000000E+00 -0.85536590206E+03  0.85536590206E+03  0.25500000920E-02 0. -1.
    10030    2    1    2    0    0  0.00000000000E+00  0.00000000000E+00  0.16080512327E+04  0.33187830368E+04  0.29031865387E+04 0.  0.
        1    1    3    3  502    0 -0.36763958985E+03  0.31910206239E+03  0.23673199385E+04  0.24168551229E+04  0.50400001928E-02 0.  1.
       -1    1    3    3    0  502  0.36763958985E+03 -0.31910206239E+03 -0.75926870577E+03  0.90192791388E+03  0.50400001928E-02 0. -1.
</event>
<event>
 5   0  0.6612533E-06  0.2681886E+04  0.7818609E-02  0.8340906E-01
        2   -1    0    0  501    0  0.00000000000E+00  0.00000000000E+00  0.17204727139E+04  0.17204727139E+04  0.25500000920E-02 0. -1.
       -2   -1    0    0    0  501  0.00000000000E+00  0.00000000000E+00 -0.10451364554E+04  0.10451364554E+04  0.25500000920E-02 0.  1.
    10030    2    1    2    0    0  0.00000000000E+00  0.00000000000E+00  0.67533625848E+03  0.27656091694E+04  0.26818864658E+04 0.  0.
        3    1    3    3  502    0  0.15968006056E+03 -0.13302040674E+04  0.39589461086E+03  0.13970229546E+04  0.10100000352E+00 0.  1.
       -3    1    3    3    0  502 -0.15968006056E+03  0.13302040674E+04  0.27944164762E+03  0.13685862148E+04  0.10100000352E+00 0. -1.
</event>
<event>
 5   0  0.6513041E-06  0.2956834E+04  0.7818609E-02  0.8256166E-01
        2   -1    0    0  501    0  0.00000000000E+00  0.00000000000E+00  0.18346329807E+04  0.18346329807E+04  0.25500000920E-02 0.  1.
       -2   -1    0    0    0  501  0.00000000000E+00  0.00000000000E+00 -0.11913648273E+04  0.11913648273E+04  0.25500000920E-02 0. -1.
    10030    2    1    2    0    0  0.00000000000E+00  0.00000000000E+00  0.64326815347E+03  0.30259978080E+04  0.29568342559E+04 0.  0.
        1    1    3    3  502    0  0.99770551621E+03  0.10017619697E+04  0.76391649844E+03  0.16070195262E+04  0.50400001928E-02 0.  1.
       -1    1    3    3    0  502 -0.99770551621E+03 -0.10017619697E+04 -0.12064834497E+03  0.14189782818E+04  0.50400001928E-02 0. -1.
</event>
<event>
 5   0  0.6393633E-06  0.2897897E+04  0.7818609E-02  0.8273503E-01
        2   -1    0    0  501    0  0.00000000000E+00  0.00000000000E+00  0.18927076358E+04  0.18927076358E+04  0.25500000920E-02 0.  1.
       -2   -1    0    0    0  501  0.00000000000E+00  0.00000000000E+00 -0.11092322577E+04  0.11092322577E+04  0.25500000920E-02 0. -1.
    10030    2    1    2    0    0  0.00000000000E+00  0.00000000000E+00  0.78347537802E+03  0.30019398935E+04  0.28978974199E+04 0.  0.
        4    1    3    3  502    0  0.71564873191E+03 -0.71790323827E+03  0.14642410674E+04  0.17808822766E+04  0.12699999809E+01 0.  1.
       -4    1    3    3    0  502 -0.71564873191E+03  0.71790323827E+03 -0.68076568933E+03  0.12210576169E+04  0.12699999809E+01 0. -1.
</event>
<event>
 5   0  0.2508094E-06  0.2790107E+04  0.7818609E-02  0.8306346E-01
        1   -1    0    0  501    0  0.00000000000E+00  0.00000000000E+00  0.20408921887E+04  0.20408921887E+04  0.50400001928E-02 0.  1.
       -1   -1    0    0    0  501  0.00000000000E+00  0.00000000000E+00 -0.95358965501E+03  0.95358965502E+03  0.50400001928E-02 0. -1.
    10030    2    1    2    0    0  0.00000000000E+00  0.00000000000E+00  0.10873025337E+04  0.29944818437E+04  0.27901065773E+04 0.  0.
        3    1    3    3  502    0 -0.10613994750E+03  0.11204551334E+04 -0.34104027334E+03  0.11760075989E+04  0.10100000352E+00 0. -1.
       -3    1    3    3    0  502  0.10613994750E+03 -0.11204551334E+04  0.14283428070E+04  0.18184742448E+04  0.10100000352E+00 0.  1.
</event>
<event>
 5   0  0.2474769E-06  0.2917462E+04  0.7818609E-02  0.8267701E-01
        1   -1    0    0  501    0  0.00000000000E+00  0.00000000000E+00  0.17347860188E+04  0.17347860188E+04  0.50400001928E-02 0.  1.
       -1   -1    0    0    0  501  0.00000000000E+00  0.00000000000E+00 -0.12266045196E+04  0.12266045196E+04  0.50400001928E-02 0. -1.
    10030    2    1    2    0    0  0.00000000000E+00  0.00000000000E+00  0.50818149920E+03  0.29613905385E+04  0.29174621652E+04 0.  0.
        1    1    3    3  502    0  0.14179237896E+04  0.12438794463E+03 -0.69959178724E+02  0.14250875484E+04  0.50400001928E-02 0. -1.
       -1    1    3    3    0  502 -0.14179237896E+04 -0.12438794463E+03  0.57814067792E+03  0.15363029901E+04  0.50400001928E-02 0.  1.
</event>
<event>
 5   0  0.2159500E-06  0.3029204E+04  0.7818609E-02  0.8235440E-01
        3   -1    0    0  501    0  0.00000000000E+00  0.00000000000E+00  0.15622398534E+04  0.15622398567E+04  0.10100000352E+00 0. -1.
       -3   -1    0    0    0  501  0.00000000000E+00  0.00000000000E+00 -0.14684170339E+04  0.14684170374E+04  0.10100000352E+00 0.  1.
    10030    2    1    2    0    0  0.00000000000E+00  0.00000000000E+00  0.93822819539E+02  0.30306568941E+04  0.30292042665E+04 0.  0.
        4    1    3    3  502    0  0.12515453820E+04 -0.51840338475E+03  0.72466529918E+03  0.15363102946E+04  0.12699999809E+01 0. -1.
       -4    1    3    3    0  502 -0.12515453820E+04  0.51840338475E+03 -0.63084247964E+03  0.14943465995E+04  0.12699999809E+01 0.  1.
</event>
<event>
 5   0  0.2474769E-06  0.2881374E+04  0.7818609E-02  0.8278441E-01
       -1   -1    0    0    0  501  0.00000000000E+00  0.00000000000E+00  0.82093709470E+03  0.82093709471E+03  0.50400001928E-02 0.  1.
        1   -1    0    0  501    0  0.00000000000E+00  0.00000000000E+00 -0.25283044178E+04  0.25283044178E+04  0.50400001928E-02 0. -1.
    10030    2    1    2    0    0  0.00000000000E+00  0.00000000000E+00 -0.17073673231E+04  0.33492415125E+04  0.28813738968E+04 0.  0.
        1    1    3    3  502    0  0.85400464974E+03  0.76198188550E+03  0.16340483737E+03  0.11561321190E+04  0.50400001928E-02 0.  1.
       -1    1    3    3    0  502 -0.85400464974E+03 -0.76198188550E+03 -0.18707721605E+04  0.21931093935E+04  0.50400001928E-02 0. -1.
</event>
<event>
 5   0  0.2336512E-06  0.2851989E+04  0.7818609E-02  0.8287307E-01
        1   -1    0    0  501    0  0.00000000000E+00  0.00000000000E+00  0.23931456047E+04  0.23931456047E+04  0.50400001928E-02 0. -1.
       -1   -1    0    0    0  501  0.00000000000E+00  0.00000000000E+00 -0.84970163443E+03  0.84970163444E+03  0.50400001928E-02 0.  1.
    10030    2    1    2    0    0  0.00000000000E+00  0.00000000000E+00  0.15434439703E+04  0.32428472391E+04  0.28519885917E+04 0.  0.
        4    1    3    3  502    0  0.77164400840E+03  0.62827779843E+02 -0.58992596997E+03  0.97334272924E+03  0.12699999809E+01 0.  1.
       -4    1    3    3    0  502 -0.77164400840E+03 -0.62827779843E+02  0.21333699402E+04  0.22695045099E+04  0.12699999809E+01 0. -1.
</event>
<event>
 5   0  0.2508094E-06  0.2884517E+04  0.7818609E-02  0.8277499E-01
       -1   -1    0    0    0  501  0.00000000000E+00  0.00000000000E+00  0.15592143073E+04  0.15592143074E+04  0.50400001928E-02 0. -1.
        1   -1    0    0  501    0  0.00000000000E+00  0.00000000000E+00 -0.13340758088E+04  0.13340758088E+04  0.50400001928E-02 0.  1.
    10030    2    1    2    0    0  0.00000000000E+00  0.00000000000E+00  0.22513849859E+03  0.28932901161E+04  0.28845173517E+04 0.  0.
        3    1    3    3  502    0  0.12699962132E+04  0.35559092098E+03 -0.47296534524E+03  0.14010822648E+04  0.10100000352E+00 0.  1.
       -3    1    3    3    0  502 -0.12699962132E+04 -0.35559092098E+03  0.69810384382E+03  0.14922078514E+04  0.10100000352E+00 0. -1.
</event>
<event>
 5   0  0.6393633E-06  0.2875715E+04  0.7818609E-02  0.8280140E-01
        2   -1    0    0  501    0  0.00000000000E+00  0.00000000000E+00  0.18090953921E+04  0.18090953921E+04  0.25500000920E-02 0. -1.
       -2   -1    0    0    0  501  0.00000000000E+00  0.00000000000E+00 -0.11427999806E+04  0.11427999806E+04  0.25500000920E-02 0.  1.
    10030    2    1    2    0    0  0.00000000000E+00  0.00000000000E+00  0.66629541147E+03  0.29518953727E+04  0.28757149921E+04 0.  0.
        4    1    3    3  502    0  0.84892140249E+03 -0.18963543110E+03 -0.84208508897E+03  0.12106766927E+04  0.12699999809E+01 0.  1.
       -4    1    3    3    0  502 -0.84892140249E+03  0.18963543110E+03  0.15083805004E+04  0.17412186799E+04  0.12699999809E+01 0. -1.
</event>
<event>
 5   0  0.2429358E-06  0.2906904E+04  0.7818609E-02  0.8270826E-01
        1   -1    0    0  501    0  0.00000000000E+00  0.00000000000E+00  0.15056310160E+04  0.15056310160E+04  0.50400001928E-02 0.  1.
       -1   -1    0    0    0  501  0.00000000000E+00  0.00000000000E+00 -0.14030811827E+04  0.14030811827E+04  0.50400001928E-02 0. -1.
    10030    2    1    2    0    0  0.00000000000E+00  0.00000000000E+00  0.10254983327E+03  0.29087121987E+04  0.29069038833E+04 0.  0.
        2    1    3    3  502    0 -0.13408570488E+04  0.26414594384E+03 -0.44385796382E+03  0.14368996475E+04  0.25500000920E-02 0. -1.
       -2    1    3    3    0  502  0.13408570488E+04 -0.26414594384E+03  0.54640779710E+03  0.14718125512E+04  0.25500000920E-02 0.  1.
</event>
<event>
 5   0  0.2508094E-06  0.2905915E+04  0.7818609E-02  0.8271120E-01
        1   -1    0    0  501    0  0.00000000000E+00  0.00000000000E+00  0.17670769338E+04  0.17670769338E+04  0.50400001928E-02 0. -1.
       -1   -1    0    0    0  501  0.00000000000E+00  0.00000000000E+00 -0.11946763110E+04  0.11946763110E+04  0.50400001928E-02 0.  1.
    10030    2    1    2    0    0  0.00000000000E+00  0.00000000000E+00  0.57240062287E+03  0.29617532448E+04  0.29059146254E+04 0.  0.
        3    1    3    3  502    0  0.12427394774E+04 -0.35569131346E+02 -0.48019171817E+03  0.13327605442E+04  0.10100000352E+00 0.  1.
       -3    1    3    3    0  502 -0.12427394774E+04  0.35569131346E+02  0.10525923410E+04  0.16289927006E+04  0.10100000352E+00 0. -1.
</event>
<event>
 5   0  0.6733688E-06  0.2926822E+04  0.7818609E-02  0.8264942E-01
       -2   -1    0    0    0  501  0.00000000000E+00  0.00000000000E+00  0.97491012596E+03  0.97491012596E+03  0.25500000920E-02 0.  1.
        2   -1    0    0  501    0  0.00000000000E+00  0.00000000000E+00 -0.21966861141E+04  0.21966861141E+04  0.25500000920E-02 0. -1.
    10030    2    1    2    0    0  0.00000000000E+00  0.00000000000E+00 -0.12217759881E+04  0.31715962401E+04  0.29268218505E+04 0.  0.
        5    1    3    3  502    0 -0.14758095210E+02 -0.10522015500E+04 -0.17128956617E+04  0.20103182686E+04  0.46999998093E+01 0. -1.
       -5    1    3    3    0  502  0.14758095210E+02  0.10522015500E+04  0.49111967359E+03  0.11612779714E+04  0.46999998093E+01 0.  1.
</event>
<event>
 5   0  0.2429358E-06  0.2904257E+04  0.7818609E-02  0.8271612E-01
       -1   -1    0    0    0  501  0.00000000000E+00  0.00000000000E+00  0.13065567399E+04  0.13065567399E+04  0.50400001928E-02 0.  1.
        1   -1    0    0  501    0  0.00000000000E+00  0.00000000000E+00 -0.16139196332E+04  0.16139196332E+04  0.50400001928E-02 0. -1.
    10030    2    1    2    0    0  0.00000000000E+00  0.00000000000E+00 -0.30736289333E+03  0.29204763731E+04  0.29042572713E+04 0.  0.
        2    1    3    3  502    0  0.80279096062E+03 -0.85564052665E+03  0.70671564184E+03  0.13696864735E+04  0.25500000920E-02 0.  1.
       -2    1    3    3    0  502 -0.80279096062E+03  0.85564052665E+03 -0.10140785352E+04  0.15507898996E+04  0.25500000920E-02 0. -1.
</event>
<event>
 5   0  0.2348684E-06  0.2931182E+04  0.7818609E-02  0.8263660E-01
       -1   -1    0    0    0  501  0.00000000000E+00  0.00000000000E+00  0.14960431045E+04  0.14960431046E+04  0.50400001928E-02 0. -1.
        1   -1    0    0  501    0  0.00000000000E+00  0.00000000000E+00 -0.14357584863E+04  0.14357584863E+04  0.50400001928E-02 0.  1.
    10030    2    1    2    0    0  0.00000000000E+00  0.00000000000E+00  0.60284618239E+02  0.29318015909E+04  0.29311817298E+04 0.  0.
        5    1    3    3  502    0  0.10724182387E+04  0.39965382910E+03 -0.88554592942E+03  0.14470721284E+04  0.46999998093E+01 0.  1.
       -5    1    3    3    0  502 -0.10724182387E+04 -0.39965382910E+03  0.94583054766E+03  0.14847294624E+04  0.46999998093E+01 0. -1.
</event>
<event>
 5   0  0.2348684E-06  0.2826567E+04  0.7818609E-02  0.8295068E-01
       -1   -1    0    0    0  501  0.00000000000E+00  0.00000000000E+00  0.94198601316E+03  0.94198601318E+03  0.50400001928E-02 0.  1.
        1   -1    0    0  501    0  0.00000000000E+00  0.00000000000E+00 -0.21203819713E+04  0.21203819713E+04  0.50400001928E-02 0. -1.
    10030    2    1    2    0    0  0.00000000000E+00  0.00000000000E+00 -0.11783959581E+04  0.30623679844E+04  0.28265669350E+04 0.  0.
        5    1    3    3  502    0 -0.81119667782E+03 -0.68954685033E+03 -0.15961598759E+04  0.19186618640E+04  0.46999998093E+01 0. -1.
       -5    1    3    3    0  502  0.81119667782E+03  0.68954685033E+03  0.41776391781E+03  0.11437061204E+04  0.46999998093E+01 0.  1.
</event>
<event>
 5   0  0.6615403E-06  0.2994680E+04  0.7818609E-02  0.8245252E-01
       -2   -1    0    0    0  501  0.00000000000E+00  0.00000000000E+00  0.29361623501E+04  0.29361623501E+04  0.25500000920E-02 0. -1.
        2   -1    0    0  501    0  0.00000000000E+00  0.00000000000E+00 -0.76359120089E+03  0.76359120089E+03  0.25500000920E-02 0.  1.
    10030    2    1    2    0    0  0.00000000000E+00  0.00000000000E+00  0.21725711492E+04  0.36997535510E+04  0.29946804403E+04 0.  0.
        2    1    3    3  502    0  0.15735765305E+03 -0.10208933182E+04  0.24254972126E+04  0.26362893101E+04  0.25500000920E-02 0. -1.
       -2    1    3    3    0  502 -0.15735765305E+03  0.10208933182E+04 -0.25292606344E+03  0.10634642409E+04  0.25500000920E-02 0.  1.
</event>
<event>
 5   0  0.6615403E-06  0.2920118E+04  0.7818609E-02  0.8266917E-01
        2   -1    0    0  501    0  0.00000000000E+00  0.00000000000E+00  0.16020881449E+04  0.16020881449E+04  0.25500000920E-02 0.  1.
       -2   -1    0    0    0  501  0.00000000000E+00  0.00000000000E+00 -0.13306209817E+04  0.13306209817E+04  0.25500000920E-02 0. -1.
    10030    2    1    2    0    0  0.00000000000E+00  0.00000000000E+00  0.27146716323E+03  0.29327091267E+04  0.29201178745E+04 0.  0.
        2    1    3    3  502    0  0.39314919119E+03 -0.11541858482E+04  0.94235350982E+03  0.15410195963E+04  0.25500000920E-02 0.  1.
       -2    1    3    3    0  502 -0.39314919119E+03  0.11541858482E+04 -0.67088634659E+03  0.13916895303E+04  0.25500000920E-02 0. -1.
</event>
<event>
 5   0  0.6733688E-06  0.2880392E+04  0.7818609E-02  0.8278735E-01
       -2   -1    0    0    0  501  0.00000000000E+00  0.00000000000E+00  0.11609582285E+04  0.11609582285E+04  0.25500000920E-02 0.  1.
        2   -1    0    0  501    0  0.00000000000E+00  0.00000000000E+00 -0.17865967377E+04  0.17865967377E+04  0.25500000920E-02 0. -1.
    10030    2    1    2    0    0  0.00000000000E+00  0.00000000000E+00 -0.62563850921E+03  0.29475549662E+04  0.28803917676E+04 0.  0.
        5    1    3    3  502    0 -0.10874922370E+04  0.30421626948E+03  0.60186575691E+03  0.12796293931E+04  0.46999998093E+01 0.  1.
       -5    1    3    3    0  502  0.10874922370E+04 -0.30421626948E+03 -0.12275042661E+04  0.16679255732E+04  0.46999998093E+01 0. -1.
</event>
<event>
 5   0  0.6393633E-06  0.2946580E+04  0.7818609E-02  0.8259152E-01
        2   -1    0    0  501    0  0.00000000000E+00  0.00000000000E+00  0.13105428980E+04  0.13105428980E+04  0.25500000920E-02 0.  1.
       -2   -1    0    0    0  501  0.00000000000E+00  0.00000000000E+00 -0.16562476416E+04  0.16562476416E+04  0.25500000920E-02 0. -1.
    10030    2    1    2    0    0  0.00000000000E+00  0.00000000000E+00 -0.34570474364E+03  0.29667905396E+04  0.29465801085E+04 0.  0.
        4    1    3    3  502    0  0.85433821354E+03 -0.49630438578E+03  0.92751600846E+03  0.13551750386E+04  0.12699999809E+01 0.  1.
       -4    1    3    3    0  502 -0.85433821354E+03  0.49630438578E+03 -0.12732207521E+04  0.16116155010E+04  0.12699999809E+01 0. -1.
</event>
<event>
 5   0  0.2474769E-06  0.2486210E+04  0.7818609E-02  0.8407915E-01
       -1   -1    0    0    0  501  0.00000000000E+00  0.00000000000E+00  0.15430104743E+04  0.15430104743E+04  0.50400001928E-02 0. -1.
        1   -1    0    0  501    0  0.00000000000E+00  0.00000000000E+00 -0.10014906868E+04  0.10014906868E+04  0.50400001928E-02 0.  1.
    10030    2    1    2    0    0  0.00000000000E+00  0.00000000000E+00  0.54151978750E+03  0.25445011611E+04  0.24862104654E+04 0.  0.
        1    1    3    3  502    0  0.70756369360E+03  0.92514555809E+03 -0.17390329370E+03  0.11776175269E+04  0.50400001928E-02 0.  1.
       -1    1    3    3    0  502 -0.70756369360E+03 -0.92514555809E+03  0.71542308120E+03  0.13668836341E+04  0.50400001928E-02 0. -1.
</event>
<event>
 5   0  0.6393633E-06  0.2670795E+04  0.7818609E-02  0.8344544E-01
        2   -1    0    0  501    0  0.00000000000E+00  0.00000000000E+00  0.18839131873E+04  0.18839131873E+04  0.25500000920E-02 0.  1.
       -2   -1    0    0    0  501  0.00000000000E+00  0.00000000000E+00 -0.94658625490E+03  0.94658625490E+03  0.25500000920E-02 0. -1.
    10030    2    1    2    0    0  0.00000000000E+00  0.00000000000E+00  0.93732693236E+03  0.28304994422E+04  0.26707948843E+04 0.  0.
        4    1    3    3  502    0 -0.58603222041E+03 -0.36365568032E+03 -0.74322012996E+03  0.10139314531E+04  0.12699999809E+01 0. -1.
       -4    1    3    3    0  502  0.58603222041E+03  0.36365568032E+03  0.16805470623E+04  0.18165679890E+04  0.12699999809E+01 0.  1.
</event>
<event>
 5   0  0.2336512E-06  0.2914777E+04  0.7818609E-02  0.8268494E-01
        1   -1    0    0  501    0  0.00000000000E+00  0.00000000000E+00  0.14558366722E+04  0.14558366722E+04  0.50400001928E-02 0. -1.
       -1   -1    0    0    0  501  0.00000000000E+00  0.00000000000E+00 -0.14589418693E+04  0.14589418693E+04  0.50400001928E-02 0.  1.
    10030    2    1    2    0    0  0.00000000000E+00  0.00000000000E+00 -0.31051970686E+01  0.29147785415E+04  0.29147768874E+04 0.  0.
        4    1    3    3  502    0 -0.91118987033E+03 -0.10088644816E+04 -0.52681943946E+03  0.14579488525E+04  0.12699999809E+01 0.  1.
       -4    1    3    3    0  502  0.91118987033E+03  0.10088644816E+04  0.52371424239E+03  0.14568296889E+04  0.12699999809E+01 0. -1.
</event>
<event>
 5   0  0.6513041E-06  0.2866782E+04  0.7818609E-02  0.8282830E-01
       -2   -1    0    0    0  501  0.00000000000E+00  0.00000000000E+00  0.12222592868E+04  0.12222592868E+04  0.25500000920E-02 0. -1.
        2   -1    0    0  501    0  0.00000000000E+00  0.00000000000E+00 -0.16809928118E+04  0.16809928118E+04  0.25500000920E-02 0.  1.
    10030    2    1    2    0    0  0.00000000000E+00  0.00000000000E+00 -0.45873352500E+03  0.29032520986E+04  0.28667815230E+04 0.  0.
        1    1    3    3  502    0  0.19662864269E+02  0.12636089693E+04 -0.91437017494E+03  0.15598612350E+04  0.50400001928E-02 0.  1.
       -1    1    3    3    0  502 -0.19662864269E+02 -0.12636089693E+04  0.45563664994E+03  0.13433908636E+04  0.50400001928E-02 0. -1.
</event>
<event>
 5   0  0.2508094E-06  0.2900323E+04  0.7818609E-02  0.8272781E-01
        1   -1    0    0  501    0  0.00000000000E+00  0.00000000000E+00  0.21475210269E+04  0.21475210269E+04  0.50400001928E-02 0. -1.
       -1   -1    0    0    0  501  0.00000000000E+00  0.00000000000E+00 -0.97925413828E+03  0.97925413829E+03  0.50400001928E-02 0.  1.
    10030    2    1    2    0    0  0.00000000000E+00  0.00000000000E+00  0.11682668886E+04  0.31267751652E+04  0.29003233287E+04 0.  0.
        3    1    3    3  502    0  0.22364470187E+03 -0.25212366980E+03  0.21047149956E+04  0.21315272741E+04  0.10100000352E+00 0. -1.
       -3    1    3    3    0  502 -0.22364470187E+03  0.25212366980E+03 -0.93644810693E+03  0.99524789109E+03  0.10100000352E+00 0.  1.
</event>
<event>
 5   0  0.6612533E-06  0.2903399E+04  0.7818609E-02  0.8271867E-01
       -2   -1    0    0    0  501  0.00000000000E+00  0.00000000000E+00  0.21792174857E+04  0.21792174857E+04  0.25500000920E-02 0. -1.
        2   -1    0    0  501    0  0.00000000000E+00  0.00000000000E+00 -0.96705905922E+03  0.96705905922E+03  0.25500000920E-02 0.  1.
    10030    2    1    2    0    0  0.00000000000E+00  0.00000000000E+00  0.12121584265E+04  0.31462765449E+04  0.29033993949E+04 0.  0.
        3    1    3    3  502    0 -0.11961087369E+04  0.81001505754E+03  0.76173149283E+03  0.16331060533E+04  0.10100000352E+00 0.  1.
       -3    1    3    3    0  502  0.11961087369E+04 -0.81001505754E+03  0.45042693364E+03  0.15131704916E+04  0.10100000352E+00 0. -1.
</event>
<event>
 5   0  0.2348684E-06  0.2860699E+04  0.7818609E-02  0.8284668E-01
        1   -1    0    0  501    0  0.00000000000E+00  0.00000000000E+00  0.15505181509E+04  0.15505181509E+04  0.50400001928E-02 0. -1.
       -1   -1    0    0    0  501  0.00000000000E+00  0.00000000000E+00 -0.13194938802E+04  0.13194938802E+04  0.50400001928E-02 0.  1.
    10030    2    1    2    0    0  0.00000000000E+00  0.00000000000E+00  0.23102427073E+03  0.28700120311E+04  0.28606986638E+04 0.  0.
        5    1    3    3  502    0 -0.52785483495E+03 -0.74240973683E+03  0.12218598356E+04  0.15240624961E+04  0.46999998093E+01 0. -1.
       -5    1    3    3    0  502  0.52785483495E+03  0.74240973683E+03 -0.99083556487E+03  0.13459495350E+04  0.46999998093E+01 0.  1.
</event>
<event>
 5   0  0.6513041E-06  0.2992100E+04  0.7818609E-02  0.8245990E-01
        2   -1    0    0  501    0  0.00000000000E+00  0.00000000000E+00  0.15831593603E+04  0.15831593603E+04  0.25500000920E-02 0. -1.
       -2   -1    0    0    0  501  0.00000000000E+00  0.00000000000E+00 -0.14137332480E+04  0.14137332480E+04  0.25500000920E-02 0.  1.
    10030    2    1    2    0    0  0.00000000000E+00  0.00000000000E+00  0.16942611233E+03  0.29968926083E+04  0.29920996137E+04 0.  0.
        1    1    3    3  502    0  0.76186030618E+03  0.14648770747E+03  0.13659318872E+04  0.15708786379E+04  0.50400001928E-02 0. -1.
       -1    1    3    3    0  502 -0.76186030618E+03 -0.14648770747E+03 -0.11965057749E+04  0.14260139704E+04  0.50400001928E-02 0.  1.
</event>
<event>
 5   0  0.6612533E-06  0.2838426E+04  0.7818609E-02  0.8291437E-01
       -2   -1    0    0    0  501  0.00000000000E+00  0.00000000000E+00  0.17553166751E+04  0.17553166751E+04  0.25500000920E-02 0.  1.
        2   -1    0    0  501    0  0.00000000000E+00  0.00000000000E+00 -0.11474654179E+04  0.11474654179E+04  0.25500000920E-02 0. -1.
    10030    2    1    2    0    0  0.00000000000E+00  0.00000000000E+00  0.60785125713E+03  0.29027820930E+04  0.28384257483E+04 0.  0.
        3    1    3    3  502    0  0.51998893896E+03  0.57242494408E+03 -0.91305827464E+03  0.11965509752E+04  0.10100000352E+00 0. -1.
       -3    1    3    3    0  502 -0.51998893896E+03 -0.57242494408E+03  0.15209095318E+04  0.17062311178E+04  0.10100000352E+00 0.  1.
</event>
<event>
 5   0  0.2159500E-06  0.2667863E+04  0.7818609E-02  0.8345508E-01
        3   -1    0    0  501    0  0.00000000000E+00  0.00000000000E+00  0.12301453721E+04  0.12301453762E+04  0.10100000352E+00 0. -1.
       -3   -1    0    0    0  501  0.00000000000E+00  0.00000000000E+00 -0.14464742416E+04  0.14464742451E+04  0.10100000352E+00 0.  1.
    10030    2    1    2    0    0  0.00000000000E+00  0.00000000000E+00 -0.21632886951E+03  0.26766196213E+04  0.26678632681E+04 0.  0.
        4    1    3    3  502    0 -0.12159845044E+04 -0.55783087034E+02  0.43919189049E+03  0.12940715580E+04  0.12699999809E+01 0.  1.
       -4    1    3    3    0  502  0.12159845044E+04  0.55783087034E+02 -0.65552076000E+03  0.13825480633E+04  0.12699999809E+01 0. -1.
</event>
<event>
 5   0  0.2336512E-06  0.2914589E+04  0.7818609E-02  0.8268550E-01
        1   -1    0    0  501    0  0.00000000000E+00  0.00000000000E+00  0.14832969023E+04  0.14832969023E+04  0.50400001928E-02 0.  1.
       -1   -1    0    0    0  501  0.00000000000E+00  0.00000000000E+00 -0.14317480954E+04  0.14317480954E+04  0.50400001928E-02 0. -1.
    10030    2    1    2    0    0  0.00000000000E+00  0.00000000000E+00  0.51548806890E+02  0.29150449978E+04  0.29145891751E+04 0.  0.
        4    1    3    3  502    0 -0.77121001588E+03 -0.10114264823E+03 -0.12067783331E+04  0.14357263952E+04  0.12699999809E+01 0. -1.
       -4    1    3    3    0  502  0.77121001588E+03  0.10114264823E+03  0.12583271399E+04  0.14793186026E+04  0.12699999809E+01 0.  1.
</event>
<event>
 5   0  0.2429358E-06  0.3266800E+04  0.7818609E-02  0.8171395E-01
       -1   -1    0    0    0  501  0.00000000000E+00  0.00000000000E+00  0.21197501264E+04  0.21197501264E+04  0.50400001928E-02 0.  1.
        1   -1    0    0  501    0  0.00000000000E+00  0.00000000000E+00 -0.12586370954E+04  0.12586370954E+04  0.50400001928E-02 0. -1.
    10030    2    1    2    0    0  0.00000000000E+00  0.00000000000E+00  0.86111303095E+03  0.33783872218E+04  0.32668003563E+04 0.  0.
        2    1    3    3  502    0  0.52407037629E+03 -0.14837756695E+04  0.88341392408E+03  0.18046218878E+04  0.25500000920E-02 0.  1.
       -2    1    3    3    0  502 -0.52407037629E+03  0.14837756695E+04 -0.22300893131E+02  0.15737653340E+04  0.25500000920E-02 0. -1.
</event>
<event>
 5   0  0.6393633E-06  0.2906939E+04  0.7818609E-02  0.8270816E-01
        2   -1    0    0  501    0  0.00000000000E+00  0.00000000000E+00  0.21785113599E+04  0.21785113599E+04  0.25500000920E-02 0. -1.
       -2   -1    0    0    0  501  0.00000000000E+00  0.00000000000E+00 -0.96973278421E+03  0.96973278421E+03  0.25500000920E-02 0.  1.
    10030    2    1    2    0    0  0.00000000000E+00  0.00000000000E+00  0.12087785756E+04  0.31482441441E+04  0.29069392057E+04 0.  0.
        4    1    3    3  502    0 -0.13257746710E+02  0.94216449481E+03  0.18029259292E+04  0.20343041126E+04  0.12699999809E+01 0. -1.
       -4    1    3    3    0  502  0.13257746710E+02 -0.94216449481E+03 -0.59414735359E+03  0.11139400315E+04  0.12699999809E+01 0.  1.
</event>
<event>
 5   0  0.6513041E-06  0.2906704E+04  0.7818609E-02  0.8270886E-01
        2   -1    0    0  501    0  0.00000000000E+00  0.00000000000E+00  0.18711972624E+04  0.18711972624E+04  0.25500000920E-02 0.  1.
       -2   -1    0    0    0  501  0.00000000000E+00  0.00000000000E+00 -0.11288131872E+04  0.11288131872E+04  0.25500000920E-02 0. -1.
    10030    2    1    2    0    0  0.00000000000E+00  0.00000000000E+00  0.74238407525E+03  0.30000104496E+04  0.29067040755E+04 0.  0.
        1    1    3    3  502    0  0.13549004846E+04 -0.44972654236E+03  0.65237615711E+03  0.15695871866E+04  0.50400001928E-02 0. -1.
       -1    1    3    3    0  502 -0.13549004846E+04  0.44972654236E+03  0.90007918144E+02  0.14304232630E+04  0.50400001928E-02 0.  1.
</event>
<event>
 5   0  0.2474769E-06  0.2936700E+04  0.7818609E-02  0.8262041E-01
        1   -1    0    0  501    0  0.00000000000E+00  0.00000000000E+00  0.21928951929E+04  0.21928951929E+04  0.50400001928E-02 0.  1.
       -1   -1    0    0    0  501  0.00000000000E+00  0.00000000000E+00 -0.98319838774E+03  0.98319838775E+03  0.50400001928E-02 0. -1.
    10030    2    1    2    0    0  0.00000000000E+00  0.00000000000E+00  0.12096968051E+04  0.31760935806E+04  0.29366995203E+04 0.  0.
        1    1    3    3  502    0 -0.53146632323E+03  0.30726107078E+03 -0.83774637735E+03  0.10385975212E+04  0.50400001928E-02 0. -1.
       -1    1    3    3    0  502  0.53146632323E+03 -0.30726107078E+03  0.20474431825E+04  0.21374960594E+04  0.50400001928E-02 0.  1.
</event>
<event>
 5   0  0.6733688E-06  0.2890253E+04  0.7818609E-02  0.8275783E-01
       -2   -1    0    0    0  501  0.00000000000E+00  0.00000000000E+00  0.17981249160E+04  0.17981249160E+04  0.25500000920E-02 0. -1.
        2   -1    0    0  501    0  0.00000000000E+00  0.00000000000E+00 -0.11614266285E+04  0.11614266285E+04  0.25500000920E-02 0.  1.
    10030    2    1    2    0    0  0.00000000000E+00  0.00000000000E+00  0.63669828748E+03  0.29595515445E+04  0.28902526940E+04 0.  0.
        5    1    3    3  502    0 -0.10826642685E+03 -0.10724005225E+04  0.13040317159E+04  0.16918289824E+04  0.46999998093E+01 0. -1.
       -5    1    3    3    0  502  0.10826642685E+03  0.10724005225E+04 -0.66733342842E+03  0.12677225621E+04  0.46999998093E+01 0.  1.
</event>
<event>
 5   0  0.2336512E-06  0.2903016E+04  0.7818609E-02  0.8271981E-01
       -1   -1    0    0    0  501  0.00000000000E+00  0.00000000000E+00  0.22952942356E+04  0.22952942356E+04  0.50400001928E-02 0. -1.
        1   -1    0    0  501    0  0.00000000000E+00  0.00000000000E+00 -0.91791091268E+03  0.91791091269E+03  0.50400001928E-02 0.  1.
    10030    2    1    2    0    0  0.00000000000E+00  0.00000000000E+00  0.13773833230E+04  0.32132051483E+04  0.29030161052E+04 0.  0.
        4    1    3    3  502    0  0.13500575065E+04  0.48135791487E+03  0.94233512067E+03  0.17153302322E+04  0.12699999809E+01 0. -1.
       -4    1    3    3    0  502 -0.13500575065E+04 -0.48135791487E+03  0.43504820229E+03  0.14978749161E+04  0.12699999809E+01 0.  1.
</event>
<event>
 5   0  0.2508094E-06  0.2891395E+04  0.7818609E-02  0.8275442E-01
       -1   -1    0    0    0  501  0.00000000000E+00  0.00000000000E+00  0.12508257463E+04  0.12508257463E+04  0.50400001928E-02 0. -1.
        1   -1    0    0  501    0  0.00000000000E+00  0.00000000000E+00 -0.16709291793E+04  0.16709291793E+04  0.50400001928E-02 0.  1.
    10030    2    1    2    0    0  0.00000000000E+00  0.00000000000E+00 -0.42010343304E+03  0.29217549256E+04  0.28913949836E+04 0.  0.
        3    1    3    3  502    0 -0.17077054262E+02  0.14182688138E+04 -0.49274473889E+03  0.15015243727E+04  0.10100000352E+00 0.  1.
       -3    1    3    3    0  502  0.17077054262E+02 -0.14182688138E+04  0.72641305855E+02  0.14202305529E+04  0.10100000352E+00 0. -1.
</event>
<event>
 5   0  0.2429358E-06  0.2874905E+04  0.7818609E-02  0.8280383E-01
       -1   -1    0    0    0  501  0.00000000000E+00  0.00000000000E+00  0.11664953799E+04  0.11664953799E+04  0.50400001928E-02 0.  1.
        1   -1    0    0  501    0  0.00000000000E+00  0.00000000000E+00 -0.17713483973E+04  0.17713483973E+04  0.50400001928E-02 0. -1.
    10030    2    1    2    0    0  0.00000000000E+00  0.00000000000E+00 -0.60485301745E+03  0.29378437772E+04  0.28749050222E+04 0.  0.
        2    1    3    3  502    0 -0.30151947536E+02  0.14369617644E+04 -0.32531026768E+03  0.14736332728E+04  0.25500000920E-02 0. -1.
       -2    1    3    3    0  502  0.30151947536E+02 -0.14369617644E+04 -0.27954274977E+03  0.14642105044E+04  0.25500000920E-02 0.  1.
</event>
<event>
 5   0  0.6393633E-06  0.2841370E+04  0.7818609E-02  0.8290538E-01
       -2   -1    0    0    0  501  0.00000000000E+00  0.00000000000E+00  0.10888635339E+04  0.10888635339E+04  0.25500000920E-02 0.  1.
        2   -1    0    0  501    0  0.00000000000E+00  0.00000000000E+00 -0.18536261945E+04  0.18536261945E+04  0.25500000920E-02 0. -1.
    10030    2    1    2    0    0  0.00000000000E+00  0.00000000000E+00 -0.76476266056E+03  0.29424897284E+04  0.28413700700E+04 0.  0.
        4    1    3    3  502    0 -0.38884620137E+03 -0.24874921710E+03 -0.17738000868E+04  0.18328791292E+04  0.12699999809E+01 0. -1.
       -4    1    3    3    0  502  0.38884620137E+03  0.24874921710E+03  0.10090374263E+04  0.11096105992E+04  0.12699999809E+01 0.  1.
</event>
<event>
 5   0  0.2474769E-06  0.2727880E+04  0.7818609E-02  0.8326015E-01
        1   -1    0    0  501    0  0.00000000000E+00  0.00000000000E+00  0.17065063534E+04  0.17065063534E+04  0.50400001928E-02 0. -1.
       -1   -1    0    0    0  501  0.00000000000E+00  0.00000000000E+00 -0.10901412369E+04  0.10901412369E+04  0.50400001928E-02 0.  1.
    10030    2    1    2    0    0  0.00000000000E+00  0.00000000000E+00  0.61636511651E+03  0.27966475904E+04  0.27278804571E+04 0.  0.
        1    1    3    3  502    0  0.50265837744E+03 -0.22018755673E+03 -0.97196851683E+03  0.11161858278E+04  0.50400001928E-02 0.  1.
       -1    1    3    3    0  502 -0.50265837744E+03  0.22018755673E+03  0.15883336333E+04  0.16804617625E+04  0.50400001928E-02 0. -1.
</event>
<event>
 5   0  0.2508094E-06  0.2918620E+04  0.7818609E-02  0.8267359E-01
        1   -1    0    0  501    0  0.00000000000E+00  0.00000000000E+00  0.20007068678E+04  0.20007068678E+04  0.50400001928E-02 0.  1.
       -1   -1    0    0    0  501  0.00000000000E+00  0.00000000000E+00 -0.10644166325E+04  0.10644166325E+04  0.50400001928E-02 0. -1.
    10030    2    1    2    0    0  0.00000000000E+00  0.00000000000E+00  0.93629023532E+03  0.30651235003E+04  0.29186199937E+04 0.  0.
        3    1    3    3  502    0 -0.38750462789E+03  0.11536344653E+04 -0.37760735257E+03  0.12742133413E+04  0.10100000352E+00 0. -1.
       -3    1    3    3    0  502  0.38750462789E+03 -0.11536344653E+04  0.13138975879E+04  0.17909101591E+04  0.10100000352E+00 0.  1.
</event>
<event>
 5   0  0.6615403E-06  0.2890638E+04  0.7818609E-02  0.8275668E-01
       -2   -1    0    0    0  501  0.00000000000E+00  0.00000000000E+00  0.11683166933E+04  0.11683166933E+04  0.25500000920E-02 0.  1.
        2   -1    0    0  501    0  0.00000000000E+00  0.00000000000E+00 -0.17879972681E+04  0.17879972681E+04  0.25500000920E-02 0. -1.
    10030    2    1    2    0    0  0.00000000000E+00  0.00000000000E+00 -0.61968057480E+03  0.29563139614E+04  0.28906380305E+04 0.  0.
        2    1    3    3  502    0 -0.11716737676E+04  0.43483310538E+03 -0.10523153098E+04  0.16337890802E+04  0.25500000920E-02 0. -1.
       -2    1    3    3    0  502  0.11716737676E+04 -0.43483310538E+03  0.43263473505E+03  0.13225248812E+04  0.25500000920E-02 0.  1.
</event>
<event>
 5   0  0.6393633E-06  0.2820336E+04  0.7818609E-02  0.8296982E-01
        2   -1    0    0  501    0  0.00000000000E+00  0.00000000000E+00  0.15076453169E+04  0.15076453169E+04  0.25500000920E-02 0. -1.
       -2   -1    0    0    0  501  0.00000000000E+00  0.00000000000E+00 -0.13189932265E+04  0.13189932265E+04  0.25500000920E-02 0.  1.
    10030    2    1    2    0    0  0.00000000000E+00  0.00000000000E+00  0.18865209043E+03  0.28266385434E+04  0.28203361225E+04 0.  0.
        4    1    3    3  502    0 -0.43025484102E+03 -0.71520075210E+03  0.12335018384E+04  0.14893487645E+04  0.12699999809E+01 0. -1.
       -4    1    3    3    0  502  0.43025484102E+03  0.71520075210E+03 -0.10448497480E+04  0.13372897789E+04  0.12699999809E+01 0.  1.
</event>
<event>
 5   0  0.2348684E-06  0.2903347E+04  0.7818609E-02  0.8271882E-01
       -1   -1    0    0    0  501  0.00000000000E+00  0.00000000000E+00  0.10189070103E+04  0.10189070104E+04  0.50400001928E-02 0.  1.
        1   -1    0    0  501    0  0.00000000000E+00  0.00000000000E+00 -0.20682509505E+04  0.20682509505E+04  0.50400001928E-02 0. -1.
    10030    2    1    2    0    0  0.00000000000E+00  0.00000000000E+00 -0.10493439402E+04  0.30871579609E+04  0.29033466157E+04 0.  0.
        5    1    3    3  502    0 -0.75417088037E+03 -0.11082197914E+04 -0.11170879339E+04  0.17449448029E+04  0.46999998093E+01 0. -1.
       -5    1    3    3    0  502  0.75417088037E+03  0.11082197914E+04  0.67743993735E+02  0.13422131580E+04  0.46999998093E+01 0.  1.
</event>
<event>
 5   0  0.6393633E-06  0.2896289E+04  0.7818609E-02  0.8273982E-01
       -2   -1    0    0    0  501  0.00000000000E+00  0.00000000000E+00  0.14302291376E+04  0.14302291376E+04  0.25500000920E-02 0.  1.
        2   -1    0    0  501    0  0.00000000000E+00  0.00000000000E+00 -0.14662847464E+04  0.14662847464E+04  0.25500000920E-02 0. -1.
    10030    2    1    2    0    0  0.00000000000E+00  0.00000000000E+00 -0.36055608803E+02  0.28965138840E+04  0.28962894664E+04 0.  0.
        4    1    3    3  502    0  0.51912100726E+03  0.42358135000E+03  0.12658994549E+04  0.14322747024E+04  0.12699999809E+01 0.  1.
       -4    1    3    3    0  502 -0.51912100726E+03 -0.42358135000E+03 -0.13019550637E+04  0.14642391816E+04  0.12699999809E+01 0. -1.
</event>
<event>
 5   0  0.2429358E-06  0.2903053E+04  0.7818609E-02  0.8271970E-01
        1   -1    0    0  501    0  0.00000000000E+00  0.00000000000E+00  0.16844823814E+04  0.16844823814E+04  0.50400001928E-02 0. -1.
       -1   -1    0    0    0  501  0.00000000000E+00  0.00000000000E+00 -0.12507874374E+04  0.12507874374E+04  0.50400001928E-02 0.  1.
    10030    2    1    2    0    0  0.00000000000E+00  0.00000000000E+00  0.43369494399E+03  0.29352698188E+04  0.29030531522E+04 0.  0.
        2    1    3    3  502    0 -0.72315453953E+03 -0.12219329114E+04 -0.87922331291E+02  0.14226042543E+04  0.25500000920E-02 0.  1.
       -2    1    3    3    0  502  0.72315453953E+03  0.12219329114E+04  0.52161727528E+03  0.15126655645E+04  0.25500000920E-02 0. -1.
</event>
<event>
 5   0  0.6733688E-06  0.2800851E+04  0.7818609E-02  0.8303004E-01
       -2   -1    0    0    0  501  0.00000000000E+00  0.00000000000E+00  0.10397618613E+04  0.10397618613E+04  0.25500000920E-02 0. -1.
        2   -1    0    0  501    0  0.00000000000E+00  0.00000000000E+00 -0.18861932924E+04  0.18861932924E+04  0.25500000920E-02 0.  1.
    10030    2    1    2    0    0  0.00000000000E+00  0.00000000000E+00 -0.84643143108E+03  0.29259551536E+04  0.28008511909E+04 0.  0.
        5    1    3    3  502    0  0.26210497433E+03  0.13428187094E+04 -0.73540960854E+03  0.15532902131E+04  0.46999998093E+01 0.  1.
       -5    1    3    3    0  502 -0.26210497433E+03 -0.13428187094E+04 -0.11102182253E+03  0.13726649405E+04  0.46999998093E+01 0. -1.
</event>
<event>
 5   0  0.2336512E-06  0.2896438E+04  0.7818609E-02  0.8273938E-01
        1   -1    0    0  501    0  0.00000000000E+00  0.00000000000E+00  0.18222584792E+04  0.18222584792E+04  0.50400001928E-02 0.  1.
       -1   -1    0    0    0  501  0.00000000000E+00  0.00000000000E+00 -0.11509557184E+04  0.11509557184E+04  0.50400001928E-02 0. -1.
    10030    2    1    2    0    0  0.00000000000E+00  0.00000000000E+00  0.67130276076E+03  0.29732141976E+04  0.28964383764E+04 0.  0.
        4    1    3    3  502    0 -0.18092530007E+02  0.16886629353E+03  0.18120004062E+04  0.18199423754E+04  0.12699999809E+01 0.  1.
       -4    1    3    3    0  502  0.18092530007E+02 -0.16886629353E+03 -0.11406976455E+04  0.11532718222E+04  0.12699999809E+01 0. -1.
</event>
<event>
 5   0  0.6612533E-06  0.2934466E+04  0.7818609E-02  0.8262696E-01
       -2   -1    0    0    0  501  0.00000000000E+00  0.00000000000E+00  0.11985883052E+04  0.11985883052E+04  0.25500000920E-02 0. -1.
        2   -1    0    0  501    0  0.00000000000E+00  0.00000000000E+00 -0.17960901320E+04  0.17960901320E+04  0.25500000920E-02 0.  1.
    10030    2    1    2    0    0  0.00000000000E+00  0.00000000000E+00 -0.59750182683E+03  0.29946784372E+04  0.29344659666E+04 0.  0.
        3    1    3    3  502    0  0.34249857583E+03  0.17245710108E+03 -0.17440472732E+04  0.17857064785E+04  0.10100000352E+00 0.  1.
       -3    1    3    3    0  502 -0.34249857583E+03 -0.17245710108E+03  0.11465454464E+04  0.12089719587E+04  0.10100000352E+00 0. -1.
</event>
<event>
 5   0  0.2429358E-06  0.2908351E+04  0.7818609E-02  0.8270397E-01
        1   -1    0    0  501    0  0.00000000000E+00  0.00000000000E+00  0.19057149437E+04  0.19057149437E+04  0.50400001928E-02 0.  1.
       -1   -1    0    0    0  501  0.00000000000E+00  0.00000000000E+00 -0.11096234781E+04  0.11096234781E+04  0.50400001928E-02 0. -1.
    10030    2    1    2    0    0  0.00000000000E+00  0.00000000000E+00  0.79609146568E+03  0.30153384218E+04  0.29083507657E+04 0.  0.
        2    1    3    3  502    0  0.11643924259E+04 -0.84180517131E+03  0.63029600589E+03  0.15689865274E+04  0.25500000920E-02 0.  1.
       -2    1    3    3    0  502 -0.11643924259E+04  0.84180517131E+03  0.16579545979E+03  0.14463518944E+04  0.25500000920E-02 0. -1.
</event>
<event>
 5   0  0.6615403E-06  0.2417781E+04  0.7818609E-02  0.8432876E-01
       -2   -1    0    0    0  501  0.00000000000E+00  0.00000000000E+00  0.12656149112E+04  0.12656149112E+04  0.25500000920E-02 0. -1.
        2   -1    0    0  501    0  0.00000000000E+00  0.00000000000E+00 -0.11547085060E+04  0.11547085060E+04  0.25500000920E-02 0.  1.
    10030    2    1    2    0    0  0.00000000000E+00  0.00000000000E+00  0.11090640524E+03  0.24203234172E+04  0.24177810515E+04 0.  0.
        2    1    3    3  502    0 -0.94742465516E+03  0.17548434394E+03  0.78629491377E+03  0.12436510458E+04  0.25500000920E-02 0. -1.
       -2    1    3    3    0  502  0.94742465516E+03 -0.17548434394E+03 -0.67538850853E+03  0.11766723714E+04  0.25500000920E-02 0.  1.
</event>
<event>
 5   0  0.2159500E-06  0.2902184E+04  0.7818609E-02  0.8272228E-01
       -3   -1    0    0    0  501  0.00000000000E+00  0.00000000000E+00  0.17215252529E+04  0.17215252559E+04  0.10100000352E+00 0. -1.
        3   -1    0    0  501    0  0.00000000000E+00  0.00000000000E+00 -0.12231409471E+04  0.12231409513E+04  0.10100000352E+00 0.  1.
    10030    2    1    2    0    0  0.00000000000E+00  0.00000000000E+00  0.49838430580E+03  0.29446662072E+04  0.29021840320E+04 0.  0.
        3    1    3    3  502    0 -0.40998324284E+03 -0.13849826153E+04  0.10785149670E+03  0.14484112191E+04  0.10100000352E+00 0. -1.
       -3    1    3    3    0  502  0.40998324284E+03  0.13849826153E+04  0.39053280910E+03  0.14962549881E+04  0.10100000352E+00 0.  1.
</event>
<event>
 5   0  0.6393633E-06  0.2617839E+04  0.7818609E-02  0.8362167E-01
        2   -1    0    0  501    0  0.00000000000E+00  0.00000000000E+00  0.22378275479E+04  0.22378275479E+04  0.25500000920E-02 0.  1.
       -2   -1    0    0    0  501  0.00000000000E+00  0.00000000000E+00 -0.76559516788E+03  0.76559516789E+03  0.25500000920E-02 0. -1.
    10030    2    1    2    0    0  0.00000000000E+00  0.00000000000E+00  0.14722323800E+04  0.30034227158E+04  0.26178387706E+04 0.  0.
        4    1    3    3  502    0  0.57008892771E+03  0.66933627292E+03 -0.37637505601E+03  0.95638497867E+03  0.12699999809E+01 0. -1.
       -4    1    3    3    0  502 -0.57008892771E+03 -0.66933627292E+03  0.18486074360E+04  0.20470377371E+04  0.12699999809E+01 0.  1.
</event>
<event>
 5   0  0.6733688E-06  0.2402624E+04  0.7818609E-02  0.8438522E-01
       -2   -1    0    0    0  501  0.00000000000E+00  0.00000000000E+00  0.11169862040E+04  0.11169862040E+04  0.25500000920E-02 0. -1.
        2   -1    0    0  501    0  0.00000000000E+00  0.00000000000E+00 -0.12920037018E+04  0.12920037018E+04  0.25500000920E-02 0.  1.
    10030    2    1    2    0    0  0.00000000000E+00  0.00000000000E+00 -0.17501749782E+03  0.24089899058E+04  0.24026238245E+04 0.  0.
        5    1    3    3  502    0 -0.16565209488E+03  0.50149425104E+03  0.99432703415E+03  0.11258976158E+04  0.46999998093E+01 0. -1.
       -5    1    3    3    0  502  0.16565209488E+03 -0.50149425104E+03 -0.11693445320E+04  0.12830922901E+04  0.46999998093E+01 0.  1.
</event>
<event>
 5   0  0.2336512E-06  0.2902028E+04  0.7818609E-02  0.8272274E-01
       -1   -1    0    0    0  501  0.00000000000E+00  0.00000000000E+00  0.95395424159E+03  0.95395424160E+03  0.50400001928E-02 0.  1.
        1   -1    0    0  501    0  0.00000000000E+00  0.00000000000E+00 -0.22070684551E+04  0.22070684551E+04  0.50400001928E-02 0. -1.
    10030    2    1    2    0    0  0.00000000000E+00  0.00000000000E+00 -0.12531142135E+04  0.31610226967E+04  0.29020284728E+04 0.  0.
        4    1    3    3  502    0 -0.19335081774E+03 -0.94039940538E+03 -0.18116372144E+04  0.20503089011E+04  0.12699999809E+01 0. -1.
       -4    1    3    3    0  502  0.19335081774E+03  0.94039940538E+03  0.55852300089E+03  0.11107137956E+04  0.12699999809E+01 0.  1.
</event>
<event>
 5   0  0.2429358E-06  0.3001653E+04  0.7818609E-02  0.8243259E-01
        1   -1    0    0  501    0  0.00000000000E+00  0.00000000000E+00  0.23111853754E+04  0.23111853754E+04  0.50400001928E-02 0.  1.
       -1   -1    0    0    0  501  0.00000000000E+00  0.00000000000E+00 -0.97459978036E+03  0.97459978037E+03  0.50400001928E-02 0. -1.
    10030    2    1    2    0    0  0.00000000000E+00  0.00000000000E+00  0.13365855951E+04  0.32857851558E+04  0.30016533839E+04 0.  0.
        2    1    3    3  502    0  0.12552413507E+04  0.21650371458E+03  0.15371344702E+04  0.19963183830E+04  0.25500000920E-02 0.  1.
       -2    1    3    3    0  502 -0.12552413507E+04 -0.21650371458E+03 -0.20054887509E+03  0.12894667728E+04  0.25500000920E-02 0. -1.
</event>
<event>
 5   0  0.6733688E-06  0.2917223E+04  0.7818609E-02  0.8267772E-01
        2   -1    0    0  501    0  0.00000000000E+00  0.00000000000E+00  0.26969297304E+04  0.26969297304E+04  0.25500000920E-02 0.  1.
       -2   -1    0    0    0  501  0.00000000000E+00  0.00000000000E+00 -0.78887741192E+03  0.78887741193E+03  0.25500000920E-02 0. -1.
    10030    2    1    2    0    0  0.00000000000E+00  0.00000000000E+00  0.19080523185E+04  0.34858071424E+04  0.29172226147E+04 0.  0.
        5    1    3    3  502    0  0.13362902403E+04 -0.84414796689E+02  0.16453466196E+04  0.21213168205E+04  0.46999998093E+01 0.  1.
       -5    1    3    3    0  502 -0.13362902403E+04  0.84414796689E+02  0.26270569889E+03  0.13644903219E+04  0.46999998093E+01 0. -1.
</event>
<event>
 5   0  0.2508094E-06  0.2855443E+04  0.7818609E-02  0.8286259E-01
       -1   -1    0    0    0  501  0.00000000000E+00  0.00000000000E+00  0.13000940693E+04  0.13000940693E+04  0.50400001928E-02 0. -1.
        1   -1    0    0  501    0  0.00000000000E+00  0.00000000000E+00 -0.15678774673E+04  0.15678774674E+04  0.50400001928E-02 0.  1.
    10030    2    1    2    0    0  0.00000000000E+00  0.00000000000E+00 -0.26778339804E+03  0.28679715367E+04  0.28554426604E+04 0.  0.
        3    1    3    3  502    0  0.25265259095E+03 -0.72183751060E+03  0.10770123390E+04  0.13209232801E+04  0.10100000352E+00 0. -1.
       -3    1    3    3    0  502 -0.25265259095E+03  0.72183751060E+03 -0.13447957371E+04  0.15470482565E+04  0.10100000352E+00 0.  1.
</event>
<event>
 5   0  0.6513041E-06  0.2910919E+04  0.7818609E-02  0.8269636E-01
       -2   -1    0    0    0  501  0.00000000000E+00  0.00000000000E+00  0.15623350047E+04  0.15623350047E+04  0.25500000920E-02 0. -1.
        2   -1    0    0  501    0  0.00000000000E+00  0.00000000000E+00 -0.13558949465E+04  0.13558949466E+04  0.25500000920E-02 0.  1.
    10030    2    1    2    0    0  0.00000000000E+00  0.00000000000E+00  0.20644005817E+03  0.29182299513E+04  0.29109188499E+04 0.  0.
        1    1    3    3  502    0  0.66921306258E+03  0.40248041342E+03  0.13345253169E+04  0.15462193983E+04  0.50400001928E-02 0. -1.
       -1    1    3    3    0  502 -0.66921306258E+03 -0.40248041342E+03 -0.11280852587E+04  0.13720105529E+04  0.50400001928E-02 0.  1.
</event>
<event>
 5   0  0.2474769E-06  0.2898032E+04  0.7818609E-02  0.8273463E-01
        1   -1    0    0  501    0  0.00000000000E+00  0.00000000000E+00  0.14306793344E+04  0.14306793344E+04  0.50400001928E-02 0. -1.
       -1   -1    0    0    0  501  0.00000000000E+00  0.00000000000E+00 -0.14675879183E+04  0.14675879184E+04  0.50400001928E-02 0.  1.
    10030    2    1    2    0    0  0.00000000000E+00  0.00000000000E+00 -0.36908583948E+02  0.28982672528E+04  0.28980322332E+04 0.  0.
        1    1    3    3  502    0 -0.24192911491E+03 -0.91309532511E+03  0.10804409587E+04  0.14351395175E+04  0.50400001928E-02 0. -1.
       -1    1    3    3    0  502  0.24192911491E+03  0.91309532511E+03 -0.11173495426E+04  0.14631277353E+04  0.50400001928E-02 0.  1.
</event>
<event>
 5   0  0.6513041E-06  0.2909365E+04  0.7818609E-02  0.8270097E-01
       -2   -1    0    0    0  501  0.00000000000E+00  0.00000000000E+00  0.10094366652E+04  0.10094366652E+04  0.25500000920E-02 0. -1.
        2   -1    0    0  501    0  0.00000000000E+00  0.00000000000E+00 -0.20963188092E+04  0.20963188092E+04  0.25500000920E-02 0.  1.
    10030    2    1    2    0    0  0.00000000000E+00  0.00000000000E+00 -0.10868821440E+04  0.31057554744E+04  0.29093649259E+04 0.  0.
        1    1    3    3  502    0 -0.11838262112E+03 -0.92798301440E+03  0.64572751495E+03  0.11367193777E+04  0.50400001928E-02 0. -1.
       -1    1    3    3    0  502  0.11838262112E+03  0.92798301440E+03 -0.17326096589E+04  0.19690360967E+04  0.50400001928E-02 0.  1.
</event>
<event>
 5   0  0.6513041E-06  0.2887240E+04  0.7818609E-02  0.8276684E-01
        2   -1    0    0  501    0  0.00000000000E+00  0.00000000000E+00  0.20127424998E+04  0.20127424998E+04  0.25500000920E-02 0. -1.
       -2   -1    0    0    0  501  0.00000000000E+00  0.00000000000E+00 -0.10354221023E+04  0.10354221023E+04  0.25500000920E-02 0.  1.
    10030    2    1    2    0    0  0.00000000000E+00  0.00000000000E+00  0.97732039753E+03  0.30481646020E+04  0.28872395608E+04 0.  0.
        1    1    3    3  502    0 -0.71272895869E+03 -0.89996514241E+03  0.14127272771E+04  0.18203621029E+04  0.50400001928E-02 0. -1.
       -1    1    3    3    0  502  0.71272895869E+03  0.89996514241E+03 -0.43540687957E+03  0.12278024992E+04  0.50400001928E-02 0.  1.
</event>
<event>
 5   0  0.6733688E-06  0.2905484E+04  0.7818609E-02  0.8271248E-01
        2   -1    0    0  501    0  0.00000000000E+00  0.00000000000E+00  0.20582758126E+04  0.20582758126E+04  0.25500000920E-02 0.  1.
       -2   -1    0    0    0  501  0.00000000000E+00  0.00000000000E+00 -0.10253531733E+04  0.10253531733E+04  0.25500000920E-02 0. -1.
    10030    2    1    2    0    0  0.00000000000E+00  0.00000000000E+00  0.10329226393E+04  0.30836289858E+04  0.29054842184E+04 0.  0.
        5    1    3    3  502    0  0.33372427029E+03  0.84274886868E+03  0.17213393953E+04  0.19454122823E+04  0.46999998093E+01 0. -1.
       -5    1    3    3    0  502 -0.33372427029E+03 -0.84274886868E+03 -0.68841675601E+03  0.11382167035E+04  0.46999998093E+01 0.  1.
</event>
<event>
 5   0  0.6612533E-06  0.2911776E+04  0.7818609E-02  0.8269382E-01
       -2   -1    0    0    0  501  0.00000000000E+00  0.00000000000E+00  0.23337305841E+04  0.23337305841E+04  0.25500000920E-02 0. -1.
        2   -1    0    0  501    0  0.00000000000E+00  0.00000000000E+00 -0.90824954725E+03  0.90824954725E+03  0.25500000920E-02 0.  1.
    10030    2    1    2    0    0  0.00000000000E+00  0.00000000000E+00  0.14254810368E+04  0.32419801313E+04  0.29117759161E+04 0.  0.
        3    1    3    3  502    0  0.11093790175E+04 -0.96420757308E+02  0.17569623777E+04  0.20801287397E+04  0.10100000352E+00 0. -1.
       -3    1    3    3    0  502 -0.11093790175E+04  0.96420757308E+02 -0.33148134083E+03  0.11618513917E+04  0.10100000352E+00 0.  1.
</event>
<event>
 5   0  0.2336512E-06  0.2772468E+04  0.7818609E-02  0.8311867E-01
        1   -1    0    0  501    0  0.00000000000E+00  0.00000000000E+00  0.20327340927E+04  0.20327340927E+04  0.50400001928E-02 0.  1.
       -1   -1    0    0    0  501  0.00000000000E+00  0.00000000000E+00 -0.94534961813E+03  0.94534961815E+03  0.50400001928E-02 0. -1.
    10030    2    1    2    0    0  0.00000000000E+00  0.00000000000E+00  0.10873844746E+04  0.29780837109E+04  0.27724677804E+04 0.  0.
        4    1    3    3  502    0 -0.64195941508E+03  0.94631614279E+03 -0.29801385041E+03  0.11817106248E+04  0.12699999809E+01 0. -1.
       -4    1    3    3    0  502  0.64195941508E+03 -0.94631614279E+03  0.13853983250E+04  0.17963730861E+04  0.12699999809E+01 0.  1.
</event>
<event>
 5   0  0.2508094E-06  0.2846993E+04  0.7818609E-02  0.8288826E-01
       -1   -1    0    0    0  501  0.00000000000E+00  0.00000000000E+00  0.77107210176E+03  0.77107210178E+03  0.50400001928E-02 0. -1.
        1   -1    0    0  501    0  0.00000000000E+00  0.00000000000E+00 -0.26279538689E+04  0.26279538689E+04  0.50400001928E-02 0.  1.
    10030    2    1    2    0    0  0.00000000000E+00  0.00000000000E+00 -0.18568817671E+04  0.33990259707E+04  0.28469927383E+04 0.  0.
        3    1    3    3  502    0  0.12639301399E+04 -0.32751549924E+03 -0.25142867383E+03  0.13296624343E+04  0.10100000352E+00 0. -1.
       -3    1    3    3    0  502 -0.12639301399E+04  0.32751549924E+03 -0.16054530933E+04  0.20693635364E+04  0.10100000352E+00 0.  1.
</event>
<event>
 5   0  0.2429358E-06  0.2690518E+04  0.7818609E-02  0.8338088E-01
        1   -1    0    0  501    0  0.00000000000E+00  0.00000000000E+00  0.14388602888E+04  0.14388602888E+04  0.50400001928E-02 0.  1.
       -1   -1    0    0    0  501  0.00000000000E+00  0.00000000000E+00 -0.12577464858E+04  0.12577464858E+04  0.50400001928E-02 0. -1.
    10030    2    1    2    0    0  0.00000000000E+00  0.00000000000E+00  0.18111380302E+03  0.26966067745E+04  0.26905177730E+04 0.  0.
        2    1    3    3  502    0 -0.13105426008E+04  0.26680552916E+03 -0.54734519453E+02  0.13385450932E+04  0.25500000920E-02 0. -1.
       -2    1    3    3    0  502  0.13105426008E+04 -0.26680552916E+03  0.23584832248E+03  0.13580616813E+04  0.25500000920E-02 0.  1.
</event>
<event>
 5   0  0.2474769E-06  0.2854773E+04  0.7818609E-02  0.8286463E-01
        1   -1    0    0  501    0  0.00000000000E+00  0.00000000000E+00  0.11950610657E+04  0.11950610657E+04  0.50400001928E-02 0.  1.
       -1   -1    0    0    0  501  0.00000000000E+00  0.00000000000E+00 -0.17048766756E+04  0.17048766757E+04  0.50400001928E-02 0. -1.
    10030    2    1    2    0    0  0.00000000000E+00  0.00000000000E+00 -0.50981560991E+03  0.28999377414E+04  0.28547726613E+04 0.  0.
        1    1    3    3  502    0 -0.27972367978E+03 -0.17625527841E+03  0.11556283695E+04  0.12019934229E+04  0.50400001928E-02 0.  1.
       -1    1    3    3    0  502  0.27972367978E+03  0.17625527841E+03 -0.16654439794E+04  0.16979443185E+04  0.50400001928E-02 0. -1.
</event>
<event>
 5   0  0.6513041E-06  0.2883668E+04  0.7818609E-02  0.8277753E-01
        2   -1    0    0  501    0  0.00000000000E+00  0.00000000000E+00  0.27121124538E+04  0.27121124538E+04  0.25500000920E-02 0. -1.
       -2   -1    0    0    0  501  0.00000000000E+00  0.00000000000E+00 -0.76651886255E+03  0.76651886255E+03  0.25500000920E-02 0.  1.
    10030    2    1    2    0    0  0.00000000000E+00  0.00000000000E+00  0.19455935912E+04  0.34786313163E+04  0.28836680483E+04 0.  0.
        1    1    3    3  502    0 -0.33613097695E+03 -0.13824194039E+04  0.69035798167E+03  0.15813480277E+04  0.50400001928E-02 0.  1.
       -1    1    3    3    0  502  0.33613097695E+03  0.13824194039E+04  0.12552356096E+04  0.18972832886E+04  0.50400001928E-02 0. -1.
</event>
<event>
 5   0  0.2508094E-06  0.2908260E+04  0.7818609E-02  0.8270424E-01
        1   -1    0    0  501    0  0.00000000000E+00  0.00000000000E+00  0.20225534562E+04  0.20225534562E+04  0.50400001928E-02 0.  1.
       -1   -1    0    0    0  501  0.00000000000E+00  0.00000000000E+00 -0.10454573320E+04  0.10454573320E+04  0.50400001928E-02 0. -1.
    10030    2    1    2    0    0  0.00000000000E+00  0.00000000000E+00  0.97709612419E+03  0.30680107882E+04  0.29082595071E+04 0.  0.
        3    1    3    3  502    0  0.13737734318E+04 -0.33484826317E+03  0.13062262125E+03  0.14200137607E+04  0.10100000352E+00 0. -1.
       -3    1    3    3    0  502 -0.13737734318E+04  0.33484826317E+03  0.84647350294E+03  0.16479970275E+04  0.10100000352E+00 0.  1.
</event>
<event>
 5   0  0.6615403E-06  0.2893767E+04  0.7818609E-02  0.8274734E-01
       -2   -1    0    0    0  501  0.00000000000E+00  0.00000000000E+00  0.13780451057E+04  0.13780451057E+04  0.25500000920E-02 0.  1.
        2   -1    0    0  501    0  0.00000000000E+00  0.00000000000E+00 -0.15191607647E+04  0.15191607647E+04  0.25500000920E-02 0. -1.
    10030    2    1    2    0    0  0.00000000000E+00  0.00000000000E+00 -0.14111565906E+03  0.28972058704E+04  0.28937671341E+04 0.  0.
        2    1    3    3  502    0  0.13503596746E+04 -0.24328736841E+02  0.44910512828E+03  0.14232914510E+04  0.25500000920E-02 0.  1.
       -2    1    3    3    0  502 -0.13503596746E+04  0.24328736841E+02 -0.59022078734E+03  0.14739144195E+04  0.25500000920E-02 0. -1.
</event>
<event>
 5   0  0.2348684E-06  0.2832624E+04  0.7818609E-02  0.8293211E-01
       -1   -1    0    0    0  501  0.00000000000E+00  0.00000000000E+00  0.22715496529E+04  0.22715496529E+04  0.50400001928E-02 0. -1.
        1   -1    0    0  501    0  0.00000000000E+00  0.00000000000E+00 -0.88307113988E+03  0.88307113990E+03  0.50400001928E-02 0.  1.
    10030    2    1    2    0    0  0.00000000000E+00  0.00000000000E+00  0.13884785130E+04  0.31546207928E+04  0.28326241835E+04 0.  0.
        5    1    3    3  502    0  0.48182425499E+03  0.98641049878E+03  0.16908113655E+04  0.20159428187E+04  0.46999998093E+01 0. -1.
       -5    1    3    3    0  502 -0.48182425499E+03 -0.98641049878E+03 -0.30233285251E+03  0.11386779740E+04  0.46999998093E+01 0.  1.
</event>
<event>
 5   0  0.6393633E-06  0.2880870E+04  0.7818609E-02  0.8278592E-01
       -2   -1    0    0    0  501  0.00000000000E+00  0.00000000000E+00  0.13303553819E+04  0.13303553819E+04  0.25500000920E-02 0. -1.
        2   -1    0    0  501    0  0.00000000000E+00  0.00000000000E+00 -0.15596236008E+04  0.15596236008E+04  0.25500000920E-02 0.  1.
    10030    2    1    2    0    0  0.00000000000E+00  0.00000000000E+00 -0.22926821886E+03  0.28899789827E+04  0.28808704595E+04 0.  0.
        4    1    3    3  502    0 -0.13262612755E+03 -0.11869681842E+04  0.69312531590E+03  0.13809082071E+04  0.12699999809E+01 0. -1.
       -4    1    3    3    0  502  0.13262612755E+03  0.11869681842E+04 -0.92239353477E+03  0.15090707756E+04  0.12699999809E+01 0.  1.
</event>
<event>
 5   0  0.6513041E-06  0.2879656E+04  0.7818609E-02  0.8278956E-01
        2   -1    0    0  501    0  0.00000000000E+00  0.00000000000E+00  0.11422746944E+04  0.11422746944E+04  0.25500000920E-02 0.  1.
       -2   -1    0    0    0  501  0.00000000000E+00  0.00000000000E+00 -0.18148919352E+04  0.18148919352E+04  0.25500000920E-02 0. -1.
    10030    2    1    2    0    0  0.00000000000E+00  0.00000000000E+00 -0.67261724079E+03  0.29571666296E+04  0.28796563202E+04 0.  0.
        1    1    3    3  502    0 -0.42268628828E+03  0.13710962871E+04 -0.46012087387E+03  0.15067448176E+04  0.50400001928E-02 0. -1.
       -1    1    3    3    0  502  0.42268628828E+03 -0.13710962871E+04 -0.21249636692E+03  0.14504218120E+04  0.50400001928E-02 0.  1.
</event>
<event>
 5   0  0.6513041E-06  0.2925814E+04  0.7818609E-02  0.8265238E-01
       -2   -1    0    0    0  501  0.00000000000E+00  0.00000000000E+00  0.13882723045E+04  0.13882723045E+04  0.25500000920E-02 0.  1.
        2   -1    0    0  501    0  0.00000000000E+00  0.00000000000E+00 -0.15415542670E+04  0.15415542671E+04  0.25500000920E-02 0. -1.
    10030    2    1    2    0    0  0.00000000000E+00  0.00000000000E+00 -0.15328196258E+03  0.29298265715E+04  0.29258141395E+04 0.  0.
        1    1    3    3  502    0  0.10223103321E+04  0.17250473020E+03  0.95686976716E+03  0.14108423188E+04  0.50400001928E-02 0.  1.
       -1    1    3    3    0  502 -0.10223103321E+04 -0.17250473020E+03 -0.11101517297E+04  0.15189842528E+04  0.50400001928E-02 0. -1.
</event>
<event>
 5   0  0.2336512E-06  0.2886057E+04  0.7818609E-02  0.8277038E-01
        1   -1    0    0  501    0  0.00000000000E+00  0.00000000000E+00  0.13238891480E+04  0.13238891480E+04  0.50400001928E-02 0.  1.
       -1   -1    0    0    0  501  0.00000000000E+00  0.00000000000E+00 -0.15728897764E+04  0.15728897764E+04  0.50400001928E-02 0. -1.
    10030    2    1    2    0    0  0.00000000000E+00  0.00000000000E+00 -0.24900062842E+03  0.28967789243E+04  0.28860573147E+04 0.  0.
        4    1    3    3  502    0 -0.97489136252E+03  0.32178574882E+03 -0.11423538291E+04  0.15358818706E+04  0.12699999809E+01 0. -1.
       -4    1    3    3    0  502  0.97489136252E+03 -0.32178574882E+03  0.89335320063E+03  0.13608970537E+04  0.12699999809E+01 0.  1.
</event>
<event>
 5   0  0.6393633E-06  0.2862833E+04  0.7818609E-02  0.8284022E-01
       -2   -1    0    0    0  501  0.00000000000E+00  0.00000000000E+00  0.17611997552E+04  0.17611997552E+04  0.25500000920E-02 0.  1.
        2   -1    0    0  501    0  0.00000000000E+00  0.00000000000E+00 -0.11633852408E+04  0.11633852408E+04  0.25500000920E-02 0. -1.
    10030    2    1    2    0    0  0.00000000000E+00  0.00000000000E+00  0.59781451446E+03  0.29245849960E+04  0.28628334225E+04 0.  0.
        4    1    3    3  502    0 -0.82958972067E+03 -0.78014076593E+03 -0.58704404721E+03  0.12811951629E+04  0.12699999809E+01 0. -1.
       -4    1    3    3    0  502  0.82958972067E+03  0.78014076593E+03  0.11848585617E+04  0.16433898330E+04  0.12699999809E+01 0.  1.
</event>
<event>
 5   0  0.6393633E-06  0.3335476E+04  0.7818609E-02  0.8153927E-01
       -2   -1    0    0    0  501  0.00000000000E+00  0.00000000000E+00  0.20428348214E+04  0.20428348214E+04  0.25500000920E-02 0.  1.
        2   -1    0    0  501    0  0.00000000000E+00  0.00000000000E+00 -0.13615148794E+04  0.13615148794E+04  0.25500000920E-02 0. -1.
    10030    2    1    2    0    0  0.00000000000E+00  0.00000000000E+00  0.68131994197E+03  0.34043497008E+04  0.33354759813E+04 0.  0.
        4    1    3    3  502    0 -0.72492548642E+03  0.17387558209E+03 -0.11819889475E+04  0.13974437963E+04  0.12699999809E+01 0. -1.
       -4    1    3    3    0  502  0.72492548642E+03 -0.17387558209E+03  0.18633088895E+04  0.20069059045E+04  0.12699999809E+01 0.  1.
</event>
<event>
 5   0  0.2429358E-06  0.2862878E+04  0.7818609E-02  0.8284009E-01
       -1   -1    0    0    0  501  0.00000000000E+00  0.00000000000E+00  0.15252786294E+04  0.15252786294E+04  0.50400001928E-02 0.  1.
        1   -1    0    0  501    0  0.00000000000E+00  0.00000000000E+00 -0.13433724805E+04  0.13433724805E+04  0.50400001928E-02 0. -1.
    10030    2    1    2    0    0  0.00000000000E+00  0.00000000000E+00  0.18190614888E+03  0.28686511098E+04  0.28628778079E+04 0.  0.
        2    1    3    3  502    0  0.51230603346E+03 -0.39313522104E+02 -0.12477854802E+04  0.13494338182E+04  0.25500000920E-02 0. -1.
       -2    1    3    3    0  502 -0.51230603346E+03  0.39313522104E+02  0.14296916291E+04  0.15192172917E+04  0.25500000920E-02 0.  1.
</event>
<event>
 5   0  0.6513041E-06  0.2919294E+04  0.7818609E-02  0.8267160E-01
       -2   -1    0    0    0  501  0.00000000000E+00  0.00000000000E+00  0.13461753786E+04  0.13461753786E+04  0.25500000920E-02 0. -1.
        2   -1    0    0  501    0  0.00000000000E+00  0.00000000000E+00 -0.15826838207E+04  0.15826838207E+04  0.25500000920E-02 0.  1.
    10030    2    1    2    0    0  0.00000000000E+00  0.00000000000E+00 -0.23650844216E+03  0.29288591993E+04  0.29192944295E+04 0.  0.
        1    1    3    3  502    0  0.92338378036E+03 -0.23861592390E+03 -0.12268609426E+04  0.15539507513E+04  0.50400001928E-02 0.  1.
       -1    1    3    3    0  502 -0.92338378036E+03  0.23861592390E+03  0.99035250048E+03  0.13749084479E+04  0.50400001928E-02 0. -1.
</event>
<event>
 5   0  0.2348684E-06  0.2920687E+04  0.7818609E-02  0.8266749E-01
        1   -1    0    0  501    0  0.00000000000E+00  0.00000000000E+00  0.13634854382E+04  0.13634854382E+04  0.50400001928E-02 0.  1.
       -1   -1    0    0    0  501  0.00000000000E+00  0.00000000000E+00 -0.15640818812E+04  0.15640818812E+04  0.50400001928E-02 0. -1.
    10030    2    1    2    0    0  0.00000000000E+00  0.00000000000E+00 -0.20059644297E+03  0.29275673194E+04  0.29206868159E+04 0.  0.
        5    1    3    3  502    0 -0.12386125844E+04 -0.64533891877E+03 -0.52786767608E+03  0.14930806501E+04  0.46999998093E+01 0.  1.
       -5    1    3    3    0  502  0.12386125844E+04  0.64533891877E+03  0.32727123311E+03  0.14344866693E+04  0.46999998093E+01 0. -1.
</event>
<event>
 5   0  0.2348684E-06  0.2932907E+04  0.7818609E-02  0.8263153E-01
        1   -1    0    0  501    0  0.00000000000E+00  0.00000000000E+00  0.13681357084E+04  0.13681357084E+04  0.50400001928E-02 0. -1.
       -1   -1    0    0    0  501  0.00000000000E+00  0.00000000000E+00 -0.15718371403E+04  0.15718371403E+04  0.50400001928E-02 0.  1.
    10030    2    1    2    0    0  0.00000000000E+00  0.00000000000E+00 -0.20370143187E+03  0.29399728488E+04  0.29329074445E+04 0.  0.
        5    1    3    3  502    0  0.11755163443E+03 -0.31028743689E+03  0.13300047670E+04  0.13707776809E+04  0.46999998093E+01 0. -1.
       -5    1    3    3    0  502 -0.11755163443E+03  0.31028743689E+03 -0.15337061989E+04  0.15691951678E+04  0.46999998093E+01 0.  1.
</event>
<event>
 5   0  0.2348684E-06  0.2897031E+04  0.7818609E-02  0.8273761E-01
        1   -1    0    0  501    0  0.00000000000E+00  0.00000000000E+00  0.19328612184E+04  0.19328612184E+04  0.50400001928E-02 0.  1.
       -1   -1    0    0    0  501  0.00000000000E+00  0.00000000000E+00 -0.10855398225E+04  0.10855398225E+04  0.50400001928E-02 0. -1.
    10030    2    1    2    0    0  0.00000000000E+00  0.00000000000E+00  0.84732139593E+03  0.30184010409E+04  0.28970314626E+04 0.  0.
        5    1    3    3  502    0 -0.96423767461E+03  0.82779615814E+03  0.11478897469E+04  0.17125051047E+04  0.46999998093E+01 0.  1.
       -5    1    3    3    0  502  0.96423767461E+03 -0.82779615814E+03 -0.30056835093E+03  0.13058959362E+04  0.46999998093E+01 0. -1.
</event>
<event>
 5   0  0.2429358E-06  0.2896213E+04  0.7818609E-02  0.8274005E-01
        1   -1    0    0  501    0  0.00000000000E+00  0.00000000000E+00  0.25312489256E+04  0.25312489256E+04  0.50400001928E-02 0.  1.
       -1   -1    0    0    0  501  0.00000000000E+00  0.00000000000E+00 -0.82844995371E+03  0.82844995372E+03  0.50400001928E-02 0. -1.
    10030    2    1    2    0    0  0.00000000000E+00  0.00000000000E+00  0.17027989719E+04  0.33596988793E+04  0.28962134281E+04 0.  0.
        2    1    3    3  502    0 -0.49905430146E+03 -0.11230115312E+04 -0.37220219636E+02  0.12294695766E+04  0.25500000920E-02 0.  1.
       -2    1    3    3    0  502  0.49905430146E+03  0.11230115312E+04  0.17400191915E+04  0.21302293027E+04  0.25500000920E-02 0. -1.
</event>
<event>
 5   0  0.6612533E-06  0.2891971E+04  0.7818609E-02  0.8275270E-01
       -2   -1    0    0    0  501  0.00000000000E+00  0.00000000000E+00  0.10672209307E+04  0.10672209307E+04  0.25500000920E-02 0. -1.
        2   -1    0    0  501    0  0.00000000000E+00  0.00000000000E+00 -0.19591770663E+04  0.19591770663E+04  0.25500000920E-02 0.  1.
    10030    2    1    2    0    0  0.00000000000E+00  0.00000000000E+00 -0.89195613559E+03  0.30263979971E+04  0.28919714883E+04 0.  0.
        3    1    3    3  502    0  0.11151281249E+04  0.58617322212E+02 -0.14073351752E+04  0.17965352852E+04  0.10100000352E+00 0.  1.
       -3    1    3    3    0  502 -0.11151281249E+04 -0.58617322212E+02  0.51537903965E+03  0.12298627119E+04  0.10100000352E+00 0. -1.
</event>
<event>
 5   0  0.6733688E-06  0.2788477E+04  0.7818609E-02  0.8306855E-01
       -2   -1    0    0    0  501  0.00000000000E+00  0.00000000000E+00  0.19239555156E+04  0.19239555156E+04  0.25500000920E-02 0.  1.
        2   -1    0    0  501    0  0.00000000000E+00  0.00000000000E+00 -0.10103670397E+04  0.10103670397E+04  0.25500000920E-02 0. -1.
    10030    2    1    2    0    0  0.00000000000E+00  0.00000000000E+00  0.91358847594E+03  0.29343225553E+04  0.27884771749E+04 0.  0.
        5    1    3    3  502    0  0.96805907788E+03  0.84004361871E+03  0.10341887987E+04  0.16469305453E+04  0.46999998093E+01 0.  1.
       -5    1    3    3    0  502 -0.96805907788E+03 -0.84004361871E+03 -0.12060032277E+03  0.12873920100E+04  0.46999998093E+01 0. -1.
</event>
<event>
 5   0  0.6615403E-06  0.2899123E+04  0.7818609E-02  0.8273138E-01
        2   -1    0    0  501    0  0.00000000000E+00  0.00000000000E+00  0.12500567629E+04  0.12500567629E+04  0.25500000920E-02 0. -1.
       -2   -1    0    0    0  501  0.00000000000E+00  0.00000000000E+00 -0.16809063393E+04  0.16809063393E+04  0.25500000920E-02 0.  1.
    10030    2    1    2    0    0  0.00000000000E+00  0.00000000000E+00 -0.43084957635E+03  0.29309631022E+04  0.28991228586E+04 0.  0.
        2    1    3    3  502    0 -0.39478551005E+03 -0.13284416984E+04  0.21423143876E+03  0.14023223789E+04  0.25500000920E-02 0. -1.
       -2    1    3    3    0  502  0.39478551005E+03  0.13284416984E+04 -0.64508101511E+03  0.15286407233E+04  0.25500000920E-02 0.  1.
</event>
<event>
 5   0  0.2336512E-06  0.3367198E+04  0.7818609E-02  0.8146004E-01
        1   -1    0    0  501    0  0.00000000000E+00  0.00000000000E+00  0.20510389341E+04  0.20510389341E+04  0.50400001928E-02 0.  1.
       -1   -1    0    0    0  501  0.00000000000E+00  0.00000000000E+00 -0.13819851344E+04  0.13819851344E+04  0.50400001928E-02 0. -1.
    10030    2    1    2    0    0  0.00000000000E+00  0.00000000000E+00  0.66905379967E+03  0.34330240685E+04  0.33671978362E+04 0.  0.
        4    1    3    3  502    0  0.12261024653E+04 -0.87337284997E+02 -0.83841950603E+03  0.14879193317E+04  0.12699999809E+01 0. -1.
       -4    1    3    3    0  502 -0.12261024653E+04  0.87337284997E+02  0.15074733057E+04  0.19451047368E+04  0.12699999809E+01 0.  1.
</event>
<event>
 5   0  0.6513041E-06  0.2903348E+04  0.7818609E-02  0.8271882E-01
       -2   -1    0    0    0  501  0.00000000000E+00  0.00000000000E+00  0.74861783939E+03  0.74861783940E+03  0.25500000920E-02 0.  1.
        2   -1    0    0  501    0  0.00000000000E+00  0.00000000000E+00 -0.28149974137E+04  0.28149974137E+04  0.25500000920E-02 0. -1.
    10030    2    1    2    0    0  0.00000000000E+00  0.00000000000E+00 -0.20663795743E+04  0.35636152531E+04  0.29033479170E+04 0.  0.
        1    1    3    3  502    0  0.86019189982E+03  0.35804410978E+03  0.33317910423E+03  0.98951200326E+03  0.50400001928E-02 0.  1.
       -1    1    3    3    0  502 -0.86019189982E+03 -0.35804410978E+03 -0.23995586786E+04  0.25741032499E+04  0.50400001928E-02 0. -1.
</event>
<event>
 5   0  0.2429358E-06  0.2907826E+04  0.7818609E-02  0.8270553E-01
        1   -1    0    0  501    0  0.00000000000E+00  0.00000000000E+00  0.16113683086E+04  0.16113683086E+04  0.50400001928E-02 0.  1.
       -1   -1    0    0    0  501  0.00000000000E+00  0.00000000000E+00 -0.13118437687E+04  0.13118437687E+04  0.50400001928E-02 0. -1.
    10030    2    1    2    0    0  0.00000000000E+00  0.00000000000E+00  0.29952453982E+03  0.29232120773E+04  0.29078263186E+04 0.  0.
        2    1    3    3  502    0  0.14123050045E+04  0.18204290245E+03  0.44477442831E+03  0.14918342187E+04  0.25500000920E-02 0. -1.
       -2    1    3    3    0  502 -0.14123050045E+04 -0.18204290245E+03 -0.14524988850E+03  0.14313778586E+04  0.25500000920E-02 0.  1.
</event>
<event>
 5   0  0.2474769E-06  0.2899317E+04  0.7818609E-02  0.8273081E-01
        1   -1    0    0  501    0  0.00000000000E+00  0.00000000000E+00  0.20425732871E+04  0.20425732871E+04  0.50400001928E-02 0.  1.
       -1   -1    0    0    0  501  0.00000000000E+00  0.00000000000E+00 -0.10288538079E+04  0.10288538079E+04  0.50400001928E-02 0. -1.
    10030    2    1    2    0    0  0.00000000000E+00  0.00000000000E+00  0.10137194792E+04  0.30714270950E+04  0.28993166811E+04 0.  0.
        1    1    3    3  502    0 -0.13469583169E+04  0.15642701986E+03  0.10498728138E+04  0.17149341227E+04  0.50400001928E-02 0.  1.
       -1    1    3    3    0  502  0.13469583169E+04 -0.15642701986E+03 -0.36153334596E+02  0.13564929722E+04  0.50400001928E-02 0. -1.
</event>
<event>
 5   0  0.2508094E-06  0.2846111E+04  0.7818609E-02  0.8289094E-01
       -1   -1    0    0    0  501  0.00000000000E+00  0.00000000000E+00  0.22310768996E+04  0.22310768996E+04  0.50400001928E-02 0.  1.
        1   -1    0    0  501    0  0.00000000000E+00  0.00000000000E+00 -0.90767254430E+03  0.90767254432E+03  0.50400001928E-02 0. -1.
    10030    2    1    2    0    0  0.00000000000E+00  0.00000000000E+00  0.13234043553E+04  0.31387494439E+04  0.28461112038E+04 0.  0.
        3    1    3    3  502    0 -0.55215187271E+03  0.15252108953E+03  0.20983147846E+04  0.21750998411E+04  0.10100000352E+00 0.  1.
       -3    1    3    3    0  502  0.55215187271E+03 -0.15252108953E+03 -0.77491042933E+03  0.96364960280E+03  0.10100000352E+00 0. -1.
</event>
<event>
 5   0  0.2429358E-06  0.2873279E+04  0.7818609E-02  0.8280872E-01
       -1   -1    0    0    0  501  0.00000000000E+00  0.00000000000E+00  0.92986474926E+03  0.92986474927E+03  0.50400001928E-02 0. -1.
        1   -1    0    0  501    0  0.00000000000E+00  0.00000000000E+00 -0.22196058674E+04  0.22196058674E+04  0.50400001928E-02 0.  1.
    10030    2    1    2    0    0  0.00000000000E+00  0.00000000000E+00 -0.12897411181E+04  0.31494706166E+04  0.28732791395E+04 0.  0.
        2    1    3    3  502    0  0.62267643119E+03 -0.23700000988E+03  0.75028419568E+03  0.10034048619E+04  0.25500000920E-02 0. -1.
       -2    1    3    3    0  502 -0.62267643119E+03  0.23700000988E+03 -0.20400253138E+04  0.21460657547E+04  0.25500000920E-02 0.  1.
</event>
<event>
 5   0  0.2508094E-06  0.2868745E+04  0.7818609E-02  0.8282238E-01
        1   -1    0    0  501    0  0.00000000000E+00  0.00000000000E+00  0.11006380033E+04  0.11006380033E+04  0.50400001928E-02 0.  1.
       -1   -1    0    0    0  501  0.00000000000E+00  0.00000000000E+00 -0.18693011698E+04  0.18693011698E+04  0.50400001928E-02 0. -1.
    10030    2    1    2    0    0  0.00000000000E+00  0.00000000000E+00 -0.76866316649E+03  0.29699391732E+04  0.28687446085E+04 0.  0.
        3    1    3    3  502    0  0.13355959546E+04 -0.52270694621E+03 -0.40463963998E+03  0.14902256051E+04  0.10100000352E+00 0.  1.
       -3    1    3    3    0  502 -0.13355959546E+04  0.52270694621E+03 -0.36402352651E+03  0.14797135681E+04  0.10100000352E+00 0. -1.
</event>
<event>
 5   0  0.2474769E-06  0.2886846E+04  0.7818609E-02  0.8276802E-01
        1   -1    0    0  501    0  0.00000000000E+00  0.00000000000E+00  0.11357891588E+04  0.11357891588E+04  0.50400001928E-02 0. -1.
       -1   -1    0    0    0  501  0.00000000000E+00  0.00000000000E+00 -0.18343809935E+04  0.18343809935E+04  0.50400001928E-02 0.  1.
    10030    2    1    2    0    0  0.00000000000E+00  0.00000000000E+00 -0.69859183467E+03  0.29701701523E+04  0.28868460614E+04 0.  0.
        1    1    3    3  502    0 -0.20530911383E+03 -0.62024221176E+03  0.97495068303E+03  0.11736187915E+04  0.50400001928E-02 0. -1.
       -1    1    3    3    0  502  0.20530911383E+03  0.62024221176E+03 -0.16735425177E+04  0.17965513608E+04  0.50400001928E-02 0.  1.
</event>
<event>
 5   0  0.2429358E-06  0.2814096E+04  0.7818609E-02  0.8298905E-01
        1   -1    0    0  501    0  0.00000000000E+00  0.00000000000E+00  0.12811287385E+04  0.12811287385E+04  0.50400001928E-02 0. -1.
       -1   -1    0    0    0  501  0.00000000000E+00  0.00000000000E+00 -0.15453435955E+04  0.15453435955E+04  0.50400001928E-02 0.  1.
    10030    2    1    2    0    0  0.00000000000E+00  0.00000000000E+00 -0.26421485698E+03  0.28264723340E+04  0.28140960119E+04 0.  0.
        2    1    3    3  502    0 -0.30561052377E+03 -0.13356426043E+04 -0.45358560181E+03  0.14432875171E+04  0.25500000920E-02 0.  1.
       -2    1    3    3    0  502  0.30561052377E+03  0.13356426043E+04  0.18937074483E+03  0.13831848169E+04  0.25500000920E-02 0. -1.
</event>
<event>
 5   0  0.6615403E-06  0.2927407E+04  0.7818609E-02  0.8264770E-01
        2   -1    0    0  501    0  0.00000000000E+00  0.00000000000E+00  0.19292912570E+04  0.19292912570E+04  0.25500000920E-02 0. -1.
       -2   -1    0    0    0  501  0.00000000000E+00  0.00000000000E+00 -0.11104737547E+04  0.11104737548E+04  0.25500000920E-02 0.  1.
    10030    2    1    2    0    0  0.00000000000E+00  0.00000000000E+00  0.81881750229E+03  0.30397650118E+04  0.29274065698E+04 0.  0.
        2    1    3    3  502    0 -0.89077777361E+02  0.50792593115E+02 -0.11067394804E+04  0.11114796513E+04  0.25500000920E-02 0.  1.
       -2    1    3    3    0  502  0.89077777361E+02 -0.50792593115E+02  0.19255569826E+04  0.19282853605E+04  0.25500000920E-02 0. -1.
</event>
<event>
 5   0  0.2429358E-06  0.2894981E+04  0.7818609E-02  0.8274372E-01
        1   -1    0    0  501    0  0.00000000000E+00  0.00000000000E+00  0.20882690643E+04  0.20882690643E+04  0.50400001928E-02 0. -1.
       -1   -1    0    0    0  501  0.00000000000E+00  0.00000000000E+00 -0.10033328265E+04  0.10033328265E+04  0.50400001928E-02 0.  1.
    10030    2    1    2    0    0  0.00000000000E+00  0.00000000000E+00  0.10849362378E+04  0.30916018909E+04  0.28949811073E+04 0.  0.
        2    1    3    3  502    0 -0.89043981802E+03 -0.10278312098E+04  0.12896260178E+02  0.13599582269E+04  0.25500000920E-02 0.  1.
       -2    1    3    3    0  502  0.89043981802E+03  0.10278312098E+04  0.10720399777E+04  0.17316436640E+04  0.25500000920E-02 0. -1.
</event>
<event>
 5   0  0.2348684E-06  0.2910488E+04  0.7818609E-02  0.8269764E-01
       -1   -1    0    0    0  501  0.00000000000E+00  0.00000000000E+00  0.99151321841E+03  0.99151321843E+03  0.50400001928E-02 0.  1.
        1   -1    0    0  501    0  0.00000000000E+00  0.00000000000E+00 -0.21358609675E+04  0.21358609675E+04  0.50400001928E-02 0. -1.
    10030    2    1    2    0    0  0.00000000000E+00  0.00000000000E+00 -0.11443477491E+04  0.31273741860E+04  0.29104875069E+04 0.  0.
        5    1    3    3  502    0  0.18055616190E+01 -0.11682397240E+04  0.36019970914E+03  0.12225192159E+04  0.46999998093E+01 0.  1.
       -5    1    3    3    0  502 -0.18055616190E+01  0.11682397240E+04 -0.15045474583E+04  0.19048549701E+04  0.46999998093E+01 0. -1.
</event>
<event>
 5   0  0.2159500E-06  0.2669505E+04  0.7818609E-02  0.8344968E-01
       -3   -1    0    0    0  501  0.00000000000E+00  0.00000000000E+00  0.10592822553E+04  0.10592822601E+04  0.10100000352E+00 0.  1.
        3   -1    0    0  501    0  0.00000000000E+00  0.00000000000E+00 -0.16818593950E+04  0.16818593981E+04  0.10100000352E+00 0. -1.
    10030    2    1    2    0    0  0.00000000000E+00  0.00000000000E+00 -0.62257713978E+03  0.27411416582E+04  0.26695046910E+04 0.  0.
        5    1    3    3  502    0 -0.12205073345E+04 -0.18375779193E+03  0.21041718781E+03  0.12520792956E+04  0.46999998093E+01 0.  1.
       -5    1    3    3    0  502  0.12205073345E+04  0.18375779193E+03 -0.83299432759E+03  0.14890623625E+04  0.46999998093E+01 0. -1.
</event>
<event>
 5   0  0.6612533E-06  0.2878647E+04  0.7818609E-02  0.8279259E-01
       -2   -1    0    0    0  501  0.00000000000E+00  0.00000000000E+00  0.13803488336E+04  0.13803488336E+04  0.25500000920E-02 0.  1.
        2   -1    0    0  501    0  0.00000000000E+00  0.00000000000E+00 -0.15008181371E+04  0.15008181371E+04  0.25500000920E-02 0. -1.
    10030    2    1    2    0    0  0.00000000000E+00  0.00000000000E+00 -0.12046930351E+03  0.28811669707E+04  0.28786472969E+04 0.  0.
        3    1    3    3  502    0 -0.99906645632E+03 -0.10361007849E+04 -0.56498548980E+02  0.14404272689E+04  0.10100000352E+00 0.  1.
       -3    1    3    3    0  502  0.99906645632E+03  0.10361007849E+04 -0.63970754533E+02  0.14407397018E+04  0.10100000352E+00 0. -1.
</event>
<event>
 5   0  0.6612533E-06  0.2856191E+04  0.7818609E-02  0.8286033E-01
       -2   -1    0    0    0  501  0.00000000000E+00  0.00000000000E+00  0.15735557595E+04  0.15735557595E+04  0.25500000920E-02 0. -1.
        2   -1    0    0  501    0  0.00000000000E+00  0.00000000000E+00 -0.12960813044E+04  0.12960813044E+04  0.25500000920E-02 0.  1.
    10030    2    1    2    0    0  0.00000000000E+00  0.00000000000E+00  0.27747445515E+03  0.28696370639E+04  0.28561906108E+04 0.  0.
        3    1    3    3  502    0 -0.25201295585E+03 -0.78413151515E+03 -0.10334099846E+04  0.13214798407E+04  0.10100000352E+00 0.  1.
       -3    1    3    3    0  502  0.25201295585E+03  0.78413151515E+03  0.13108844398E+04  0.15481572232E+04  0.10100000352E+00 0. -1.
</event>
<event>
 5   0  0.6393633E-06  0.2967762E+04  0.7818609E-02  0.8252997E-01
        2   -1    0    0  501    0  0.00000000000E+00  0.00000000000E+00  0.15908624851E+04  0.15908624851E+04  0.25500000920E-02 0.  1.
       -2   -1    0    0    0  501  0.00000000000E+00  0.00000000000E+00 -0.13840939846E+04  0.13840939846E+04  0.25500000920E-02 0. -1.
    10030    2    1    2    0    0  0.00000000000E+00  0.00000000000E+00  0.20676850057E+03  0.29749564697E+04  0.29677622519E+04 0.  0.
        4    1    3    3  502    0 -0.10499195612E+04 -0.44087549765E+03  0.10571102277E+04  0.15537650839E+04  0.12699999809E+01 0.  1.
       -4    1    3    3    0  502  0.10499195612E+04  0.44087549765E+03 -0.85034172717E+03  0.14211913858E+04  0.12699999809E+01 0. -1.
</event>
<event>
 5   0  0.6612533E-06  0.2851290E+04  0.7818609E-02  0.8287520E-01
        2   -1    0    0  501    0  0.00000000000E+00  0.00000000000E+00  0.13246909315E+04  0.13246909315E+04  0.25500000920E-02 0.  1.
       -2   -1    0    0    0  501  0.00000000000E+00  0.00000000000E+00 -0.15342923575E+04  0.15342923575E+04  0.25500000920E-02 0. -1.
    10030    2    1    2    0    0  0.00000000000E+00  0.00000000000E+00 -0.20960142593E+03  0.28589832890E+04  0.28512896536E+04 0.  0.
        3    1    3    3  502    0 -0.13292617277E+03  0.10507076116E+04 -0.10617381216E+04  0.14996478592E+04  0.10100000352E+00 0. -1.
       -3    1    3    3    0  502  0.13292617277E+03 -0.10507076116E+04  0.85213669568E+03  0.13593354298E+04  0.10100000352E+00 0.  1.
</event>
<event>
 5   0  0.6513041E-06  0.2893611E+04  0.7818609E-02  0.8274781E-01
       -2   -1    0    0    0  501  0.00000000000E+00  0.00000000000E+00  0.63172562390E+03  0.63172562390E+03  0.25500000920E-02 0. -1.
        2   -1    0    0  501    0  0.00000000000E+00  0.00000000000E+00 -0.33135378699E+04  0.33135378699E+04  0.25500000920E-02 0.  1.
    10030    2    1    2    0    0  0.00000000000E+00  0.00000000000E+00 -0.26818122460E+04  0.39452634938E+04  0.28936114309E+04 0.  0.
        1    1    3    3  502    0 -0.16644404245E+03  0.78780138833E+03 -0.29798214670E+04  0.30866925052E+04  0.50400001928E-02 0.  1.
       -1    1    3    3    0  502  0.16644404245E+03 -0.78780138833E+03  0.29800922093E+03  0.85857098862E+03  0.50400001928E-02 0. -1.
</event>
<event>
 5   0  0.6612533E-06  0.2867575E+04  0.7818609E-02  0.8282591E-01
        2   -1    0    0  501    0  0.00000000000E+00  0.00000000000E+00  0.31067542255E+04  0.31067542255E+04  0.25500000920E-02 0. -1.
       -2   -1    0    0    0  501  0.00000000000E+00  0.00000000000E+00 -0.66170229998E+03  0.66170229998E+03  0.25500000920E-02 0.  1.
    10030    2    1    2    0    0  0.00000000000E+00  0.00000000000E+00  0.24450519255E+04  0.37684565254E+04  0.28675748754E+04 0.  0.
        3    1    3    3  502    0 -0.12659245911E+04 -0.13264926066E+03  0.35519379318E+03  0.13214853528E+04  0.10100000352E+00 0.  1.
       -3    1    3    3    0  502  0.12659245911E+04  0.13264926066E+03  0.20898581323E+04  0.24469711727E+04  0.10100000352E+00 0. -1.
</event>
<event>
 5   0  0.6733688E-06  0.2931300E+04  0.7818609E-02  0.8263625E-01
       -2   -1    0    0    0  501  0.00000000000E+00  0.00000000000E+00  0.82626867614E+03  0.82626867615E+03  0.25500000920E-02 0.  1.
        2   -1    0    0  501    0  0.00000000000E+00  0.00000000000E+00 -0.25997952033E+04  0.25997952033E+04  0.25500000920E-02 0. -1.
    10030    2    1    2    0    0  0.00000000000E+00  0.00000000000E+00 -0.17735265272E+04  0.34260638795E+04  0.29312996032E+04 0.  0.
        5    1    3    3  502    0 -0.67582865355E+03 -0.71072226165E+03  0.38621484159E+03  0.10540656982E+04  0.46999998093E+01 0.  1.
       -5    1    3    3    0  502  0.67582865355E+03  0.71072226165E+03 -0.21597413688E+04  0.23719981813E+04  0.46999998093E+01 0. -1.
</event>
<event>
 5   0  0.2508094E-06  0.2883742E+04  0.7818609E-02  0.8277731E-01
       -1   -1    0    0    0  501  0.00000000000E+00  0.00000000000E+00  0.75580802045E+03  0.75580802047E+03  0.50400001928E-02 0. -1.
        1   -1    0    0  501    0  0.00000000000E+00  0.00000000000E+00 -0.27506887549E+04  0.27506887550E+04  0.50400001928E-02 0.  1.
    10030    2    1    2    0    0  0.00000000000E+00  0.00000000000E+00 -0.19948807345E+04  0.35064967754E+04  0.28837424454E+04 0.  0.
        3    1    3    3  502    0 -0.14288529283E+04  0.18901654487E+01 -0.76238567192E+03  0.16195234442E+04  0.10100000352E+00 0.  1.
       -3    1    3    3    0  502  0.14288529283E+04 -0.18901654487E+01 -0.12324950626E+04  0.18869733312E+04  0.10100000352E+00 0. -1.
</event>
<event>
 5   0  0.2474769E-06  0.2856123E+04  0.7818609E-02  0.8286053E-01
       -1   -1    0    0    0  501  0.00000000000E+00  0.00000000000E+00  0.11721696716E+04  0.11721696717E+04  0.50400001928E-02 0.  1.
        1   -1    0    0  501    0  0.00000000000E+00  0.00000000000E+00 -0.17398155537E+04  0.17398155537E+04  0.50400001928E-02 0. -1.
    10030    2    1    2    0    0  0.00000000000E+00  0.00000000000E+00 -0.56764588202E+03  0.29119852253E+04  0.28561225648E+04 0.  0.
        1    1    3    3  502    0  0.44550108259E+03 -0.12984105442E+04 -0.68524682623E+03  0.15342439078E+04  0.50400001928E-02 0. -1.
       -1    1    3    3    0  502 -0.44550108259E+03  0.12984105442E+04  0.11760094422E+03  0.13777413175E+04  0.50400001928E-02 0.  1.
</event>
<event>
 5   0  0.2508094E-06  0.2929547E+04  0.7818609E-02  0.8264140E-01
       -1   -1    0    0    0  501  0.00000000000E+00  0.00000000000E+00  0.19237695842E+04  0.19237695842E+04  0.50400001928E-02 0.  1.
        1   -1    0    0  501    0  0.00000000000E+00  0.00000000000E+00 -0.11152900217E+04  0.11152900218E+04  0.50400001928E-02 0. -1.
    10030    2    1    2    0    0  0.00000000000E+00  0.00000000000E+00  0.80847956242E+03  0.30390596059E+04  0.29295467372E+04 0.  0.
        3    1    3    3  502    0  0.13226856610E+04  0.13880832946E+03  0.10410233843E+04  0.16889330380E+04  0.10100000352E+00 0.  1.
       -3    1    3    3    0  502 -0.13226856610E+04 -0.13880832946E+03 -0.23254382188E+03  0.13501265679E+04  0.10100000352E+00 0. -1.
</event>
<event>
 5   0  0.2474769E-06  0.2866444E+04  0.7818609E-02  0.8282932E-01
       -1   -1    0    0    0  501  0.00000000000E+00  0.00000000000E+00  0.12663938133E+04  0.12663938133E+04  0.50400001928E-02 0.  1.
        1   -1    0    0  501    0  0.00000000000E+00  0.00000000000E+00 -0.16220271082E+04  0.16220271082E+04  0.50400001928E-02 0. -1.
    10030    2    1    2    0    0  0.00000000000E+00  0.00000000000E+00 -0.35563329496E+03  0.28884209215E+04  0.28664438560E+04 0.  0.
        1    1    3    3  502    0 -0.62616832051E+03 -0.12864067773E+04 -0.92337420541E+02  0.14336859354E+04  0.50400001928E-02 0.  1.
       -1    1    3    3    0  502  0.62616832051E+03  0.12864067773E+04 -0.26329587442E+03  0.14547349861E+04  0.50400001928E-02 0. -1.
</event>
<event>
 5   0  0.2336512E-06  0.2893426E+04  0.7818609E-02  0.8274836E-01
       -1   -1    0    0    0  501  0.00000000000E+00  0.00000000000E+00  0.13399714541E+04  0.13399714541E+04  0.50400001928E-02 0.  1.
        1   -1    0    0  501    0  0.00000000000E+00  0.00000000000E+00 -0.15619577374E+04  0.15619577374E+04  0.50400001928E-02 0. -1.
    10030    2    1    2    0    0  0.00000000000E+00  0.00000000000E+00 -0.22198628325E+03  0.29019291915E+04  0.28934261910E+04 0.  0.
        4    1    3    3  502    0  0.71072599212E+03  0.10998816700E+04  0.50571717358E+03  0.14037886581E+04  0.12699999809E+01 0. -1.
       -4    1    3    3    0  502 -0.71072599212E+03 -0.10998816700E+04 -0.72770345683E+03  0.14981405334E+04  0.12699999809E+01 0.  1.
</event>
<event>
 5   0  0.6393633E-06  0.3010459E+04  0.7818609E-02  0.8240751E-01
        2   -1    0    0  501    0  0.00000000000E+00  0.00000000000E+00  0.24812202827E+04  0.24812202827E+04  0.25500000920E-02 0. -1.
       -2   -1    0    0    0  501  0.00000000000E+00  0.00000000000E+00 -0.91314557349E+03  0.91314557350E+03  0.25500000920E-02 0.  1.
    10030    2    1    2    0    0  0.00000000000E+00  0.00000000000E+00  0.15680747092E+04  0.33943658562E+04  0.30104586481E+04 0.  0.
        4    1    3    3  502    0  0.10752464853E+04 -0.94199257149E+03  0.25253338836E+03  0.14516472485E+04  0.12699999809E+01 0.  1.
       -4    1    3    3    0  502 -0.10752464853E+04  0.94199257149E+03  0.13155413208E+04  0.19427186077E+04  0.12699999809E+01 0. -1.
</event>
<event>
 5   0  0.6733688E-06  0.2910742E+04  0.7818609E-02  0.8269689E-01
       -2   -1    0    0    0  501  0.00000000000E+00  0.00000000000E+00  0.99648157340E+03  0.99648157341E+03  0.25500000920E-02 0. -1.
        2   -1    0    0  501    0  0.00000000000E+00  0.00000000000E+00 -0.21255831008E+04  0.21255831008E+04  0.25500000920E-02 0.  1.
    10030    2    1    2    0    0  0.00000000000E+00  0.00000000000E+00 -0.11291015274E+04  0.31220646742E+04  0.29107417561E+04 0.  0.
        5    1    3    3  502    0  0.33112507270E+03 -0.18365318194E+03 -0.20718166908E+04  0.21061383609E+04  0.46999998093E+01 0.  1.
       -5    1    3    3    0  502 -0.33112507270E+03  0.18365318194E+03  0.94271516334E+03  0.10159263134E+04  0.46999998093E+01 0. -1.
</event>
<event>
 5   0  0.2474769E-06  0.2884711E+04  0.7818609E-02  0.8277441E-01
        1   -1    0    0  501    0  0.00000000000E+00  0.00000000000E+00  0.27332803074E+04  0.27332803074E+04  0.50400001928E-02 0.  1.
       -1   -1    0    0    0  501  0.00000000000E+00  0.00000000000E+00 -0.76113287929E+03  0.76113287931E+03  0.50400001928E-02 0. -1.
    10030    2    1    2    0    0  0.00000000000E+00  0.00000000000E+00  0.19721474281E+04  0.34944131867E+04  0.28847110845E+04 0.  0.
        1    1    3    3  502    0 -0.64983612166E+03  0.26721465075E+03 -0.53980209028E+03  0.88604568239E+03  0.50400001928E-02 0. -1.
       -1    1    3    3    0  502  0.64983612166E+03 -0.26721465075E+03  0.25119495184E+04  0.26083675043E+04  0.50400001928E-02 0.  1.
</event>
<event>
 5   0  0.6612533E-06  0.2878838E+04  0.7818609E-02  0.8279202E-01
        2   -1    0    0  501    0  0.00000000000E+00  0.00000000000E+00  0.22286708114E+04  0.22286708114E+04  0.25500000920E-02 0.  1.
       -2   -1    0    0    0  501  0.00000000000E+00  0.00000000000E+00 -0.92966968522E+03  0.92966968522E+03  0.25500000920E-02 0. -1.
    10030    2    1    2    0    0  0.00000000000E+00  0.00000000000E+00  0.12990011262E+04  0.31583404967E+04  0.28788384406E+04 0.  0.
        3    1    3    3  502    0 -0.69691784914E+03  0.11202216356E+04  0.17996114776E+02  0.13194373315E+04  0.10100000352E+00 0. -1.
       -3    1    3    3    0  502  0.69691784914E+03 -0.11202216356E+04  0.12810050115E+04  0.18389031652E+04  0.10100000352E+00 0.  1.
</event>
<event>
 5   0  0.6513041E-06  0.2902070E+04  0.7818609E-02  0.8272262E-01
       -2   -1    0    0    0  501  0.00000000000E+00  0.00000000000E+00  0.12805984311E+04  0.12805984311E+04  0.25500000920E-02 0. -1.
        2   -1    0    0  501    0  0.00000000000E+00  0.00000000000E+00 -0.16441549844E+04  0.16441549844E+04  0.25500000920E-02 0.  1.
    10030    2    1    2    0    0  0.00000000000E+00  0.00000000000E+00 -0.36355655328E+03  0.29247534154E+04  0.29020698086E+04 0.  0.
        1    1    3    3  502    0 -0.47020689555E+03  0.11930788733E+04  0.50247675849E+03  0.13773215366E+04  0.50400001928E-02 0. -1.
       -1    1    3    3    0  502  0.47020689555E+03 -0.11930788733E+04 -0.86603331178E+03  0.15474318788E+04  0.50400001928E-02 0.  1.
</event>
<event>
 5   0  0.6615403E-06  0.2903291E+04  0.7818609E-02  0.8271899E-01
        2   -1    0    0  501    0  0.00000000000E+00  0.00000000000E+00  0.15659993487E+04  0.15659993487E+04  0.25500000920E-02 0.  1.
       -2   -1    0    0    0  501  0.00000000000E+00  0.00000000000E+00 -0.13456422712E+04  0.13456422712E+04  0.25500000920E-02 0. -1.
    10030    2    1    2    0    0  0.00000000000E+00  0.00000000000E+00  0.22035707755E+03  0.29116416199E+04  0.29032911810E+04 0.  0.
        2    1    3    3  502    0 -0.61739541061E+03 -0.69669912209E+03  0.12272530519E+04  0.15403625590E+04  0.25500000920E-02 0.  1.
       -2    1    3    3    0  502  0.61739541061E+03  0.69669912209E+03 -0.10068959744E+04  0.13712790609E+04  0.25500000920E-02 0. -1.
</event>
<event>
 5   0  0.2429358E-06  0.2942787E+04  0.7818609E-02  0.8260260E-01
        1   -1    0    0  501    0  0.00000000000E+00  0.00000000000E+00  0.11243185099E+04  0.11243185099E+04  0.50400001928E-02 0.  1.
       -1   -1    0    0    0  501  0.00000000000E+00  0.00000000000E+00 -0.19256097375E+04  0.19256097375E+04  0.50400001928E-02 0. -1.
    10030    2    1    2    0    0  0.00000000000E+00  0.00000000000E+00 -0.80129122762E+03  0.30499282474E+04  0.29427868905E+04 0.  0.
        2    1    3    3  502    0 -0.87061117918E+03 -0.48805311570E+03 -0.15211360575E+04  0.18193445453E+04  0.25500000920E-02 0. -1.
       -2    1    3    3    0  502  0.87061117918E+03  0.48805311570E+03  0.71984482983E+03  0.12305837022E+04  0.25500000920E-02 0.  1.
</event>
<event>
 5   0  0.2336512E-06  0.2891566E+04  0.7818609E-02  0.8275391E-01
       -1   -1    0    0    0  501  0.00000000000E+00  0.00000000000E+00  0.81049911395E+03  0.81049911396E+03  0.50400001928E-02 0.  1.
        1   -1    0    0  501    0  0.00000000000E+00  0.00000000000E+00 -0.25790136947E+04  0.25790136947E+04  0.50400001928E-02 0. -1.
    10030    2    1    2    0    0  0.00000000000E+00  0.00000000000E+00 -0.17685145807E+04  0.33895128086E+04  0.28915658833E+04 0.  0.
        4    1    3    3  502    0  0.91184938220E+03  0.71687553609E+03 -0.18959652752E+04  0.22226258722E+04  0.12699999809E+01 0. -1.
       -4    1    3    3    0  502 -0.91184938220E+03 -0.71687553609E+03  0.12745069446E+03  0.11668869365E+04  0.12699999809E+01 0.  1.
</event>
<event>
 5   0  0.6733688E-06  0.2947146E+04  0.7818609E-02  0.8258987E-01
        2   -1    0    0  501    0  0.00000000000E+00  0.00000000000E+00  0.14937261137E+04  0.14937261137E+04  0.25500000920E-02 0. -1.
       -2   -1    0    0    0  501  0.00000000000E+00  0.00000000000E+00 -0.14536919118E+04  0.14536919118E+04  0.25500000920E-02 0.  1.
    10030    2    1    2    0    0  0.00000000000E+00  0.00000000000E+00  0.40034201866E+02  0.29474180254E+04  0.29471461245E+04 0.  0.
        5    1    3    3  502    0  0.82636750664E+02  0.12318507075E+04  0.82452309275E+03  0.14846364601E+04  0.46999998093E+01 0. -1.
       -5    1    3    3    0  502 -0.82636750664E+02 -0.12318507075E+04 -0.78448889088E+03  0.14627815654E+04  0.46999998093E+01 0.  1.
</event>
<event>
 5   0  0.2429358E-06  0.2898608E+04  0.7818609E-02  0.8273292E-01
       -1   -1    0    0    0  501  0.00000000000E+00  0.00000000000E+00  0.97527923651E+03  0.97527923652E+03  0.50400001928E-02 0. -1.
        1   -1    0    0  501    0  0.00000000000E+00  0.00000000000E+00 -0.21537234053E+04  0.21537234053E+04  0.50400001928E-02 0.  1.
    10030    2    1    2    0    0  0.00000000000E+00  0.00000000000E+00 -0.11784441688E+04  0.31290026419E+04  0.28986077475E+04 0.  0.
        2    1    3    3  502    0  0.52084339917E+03 -0.83414046308E+03  0.56001778261E+03  0.11316748983E+04  0.25500000920E-02 0. -1.
       -2    1    3    3    0  502 -0.52084339917E+03  0.83414046308E+03 -0.17384619514E+04  0.19973277436E+04  0.25500000920E-02 0.  1.
</event>
<event>
 5   0  0.2348684E-06  0.2870536E+04  0.7818609E-02  0.8281698E-01
       -1   -1    0    0    0  501  0.00000000000E+00  0.00000000000E+00  0.75058744707E+03  0.75058744708E+03  0.50400001928E-02 0.  1.
        1   -1    0    0  501    0  0.00000000000E+00  0.00000000000E+00 -0.27445094238E+04  0.27445094238E+04  0.50400001928E-02 0. -1.
    10030    2    1    2    0    0  0.00000000000E+00  0.00000000000E+00 -0.19939219767E+04  0.34950968709E+04  0.28705360628E+04 0.  0.
        5    1    3    3  502    0 -0.71810543796E+03  0.10398577471E+04 -0.16847861819E+03  0.12749065413E+04  0.46999998093E+01 0.  1.
       -5    1    3    3    0  502  0.71810543796E+03 -0.10398577471E+04 -0.18254433585E+04  0.22201903296E+04  0.46999998093E+01 0. -1.
</event>
<event>
 5   0  0.2336512E-06  0.2920301E+04  0.7818609E-02  0.8266863E-01
       -1   -1    0    0    0  501  0.00000000000E+00  0.00000000000E+00  0.14626889711E+04  0.14626889711E+04  0.50400001928E-02 0. -1.
        1   -1    0    0  501    0  0.00000000000E+00  0.00000000000E+00 -0.14576165666E+04  0.14576165667E+04  0.50400001928E-02 0.  1.
    10030    2    1    2    0    0  0.00000000000E+00  0.00000000000E+00  0.50724044518E+01  0.29203055378E+04  0.29203011325E+04 0.  0.
        4    1    3    3  502    0  0.62411860079E+03  0.10842313835E+04 -0.75042996762E+03  0.14588449095E+04  0.12699999809E+01 0.  1.
       -4    1    3    3    0  502 -0.62411860079E+03 -0.10842313835E+04  0.75550237207E+03  0.14614606282E+04  0.12699999809E+01 0. -1.
</event>
<event>
 5   0  0.2508094E-06  0.2903942E+04  0.7818609E-02  0.8271706E-01
        1   -1    0    0  501    0  0.00000000000E+00  0.00000000000E+00  0.14993216596E+04  0.14993216596E+04  0.50400001928E-02 0.  1.
       -1   -1    0    0    0  501  0.00000000000E+00  0.00000000000E+00 -0.14061157436E+04  0.14061157436E+04  0.50400001928E-02 0. -1.
    10030    2    1    2    0    0  0.00000000000E+00  0.00000000000E+00  0.93205915978E+02  0.29054374032E+04  0.29039420037E+04 0.  0.
        3    1    3    3  502    0  0.31676570673E+02 -0.13268941930E+04 -0.54240060848E+03  0.14338235718E+04  0.10100000352E+00 0. -1.
       -3    1    3    3    0  502 -0.31676570673E+02  0.13268941930E+04  0.63560652446E+03  0.14716138314E+04  0.10100000352E+00 0.  1.
</event>
<event>
 5   0  0.2348684E-06  0.2890360E+04  0.7818609E-02  0.8275751E-01
       -1   -1    0    0    0  501  0.00000000000E+00  0.00000000000E+00  0.14469276135E+04  0.14469276135E+04  0.50400001928E-02 0. -1.
        1   -1    0    0  501    0  0.00000000000E+00  0.00000000000E+00 -0.14434345012E+04  0.14434345012E+04  0.50400001928E-02 0.  1.
    10030    2    1    2    0    0  0.00000000000E+00  0.00000000000E+00  0.34931123583E+01  0.28903621147E+04  0.28903600040E+04 0.  0.
        5    1    3    3  502    0 -0.96648449932E+03  0.16995440426E+03  0.10626650286E+04  0.14464632176E+04  0.46999998093E+01 0. -1.
       -5    1    3    3    0  502  0.96648449932E+03 -0.16995440426E+03 -0.10591719162E+04  0.14438988971E+04  0.46999998093E+01 0.  1.
</event>
<event>
 5   0  0.2474769E-06  0.2872543E+04  0.7818609E-02  0.8281094E-01
        1   -1    0    0  501    0  0.00000000000E+00  0.00000000000E+00  0.12085863917E+04  0.12085863917E+04  0.50400001928E-02 0. -1.
       -1   -1    0    0    0  501  0.00000000000E+00  0.00000000000E+00 -0.17068496727E+04  0.17068496727E+04  0.50400001928E-02 0.  1.
    10030    2    1    2    0    0  0.00000000000E+00  0.00000000000E+00 -0.49826328096E+03  0.29154360644E+04  0.28725426278E+04 0.  0.
        1    1    3    3  502    0  0.24157022625E+03  0.62225047375E+03  0.10415985926E+04  0.12371254805E+04  0.50400001928E-02 0. -1.
       -1    1    3    3    0  502 -0.24157022625E+03 -0.62225047375E+03 -0.15398618736E+04  0.16783105839E+04  0.50400001928E-02 0.  1.
</event>
<event>
 5   0  0.6513041E-06  0.2835142E+04  0.7818609E-02  0.8292441E-01
        2   -1    0    0  501    0  0.00000000000E+00  0.00000000000E+00  0.31662195608E+04  0.31662195608E+04  0.25500000920E-02 0.  1.
       -2   -1    0    0    0  501  0.00000000000E+00  0.00000000000E+00 -0.63467074594E+03  0.63467074594E+03  0.25500000920E-02 0. -1.
    10030    2    1    2    0    0  0.00000000000E+00  0.00000000000E+00  0.25315488148E+04  0.38008903067E+04  0.28351415700E+04 0.  0.
        1    1    3    3  502    0  0.24357605774E+03  0.67094922379E+03  0.29077129851E+04  0.29940435803E+04  0.50400001928E-02 0.  1.
       -1    1    3    3    0  502 -0.24357605774E+03 -0.67094922379E+03 -0.37616417033E+03  0.80684672638E+03  0.50400001928E-02 0. -1.
</event>
<event>
 5   0  0.2474769E-06  0.2925725E+04  0.7818609E-02  0.8265264E-01
        1   -1    0    0  501    0  0.00000000000E+00  0.00000000000E+00  0.11581104785E+04  0.11581104785E+04  0.50400001928E-02 0. -1.
       -1   -1    0    0    0  501  0.00000000000E+00  0.00000000000E+00 -0.18478085965E+04  0.18478085965E+04  0.50400001928E-02 0.  1.
    10030    2    1    2    0    0  0.00000000000E+00  0.00000000000E+00 -0.68969811799E+03  0.30059190750E+04  0.29257248660E+04 0.  0.
        1    1    3    3  502    0  0.31323148139E+03  0.14269723320E+04 -0.42175055028E+03  0.15206043285E+04  0.50400001928E-02 0. -1.
       -1    1    3    3    0  502 -0.31323148139E+03 -0.14269723320E+04 -0.26794756772E+03  0.14853147465E+04  0.50400001928E-02 0.  1.
</event>
<event>
 5   0  0.6393633E-06  0.2890248E+04  0.7818609E-02  0.8275785E-01
       -2   -1    0    0    0  501  0.00000000000E+00  0.00000000000E+00  0.82292039594E+03  0.82292039595E+03  0.25500000920E-02 0. -1.
        2   -1    0    0  501    0  0.00000000000E+00  0.00000000000E+00 -0.25377701296E+04  0.25377701296E+04  0.25500000920E-02 0.  1.
    10030    2    1    2    0    0  0.00000000000E+00  0.00000000000E+00 -0.17148497337E+04  0.33606905256E+04  0.28902476018E+04 0.  0.
        4    1    3    3  502    0  0.36486080332E+03 -0.83465891584E+03  0.44705604457E+03  0.10147116002E+04  0.12699999809E+01 0. -1.
       -4    1    3    3    0  502 -0.36486080332E+03  0.83465891584E+03 -0.21619057782E+04  0.23459789254E+04  0.12699999809E+01 0.  1.
</event>
<event>
 5   0  0.6733688E-06  0.2878246E+04  0.7818609E-02  0.8279379E-01
        2   -1    0    0  501    0  0.00000000000E+00  0.00000000000E+00  0.13097804956E+04  0.13097804956E+04  0.25500000920E-02 0.  1.
       -2   -1    0    0    0  501  0.00000000000E+00  0.00000000000E+00 -0.15812383630E+04  0.15812383630E+04  0.25500000920E-02 0. -1.
    10030    2    1    2    0    0  0.00000000000E+00  0.00000000000E+00 -0.27145786741E+03  0.28910188586E+04  0.28782461095E+04 0.  0.
        5    1    3    3  502    0  0.10464507109E+04  0.54825687175E+03 -0.96120830281E+03  0.15230194284E+04  0.46999998093E+01 0. -1.
       -5    1    3    3    0  502 -0.10464507109E+04 -0.54825687175E+03  0.68975043540E+03  0.13679994302E+04  0.46999998093E+01 0.  1.
</event>
<event>
 5   0  0.2429358E-06  0.2780051E+04  0.7818609E-02  0.8309489E-01
        1   -1    0    0  501    0  0.00000000000E+00  0.00000000000E+00  0.14384399794E+04  0.14384399794E+04  0.50400001928E-02 0.  1.
       -1   -1    0    0    0  501  0.00000000000E+00  0.00000000000E+00 -0.13432402068E+04  0.13432402068E+04  0.50400001928E-02 0. -1.
    10030    2    1    2    0    0  0.00000000000E+00  0.00000000000E+00  0.95199772633E+02  0.27816801862E+04  0.27800506581E+04 0.  0.
        2    1    3    3  502    0 -0.55722429812E+03  0.11515320494E+04  0.59165146775E+03  0.14094596264E+04  0.25500000920E-02 0.  1.
       -2    1    3    3    0  502  0.55722429812E+03 -0.11515320494E+04 -0.49645169512E+03  0.13722205598E+04  0.25500000920E-02 0. -1.
</event>
<event>
 5   0  0.2474769E-06  0.2906105E+04  0.7818609E-02  0.8271063E-01
       -1   -1    0    0    0  501  0.00000000000E+00  0.00000000000E+00  0.70860363601E+03  0.70860363603E+03  0.50400001928E-02 0. -1.
        1   -1    0    0  501    0  0.00000000000E+00  0.00000000000E+00 -0.29796095898E+04  0.29796095898E+04  0.50400001928E-02 0.  1.
    10030    2    1    2    0    0  0.00000000000E+00  0.00000000000E+00 -0.22710059538E+04  0.36882132258E+04  0.29061054277E+04 0.  0.
        1    1    3    3  502    0 -0.44884853177E+03 -0.37973918153E+03  0.55090458356E+03  0.80570634271E+03  0.50400001928E-02 0. -1.
       -1    1    3    3    0  502  0.44884853177E+03  0.37973918153E+03 -0.28219105374E+04  0.28825068831E+04  0.50400001928E-02 0.  1.
</event>
<event>
 5   0  0.6615403E-06  0.2769928E+04  0.7818609E-02  0.8312666E-01
       -2   -1    0    0    0  501  0.00000000000E+00  0.00000000000E+00  0.12368272614E+04  0.12368272614E+04  0.25500000920E-02 0.  1.
        2   -1    0    0  501    0  0.00000000000E+00  0.00000000000E+00 -0.15508437885E+04  0.15508437885E+04  0.25500000920E-02 0. -1.
    10030    2    1    2    0    0  0.00000000000E+00  0.00000000000E+00 -0.31401652711E+03  0.27876710499E+04  0.27699284292E+04 0.  0.
        2    1    3    3  502    0 -0.80469809940E+03 -0.86335545757E+03 -0.88636008490E+03  0.14759931834E+04  0.25500000920E-02 0. -1.
       -2    1    3    3    0  502  0.80469809940E+03  0.86335545757E+03  0.57234355778E+03  0.13116778665E+04  0.25500000920E-02 0.  1.
</event>
<event>
 5   0  0.2508094E-06  0.2892103E+04  0.7818609E-02  0.8275231E-01
       -1   -1    0    0    0  501  0.00000000000E+00  0.00000000000E+00  0.14328200698E+04  0.14328200698E+04  0.50400001928E-02 0.  1.
        1   -1    0    0  501    0  0.00000000000E+00  0.00000000000E+00 -0.14594053035E+04  0.14594053036E+04  0.50400001928E-02 0. -1.
    10030    2    1    2    0    0  0.00000000000E+00  0.00000000000E+00 -0.26585233709E+02  0.28922253734E+04  0.28921031856E+04 0.  0.
        3    1    3    3  502    0  0.42755964262E+03 -0.94699537873E+03  0.99246240847E+03  0.14368678220E+04  0.10100000352E+00 0.  1.
       -3    1    3    3    0  502 -0.42755964262E+03  0.94699537873E+03 -0.10190476422E+04  0.14553575514E+04  0.10100000352E+00 0. -1.
</event>
<event>
 5   0  0.2508094E-06  0.2911866E+04  0.7818609E-02  0.8269356E-01
        1   -1    0    0  501    0  0.00000000000E+00  0.00000000000E+00  0.22372446396E+04  0.22372446396E+04  0.50400001928E-02 0.  1.
       -1   -1    0    0    0  501  0.00000000000E+00  0.00000000000E+00 -0.94747842958E+03  0.94747842960E+03  0.50400001928E-02 0. -1.
    10030    2    1    2    0    0  0.00000000000E+00  0.00000000000E+00  0.12897662100E+04  0.31847230692E+04  0.29118660943E+04 0.  0.
        3    1    3    3  502    0  0.46625750058E+03  0.12335211609E+04 -0.30005244000E+02  0.13190416355E+04  0.10100000352E+00 0. -1.
       -3    1    3    3    0  502 -0.46625750058E+03 -0.12335211609E+04  0.13197714540E+04  0.18656814337E+04  0.10100000352E+00 0.  1.
</event>
<event>
 5   0  0.6615403E-06  0.2932813E+04  0.7818609E-02  0.8263181E-01
        2   -1    0    0  501    0  0.00000000000E+00  0.00000000000E+00  0.24411160051E+04  0.24411160051E+04  0.25500000920E-02 0. -1.
       -2   -1    0    0    0  501  0.00000000000E+00  0.00000000000E+00 -0.88088740351E+03  0.88088740351E+03  0.25500000920E-02 0.  1.
    10030    2    1    2    0    0  0.00000000000E+00  0.00000000000E+00  0.15602286016E+04  0.33220034086E+04  0.29328132156E+04 0.  0.
        2    1    3    3  502    0 -0.72539637615E+03  0.11752838497E+04  0.22191361626E+03  0.13988344015E+04  0.25500000920E-02 0. -1.
       -2    1    3    3    0  502  0.72539637615E+03 -0.11752838497E+04  0.13383149853E+04  0.19231690071E+04  0.25500000920E-02 0.  1.
</event>
<event>
 5   0  0.2348684E-06  0.2955620E+04  0.7818609E-02  0.8256519E-01
       -1   -1    0    0    0  501  0.00000000000E+00  0.00000000000E+00  0.12326677790E+04  0.12326677790E+04  0.50400001928E-02 0.  1.
        1   -1    0    0  501    0  0.00000000000E+00  0.00000000000E+00 -0.17717035414E+04  0.17717035414E+04  0.50400001928E-02 0. -1.
    10030    2    1    2    0    0  0.00000000000E+00  0.00000000000E+00 -0.53903576235E+03  0.30043713204E+04  0.29556196437E+04 0.  0.
        5    1    3    3  502    0 -0.11736537590E+03 -0.79252510699E+03  0.99274946757E+03  0.12757132405E+04  0.46999998093E+01 0.  1.
       -5    1    3    3    0  502  0.11736537590E+03  0.79252510699E+03 -0.15317852299E+04  0.17286580799E+04  0.46999998093E+01 0. -1.
</event>
<event>
 5   0  0.6612533E-06  0.2884508E+04  0.7818609E-02  0.8277502E-01
        2   -1    0    0  501    0  0.00000000000E+00  0.00000000000E+00  0.13729182778E+04  0.13729182778E+04  0.25500000920E-02 0. -1.
       -2   -1    0    0    0  501  0.00000000000E+00  0.00000000000E+00 -0.15150909545E+04  0.15150909545E+04  0.25500000920E-02 0.  1.
    10030    2    1    2    0    0  0.00000000000E+00  0.00000000000E+00 -0.14217267670E+03  0.28880092322E+04  0.28845076279E+04 0.  0.
        3    1    3    3  502    0  0.17679467199E+03  0.18728845891E+03  0.13497074017E+04  0.13740609169E+04  0.10100000352E+00 0. -1.
       -3    1    3    3    0  502 -0.17679467199E+03 -0.18728845891E+03 -0.14918800784E+04  0.15139483153E+04  0.10100000352E+00 0.  1.
</event>
<event>
 5   0  0.6612533E-06  0.2893359E+04  0.7818609E-02  0.8274856E-01
        2   -1    0    0  501    0  0.00000000000E+00  0.00000000000E+00  0.11268831705E+04  0.11268831705E+04  0.25500000920E-02 0.  1.
       -2   -1    0    0    0  501  0.00000000000E+00  0.00000000000E+00 -0.18572301327E+04  0.18572301327E+04  0.25500000920E-02 0. -1.
    10030    2    1    2    0    0  0.00000000000E+00  0.00000000000E+00 -0.73034696225E+03  0.29841133032E+04  0.28933588648E+04 0.  0.
        3    1    3    3  502    0  0.93960054531E+03 -0.37379917703E+03  0.70183300430E+03  0.12309120950E+04  0.10100000352E+00 0.  1.
       -3    1    3    3    0  502 -0.93960054531E+03  0.37379917703E+03 -0.14321799665E+04  0.17532012082E+04  0.10100000352E+00 0. -1.
</event>
<event>
 5   0  0.6615403E-06  0.2838021E+04  0.7818609E-02  0.8291561E-01
        2   -1    0    0  501    0  0.00000000000E+00  0.00000000000E+00  0.12844593522E+04  0.12844593522E+04  0.25500000920E-02 0. -1.
       -2   -1    0    0    0  501  0.00000000000E+00  0.00000000000E+00 -0.15676562295E+04  0.15676562295E+04  0.25500000920E-02 0.  1.
    10030    2    1    2    0    0  0.00000000000E+00  0.00000000000E+00 -0.28319687728E+03  0.28521155817E+04  0.28380209337E+04 0.  0.
        2    1    3    3  502    0  0.84164591545E+03 -0.10243655349E+04  0.36677759108E+03  0.13755792952E+04  0.25500000920E-02 0. -1.
       -2    1    3    3    0  502 -0.84164591545E+03  0.10243655349E+04 -0.64997446836E+03  0.14765362866E+04  0.25500000920E-02 0.  1.
</event>
<event>
 5   0  0.2336512E-06  0.2919652E+04  0.7818609E-02  0.8267054E-01
       -1   -1    0    0    0  501  0.00000000000E+00  0.00000000000E+00  0.15585960740E+04  0.15585960740E+04  0.50400001928E-02 0.  1.
        1   -1    0    0  501    0  0.00000000000E+00  0.00000000000E+00 -0.13673147072E+04  0.13673147072E+04  0.50400001928E-02 0. -1.
    10030    2    1    2    0    0  0.00000000000E+00  0.00000000000E+00  0.19128136679E+03  0.29259107813E+04  0.29196515783E+04 0.  0.
        4    1    3    3  502    0  0.87120717151E+03  0.46838575175E+03  0.11715822439E+04  0.15332950516E+04  0.12699999809E+01 0.  1.
       -4    1    3    3    0  502 -0.87120717151E+03 -0.46838575175E+03 -0.98030087708E+03  0.13926157297E+04  0.12699999809E+01 0. -1.
</event>
<event>
 5   0  0.6513041E-06  0.2869545E+04  0.7818609E-02  0.8281997E-01
       -2   -1    0    0    0  501  0.00000000000E+00  0.00000000000E+00  0.14746381163E+04  0.14746381163E+04  0.25500000920E-02 0. -1.
        2   -1    0    0  501    0  0.00000000000E+00  0.00000000000E+00 -0.13959846017E+04  0.13959846017E+04  0.25500000920E-02 0.  1.
    10030    2    1    2    0    0  0.00000000000E+00  0.00000000000E+00  0.78653514629E+02  0.28706227180E+04  0.28695449837E+04 0.  0.
        1    1    3    3  502    0  0.50655038843E+03  0.79878892929E+03 -0.10399273818E+04  0.14057403775E+04  0.50400001928E-02 0.  1.
       -1    1    3    3    0  502 -0.50655038843E+03 -0.79878892929E+03  0.11185808964E+04  0.14648823405E+04  0.50400001928E-02 0. -1.
</event>
<event>
 5   0  0.6615403E-06  0.2883484E+04  0.7818609E-02  0.8277809E-01
        2   -1    0    0  501    0  0.00000000000E+00  0.00000000000E+00  0.11045796895E+04  0.11045796895E+04  0.25500000920E-02 0. -1.
       -2   -1    0    0    0  501  0.00000000000E+00  0.00000000000E+00 -0.18818193162E+04  0.18818193162E+04  0.25500000920E-02 0.  1.
    10030    2    1    2    0    0  0.00000000000E+00  0.00000000000E+00 -0.77723962674E+03  0.29863990058E+04  0.28834835849E+04 0.  0.
        2    1    3    3  502    0  0.65988059197E+03  0.11734972829E+04 -0.92286102279E+03  0.16322410166E+04  0.25500000920E-02 0. -1.
       -2    1    3    3    0  502 -0.65988059197E+03 -0.11734972829E+04  0.14562139606E+03  0.13541579892E+04  0.25500000920E-02 0.  1.
</event>
<event>
 5   0  0.6513041E-06  0.2585024E+04  0.7818609E-02  0.8373306E-01
        2   -1    0    0  501    0  0.00000000000E+00  0.00000000000E+00  0.13672250750E+04  0.13672250750E+04  0.25500000920E-02 0.  1.
       -2   -1    0    0    0  501  0.00000000000E+00  0.00000000000E+00 -0.12218816634E+04  0.12218816634E+04  0.25500000920E-02 0. -1.
    10030    2    1    2    0    0  0.00000000000E+00  0.00000000000E+00  0.14534341159E+03  0.25891067385E+04  0.25850239836E+04 0.  0.
        1    1    3    3  502    0  0.74168260814E+03 -0.17172406473E+03  0.11188332442E+04  0.13532812250E+04  0.50400001928E-02 0.  1.
       -1    1    3    3    0  502 -0.74168260814E+03  0.17172406473E+03 -0.97348983258E+03  0.12358255135E+04  0.50400001928E-02 0. -1.
</event>
<event>
 5   0  0.6612533E-06  0.2919225E+04  0.7818609E-02  0.8267180E-01
       -2   -1    0    0    0  501  0.00000000000E+00  0.00000000000E+00  0.10237714041E+04  0.10237714041E+04  0.25500000920E-02 0. -1.
        2   -1    0    0  501    0  0.00000000000E+00  0.00000000000E+00 -0.20810000875E+04  0.20810000875E+04  0.25500000920E-02 0.  1.
    10030    2    1    2    0    0  0.00000000000E+00  0.00000000000E+00 -0.10572286834E+04  0.31047714917E+04  0.29192248160E+04 0.  0.
        3    1    3    3  502    0  0.54137032779E+03 -0.12707901544E+04 -0.26957734404E+02  0.13815629475E+04  0.10100000352E+00 0. -1.
       -3    1    3    3    0  502 -0.54137032779E+03  0.12707901544E+04 -0.10302709490E+04  0.17232085442E+04  0.10100000352E+00 0.  1.
</event>
<event>
 5   0  0.2429358E-06  0.2879793E+04  0.7818609E-02  0.8278915E-01
       -1   -1    0    0    0  501  0.00000000000E+00  0.00000000000E+00  0.22971753996E+04  0.22971753996E+04  0.50400001928E-02 0.  1.
        1   -1    0    0  501    0  0.00000000000E+00  0.00000000000E+00 -0.90254422760E+03  0.90254422762E+03  0.50400001928E-02 0. -1.
    10030    2    1    2    0    0  0.00000000000E+00  0.00000000000E+00  0.13946311720E+04  0.31997196272E+04  0.28797933236E+04 0.  0.
        2    1    3    3  502    0  0.95277056192E+03  0.98368409541E+03  0.11915914352E+04  0.18152950977E+04  0.25500000920E-02 0. -1.
       -2    1    3    3    0  502 -0.95277056192E+03 -0.98368409541E+03  0.20303973678E+03  0.13844245295E+04  0.25500000920E-02 0.  1.
</event>
<event>
 5   0  0.6513041E-06  0.2964579E+04  0.7818609E-02  0.8253919E-01
       -2   -1    0    0    0  501  0.00000000000E+00  0.00000000000E+00  0.80362013350E+03  0.80362013351E+03  0.25500000920E-02 0. -1.
        2   -1    0    0  501    0  0.00000000000E+00  0.00000000000E+00 -0.27341052088E+04  0.27341052088E+04  0.25500000920E-02 0.  1.
    10030    2    1    2    0    0  0.00000000000E+00  0.00000000000E+00 -0.19304850752E+04  0.35377253423E+04  0.29645788860E+04 0.  0.
        1    1    3    3  502    0 -0.10716182004E+03 -0.10409340981E+04 -0.22180442794E+04  0.24524982931E+04  0.50400001928E-02 0.  1.
       -1    1    3    3    0  502  0.10716182004E+03  0.10409340981E+04  0.28755920413E+03  0.10852270492E+04  0.50400001928E-02 0. -1.
</event>
<event>
 5   0  0.6393633E-06  0.2906365E+04  0.7818609E-02  0.8270986E-01
       -2   -1    0    0    0  501  0.00000000000E+00  0.00000000000E+00  0.18015876399E+04  0.18015876399E+04  0.25500000920E-02 0. -1.
        2   -1    0    0  501    0  0.00000000000E+00  0.00000000000E+00 -0.11721546275E+04  0.11721546275E+04  0.25500000920E-02 0.  1.
    10030    2    1    2    0    0  0.00000000000E+00  0.00000000000E+00  0.62943301246E+03  0.29737422674E+04  0.29063649385E+04 0.  0.
        4    1    3    3  502    0  0.18038432350E+03  0.11135266110E+04  0.12520644619E+04  0.16852735824E+04  0.12699999809E+01 0. -1.
       -4    1    3    3    0  502 -0.18038432350E+03 -0.11135266110E+04 -0.62263144948E+03  0.12884686851E+04  0.12699999809E+01 0.  1.
</event>
<event>
 5   0  0.2474769E-06  0.2917874E+04  0.7818609E-02  0.8267579E-01
       -1   -1    0    0    0  501  0.00000000000E+00  0.00000000000E+00  0.92035088659E+03  0.92035088660E+03  0.50400001928E-02 0.  1.
        1   -1    0    0  501    0  0.00000000000E+00  0.00000000000E+00 -0.23127011213E+04  0.23127011213E+04  0.50400001928E-02 0. -1.
    10030    2    1    2    0    0  0.00000000000E+00  0.00000000000E+00 -0.13923502347E+04  0.32330520079E+04  0.29178735596E+04 0.  0.
        1    1    3    3  502    0 -0.99561920923E+03  0.45157395404E+03 -0.17666130260E+04  0.20775221369E+04  0.50400001928E-02 0. -1.
       -1    1    3    3    0  502  0.99561920923E+03 -0.45157395404E+03  0.37426279128E+03  0.11555298710E+04  0.50400001928E-02 0.  1.
</event>
<event>
 5   0  0.2429358E-06  0.2936718E+04  0.7818609E-02  0.8262036E-01
        1   -1    0    0  501    0  0.00000000000E+00  0.00000000000E+00  0.17881413387E+04  0.17881413387E+04  0.50400001928E-02 0. -1.
       -1   -1    0    0    0  501  0.00000000000E+00  0.00000000000E+00 -0.12057650139E+04  0.12057650139E+04  0.50400001928E-02 0.  1.
    10030    2    1    2    0    0  0.00000000000E+00  0.00000000000E+00  0.58237632482E+03  0.29939063525E+04  0.29367180771E+04 0.  0.
        2    1    3    3  502    0  0.65476487531E+03 -0.13135585511E+04  0.24645711888E+03  0.14882520689E+04  0.25500000920E-02 0.  1.
       -2    1    3    3    0  502 -0.65476487531E+03  0.13135585511E+04  0.33591920594E+03  0.15056542837E+04  0.25500000920E-02 0. -1.
</event>
<event>
 5   0  0.2348684E-06  0.2902473E+04  0.7818609E-02  0.8272142E-01
        1   -1    0    0  501    0  0.00000000000E+00  0.00000000000E+00  0.13216948303E+04  0.13216948303E+04  0.50400001928E-02 0. -1.
       -1   -1    0    0    0  501  0.00000000000E+00  0.00000000000E+00 -0.15934744075E+04  0.15934744075E+04  0.50400001928E-02 0.  1.
    10030    2    1    2    0    0  0.00000000000E+00  0.00000000000E+00 -0.27177957720E+03  0.29151692378E+04  0.29024726608E+04 0.  0.
        5    1    3    3  502    0 -0.13603170968E+04  0.38244484003E+03 -0.46799941941E+03  0.14885470117E+04  0.46999998093E+01 0.  1.
       -5    1    3    3    0  502  0.13603170968E+04 -0.38244484003E+03  0.19621984221E+03  0.14266222261E+04  0.46999998093E+01 0. -1.
</event>
<event>
 5   0  0.2159500E-06  0.2900605E+04  0.7818609E-02  0.8272697E-01
       -3   -1    0    0    0  501  0.00000000000E+00  0.00000000000E+00  0.97650786957E+03  0.97650787479E+03  0.10100000352E+00 0.  1.
        3   -1    0    0  501    0  0.00000000000E+00  0.00000000000E+00 -0.21539795437E+04  0.21539795461E+04  0.10100000352E+00 0. -1.
    10030    2    1    2    0    0  0.00000000000E+00  0.00000000000E+00 -0.11774716742E+04  0.31304874209E+04  0.29006054452E+04 0.  0.
        5    1    3    3  502    0 -0.16449791047E+03  0.58166760075E+02  0.96513114590E+03  0.98078700711E+03  0.46999998093E+01 0.  1.
       -5    1    3    3    0  502  0.16449791047E+03 -0.58166760075E+02 -0.21426028200E+04  0.21497004138E+04  0.46999998093E+01 0. -1.
</event>
<event>
 5   0  0.2508094E-06  0.2826499E+04  0.7818609E-02  0.8295088E-01
        1   -1    0    0  501    0  0.00000000000E+00  0.00000000000E+00  0.12795454966E+04  0.12795454966E+04  0.50400001928E-02 0.  1.
       -1   -1    0    0    0  501  0.00000000000E+00  0.00000000000E+00 -0.15609246759E+04  0.15609246759E+04  0.50400001928E-02 0. -1.
    10030    2    1    2    0    0  0.00000000000E+00  0.00000000000E+00 -0.28137917927E+03  0.28404701725E+04  0.28264989932E+04 0.  0.
        3    1    3    3  502    0 -0.33888083438E+03  0.13368278332E+04  0.16958440969E+03  0.13894991032E+04  0.10100000352E+00 0.  1.
       -3    1    3    3    0  502  0.33888083438E+03 -0.13368278332E+04 -0.45096358896E+03  0.14509710694E+04  0.10100000352E+00 0. -1.
</event>
<event>
 5   0  0.6393633E-06  0.2885249E+04  0.7818609E-02  0.8277280E-01
        2   -1    0    0  501    0  0.00000000000E+00  0.00000000000E+00  0.18240597923E+04  0.18240597923E+04  0.25500000920E-02 0. -1.
       -2   -1    0    0    0  501  0.00000000000E+00  0.00000000000E+00 -0.11409526379E+04  0.11409526379E+04  0.25500000920E-02 0.  1.
    10030    2    1    2    0    0  0.00000000000E+00  0.00000000000E+00  0.68310715440E+03  0.29650124302E+04  0.28852492660E+04 0.  0.
        4    1    3    3  502    0 -0.97360983801E+03 -0.10460742664E+04  0.13867047013E+03  0.14357641170E+04  0.12699999809E+01 0.  1.
       -4    1    3    3    0  502  0.97360983801E+03  0.10460742664E+04  0.54443668427E+03  0.15292483132E+04  0.12699999809E+01 0. -1.
</event>
<event>
 5   0  0.2474769E-06  0.2889681E+04  0.7818609E-02  0.8275954E-01
       -1   -1    0    0    0  501  0.00000000000E+00  0.00000000000E+00  0.10305198231E+04  0.10305198231E+04  0.50400001928E-02 0.  1.
        1   -1    0    0  501    0  0.00000000000E+00  0.00000000000E+00 -0.20257385711E+04  0.20257385711E+04  0.50400001928E-02 0. -1.
    10030    2    1    2    0    0  0.00000000000E+00  0.00000000000E+00 -0.99521874794E+03  0.30562583942E+04  0.28896807810E+04 0.  0.
        1    1    3    3  502    0  0.96046360422E+03 -0.22439248559E+03 -0.16142755853E+04  0.18917526233E+04  0.50400001928E-02 0. -1.
       -1    1    3    3    0  502 -0.96046360422E+03  0.22439248559E+03  0.61905683732E+03  0.11645057709E+04  0.50400001928E-02 0.  1.
</event>
<event>
 5   0  0.6733688E-06  0.2888983E+04  0.7818609E-02  0.8276163E-01
       -2   -1    0    0    0  501  0.00000000000E+00  0.00000000000E+00  0.11094051013E+04  0.11094051013E+04  0.25500000920E-02 0.  1.
        2   -1    0    0  501    0  0.00000000000E+00  0.00000000000E+00 -0.18807878670E+04  0.18807878670E+04  0.25500000920E-02 0. -1.
    10030    2    1    2    0    0  0.00000000000E+00  0.00000000000E+00 -0.77138276569E+03  0.29901929683E+04  0.28889829727E+04 0.  0.
        5    1    3    3  502    0  0.60264481842E+03 -0.74785560418E+03 -0.15024075633E+04  0.17831767602E+04  0.46999998093E+01 0. -1.
       -5    1    3    3    0  502 -0.60264481842E+03  0.74785560418E+03  0.73102479762E+03  0.12070162081E+04  0.46999998093E+01 0.  1.
</event>
<event>
 5   0  0.6733688E-06  0.2928158E+04  0.7818609E-02  0.8264549E-01
        2   -1    0    0  501    0  0.00000000000E+00  0.00000000000E+00  0.14038142477E+04  0.14038142477E+04  0.25500000920E-02 0. -1.
       -2   -1    0    0    0  501  0.00000000000E+00  0.00000000000E+00 -0.15269308780E+04  0.15269308780E+04  0.25500000920E-02 0.  1.
    10030    2    1    2    0    0  0.00000000000E+00  0.00000000000E+00 -0.12311663024E+03  0.29307451257E+04  0.29281580025E+04 0.  0.
        5    1    3    3  502    0  0.25958089212E+03  0.11818875590E+04 -0.88646171891E+03  0.15000256367E+04  0.46999998093E+01 0.  1.
       -5    1    3    3    0  502 -0.25958089212E+03 -0.11818875590E+04  0.76334508867E+03  0.14307194890E+04  0.46999998093E+01 0. -1.
</event>
<event>
 5   0  0.6733688E-06  0.2881730E+04  0.7818609E-02  0.8278334E-01
       -2   -1    0    0    0  501  0.00000000000E+00  0.00000000000E+00  0.12210907401E+04  0.12210907401E+04  0.25500000920E-02 0. -1.
        2   -1    0    0  501    0  0.00000000000E+00  0.00000000000E+00 -0.17001943329E+04  0.17001943329E+04  0.25500000920E-02 0.  1.
    10030    2    1    2    0    0  0.00000000000E+00  0.00000000000E+00 -0.47910359279E+03  0.29212850729E+04  0.28817297279E+04 0.  0.
        5    1    3    3  502    0 -0.86541663387E+03  0.50158242513E+03  0.81176521278E+03  0.12882219258E+04  0.46999998093E+01 0. -1.
       -5    1    3    3    0  502  0.86541663387E+03 -0.50158242513E+03 -0.12908688056E+04  0.16330631472E+04  0.46999998093E+01 0.  1.
</event>
<event>
 5   0  0.6615403E-06  0.2907323E+04  0.7818609E-02  0.8270702E-01
       -2   -1    0    0    0  501  0.00000000000E+00  0.00000000000E+00  0.11418308632E+04  0.11418308632E+04  0.25500000920E-02 0.  1.
        2   -1    0    0  501    0  0.00000000000E+00  0.00000000000E+00 -0.18506516749E+04  0.18506516749E+04  0.25500000920E-02 0. -1.
    10030    2    1    2    0    0  0.00000000000E+00  0.00000000000E+00 -0.70882081173E+03  0.29924825381E+04  0.29073226168E+04 0.  0.
        2    1    3    3  502    0 -0.33504035059E+03 -0.81607237359E+03 -0.15436341865E+04  0.17779293173E+04  0.25500000920E-02 0. -1.
       -2    1    3    3    0  502  0.33504035059E+03  0.81607237359E+03  0.83481337482E+03  0.12145532208E+04  0.25500000920E-02 0.  1.
</event>
<event>
 5   0  0.2336512E-06  0.2898172E+04  0.7818609E-02  0.8273421E-01
        1   -1    0    0  501    0  0.00000000000E+00  0.00000000000E+00  0.16912456401E+04  0.16912456401E+04  0.50400001928E-02 0. -1.
       -1   -1    0    0    0  501  0.00000000000E+00  0.00000000000E+00 -0.12416001038E+04  0.12416001038E+04  0.50400001928E-02 0.  1.
    10030    2    1    2    0    0  0.00000000000E+00  0.00000000000E+00  0.44964553627E+03  0.29328457439E+04  0.28981723637E+04 0.  0.
        4    1    3    3  502    0 -0.10395058189E+04  0.76339683197E+03  0.89341013900E+03  0.15689264992E+04  0.12699999809E+01 0. -1.
       -4    1    3    3    0  502  0.10395058189E+04 -0.76339683197E+03 -0.44376460273E+03  0.13639192447E+04  0.12699999809E+01 0.  1.
</event>
<event>
 5   0  0.6513041E-06  0.2953328E+04  0.7818609E-02  0.8257185E-01
       -2   -1    0    0    0  501  0.00000000000E+00  0.00000000000E+00  0.11626617394E+04  0.11626617394E+04  0.25500000920E-02 0. -1.
        2   -1    0    0  501    0  0.00000000000E+00  0.00000000000E+00 -0.18754700025E+04  0.18754700025E+04  0.25500000920E-02 0.  1.
    10030    2    1    2    0    0  0.00000000000E+00  0.00000000000E+00 -0.71280826311E+03  0.30381317418E+04  0.29533284377E+04 0.  0.
        1    1    3    3  502    0  0.19447886335E+03  0.13915179766E+04  0.11094586051E+03  0.14094159398E+04  0.50400001928E-02 0. -1.
       -1    1    3    3    0  502 -0.19447886335E+03 -0.13915179766E+04 -0.82375412362E+03  0.16287158020E+04  0.50400001928E-02 0.  1.
</event>
<event>
 5   0  0.6733688E-06  0.2906917E+04  0.7818609E-02  0.8270822E-01
       -2   -1    0    0    0  501  0.00000000000E+00  0.00000000000E+00  0.99233926047E+03  0.99233926047E+03  0.25500000920E-02 0.  1.
        2   -1    0    0  501    0  0.00000000000E+00  0.00000000000E+00 -0.21288503706E+04  0.21288503706E+04  0.25500000920E-02 0. -1.
    10030    2    1    2    0    0  0.00000000000E+00  0.00000000000E+00 -0.11365111102E+04  0.31211896311E+04  0.29069171316E+04 0.  0.
        5    1    3    3  502    0 -0.12644611072E+04 -0.60352362690E+03 -0.98329329237E+03  0.17117214869E+04  0.46999998093E+01 0. -1.
       -5    1    3    3    0  502  0.12644611072E+04  0.60352362690E+03 -0.15321781779E+03  0.14094681442E+04  0.46999998093E+01 0.  1.
</event>
<event>
 5   0  0.6393633E-06  0.2914500E+04  0.7818609E-02  0.8268576E-01
       -2   -1    0    0    0  501  0.00000000000E+00  0.00000000000E+00  0.94971440945E+03  0.94971440945E+03  0.25500000920E-02 0.  1.
        2   -1    0    0  501    0  0.00000000000E+00  0.00000000000E+00 -0.22360172558E+04  0.22360172558E+04  0.25500000920E-02 0. -1.
    10030    2    1    2    0    0  0.00000000000E+00  0.00000000000E+00 -0.12863028464E+04  0.31857316653E+04  0.29145001682E+04 0.  0.
        4    1    3    3  502    0  0.72288394365E+02  0.14554471384E+04 -0.63777314568E+03  0.15906942456E+04  0.12699999809E+01 0. -1.
       -4    1    3    3    0  502 -0.72288394365E+02 -0.14554471384E+04 -0.64852970067E+03  0.15950374197E+04  0.12699999809E+01 0.  1.
</event>
<event>
 5   0  0.6612533E-06  0.2895861E+04  0.7818609E-02  0.8274110E-01
        2   -1    0    0  501    0  0.00000000000E+00  0.00000000000E+00  0.10077705814E+04  0.10077705814E+04  0.25500000920E-02 0. -1.
       -2   -1    0    0    0  501  0.00000000000E+00  0.00000000000E+00 -0.20803368708E+04  0.20803368708E+04  0.25500000920E-02 0.  1.
    10030    2    1    2    0    0  0.00000000000E+00  0.00000000000E+00 -0.10725662894E+04  0.30881074521E+04  0.28958606995E+04 0.  0.
        3    1    3    3  502    0 -0.10623351683E+04 -0.16681946190E+03  0.49768180117E+03  0.11849354109E+04  0.10100000352E+00 0. -1.
       -3    1    3    3    0  502  0.10623351683E+04  0.16681946190E+03 -0.15702480905E+04  0.19031720413E+04  0.10100000352E+00 0.  1.
</event>
<event>
 5   0  0.6733688E-06  0.2901489E+04  0.7818609E-02  0.8272434E-01
        2   -1    0    0  501    0  0.00000000000E+00  0.00000000000E+00  0.19032602423E+04  0.19032602423E+04  0.25500000920E-02 0.  1.
       -2   -1    0    0    0  501  0.00000000000E+00  0.00000000000E+00 -0.11058184054E+04  0.11058184054E+04  0.25500000920E-02 0. -1.
    10030    2    1    2    0    0  0.00000000000E+00  0.00000000000E+00  0.79744183688E+03  0.30090786478E+04  0.29014894150E+04 0.  0.
        5    1    3    3  502    0  0.11533339283E+03  0.45759439176E+03  0.18214292068E+04  0.18815740390E+04  0.46999998093E+01 0.  1.
       -5    1    3    3    0  502 -0.11533339283E+03 -0.45759439176E+03 -0.10239873700E+04  0.11275046087E+04  0.46999998093E+01 0. -1.
</event>
<event>
 5   0  0.2336512E-06  0.2581260E+04  0.7818609E-02  0.8374595E-01
       -1   -1    0    0    0  501  0.00000000000E+00  0.00000000000E+00  0.93464766999E+03  0.93464767000E+03  0.50400001928E-02 0.  1.
        1   -1    0    0  501    0  0.00000000000E+00  0.00000000000E+00 -0.17821966261E+04  0.17821966261E+04  0.50400001928E-02 0. -1.
    10030    2    1    2    0    0  0.00000000000E+00  0.00000000000E+00 -0.84754895615E+03  0.27168442961E+04  0.25812600986E+04 0.  0.
        4    1    3    3  502    0  0.82239057987E+03  0.45626860185E+03  0.50651653680E+03  0.10682078065E+04  0.12699999809E+01 0.  1.
       -4    1    3    3    0  502 -0.82239057987E+03 -0.45626860185E+03 -0.13540654930E+04  0.16486364897E+04  0.12699999809E+01 0. -1.
</event>
<event>
 5   0  0.2508094E-06  0.2827235E+04  0.7818609E-02  0.8294863E-01
        1   -1    0    0  501    0  0.00000000000E+00  0.00000000000E+00  0.15270541939E+04  0.15270541939E+04  0.50400001928E-02 0. -1.
       -1   -1    0    0    0  501  0.00000000000E+00  0.00000000000E+00 -0.13086069492E+04  0.13086069492E+04  0.50400001928E-02 0.  1.
    10030    2    1    2    0    0  0.00000000000E+00  0.00000000000E+00  0.21844724471E+03  0.28356611431E+04  0.28272345003E+04 0.  0.
        3    1    3    3  502    0 -0.19889262692E+03 -0.84029262131E+03 -0.10133368759E+04  0.13313532968E+04  0.10100000352E+00 0.  1.
       -3    1    3    3    0  502  0.19889262692E+03  0.84029262131E+03  0.12317841207E+04  0.15043078463E+04  0.10100000352E+00 0. -1.
</event>
<event>
 5   0  0.2348684E-06  0.2894503E+04  0.7818609E-02  0.8274515E-01
        1   -1    0    0  501    0  0.00000000000E+00  0.00000000000E+00  0.15499058541E+04  0.15499058541E+04  0.50400001928E-02 0. -1.
       -1   -1    0    0    0  501  0.00000000000E+00  0.00000000000E+00 -0.13513962358E+04  0.13513962358E+04  0.50400001928E-02 0.  1.
    10030    2    1    2    0    0  0.00000000000E+00  0.00000000000E+00  0.19850961830E+03  0.29013020900E+04  0.28945030228E+04 0.  0.
        5    1    3    3  502    0  0.54212331301E+01 -0.15118691577E+03  0.15419508063E+04  0.15493615628E+04  0.46999998093E+01 0. -1.
       -5    1    3    3    0  502 -0.54212331301E+01  0.15118691577E+03 -0.13434411880E+04  0.13519405272E+04  0.46999998093E+01 0.  1.
</event>
<event>
 5   0  0.6513041E-06  0.2904856E+04  0.7818609E-02  0.8271434E-01
       -2   -1    0    0    0  501  0.00000000000E+00  0.00000000000E+00  0.17465729901E+04  0.17465729901E+04  0.25500000920E-02 0. -1.
        2   -1    0    0  501    0  0.00000000000E+00  0.00000000000E+00 -0.12078205491E+04  0.12078205491E+04  0.25500000920E-02 0.  1.
    10030    2    1    2    0    0  0.00000000000E+00  0.00000000000E+00  0.53875244099E+03  0.29543935392E+04  0.29048557609E+04 0.  0.
        1    1    3    3  502    0 -0.13639090748E+04  0.28576827169E+03  0.68579133312E+03  0.15531327123E+04  0.50400001928E-02 0. -1.
       -1    1    3    3    0  502  0.13639090748E+04 -0.28576827169E+03 -0.14703889212E+03  0.14012608269E+04  0.50400001928E-02 0.  1.
</event>
<event>
 5   0  0.6733688E-06  0.2952837E+04  0.7818609E-02  0.8257328E-01
        2   -1    0    0  501    0  0.00000000000E+00  0.00000000000E+00  0.19884478932E+04  0.19884478932E+04  0.25500000920E-02 0. -1.
       -2   -1    0    0    0  501  0.00000000000E+00  0.00000000000E+00 -0.10962376829E+04  0.10962376829E+04  0.25500000920E-02 0.  1.
    10030    2    1    2    0    0  0.00000000000E+00  0.00000000000E+00  0.89221021026E+03  0.30846855760E+04  0.29528369484E+04 0.  0.
        5    1    3    3  502    0 -0.67561251044E+03 -0.10504095565E+04 -0.37643900597E+03  0.13044312615E+04  0.46999998093E+01 0.  1.
       -5    1    3    3    0  502  0.67561251044E+03  0.10504095565E+04  0.12686492162E+04  0.17802543146E+04  0.46999998093E+01 0. -1.
</event>
<event>
 5   0  0.2348684E-06  0.2878697E+04  0.7818609E-02  0.8279244E-01
       -1   -1    0    0    0  501  0.00000000000E+00  0.00000000000E+00  0.91399713709E+03  0.91399713710E+03  0.50400001928E-02 0. -1.
        1   -1    0    0  501    0  0.00000000000E+00  0.00000000000E+00 -0.22666637978E+04  0.22666637978E+04  0.50400001928E-02 0.  1.
    10030    2    1    2    0    0  0.00000000000E+00  0.00000000000E+00 -0.13526666607E+04  0.31806609349E+04  0.28786970817E+04 0.  0.
        5    1    3    3  502    0 -0.93204429583E+03  0.45542206802E+02  0.53448423304E+03  0.10753958096E+04  0.46999998093E+01 0. -1.
       -5    1    3    3    0  502  0.93204429583E+03 -0.45542206802E+02 -0.18871508938E+04  0.21052651253E+04  0.46999998093E+01 0.  1.
</event>
<event>
 5   0  0.2474769E-06  0.2890082E+04  0.7818609E-02  0.8275835E-01
        1   -1    0    0  501    0  0.00000000000E+00  0.00000000000E+00  0.13754039430E+04  0.13754039430E+04  0.50400001928E-02 0. -1.
       -1   -1    0    0    0  501  0.00000000000E+00  0.00000000000E+00 -0.15182034581E+04  0.15182034581E+04  0.50400001928E-02 0.  1.
    10030    2    1    2    0    0  0.00000000000E+00  0.00000000000E+00 -0.14279951507E+03  0.28936074011E+04  0.28900816754E+04 0.  0.
        1    1    3    3  502    0  0.81623454984E+03  0.11548802178E+04  0.22587298869E+03  0.14321332916E+04  0.50400001928E-02 0.  1.
       -1    1    3    3    0  502 -0.81623454984E+03 -0.11548802178E+04 -0.36867250376E+03  0.14614741095E+04  0.50400001928E-02 0. -1.
</event>
<event>
 5   0  0.6393633E-06  0.2875412E+04  0.7818609E-02  0.8280231E-01
       -2   -1    0    0    0  501  0.00000000000E+00  0.00000000000E+00  0.15812396330E+04  0.15812396330E+04  0.25500000920E-02 0. -1.
        2   -1    0    0  501    0  0.00000000000E+00  0.00000000000E+00 -0.13072011727E+04  0.13072011727E+04  0.25500000920E-02 0.  1.
    10030    2    1    2    0    0  0.00000000000E+00  0.00000000000E+00  0.27403846038E+03  0.28884408057E+04  0.28754118332E+04 0.  0.
        4    1    3    3  502    0  0.70682174939E+03  0.65866646593E+02 -0.11188702419E+04  0.13250689158E+04  0.12699999809E+01 0.  1.
       -4    1    3    3    0  502 -0.70682174939E+03 -0.65866646593E+02  0.13929087022E+04  0.15633718899E+04  0.12699999809E+01 0. -1.
</event>
<event>
 5   0  0.2474769E-06  0.2876187E+04  0.7818609E-02  0.8279998E-01
        1   -1    0    0  501    0  0.00000000000E+00  0.00000000000E+00  0.76529972783E+03  0.76529972785E+03  0.50400001928E-02 0. -1.
       -1   -1    0    0    0  501  0.00000000000E+00  0.00000000000E+00 -0.27023569630E+04  0.27023569630E+04  0.50400001928E-02 0.  1.
    10030    2    1    2    0    0  0.00000000000E+00  0.00000000000E+00 -0.19370572352E+04  0.34676566909E+04  0.28761870929E+04 0.  0.
        1    1    3    3  502    0  0.61134378889E+03  0.11711317168E+04 -0.28351257907E+03  0.13511736042E+04  0.50400001928E-02 0. -1.
       -1    1    3    3    0  502 -0.61134378889E+03 -0.11711317168E+04 -0.16535446561E+04  0.21164830866E+04  0.50400001928E-02 0.  1.
</event>
<event>
 5   0  0.6393633E-06  0.2897646E+04  0.7818609E-02  0.8273578E-01
        2   -1    0    0  501    0  0.00000000000E+00  0.00000000000E+00  0.19067505427E+04  0.19067505427E+04  0.25500000920E-02 0.  1.
       -2   -1    0    0    0  501  0.00000000000E+00  0.00000000000E+00 -0.11008718405E+04  0.11008718405E+04  0.25500000920E-02 0. -1.
    10030    2    1    2    0    0  0.00000000000E+00  0.00000000000E+00  0.80587870228E+03  0.30076223832E+04  0.28976459268E+04 0.  0.
        4    1    3    3  502    0  0.98366503290E+03  0.32707706870E+03  0.14535362282E+04  0.17853138339E+04  0.12699999809E+01 0. -1.
       -4    1    3    3    0  502 -0.98366503290E+03 -0.32707706870E+03 -0.64765752597E+03  0.12223085493E+04  0.12699999809E+01 0.  1.
</event>
<event>
 5   0  0.6513041E-06  0.2880470E+04  0.7818609E-02  0.8278712E-01
        2   -1    0    0  501    0  0.00000000000E+00  0.00000000000E+00  0.19040635724E+04  0.19040635724E+04  0.25500000920E-02 0. -1.
       -2   -1    0    0    0  501  0.00000000000E+00  0.00000000000E+00 -0.10893949619E+04  0.10893949619E+04  0.25500000920E-02 0.  1.
    10030    2    1    2    0    0  0.00000000000E+00  0.00000000000E+00  0.81466861049E+03  0.29934585342E+04  0.28804702830E+04 0.  0.
        1    1    3    3  502    0  0.46012072069E+03 -0.99014651024E+03 -0.56875034868E+03  0.12310881969E+04  0.50400001928E-02 0.  1.
       -1    1    3    3    0  502 -0.46012072069E+03  0.99014651024E+03  0.13834189592E+04  0.17623703373E+04  0.50400001928E-02 0. -1.
</event>
<event>
 5   0  0.2429358E-06  0.2885130E+04  0.7818609E-02  0.8277315E-01
        1   -1    0    0  501    0  0.00000000000E+00  0.00000000000E+00  0.11391317098E+04  0.11391317098E+04  0.50400001928E-02 0.  1.
       -1   -1    0    0    0  501  0.00000000000E+00  0.00000000000E+00 -0.18268248025E+04  0.18268248025E+04  0.50400001928E-02 0. -1.
    10030    2    1    2    0    0  0.00000000000E+00  0.00000000000E+00 -0.68769309264E+03  0.29659565123E+04  0.28851301952E+04 0.  0.
        2    1    3    3  502    0 -0.93269249565E+03  0.75376808674E+03  0.48043443189E+03  0.12918586855E+04  0.25500000920E-02 0.  1.
       -2    1    3    3    0  502  0.93269249565E+03 -0.75376808674E+03 -0.11681275245E+04  0.16740978268E+04  0.25500000920E-02 0. -1.
</event>
<event>
 5   0  0.2474769E-06  0.2901219E+04  0.7818609E-02  0.8272515E-01
       -1   -1    0    0    0  501  0.00000000000E+00  0.00000000000E+00  0.16494085646E+04  0.16494085646E+04  0.50400001928E-02 0.  1.
        1   -1    0    0  501    0  0.00000000000E+00  0.00000000000E+00 -0.12757712711E+04  0.12757712711E+04  0.50400001928E-02 0. -1.
    10030    2    1    2    0    0  0.00000000000E+00  0.00000000000E+00  0.37363729349E+03  0.29251798358E+04  0.29012190963E+04 0.  0.
        1    1    3    3  502    0  0.14225420470E+04 -0.19653281754E+03 -0.19854835038E+02  0.14361912263E+04  0.50400001928E-02 0. -1.
       -1    1    3    3    0  502 -0.14225420470E+04  0.19653281754E+03  0.39349212853E+03  0.14889886095E+04  0.50400001928E-02 0.  1.
</event>
<event>
 5   0  0.2159500E-06  0.2873726E+04  0.7818609E-02  0.8280738E-01
       -3   -1    0    0    0  501  0.00000000000E+00  0.00000000000E+00  0.17098431751E+04  0.17098431781E+04  0.10100000352E+00 0. -1.
        3   -1    0    0  501    0  0.00000000000E+00  0.00000000000E+00 -0.12074645628E+04  0.12074645670E+04  0.10100000352E+00 0.  1.
    10030    2    1    2    0    0  0.00000000000E+00  0.00000000000E+00  0.50237861227E+03  0.29173077451E+04  0.28737258411E+04 0.  0.
        1    1    3    3  502    0 -0.18674433257E+03  0.14240920214E+04  0.29259414291E+03  0.14657840440E+04  0.50400001928E-02 0. -1.
       -1    1    3    3    0  502  0.18674433257E+03 -0.14240920214E+04  0.20978446936E+03  0.14515237011E+04  0.50400001928E-02 0.  1.
</event>
<event>
 5   0  0.6393633E-06  0.2996491E+04  0.7818609E-02  0.8244734E-01
       -2   -1    0    0    0  501  0.00000000000E+00  0.00000000000E+00  0.11993450986E+04  0.11993450986E+04  0.25500000920E-02 0. -1.
        2   -1    0    0  501    0  0.00000000000E+00  0.00000000000E+00 -0.18716372071E+04  0.18716372071E+04  0.25500000920E-02 0.  1.
    10030    2    1    2    0    0  0.00000000000E+00  0.00000000000E+00 -0.67229210844E+03  0.30709823057E+04  0.29964905544E+04 0.  0.
        4    1    3    3  502    0  0.11428017377E+04 -0.43884551464E+03  0.54913108225E+03  0.13416883974E+04  0.12699999809E+01 0. -1.
       -4    1    3    3    0  502 -0.11428017377E+04  0.43884551464E+03 -0.12214231907E+04  0.17292939083E+04  0.12699999809E+01 0.  1.
</event>
<event>
 5   0  0.2336512E-06  0.2853788E+04  0.7818609E-02  0.8286761E-01
       -1   -1    0    0    0  501  0.00000000000E+00  0.00000000000E+00  0.10200219176E+04  0.10200219176E+04  0.50400001928E-02 0.  1.
        1   -1    0    0  501    0  0.00000000000E+00  0.00000000000E+00 -0.19960608870E+04  0.19960608870E+04  0.50400001928E-02 0. -1.
    10030    2    1    2    0    0  0.00000000000E+00  0.00000000000E+00 -0.97603896943E+03  0.30160828046E+04  0.28537875559E+04 0.  0.
        4    1    3    3  502    0 -0.12511934973E+04  0.16542952655E+03 -0.11915903520E+04  0.17357250001E+04  0.12699999809E+01 0. -1.
       -4    1    3    3    0  502  0.12511934973E+04 -0.16542952655E+03  0.21555138262E+03  0.12803578045E+04  0.12699999809E+01 0.  1.
</event>
<event>
 5   0  0.6393633E-06  0.2884729E+04  0.7818609E-02  0.8277436E-01
        2   -1    0    0  501    0  0.00000000000E+00  0.00000000000E+00  0.21665709172E+04  0.21665709172E+04  0.25500000920E-02 0.  1.
       -2   -1    0    0    0  501  0.00000000000E+00  0.00000000000E+00 -0.96023405405E+03  0.96023405405E+03  0.25500000920E-02 0. -1.
    10030    2    1    2    0    0  0.00000000000E+00  0.00000000000E+00  0.12063368631E+04  0.31268049712E+04  0.28847288782E+04 0.  0.
        4    1    3    3  502    0  0.69133858693E+03 -0.80532889455E+03  0.16618112795E+04  0.19718321460E+04  0.12699999809E+01 0.  1.
       -4    1    3    3    0  502 -0.69133858693E+03  0.80532889455E+03 -0.45547441642E+03  0.11549728253E+04  0.12699999809E+01 0. -1.
</event>
<event>
 5   0  0.2429358E-06  0.2800154E+04  0.7818609E-02  0.8303221E-01
       -1   -1    0    0    0  501  0.00000000000E+00  0.00000000000E+00  0.93153127401E+03  0.93153127402E+03  0.50400001928E-02 0.  1.
        1   -1    0    0  501    0  0.00000000000E+00  0.00000000000E+00 -0.21042935601E+04  0.21042935601E+04  0.50400001928E-02 0. -1.
    10030    2    1    2    0    0  0.00000000000E+00  0.00000000000E+00 -0.11727622861E+04  0.30358248341E+04  0.28001537536E+04 0.  0.
        2    1    3    3  502    0  0.69691108277E+03 -0.29792356571E+03 -0.18626456244E+04  0.20109431196E+04  0.25500000920E-02 0. -1.
       -2    1    3    3    0  502 -0.69691108277E+03  0.29792356571E+03  0.68988333829E+03  0.10248817145E+04  0.25500000920E-02 0.  1.
</event>
<event>
 5   0  0.6513041E-06  0.2905722E+04  0.7818609E-02  0.8271177E-01
        2   -1    0    0  501    0  0.00000000000E+00  0.00000000000E+00  0.12508280737E+04  0.12508280737E+04  0.25500000920E-02 0. -1.
       -2   -1    0    0    0  501  0.00000000000E+00  0.00000000000E+00 -0.16875261837E+04  0.16875261837E+04  0.25500000920E-02 0.  1.
    10030    2    1    2    0    0  0.00000000000E+00  0.00000000000E+00 -0.43669810999E+03  0.29383542574E+04  0.29057220278E+04 0.  0.
        1    1    3    3  502    0  0.10049919835E+03 -0.90646500882E+03  0.92529219993E+03  0.12992092042E+04  0.50400001928E-02 0. -1.
       -1    1    3    3    0  502 -0.10049919835E+03  0.90646500882E+03 -0.13619903099E+04  0.16391450532E+04  0.50400001928E-02 0.  1.
</event>
<event>
 5   0  0.2508094E-06  0.2902331E+04  0.7818609E-02  0.8272184E-01
        1   -1    0    0  501    0  0.00000000000E+00  0.00000000000E+00  0.17903927683E+04  0.17903927683E+04  0.50400001928E-02 0. -1.
       -1   -1    0    0    0  501  0.00000000000E+00  0.00000000000E+00 -0.11762122425E+04  0.11762122425E+04  0.50400001928E-02 0.  1.
    10030    2    1    2    0    0  0.00000000000E+00  0.00000000000E+00  0.61418052585E+03  0.29666050108E+04  0.29023314029E+04 0.  0.
        3    1    3    3  502    0  0.12304856728E+04 -0.12455831370E+03  0.10830273836E+04  0.16439458897E+04  0.10100000352E+00 0. -1.
       -3    1    3    3    0  502 -0.12304856728E+04  0.12455831370E+03 -0.46884685779E+03  0.13226591211E+04  0.10100000352E+00 0.  1.
</event>
<event>
 5   0  0.2474769E-06  0.2769905E+04  0.7818609E-02  0.8312673E-01
       -1   -1    0    0    0  501  0.00000000000E+00  0.00000000000E+00  0.11110958339E+04  0.11110958339E+04  0.50400001928E-02 0. -1.
        1   -1    0    0  501    0  0.00000000000E+00  0.00000000000E+00 -0.17263079239E+04  0.17263079239E+04  0.50400001928E-02 0.  1.
    10030    2    1    2    0    0  0.00000000000E+00  0.00000000000E+00 -0.61521209001E+03  0.28374037579E+04  0.27699050831E+04 0.  0.
        1    1    3    3  502    0  0.50351557728E+03  0.41329038596E+03  0.94437046338E+03  0.11472455935E+04  0.50400001928E-02 0. -1.
       -1    1    3    3    0  502 -0.50351557728E+03 -0.41329038596E+03 -0.15595825534E+04  0.16901581644E+04  0.50400001928E-02 0.  1.
</event>
<event>
 5   0  0.2508094E-06  0.2923136E+04  0.7818609E-02  0.8266027E-01
       -1   -1    0    0    0  501  0.00000000000E+00  0.00000000000E+00  0.15914668334E+04  0.15914668334E+04  0.50400001928E-02 0. -1.
        1   -1    0    0  501    0  0.00000000000E+00  0.00000000000E+00 -0.13422720405E+04  0.13422720405E+04  0.50400001928E-02 0.  1.
    10030    2    1    2    0    0  0.00000000000E+00  0.00000000000E+00  0.24919479287E+03  0.29337388739E+04  0.29231362841E+04 0.  0.
        3    1    3    3  502    0  0.67502216259E+03  0.44961947935E+03  0.13448894693E+04  0.15705222988E+04  0.10100000352E+00 0. -1.
       -3    1    3    3    0  502 -0.67502216259E+03 -0.44961947935E+03 -0.10956946765E+04  0.13632165750E+04  0.10100000352E+00 0.  1.
</event>
<event>
 5   0  0.6612533E-06  0.2919654E+04  0.7818609E-02  0.8267054E-01
        2   -1    0    0  501    0  0.00000000000E+00  0.00000000000E+00  0.23674797129E+04  0.23674797129E+04  0.25500000920E-02 0. -1.
       -2   -1    0    0    0  501  0.00000000000E+00  0.00000000000E+00 -0.90015367749E+03  0.90015367749E+03  0.25500000920E-02 0.  1.
    10030    2    1    2    0    0  0.00000000000E+00  0.00000000000E+00  0.14673260354E+04  0.32676333904E+04  0.29196544795E+04 0.  0.
        3    1    3    3  502    0  0.15240449572E+03  0.76264480999E+03  0.21163168778E+04  0.22546954060E+04  0.10100000352E+00 0. -1.
       -3    1    3    3    0  502 -0.15240449572E+03 -0.76264480999E+03 -0.64899084237E+03  0.10129379844E+04  0.10100000352E+00 0.  1.
</event>
<event>
 5   0  0.6615403E-06  0.2977046E+04  0.7818609E-02  0.8250316E-01
       -2   -1    0    0    0  501  0.00000000000E+00  0.00000000000E+00  0.23985077813E+04  0.23985077813E+04  0.25500000920E-02 0. -1.
        2   -1    0    0  501    0  0.00000000000E+00  0.00000000000E+00 -0.92378316539E+03  0.92378316539E+03  0.25500000920E-02 0.  1.
    10030    2    1    2    0    0  0.00000000000E+00  0.00000000000E+00  0.14747246159E+04  0.33222909466E+04  0.29770462612E+04 0.  0.
        2    1    3    3  502    0  0.68403958984E+03  0.92882439449E+03 -0.31252433196E+03  0.11951135404E+04  0.25500000920E-02 0.  1.
       -2    1    3    3    0  502 -0.68403958984E+03 -0.92882439449E+03  0.17872489478E+04  0.21271774063E+04  0.25500000920E-02 0. -1.
</event>
<event>
 5   0  0.2336512E-06  0.2869957E+04  0.7818609E-02  0.8281873E-01
        1   -1    0    0  501    0  0.00000000000E+00  0.00000000000E+00  0.11146615452E+04  0.11146615452E+04  0.50400001928E-02 0.  1.
       -1   -1    0    0    0  501  0.00000000000E+00  0.00000000000E+00 -0.18473441156E+04  0.18473441156E+04  0.50400001928E-02 0. -1.
    10030    2    1    2    0    0  0.00000000000E+00  0.00000000000E+00 -0.73268257041E+03  0.29620056609E+04  0.28699571053E+04 0.  0.
        4    1    3    3  502    0 -0.10564109109E+04 -0.67704708295E+03  0.35224038877E+03  0.13032542613E+04  0.12699999809E+01 0.  1.
       -4    1    3    3    0  502  0.10564109109E+04  0.67704708295E+03 -0.10849229592E+04  0.16587513996E+04  0.12699999809E+01 0. -1.
</event>
<event>
 5   0  0.6513041E-06  0.2907000E+04  0.7818609E-02  0.8270798E-01
       -2   -1    0    0    0  501  0.00000000000E+00  0.00000000000E+00  0.10142698033E+04  0.10142698033E+04  0.25500000920E-02 0.  1.
        2   -1    0    0  501    0  0.00000000000E+00  0.00000000000E+00 -0.20829387929E+04  0.20829387929E+04  0.25500000920E-02 0. -1.
    10030    2    1    2    0    0  0.00000000000E+00  0.00000000000E+00 -0.10686689896E+04  0.30972085962E+04  0.29069997728E+04 0.  0.
        1    1    3    3  502    0 -0.48316489996E+02  0.40600256089E+03  0.95173762958E+03  0.10358460688E+04  0.50400001928E-02 0.  1.
       -1    1    3    3    0  502  0.48316489996E+02 -0.40600256089E+03 -0.20204066191E+04  0.20613625274E+04  0.50400001928E-02 0. -1.
</event>
<event>
 5   0  0.6733688E-06  0.2906185E+04  0.7818609E-02  0.8271040E-01
        2   -1    0    0  501    0  0.00000000000E+00  0.00000000000E+00  0.15786237247E+04  0.15786237247E+04  0.25500000920E-02 0. -1.
       -2   -1    0    0    0  501  0.00000000000E+00  0.00000000000E+00 -0.13375434940E+04  0.13375434940E+04  0.25500000920E-02 0.  1.
    10030    2    1    2    0    0  0.00000000000E+00  0.00000000000E+00  0.24108023070E+03  0.29161672187E+04  0.29061850543E+04 0.  0.
        5    1    3    3  502    0 -0.61525996389E+03 -0.23845706051E+02  0.14412457217E+04  0.15672666529E+04  0.46999998093E+01 0. -1.
       -5    1    3    3    0  502  0.61525996389E+03  0.23845706051E+02 -0.12001654910E+04  0.13489005659E+04  0.46999998093E+01 0.  1.
</event>
<event>
 5   0  0.2336512E-06  0.2741762E+04  0.7818609E-02  0.8321580E-01
        1   -1    0    0  501    0  0.00000000000E+00  0.00000000000E+00  0.13846835499E+04  0.13846835499E+04  0.50400001928E-02 0. -1.
       -1   -1    0    0    0  501  0.00000000000E+00  0.00000000000E+00 -0.13572161708E+04  0.13572161708E+04  0.50400001928E-02 0.  1.
    10030    2    1    2    0    0  0.00000000000E+00  0.00000000000E+00  0.27467379049E+02  0.27418997207E+04  0.27417621380E+04 0.  0.
        4    1    3    3  502    0  0.65186258149E+03 -0.97406619876E+03 -0.69734594725E+03  0.13638265167E+04  0.12699999809E+01 0.  1.
       -4    1    3    3    0  502 -0.65186258149E+03  0.97406619876E+03  0.72481332629E+03  0.13780732040E+04  0.12699999809E+01 0. -1.
</event>
<event>
 5   0  0.6513041E-06  0.2892855E+04  0.7818609E-02  0.8275007E-01
       -2   -1    0    0    0  501  0.00000000000E+00  0.00000000000E+00  0.99477445398E+03  0.99477445398E+03  0.25500000920E-02 0.  1.
        2   -1    0    0  501    0  0.00000000000E+00  0.00000000000E+00 -0.21031420499E+04  0.21031420499E+04  0.25500000920E-02 0. -1.
    10030    2    1    2    0    0  0.00000000000E+00  0.00000000000E+00 -0.11083675959E+04  0.30979165039E+04  0.28928546347E+04 0.  0.
        1    1    3    3  502    0 -0.47894276424E+03 -0.13617507915E+04 -0.45603203252E+03  0.15138416708E+04  0.50400001928E-02 0.  1.
       -1    1    3    3    0  502  0.47894276424E+03  0.13617507915E+04 -0.65233556340E+03  0.15840748331E+04  0.50400001928E-02 0. -1.
</event>
<event>
 5   0  0.2474769E-06  0.2906062E+04  0.7818609E-02  0.8271076E-01
        1   -1    0    0  501    0  0.00000000000E+00  0.00000000000E+00  0.23958456728E+04  0.23958456728E+04  0.50400001928E-02 0.  1.
       -1   -1    0    0    0  501  0.00000000000E+00  0.00000000000E+00 -0.88123330163E+03  0.88123330165E+03  0.50400001928E-02 0. -1.
    10030    2    1    2    0    0  0.00000000000E+00  0.00000000000E+00  0.15146123711E+04  0.32770789744E+04  0.29060619350E+04 0.  0.
        1    1    3    3  502    0 -0.75309119286E+03  0.12158076810E+04  0.46768080245E+03  0.15046793661E+04  0.50400001928E-02 0. -1.
       -1    1    3    3    0  502  0.75309119286E+03 -0.12158076810E+04  0.10469315687E+04  0.17723996083E+04  0.50400001928E-02 0.  1.
</event>
<event>
 5   0  0.6513041E-06  0.3100491E+04  0.7818609E-02  0.8215603E-01
        2   -1    0    0  501    0  0.00000000000E+00  0.00000000000E+00  0.17803228427E+04  0.17803228427E+04  0.25500000920E-02 0. -1.
       -2   -1    0    0    0  501  0.00000000000E+00  0.00000000000E+00 -0.13499014458E+04  0.13499014458E+04  0.25500000920E-02 0.  1.
    10030    2    1    2    0    0  0.00000000000E+00  0.00000000000E+00  0.43042139691E+03  0.31302242885E+04  0.31004905285E+04 0.  0.
        1    1    3    3  502    0  0.12490103567E+03  0.80970564967E+03 -0.11134791426E+04  0.13824106875E+04  0.50400001928E-02 0.  1.
       -1    1    3    3    0  502 -0.12490103567E+03 -0.80970564967E+03  0.15439005396E+04  0.17478136010E+04  0.50400001928E-02 0. -1.
</event>
<event>
 5   0  0.2336512E-06  0.2893575E+04  0.7818609E-02  0.8274792E-01
       -1   -1    0    0    0  501  0.00000000000E+00  0.00000000000E+00  0.17823625211E+04  0.17823625211E+04  0.50400001928E-02 0.  1.
        1   -1    0    0  501    0  0.00000000000E+00  0.00000000000E+00 -0.11743928088E+04  0.11743928088E+04  0.50400001928E-02 0. -1.
    10030    2    1    2    0    0  0.00000000000E+00  0.00000000000E+00  0.60796971231E+03  0.29567553300E+04  0.28935747632E+04 0.  0.
        4    1    3    3  502    0  0.10147047283E+04  0.77339185167E+03  0.10011064796E+04  0.16217202096E+04  0.12699999809E+01 0.  1.
       -4    1    3    3    0  502 -0.10147047283E+04 -0.77339185167E+03 -0.39313676726E+03  0.13350351204E+04  0.12699999809E+01 0. -1.
</event>
<event>
 5   0  0.6615403E-06  0.2841505E+04  0.7818609E-02  0.8290497E-01
        2   -1    0    0  501    0  0.00000000000E+00  0.00000000000E+00  0.12215021775E+04  0.12215021775E+04  0.25500000920E-02 0. -1.
       -2   -1    0    0    0  501  0.00000000000E+00  0.00000000000E+00 -0.16525040737E+04  0.16525040737E+04  0.25500000920E-02 0.  1.
    10030    2    1    2    0    0  0.00000000000E+00  0.00000000000E+00 -0.43100189610E+03  0.28740062512E+04  0.28415047594E+04 0.  0.
        2    1    3    3  502    0  0.53256231876E+03 -0.24096665654E+03  0.10942429947E+04  0.12405866695E+04  0.25500000920E-02 0. -1.
       -2    1    3    3    0  502 -0.53256231876E+03  0.24096665654E+03 -0.15252448908E+04  0.16334195817E+04  0.25500000920E-02 0.  1.
</event>
<event>
 5   0  0.6615403E-06  0.2920928E+04  0.7818609E-02  0.8266678E-01
       -2   -1    0    0    0  501  0.00000000000E+00  0.00000000000E+00  0.14846649575E+04  0.14846649575E+04  0.25500000920E-02 0.  1.
        2   -1    0    0  501    0  0.00000000000E+00  0.00000000000E+00 -0.14366575442E+04  0.14366575442E+04  0.25500000920E-02 0. -1.
    10030    2    1    2    0    0  0.00000000000E+00  0.00000000000E+00  0.48007413320E+02  0.29213225017E+04  0.29209280113E+04 0.  0.
        2    1    3    3  502    0  0.45217395629E+03  0.98226452036E+03 -0.95778575612E+03  0.14445270608E+04  0.25500000920E-02 0. -1.
       -2    1    3    3    0  502 -0.45217395629E+03 -0.98226452036E+03  0.10057931694E+04  0.14767954409E+04  0.25500000920E-02 0.  1.
</event>
<event>
 5   0  0.2336512E-06  0.2852936E+04  0.7818609E-02  0.8287020E-01
       -1   -1    0    0    0  501  0.00000000000E+00  0.00000000000E+00  0.17247956722E+04  0.17247956722E+04  0.50400001928E-02 0.  1.
        1   -1    0    0  501    0  0.00000000000E+00  0.00000000000E+00 -0.11797405151E+04  0.11797405152E+04  0.50400001928E-02 0. -1.
    10030    2    1    2    0    0  0.00000000000E+00  0.00000000000E+00  0.54505515706E+03  0.29045361874E+04  0.28529362663E+04 0.  0.
        4    1    3    3  502    0  0.10674214695E+03 -0.52033242474E+02  0.17197542008E+04  0.17238496072E+04  0.12699999809E+01 0.  1.
       -4    1    3    3    0  502 -0.10674214695E+03  0.52033242474E+02 -0.11746990437E+04  0.11806865801E+04  0.12699999809E+01 0. -1.
</event>
<event>
 5   0  0.2348684E-06  0.2689624E+04  0.7818609E-02  0.8338379E-01
       -1   -1    0    0    0  501  0.00000000000E+00  0.00000000000E+00  0.84401124367E+03  0.84401124368E+03  0.50400001928E-02 0. -1.
        1   -1    0    0  501    0  0.00000000000E+00  0.00000000000E+00 -0.21427669754E+04  0.21427669754E+04  0.50400001928E-02 0.  1.
    10030    2    1    2    0    0  0.00000000000E+00  0.00000000000E+00 -0.12987557318E+04  0.29867782191E+04  0.26896240777E+04 0.  0.
        5    1    3    3  502    0  0.73003251078E+03  0.48029789093E+03  0.48574071556E+03  0.99979981175E+03  0.46999998093E+01 0. -1.
       -5    1    3    3    0  502 -0.73003251078E+03 -0.48029789093E+03 -0.17844964473E+04  0.19869784074E+04  0.46999998093E+01 0.  1.
</event>
<event>
 5   0  0.2429358E-06  0.2899566E+04  0.7818609E-02  0.8273007E-01
        1   -1    0    0  501    0  0.00000000000E+00  0.00000000000E+00  0.29772760645E+04  0.29772760645E+04  0.50400001928E-02 0.  1.
       -1   -1    0    0    0  501  0.00000000000E+00  0.00000000000E+00 -0.70597120699E+03  0.70597120701E+03  0.50400001928E-02 0. -1.
    10030    2    1    2    0    0  0.00000000000E+00  0.00000000000E+00  0.22713048575E+04  0.36832472715E+04  0.28995662964E+04 0.  0.
        2    1    3    3  502    0  0.10166857462E+04 -0.10087309900E+04  0.84967665272E+03  0.16652743110E+04  0.25500000920E-02 0. -1.
       -2    1    3    3    0  502 -0.10166857462E+04  0.10087309900E+04  0.14216282048E+04  0.20179729605E+04  0.25500000920E-02 0.  1.
</event>
<event>
 5   0  0.6612533E-06  0.2898305E+04  0.7818609E-02  0.8273382E-01
        2   -1    0    0  501    0  0.00000000000E+00  0.00000000000E+00  0.12884288932E+04  0.12884288932E+04  0.25500000920E-02 0. -1.
       -2   -1    0    0    0  501  0.00000000000E+00  0.00000000000E+00 -0.16299258248E+04  0.16299258248E+04  0.25500000920E-02 0.  1.
    10030    2    1    2    0    0  0.00000000000E+00  0.00000000000E+00 -0.34149693167E+03  0.29183547180E+04  0.28983053852E+04 0.  0.
        3    1    3    3  502    0  0.58198860206E+03 -0.17573082072E+02 -0.15069641589E+04  0.16155372273E+04  0.10100000352E+00 0.  1.
       -3    1    3    3    0  502 -0.58198860206E+03  0.17573082072E+02  0.11654672273E+04  0.13028174907E+04  0.10100000352E+00 0. -1.
</event>
<event>
 5   0  0.2429358E-06  0.2896524E+04  0.7818609E-02  0.8273912E-01
       -1   -1    0    0    0  501  0.00000000000E+00  0.00000000000E+00  0.15672627955E+04  0.15672627955E+04  0.50400001928E-02 0. -1.
        1   -1    0    0  501    0  0.00000000000E+00  0.00000000000E+00 -0.13382968093E+04  0.13382968093E+04  0.50400001928E-02 0.  1.
    10030    2    1    2    0    0  0.00000000000E+00  0.00000000000E+00  0.22896598612E+03  0.29055596048E+04  0.28965239848E+04 0.  0.
        2    1    3    3  502    0  0.36717669548E+03 -0.96518329037E+03  0.11330643973E+04  0.15330467827E+04  0.25500000920E-02 0. -1.
       -2    1    3    3    0  502 -0.36717669548E+03  0.96518329037E+03 -0.90409841115E+03  0.13725128221E+04  0.25500000920E-02 0.  1.
</event>
<event>
 5   0  0.2474769E-06  0.2904603E+04  0.7818609E-02  0.8271509E-01
       -1   -1    0    0    0  501  0.00000000000E+00  0.00000000000E+00  0.16692098817E+04  0.16692098817E+04  0.50400001928E-02 0.  1.
        1   -1    0    0  501    0  0.00000000000E+00  0.00000000000E+00 -0.12635795023E+04  0.12635795024E+04  0.50400001928E-02 0. -1.
    10030    2    1    2    0    0  0.00000000000E+00  0.00000000000E+00  0.40563037932E+03  0.29327893840E+04  0.29046028242E+04 0.  0.
        1    1    3    3  502    0  0.40687800869E+03 -0.13722014053E+04 -0.45934962345E+02  0.14319903740E+04  0.50400001928E-02 0. -1.
       -1    1    3    3    0  502 -0.40687800869E+03  0.13722014053E+04  0.45156534167E+03  0.15007990100E+04  0.50400001928E-02 0.  1.
</event>
<event>
 5   0  0.6513041E-06  0.2792967E+04  0.7818609E-02  0.8305455E-01
        2   -1    0    0  501    0  0.00000000000E+00  0.00000000000E+00  0.23498786806E+04  0.23498786806E+04  0.25500000920E-02 0. -1.
       -2   -1    0    0    0  501  0.00000000000E+00  0.00000000000E+00 -0.82990081722E+03  0.82990081722E+03  0.25500000920E-02 0.  1.
    10030    2    1    2    0    0  0.00000000000E+00  0.00000000000E+00  0.15199778634E+04  0.31797794978E+04  0.27929670513E+04 0.  0.
        1    1    3    3  502    0  0.19680951220E+02 -0.13717403605E+04  0.10571062477E+04  0.17319158685E+04  0.50400001928E-02 0. -1.
       -1    1    3    3    0  502 -0.19680951220E+02  0.13717403605E+04  0.46287161572E+03  0.14478636294E+04  0.50400001928E-02 0.  1.
</event>
<event>
 5   0  0.2348684E-06  0.2903638E+04  0.7818609E-02  0.8271796E-01
        1   -1    0    0  501    0  0.00000000000E+00  0.00000000000E+00  0.15608363854E+04  0.15608363854E+04  0.50400001928E-02 0. -1.
       -1   -1    0    0    0  501  0.00000000000E+00  0.00000000000E+00 -0.13504158396E+04  0.13504158396E+04  0.50400001928E-02 0.  1.
    10030    2    1    2    0    0  0.00000000000E+00  0.00000000000E+00  0.21042054583E+03  0.29112522250E+04  0.29036378409E+04 0.  0.
        5    1    3    3  502    0 -0.91200389043E+03  0.43879549137E+03  0.11488354078E+04  0.15310576291E+04  0.46999998093E+01 0. -1.
       -5    1    3    3    0  502  0.91200389043E+03 -0.43879549137E+03 -0.93841486196E+03  0.13801945959E+04  0.46999998093E+01 0.  1.
</event>
<event>
 5   0  0.2348684E-06  0.2919614E+04  0.7818609E-02  0.8267066E-01
       -1   -1    0    0    0  501  0.00000000000E+00  0.00000000000E+00  0.12894235403E+04  0.12894235403E+04  0.50400001928E-02 0. -1.
        1   -1    0    0  501    0  0.00000000000E+00  0.00000000000E+00 -0.16527045836E+04  0.16527045836E+04  0.50400001928E-02 0.  1.
    10030    2    1    2    0    0  0.00000000000E+00  0.00000000000E+00 -0.36328104327E+03  0.29421281239E+04  0.29196138068E+04 0.  0.
        5    1    3    3  502    0  0.11669360998E+04  0.69235090244E+03 -0.72423904840E+03  0.15380617421E+04  0.46999998093E+01 0.  1.
       -5    1    3    3    0  502 -0.11669360998E+04 -0.69235090244E+03  0.36095800513E+03  0.14040663818E+04  0.46999998093E+01 0. -1.
</event>
<event>
 5   0  0.6615403E-06  0.2926176E+04  0.7818609E-02  0.8265132E-01
       -2   -1    0    0    0  501  0.00000000000E+00  0.00000000000E+00  0.11915647069E+04  0.11915647069E+04  0.25500000920E-02 0.  1.
        2   -1    0    0  501    0  0.00000000000E+00  0.00000000000E+00 -0.17964840471E+04  0.17964840471E+04  0.25500000920E-02 0. -1.
    10030    2    1    2    0    0  0.00000000000E+00  0.00000000000E+00 -0.60491934026E+03  0.29880487540E+04  0.29261763358E+04 0.  0.
        2    1    3    3  502    0 -0.90106950832E+02 -0.52401398878E+01  0.11887190445E+04  0.11921408006E+04  0.25500000920E-02 0.  1.
       -2    1    3    3    0  502  0.90106950832E+02  0.52401398878E+01 -0.17936383848E+04  0.17959079534E+04  0.25500000920E-02 0. -1.
</event>
<event>
 5   0  0.6615403E-06  0.2895126E+04  0.7818609E-02  0.8274329E-01
        2   -1    0    0  501    0  0.00000000000E+00  0.00000000000E+00  0.17210675982E+04  0.17210675982E+04  0.25500000920E-02 0. -1.
       -2   -1    0    0    0  501  0.00000000000E+00  0.00000000000E+00 -0.12175227814E+04  0.12175227814E+04  0.25500000920E-02 0.  1.
    10030    2    1    2    0    0  0.00000000000E+00  0.00000000000E+00  0.50354481677E+03  0.29385903796E+04  0.28951262557E+04 0.  0.
        2    1    3    3  502    0 -0.10620811354E+04 -0.79037865006E+03 -0.34244308117E+03  0.13674728562E+04  0.25500000920E-02 0.  1.
       -2    1    3    3    0  502  0.10620811354E+04  0.79037865006E+03  0.84598789794E+03  0.15711175233E+04  0.25500000920E-02 0. -1.
</event>
<event>
 5   0  0.2508094E-06  0.2934490E+04  0.7818609E-02  0.8262689E-01
        1   -1    0    0  501    0  0.00000000000E+00  0.00000000000E+00  0.21830142171E+04  0.21830142171E+04  0.50400001928E-02 0. -1.
       -1   -1    0    0    0  501  0.00000000000E+00  0.00000000000E+00 -0.98616271877E+03  0.98616271878E+03  0.50400001928E-02 0.  1.
    10030    2    1    2    0    0  0.00000000000E+00  0.00000000000E+00  0.11968514983E+04  0.31691769359E+04  0.29344895539E+04 0.  0.
        3    1    3    3  502    0  0.92115269690E+03  0.23853521153E+03  0.18046118838E+04  0.20401091636E+04  0.10100000352E+00 0. -1.
       -3    1    3    3    0  502 -0.92115269690E+03 -0.23853521153E+03 -0.60776038543E+03  0.11290677723E+04  0.10100000352E+00 0.  1.
</event>
<event>
 5   0  0.6733688E-06  0.2888796E+04  0.7818609E-02  0.8276219E-01
       -2   -1    0    0    0  501  0.00000000000E+00  0.00000000000E+00  0.10185504775E+04  0.10185504775E+04  0.25500000920E-02 0.  1.
        2   -1    0    0  501    0  0.00000000000E+00  0.00000000000E+00 -0.20482890123E+04  0.20482890123E+04  0.25500000920E-02 0. -1.
    10030    2    1    2    0    0  0.00000000000E+00  0.00000000000E+00 -0.10297385347E+04  0.30668394898E+04  0.28887961171E+04 0.  0.
        5    1    3    3  502    0 -0.27047763526E+03 -0.12461612355E+04  0.20531171934E+03  0.12916079003E+04  0.46999998093E+01 0.  1.
       -5    1    3    3    0  502  0.27047763526E+03  0.12461612355E+04 -0.12350502541E+04  0.17752315895E+04  0.46999998093E+01 0. -1.
</event>
<event>
 5   0  0.2336512E-06  0.2843044E+04  0.7818609E-02  0.8290028E-01
        1   -1    0    0  501    0  0.00000000000E+00  0.00000000000E+00  0.17826346282E+04  0.17826346282E+04  0.50400001928E-02 0.  1.
       -1   -1    0    0    0  501  0.00000000000E+00  0.00000000000E+00 -0.11335611191E+04  0.11335611191E+04  0.50400001928E-02 0. -1.
    10030    2    1    2    0    0  0.00000000000E+00  0.00000000000E+00  0.64907350911E+03  0.29161957473E+04  0.28430443570E+04 0.  0.
        4    1    3    3  502    0  0.75237542549E+03  0.92772105237E+03 -0.46600001878E+03  0.12821438150E+04  0.12699999809E+01 0. -1.
       -4    1    3    3    0  502 -0.75237542549E+03 -0.92772105237E+03  0.11150735279E+04  0.16340519323E+04  0.12699999809E+01 0.  1.
</event>
<event>
 5   0  0.6615403E-06  0.2768143E+04  0.7818609E-02  0.8313227E-01
       -2   -1    0    0    0  501  0.00000000000E+00  0.00000000000E+00  0.86474788149E+03  0.86474788150E+03  0.25500000920E-02 0. -1.
        2   -1    0    0  501    0  0.00000000000E+00  0.00000000000E+00 -0.22152751857E+04  0.22152751857E+04  0.25500000920E-02 0.  1.
    10030    2    1    2    0    0  0.00000000000E+00  0.00000000000E+00 -0.13505273042E+04  0.30800230672E+04  0.27681434383E+04 0.  0.
        2    1    3    3  502    0  0.82159127129E+03 -0.55376540994E+03 -0.17505784023E+04  0.20115151227E+04  0.25500000920E-02 0.  1.
       -2    1    3    3    0  502 -0.82159127129E+03  0.55376540994E+03  0.40005109810E+03  0.10685079445E+04  0.25500000920E-02 0. -1.
</event>
<event>
 5   0  0.2348684E-06  0.2921971E+04  0.7818609E-02  0.8266370E-01
       -1   -1    0    0    0  501  0.00000000000E+00  0.00000000000E+00  0.11488921735E+04  0.11488921735E+04  0.50400001928E-02 0.  1.
        1   -1    0    0  501    0  0.00000000000E+00  0.00000000000E+00 -0.18578582783E+04  0.18578582784E+04  0.50400001928E-02 0. -1.
    10030    2    1    2    0    0  0.00000000000E+00  0.00000000000E+00 -0.70896610487E+03  0.30067504518E+04  0.29219711398E+04 0.  0.
        5    1    3    3  502    0 -0.36013698462E+03  0.21544455063E+03  0.10855275955E+04  0.11638330004E+04  0.46999998093E+01 0.  1.
       -5    1    3    3    0  502  0.36013698462E+03 -0.21544455063E+03 -0.17944937004E+04  0.18429174515E+04  0.46999998093E+01 0. -1.
</event>
<event>
 5   0  0.2159500E-06  0.3024848E+04  0.7818609E-02  0.8236671E-01
       -3   -1    0    0    0  501  0.00000000000E+00  0.00000000000E+00  0.12289256452E+04  0.12289256494E+04  0.10100000352E+00 0.  1.
        3   -1    0    0  501    0  0.00000000000E+00  0.00000000000E+00 -0.18613217419E+04  0.18613217447E+04  0.10100000352E+00 0. -1.
    10030    2    1    2    0    0  0.00000000000E+00  0.00000000000E+00 -0.63239609670E+03  0.30902473941E+04  0.30248477868E+04 0.  0.
        2    1    3    3  502    0 -0.73715305321E+02  0.67310720086E+03 -0.16978127107E+04  0.18278608401E+04  0.25500000920E-02 0. -1.
       -2    1    3    3    0  502  0.73715305321E+02 -0.67310720086E+03  0.10654166140E+04  0.12623865539E+04  0.25500000920E-02 0.  1.
</event>
<event>
 5   0  0.2429358E-06  0.2895855E+04  0.7818609E-02  0.8274112E-01
        1   -1    0    0  501    0  0.00000000000E+00  0.00000000000E+00  0.18047590487E+04  0.18047590487E+04  0.50400001928E-02 0.  1.
       -1   -1    0    0    0  501  0.00000000000E+00  0.00000000000E+00 -0.11616475631E+04  0.11616475632E+04  0.50400001928E-02 0. -1.
    10030    2    1    2    0    0  0.00000000000E+00  0.00000000000E+00  0.64311148552E+03  0.29664066118E+04  0.28958549349E+04 0.  0.
        2    1    3    3  502    0  0.59154456516E+03  0.87909998442E+03  0.13323856969E+04  0.17023493767E+04  0.25500000920E-02 0.  1.
       -2    1    3    3    0  502 -0.59154456516E+03 -0.87909998442E+03 -0.68927421136E+03  0.12640572351E+04  0.25500000920E-02 0. -1.
</event>
<event>
 5   0  0.2348684E-06  0.2898667E+04  0.7818609E-02  0.8273274E-01
        1   -1    0    0  501    0  0.00000000000E+00  0.00000000000E+00  0.15413272502E+04  0.15413272502E+04  0.50400001928E-02 0. -1.
       -1   -1    0    0    0  501  0.00000000000E+00  0.00000000000E+00 -0.13628304548E+04  0.13628304548E+04  0.50400001928E-02 0.  1.
    10030    2    1    2    0    0  0.00000000000E+00  0.00000000000E+00  0.17849679541E+03  0.29041577049E+04  0.28986670849E+04 0.  0.
        5    1    3    3  502    0  0.89524649664E+03 -0.40048157436E+03  0.11583656653E+04  0.15177894734E+04  0.46999998093E+01 0. -1.
       -5    1    3    3    0  502 -0.89524649664E+03  0.40048157436E+03 -0.97986886988E+03  0.13863682315E+04  0.46999998093E+01 0.  1.
</event>
<event>
 5   0  0.6615403E-06  0.2887292E+04  0.7818609E-02  0.8276669E-01
       -2   -1    0    0    0  501  0.00000000000E+00  0.00000000000E+00  0.12305472487E+04  0.12305472487E+04  0.25500000920E-02 0. -1.
        2   -1    0    0  501    0  0.00000000000E+00  0.00000000000E+00 -0.16936475503E+04  0.16936475503E+04  0.25500000920E-02 0.  1.
    10030    2    1    2    0    0  0.00000000000E+00  0.00000000000E+00 -0.46310030163E+03  0.29241947990E+04  0.28872916952E+04 0.  0.
        2    1    3    3  502    0 -0.29587968814E+03 -0.57456123098E+03 -0.15389592808E+04  0.16691498034E+04  0.25500000920E-02 0.  1.
       -2    1    3    3    0  502  0.29587968814E+03  0.57456123098E+03  0.10758589792E+04  0.12550449957E+04  0.25500000920E-02 0. -1.
</event>
<event>
 5   0  0.6615403E-06  0.2944239E+04  0.7818609E-02  0.8259836E-01
       -2   -1    0    0    0  501  0.00000000000E+00  0.00000000000E+00  0.18793360741E+04  0.18793360741E+04  0.25500000920E-02 0. -1.
        2   -1    0    0  501    0  0.00000000000E+00  0.00000000000E+00 -0.11531388275E+04  0.11531388275E+04  0.25500000920E-02 0.  1.
    10030    2    1    2    0    0  0.00000000000E+00  0.00000000000E+00  0.72619724654E+03  0.30324749016E+04  0.29442387111E+04 0.  0.
        2    1    3    3  502    0  0.45135331265E+03  0.13388667175E+04 -0.62630725608E+02  0.14142865721E+04  0.25500000920E-02 0. -1.
       -2    1    3    3    0  502 -0.45135331265E+03 -0.13388667175E+04  0.78882797214E+03  0.16181883295E+04  0.25500000920E-02 0.  1.
</event>
<event>
 5   0  0.2336512E-06  0.2894583E+04  0.7818609E-02  0.8274491E-01
       -1   -1    0    0    0  501  0.00000000000E+00  0.00000000000E+00  0.12391612809E+04  0.12391612809E+04  0.50400001928E-02 0. -1.
        1   -1    0    0  501    0  0.00000000000E+00  0.00000000000E+00 -0.16903797217E+04  0.16903797217E+04  0.50400001928E-02 0.  1.
    10030    2    1    2    0    0  0.00000000000E+00  0.00000000000E+00 -0.45121844075E+03  0.29295410026E+04  0.28945832869E+04 0.  0.
        4    1    3    3  502    0 -0.55966192748E+03  0.52210863039E+03  0.10175709070E+04  0.12732914272E+04  0.12699999809E+01 0. -1.
       -4    1    3    3    0  502  0.55966192748E+03 -0.52210863039E+03 -0.14687893478E+04  0.16562495754E+04  0.12699999809E+01 0.  1.
</event>
<event>
 5   0  0.6393633E-06  0.2912437E+04  0.7818609E-02  0.8269187E-01
       -2   -1    0    0    0  501  0.00000000000E+00  0.00000000000E+00  0.89576252230E+03  0.89576252231E+03  0.25500000920E-02 0.  1.
        2   -1    0    0  501    0  0.00000000000E+00  0.00000000000E+00 -0.23673378580E+04  0.23673378580E+04  0.25500000920E-02 0. -1.
    10030    2    1    2    0    0  0.00000000000E+00  0.00000000000E+00 -0.14715753357E+04  0.32631003803E+04  0.29124371450E+04 0.  0.
        4    1    3    3  502    0 -0.11137711500E+04  0.93426273586E+03 -0.64046862492E+03  0.15885637244E+04  0.12699999809E+01 0. -1.
       -4    1    3    3    0  502  0.11137711500E+04 -0.93426273586E+03 -0.83110671076E+03  0.16745366559E+04  0.12699999809E+01 0.  1.
</event>
<event>
 5   0  0.2159500E-06  0.2908738E+04  0.7818609E-02  0.8270283E-01
        3   -1    0    0  501    0  0.00000000000E+00  0.00000000000E+00  0.13752794098E+04  0.13752794135E+04  0.10100000352E+00 0. -1.
       -3   -1    0    0    0  501  0.00000000000E+00  0.00000000000E+00 -0.15380065116E+04  0.15380065149E+04  0.10100000352E+00 0.  1.
    10030    2    1    2    0    0  0.00000000000E+00  0.00000000000E+00 -0.16272710173E+03  0.29132859284E+04  0.29087376628E+04 0.  0.
        3    1    3    3  502    0 -0.43966649925E+02 -0.88694418060E+03 -0.12349395271E+04  0.15210781346E+04  0.10100000352E+00 0. -1.
       -3    1    3    3    0  502  0.43966649925E+02  0.88694418060E+03  0.10722124254E+04  0.13922077938E+04  0.10100000352E+00 0.  1.
</event>
<event>
 5   0  0.2159500E-06  0.2934601E+04  0.7818609E-02  0.8262656E-01
        3   -1    0    0  501    0  0.00000000000E+00  0.00000000000E+00  0.89387592174E+03  0.89387592745E+03  0.10100000352E+00 0.  1.
       -3   -1    0    0    0  501  0.00000000000E+00  0.00000000000E+00 -0.24085797342E+04  0.24085797363E+04  0.10100000352E+00 0. -1.
    10030    2    1    2    0    0  0.00000000000E+00  0.00000000000E+00 -0.15147038125E+04  0.33024556638E+04  0.29346014673E+04 0.  0.
        2    1    3    3  502    0 -0.36007583210E+03 -0.11732282591E+04  0.14773529886E+03  0.12361006721E+04  0.25500000920E-02 0.  1.
       -2    1    3    3    0  502  0.36007583210E+03  0.11732282591E+04 -0.16624391113E+04  0.20663549917E+04  0.25500000920E-02 0. -1.
</event>
<event>
 5   0  0.2508094E-06  0.2899382E+04  0.7818609E-02  0.8273061E-01
       -1   -1    0    0    0  501  0.00000000000E+00  0.00000000000E+00  0.18785180461E+04  0.18785180461E+04  0.50400001928E-02 0. -1.
        1   -1    0    0  501    0  0.00000000000E+00  0.00000000000E+00 -0.11187561514E+04  0.11187561514E+04  0.50400001928E-02 0.  1.
    10030    2    1    2    0    0  0.00000000000E+00  0.00000000000E+00  0.75976189469E+03  0.29972741974E+04  0.28993817407E+04 0.  0.
        3    1    3    3  502    0  0.97194034931E+03 -0.38481171310E+03 -0.65844943283E+03  0.12354366689E+04  0.10100000352E+00 0.  1.
       -3    1    3    3    0  502 -0.97194034931E+03  0.38481171310E+03  0.14182113275E+04  0.17618375285E+04  0.10100000352E+00 0. -1.
</event>
<event>
 5   0  0.6615403E-06  0.2816567E+04  0.7818609E-02  0.8298143E-01
        2   -1    0    0  501    0  0.00000000000E+00  0.00000000000E+00  0.22515075181E+04  0.22515075181E+04  0.25500000920E-02 0.  1.
       -2   -1    0    0    0  501  0.00000000000E+00  0.00000000000E+00 -0.88085998662E+03  0.88085998663E+03  0.25500000920E-02 0. -1.
    10030    2    1    2    0    0  0.00000000000E+00  0.00000000000E+00  0.13706475315E+04  0.31323675048E+04  0.28165673309E+04 0.  0.
        2    1    3    3  502    0  0.68990355435E+03 -0.92458000202E+03  0.15836321514E+04  0.19592615663E+04  0.25500000920E-02 0.  1.
       -2    1    3    3    0  502 -0.68990355435E+03  0.92458000202E+03 -0.21298461987E+03  0.11731059384E+04  0.25500000920E-02 0. -1.
</event>
<event>
 5   0  0.2474769E-06  0.2821253E+04  0.7818609E-02  0.8296700E-01
       -1   -1    0    0    0  501  0.00000000000E+00  0.00000000000E+00  0.11070522733E+04  0.11070522733E+04  0.50400001928E-02 0.  1.
        1   -1    0    0  501    0  0.00000000000E+00  0.00000000000E+00 -0.17974465112E+04  0.17974465112E+04  0.50400001928E-02 0. -1.
    10030    2    1    2    0    0  0.00000000000E+00  0.00000000000E+00 -0.69039423785E+03  0.29044987845E+04  0.28212530878E+04 0.  0.
        1    1    3    3  502    0 -0.85493667226E+02 -0.11038117371E+04  0.55475759581E+03  0.12383317440E+04  0.50400001928E-02 0.  1.
       -1    1    3    3    0  502  0.85493667226E+02  0.11038117371E+04 -0.12451518337E+04  0.16661670405E+04  0.50400001928E-02 0. -1.
</event>
<event>
 5   0  0.6615403E-06  0.2907447E+04  0.7818609E-02  0.8270665E-01
       -2   -1    0    0    0  501  0.00000000000E+00  0.00000000000E+00  0.72838511757E+03  0.72838511758E+03  0.25500000920E-02 0.  1.
        2   -1    0    0  501    0  0.00000000000E+00  0.00000000000E+00 -0.29013671635E+04  0.29013671635E+04  0.25500000920E-02 0. -1.
    10030    2    1    2    0    0  0.00000000000E+00  0.00000000000E+00 -0.21729820460E+04  0.36297522811E+04  0.29074474458E+04 0.  0.
        2    1    3    3  502    0 -0.49211233981E+02  0.14170589137E+04 -0.14868370183E+04  0.20545466725E+04  0.25500000920E-02 0.  1.
       -2    1    3    3    0  502  0.49211233981E+02 -0.14170589137E+04 -0.68614502764E+03  0.15752056086E+04  0.25500000920E-02 0. -1.
</event>
<event>
 5   0  0.6615403E-06  0.2900343E+04  0.7818609E-02  0.8272776E-01
        2   -1    0    0  501    0  0.00000000000E+00  0.00000000000E+00  0.16355369417E+04  0.16355369417E+04  0.25500000920E-02 0. -1.
       -2   -1    0    0    0  501  0.00000000000E+00  0.00000000000E+00 -0.12858142500E+04  0.12858142500E+04  0.25500000920E-02 0.  1.
    10030    2    1    2    0    0  0.00000000000E+00  0.00000000000E+00  0.34972269169E+03  0.29213511917E+04  0.29003425357E+04 0.  0.
        2    1    3    3  502    0 -0.67492333795E+03 -0.89267028814E+03  0.11038298353E+04  0.15718848752E+04  0.25500000920E-02 0. -1.
       -2    1    3    3    0  502  0.67492333795E+03  0.89267028814E+03 -0.75410714363E+03  0.13494663166E+04  0.25500000920E-02 0.  1.
</event>
<event>
 5   0  0.2508094E-06  0.2888228E+04  0.7818609E-02  0.8276389E-01
       -1   -1    0    0    0  501  0.00000000000E+00  0.00000000000E+00  0.99926054033E+03  0.99926054034E+03  0.50400001928E-02 0.  1.
        1   -1    0    0  501    0  0.00000000000E+00  0.00000000000E+00 -0.20870089628E+04  0.20870089628E+04  0.50400001928E-02 0. -1.
    10030    2    1    2    0    0  0.00000000000E+00  0.00000000000E+00 -0.10877484225E+04  0.30862695031E+04  0.28882283177E+04 0.  0.
        3    1    3    3  502    0  0.90956534126E+02  0.92945138780E+03 -0.17209073789E+04  0.19579773212E+04  0.10100000352E+00 0. -1.
       -3    1    3    3    0  502 -0.90956534126E+02 -0.92945138780E+03  0.63315895648E+03  0.11282921819E+04  0.10100000352E+00 0.  1.
</event>
<event>
 5   0  0.2474769E-06  0.2990734E+04  0.7818609E-02  0.8246382E-01
       -1   -1    0    0    0  501  0.00000000000E+00  0.00000000000E+00  0.33780287886E+04  0.33780287886E+04  0.50400001928E-02 0.  1.
        1   -1    0    0  501    0  0.00000000000E+00  0.00000000000E+00 -0.66196095841E+03  0.66196095843E+03  0.50400001928E-02 0. -1.
    10030    2    1    2    0    0  0.00000000000E+00  0.00000000000E+00  0.27160678302E+04  0.40399897471E+04  0.29907344747E+04 0.  0.
        1    1    3    3  502    0  0.22835860889E+03 -0.10407602397E+04 -0.59245118839E+02  0.10671642399E+04  0.50400001928E-02 0. -1.
       -1    1    3    3    0  502 -0.22835860889E+03  0.10407602397E+04  0.27753129491E+04  0.29728255072E+04  0.50400001928E-02 0.  1.
</event>
<event>
 5   0  0.2508094E-06  0.2547714E+04  0.7818609E-02  0.8386182E-01
        1   -1    0    0  501    0  0.00000000000E+00  0.00000000000E+00  0.12241585406E+04  0.12241585406E+04  0.50400001928E-02 0. -1.
       -1   -1    0    0    0  501  0.00000000000E+00  0.00000000000E+00 -0.13255726599E+04  0.13255726600E+04  0.50400001928E-02 0.  1.
    10030    2    1    2    0    0  0.00000000000E+00  0.00000000000E+00 -0.10141411938E+03  0.25497312005E+04  0.25477135576E+04 0.  0.
        3    1    3    3  502    0 -0.12543275035E+04 -0.25740493247E+01 -0.27306981173E+03  0.12837099532E+04  0.10100000352E+00 0. -1.
       -3    1    3    3    0  502  0.12543275035E+04  0.25740493247E+01  0.17165569235E+03  0.12660212473E+04  0.10100000352E+00 0.  1.
</event>
<event>
 5   0  0.2159500E-06  0.2845280E+04  0.7818609E-02  0.8289347E-01
       -3   -1    0    0    0  501  0.00000000000E+00  0.00000000000E+00  0.87802269112E+03  0.87802269693E+03  0.10100000352E+00 0. -1.
        3   -1    0    0  501    0  0.00000000000E+00  0.00000000000E+00 -0.23050716519E+04  0.23050716541E+04  0.10100000352E+00 0.  1.
    10030    2    1    2    0    0  0.00000000000E+00  0.00000000000E+00 -0.14270489608E+04  0.31830943510E+04  0.28452804627E+04 0.  0.
        1    1    3    3  502    0 -0.10518586789E+04 -0.95083195094E+03 -0.84310942379E+03  0.16496428643E+04  0.50400001928E-02 0. -1.
       -1    1    3    3    0  502  0.10518586789E+04  0.95083195094E+03 -0.58393953699E+03  0.15334514867E+04  0.50400001928E-02 0.  1.
</event>
<event>
 5   0  0.2336512E-06  0.2919184E+04  0.7818609E-02  0.8267193E-01
       -1   -1    0    0    0  501  0.00000000000E+00  0.00000000000E+00  0.87308613450E+03  0.87308613451E+03  0.50400001928E-02 0.  1.
        1   -1    0    0  501    0  0.00000000000E+00  0.00000000000E+00 -0.24400894900E+04  0.24400894901E+04  0.50400001928E-02 0. -1.
    10030    2    1    2    0    0  0.00000000000E+00  0.00000000000E+00 -0.15670033555E+04  0.33131756246E+04  0.29191836535E+04 0.  0.
        4    1    3    3  502    0  0.99191887950E+03  0.40259024402E+03  0.34259141453E+03  0.11239895277E+04  0.12699999809E+01 0.  1.
       -4    1    3    3    0  502 -0.99191887950E+03 -0.40259024402E+03 -0.19095947701E+04  0.21891860969E+04  0.12699999809E+01 0. -1.
</event>
<event>
 5   0  0.2336512E-06  0.2872798E+04  0.7818609E-02  0.8281017E-01
        1   -1    0    0  501    0  0.00000000000E+00  0.00000000000E+00  0.16263214579E+04  0.16263214579E+04  0.50400001928E-02 0.  1.
       -1   -1    0    0    0  501  0.00000000000E+00  0.00000000000E+00 -0.12686556763E+04  0.12686556764E+04  0.50400001928E-02 0. -1.
    10030    2    1    2    0    0  0.00000000000E+00  0.00000000000E+00  0.35766578154E+03  0.28949771342E+04  0.28727979039E+04 0.  0.
        4    1    3    3  502    0 -0.23195927249E+03 -0.12762742128E+04  0.80049052307E+03  0.15242925115E+04  0.12699999809E+01 0.  1.
       -4    1    3    3    0  502  0.23195927249E+03  0.12762742128E+04 -0.44282474152E+03  0.13706846227E+04  0.12699999809E+01 0. -1.
</event>
<event>
 5   0  0.6513041E-06  0.2876594E+04  0.7818609E-02  0.8279876E-01
        2   -1    0    0  501    0  0.00000000000E+00  0.00000000000E+00  0.10543370336E+04  0.10543370336E+04  0.25500000920E-02 0. -1.
       -2   -1    0    0    0  501  0.00000000000E+00  0.00000000000E+00 -0.19620844357E+04  0.19620844357E+04  0.25500000920E-02 0.  1.
    10030    2    1    2    0    0  0.00000000000E+00  0.00000000000E+00 -0.90774740211E+03  0.30164214693E+04  0.28765940163E+04 0.  0.
        1    1    3    3  502    0 -0.13738434740E+04  0.35137387317E+03 -0.70595188744E+03  0.15840699344E+04  0.50400001928E-02 0. -1.
       -1    1    3    3    0  502  0.13738434740E+04 -0.35137387317E+03 -0.20179551467E+03  0.14323515349E+04  0.50400001928E-02 0.  1.
</event>
<event>
 5   0  0.6612533E-06  0.2988914E+04  0.7818609E-02  0.8246904E-01
        2   -1    0    0  501    0  0.00000000000E+00  0.00000000000E+00  0.32942404289E+04  0.32942404289E+04  0.25500000920E-02 0. -1.
       -2   -1    0    0    0  501  0.00000000000E+00  0.00000000000E+00 -0.67797148770E+03  0.67797148771E+03  0.25500000920E-02 0.  1.
    10030    2    1    2    0    0  0.00000000000E+00  0.00000000000E+00  0.26162689412E+04  0.39722119166E+04  0.29889135715E+04 0.  0.
        3    1    3    3  502    0 -0.97397336441E+03 -0.10797623898E+04  0.17663733924E+04  0.22879217436E+04  0.10100000352E+00 0. -1.
       -3    1    3    3    0  502  0.97397336441E+03  0.10797623898E+04  0.84989554884E+03  0.16842901731E+04  0.10100000352E+00 0.  1.
</event>
<event>
 5   0  0.2159500E-06  0.2971891E+04  0.7818609E-02  0.8251803E-01
       -3   -1    0    0    0  501  0.00000000000E+00  0.00000000000E+00  0.11169593396E+04  0.11169593441E+04  0.10100000352E+00 0.  1.
        3   -1    0    0  501    0  0.00000000000E+00  0.00000000000E+00 -0.19768253887E+04  0.19768253913E+04  0.10100000352E+00 0. -1.
    10030    2    1    2    0    0  0.00000000000E+00  0.00000000000E+00 -0.85986604915E+03  0.30937847355E+04  0.29718907057E+04 0.  0.
        2    1    3    3  502    0  0.94015107885E+03  0.11241885133E+04 -0.68567081839E+03  0.16179704372E+04  0.25500000920E-02 0. -1.
       -2    1    3    3    0  502 -0.94015107885E+03 -0.11241885133E+04 -0.17419523076E+03  0.14758142982E+04  0.25500000920E-02 0.  1.
</event>
<event>
 5   0  0.6615403E-06  0.2511933E+04  0.7818609E-02  0.8398747E-01
       -2   -1    0    0    0  501  0.00000000000E+00  0.00000000000E+00  0.14499376744E+04  0.14499376744E+04  0.25500000920E-02 0. -1.
        2   -1    0    0  501    0  0.00000000000E+00  0.00000000000E+00 -0.10879446171E+04  0.10879446171E+04  0.25500000920E-02 0.  1.
    10030    2    1    2    0    0  0.00000000000E+00  0.00000000000E+00  0.36199305735E+03  0.25378822915E+04  0.25119330310E+04 0.  0.
        2    1    3    3  502    0 -0.10974617368E+04  0.22570948760E+03  0.75438448711E+03  0.13507268380E+04  0.25500000920E-02 0. -1.
       -2    1    3    3    0  502  0.10974617368E+04 -0.22570948760E+03 -0.39239142976E+03  0.11871554535E+04  0.25500000920E-02 0.  1.
</event>
<event>
 5   0  0.6393633E-06  0.2867796E+04  0.7818609E-02  0.8282524E-01
        2   -1    0    0  501    0  0.00000000000E+00  0.00000000000E+00  0.15542355363E+04  0.15542355363E+04  0.25500000920E-02 0. -1.
       -2   -1    0    0    0  501  0.00000000000E+00  0.00000000000E+00 -0.13228780527E+04  0.13228780527E+04  0.25500000920E-02 0.  1.
    10030    2    1    2    0    0  0.00000000000E+00  0.00000000000E+00  0.23135748366E+03  0.28771135890E+04  0.28677964221E+04 0.  0.
        4    1    3    3  502    0  0.13708339677E+04 -0.41989852962E+03  0.13946070429E+03  0.14404691747E+04  0.12699999809E+01 0.  1.
       -4    1    3    3    0  502 -0.13708339677E+04  0.41989852962E+03  0.91896779371E+02  0.14366444143E+04  0.12699999809E+01 0. -1.
</event>
<event>
 5   0  0.2336512E-06  0.2906953E+04  0.7818609E-02  0.8270812E-01
        1   -1    0    0  501    0  0.00000000000E+00  0.00000000000E+00  0.15384268983E+04  0.15384268983E+04  0.50400001928E-02 0. -1.
       -1   -1    0    0    0  501  0.00000000000E+00  0.00000000000E+00 -0.13732168207E+04  0.13732168207E+04  0.50400001928E-02 0.  1.
    10030    2    1    2    0    0  0.00000000000E+00  0.00000000000E+00  0.16521007760E+03  0.29116437191E+04  0.29069528336E+04 0.  0.
        4    1    3    3  502    0 -0.61174582244E+03  0.12320737315E+04 -0.38757065505E+03  0.14291435395E+04  0.12699999809E+01 0.  1.
       -4    1    3    3    0  502  0.61174582244E+03 -0.12320737315E+04  0.55278073265E+03  0.14825001795E+04  0.12699999809E+01 0. -1.
</event>
<event>
 5   0  0.6733688E-06  0.2894366E+04  0.7818609E-02  0.8274556E-01
        2   -1    0    0  501    0  0.00000000000E+00  0.00000000000E+00  0.15128851201E+04  0.15128851201E+04  0.25500000920E-02 0. -1.
       -2   -1    0    0    0  501  0.00000000000E+00  0.00000000000E+00 -0.13843340138E+04  0.13843340138E+04  0.25500000920E-02 0.  1.
    10030    2    1    2    0    0  0.00000000000E+00  0.00000000000E+00  0.12855110630E+03  0.28972191338E+04  0.28943657893E+04 0.  0.
        5    1    3    3  502    0 -0.10653489981E+04  0.97267732486E+03 -0.50931673353E+02  0.14434977629E+04  0.46999998093E+01 0. -1.
       -5    1    3    3    0  502  0.10653489981E+04 -0.97267732486E+03  0.17948277966E+03  0.14537213709E+04  0.46999998093E+01 0.  1.
</event>
<event>
 5   0  0.6513041E-06  0.2900566E+04  0.7818609E-02  0.8272709E-01
        2   -1    0    0  501    0  0.00000000000E+00  0.00000000000E+00  0.16239074989E+04  0.16239074989E+04  0.25500000920E-02 0.  1.
       -2   -1    0    0    0  501  0.00000000000E+00  0.00000000000E+00 -0.12952220280E+04  0.12952220280E+04  0.25500000920E-02 0. -1.
    10030    2    1    2    0    0  0.00000000000E+00  0.00000000000E+00  0.32868547088E+03  0.29191295270E+04  0.29005659890E+04 0.  0.
        1    1    3    3  502    0  0.10443896292E+04 -0.25731846634E+03 -0.81469269128E+03  0.13493282299E+04  0.50400001928E-02 0. -1.
       -1    1    3    3    0  502 -0.10443896292E+04  0.25731846634E+03  0.11433781622E+04  0.15698012971E+04  0.50400001928E-02 0.  1.
</event>
<event>
 5   0  0.2336512E-06  0.2876323E+04  0.7818609E-02  0.8279957E-01
       -1   -1    0    0    0  501  0.00000000000E+00  0.00000000000E+00  0.16280952577E+04  0.16280952577E+04  0.50400001928E-02 0.  1.
        1   -1    0    0  501    0  0.00000000000E+00  0.00000000000E+00 -0.12703849981E+04  0.12703849981E+04  0.50400001928E-02 0. -1.
    10030    2    1    2    0    0  0.00000000000E+00  0.00000000000E+00  0.35771025960E+03  0.28984802558E+04  0.28763225069E+04 0.  0.
        4    1    3    3  502    0 -0.53547936976E+03  0.68754028030E+03  0.13317209534E+04  0.15915188038E+04  0.12699999809E+01 0.  1.
       -4    1    3    3    0  502  0.53547936976E+03 -0.68754028030E+03 -0.97401069376E+03  0.13069614520E+04  0.12699999809E+01 0. -1.
</event>
<event>
 5   0  0.2508094E-06  0.2851499E+04  0.7818609E-02  0.8287456E-01
        1   -1    0    0  501    0  0.00000000000E+00  0.00000000000E+00  0.16658662171E+04  0.16658662171E+04  0.50400001928E-02 0.  1.
       -1   -1    0    0    0  501  0.00000000000E+00  0.00000000000E+00 -0.12202426440E+04  0.12202426440E+04  0.50400001928E-02 0. -1.
    10030    2    1    2    0    0  0.00000000000E+00  0.00000000000E+00  0.44562357312E+03  0.28861088611E+04  0.28514985515E+04 0.  0.
        3    1    3    3  502    0  0.84282846768E+03  0.11240577560E+04  0.46844096400E+03  0.14809802874E+04  0.10100000352E+00 0.  1.
       -3    1    3    3    0  502 -0.84282846768E+03 -0.11240577560E+04 -0.22817390885E+02  0.14051285736E+04  0.10100000352E+00 0. -1.
</event>
<event>
 5   0  0.6393633E-06  0.2889622E+04  0.7818609E-02  0.8275972E-01
       -2   -1    0    0    0  501  0.00000000000E+00  0.00000000000E+00  0.16130247826E+04  0.16130247826E+04  0.25500000920E-02 0. -1.
        2   -1    0    0  501    0  0.00000000000E+00  0.00000000000E+00 -0.12941393499E+04  0.12941393499E+04  0.25500000920E-02 0.  1.
    10030    2    1    2    0    0  0.00000000000E+00  0.00000000000E+00  0.31888543265E+03  0.29071641325E+04  0.28896220123E+04 0.  0.
        4    1    3    3  502    0  0.10404377666E+04 -0.74688323483E+03  0.83218132256E+03  0.15273744397E+04  0.12699999809E+01 0. -1.
       -4    1    3    3    0  502 -0.10404377666E+04  0.74688323483E+03 -0.51329588991E+03  0.13797896927E+04  0.12699999809E+01 0.  1.
</event>
<event>
 5   0  0.6612533E-06  0.2904058E+04  0.7818609E-02  0.8271671E-01
        2   -1    0    0  501    0  0.00000000000E+00  0.00000000000E+00  0.19944567263E+04  0.19944567263E+04  0.25500000920E-02 0.  1.
       -2   -1    0    0    0  501  0.00000000000E+00  0.00000000000E+00 -0.10571242789E+04  0.10571242789E+04  0.25500000920E-02 0. -1.
    10030    2    1    2    0    0  0.00000000000E+00  0.00000000000E+00  0.93733244737E+03  0.30515810052E+04  0.29040582836E+04 0.  0.
        3    1    3    3  502    0  0.35404979305E+03  0.77050668481E+03  0.17072530939E+04  0.19062384279E+04  0.10100000352E+00 0.  1.
       -3    1    3    3    0  502 -0.35404979305E+03 -0.77050668481E+03 -0.76992064651E+03  0.11453425773E+04  0.10100000352E+00 0. -1.
</event>
<event>
 5   0  0.6615403E-06  0.2890094E+04  0.7818609E-02  0.8275831E-01
       -2   -1    0    0    0  501  0.00000000000E+00  0.00000000000E+00  0.95950422511E+03  0.95950422512E+03  0.25500000920E-02 0.  1.
        2   -1    0    0  501    0  0.00000000000E+00  0.00000000000E+00 -0.21762913555E+04  0.21762913555E+04  0.25500000920E-02 0. -1.
    10030    2    1    2    0    0  0.00000000000E+00  0.00000000000E+00 -0.12167871304E+04  0.31357955807E+04  0.28900939436E+04 0.  0.
        2    1    3    3  502    0 -0.86948168530E+02  0.90278659285E+03 -0.18290124748E+04  0.20415362473E+04  0.25500000920E-02 0. -1.
       -2    1    3    3    0  502  0.86948168530E+02 -0.90278659285E+03  0.61222534438E+03  0.10942593333E+04  0.25500000920E-02 0.  1.
</event>
<event>
 5   0  0.6615403E-06  0.2901700E+04  0.7818609E-02  0.8272372E-01
        2   -1    0    0  501    0  0.00000000000E+00  0.00000000000E+00  0.23223141596E+04  0.23223141596E+04  0.25500000920E-02 0.  1.
       -2   -1    0    0    0  501  0.00000000000E+00  0.00000000000E+00 -0.90640865869E+03  0.90640865869E+03  0.25500000920E-02 0. -1.
    10030    2    1    2    0    0  0.00000000000E+00  0.00000000000E+00  0.14159055009E+04  0.32287228183E+04  0.29016999586E+04 0.  0.
        2    1    3    3  502    0  0.53875874814E+03 -0.35846215219E+03 -0.73693474636E+03  0.98072877170E+03  0.25500000920E-02 0. -1.
       -2    1    3    3    0  502 -0.53875874814E+03  0.35846215219E+03  0.21528402473E+04  0.22479940466E+04  0.25500000920E-02 0.  1.
</event>
<event>
 5   0  0.6393633E-06  0.2894583E+04  0.7818609E-02  0.8274491E-01
        2   -1    0    0  501    0  0.00000000000E+00  0.00000000000E+00  0.19196153323E+04  0.19196153323E+04  0.25500000920E-02 0. -1.
       -2   -1    0    0    0  501  0.00000000000E+00  0.00000000000E+00 -0.10911831947E+04  0.10911831948E+04  0.25500000920E-02 0.  1.
    10030    2    1    2    0    0  0.00000000000E+00  0.00000000000E+00  0.82843213753E+03  0.30107985270E+04  0.28945825198E+04 0.  0.
        4    1    3    3  502    0  0.37761199848E+03  0.13246731125E+04  0.87623532305E+03  0.16325255375E+04  0.12699999809E+01 0. -1.
       -4    1    3    3    0  502 -0.37761199848E+03 -0.13246731125E+04 -0.47803185520E+02  0.13782729895E+04  0.12699999809E+01 0.  1.
</event>
<event>
 5   0  0.6733688E-06  0.2857616E+04  0.7818609E-02  0.8285601E-01
        2   -1    0    0  501    0  0.00000000000E+00  0.00000000000E+00  0.15936297123E+04  0.15936297123E+04  0.25500000920E-02 0.  1.
       -2   -1    0    0    0  501  0.00000000000E+00  0.00000000000E+00 -0.12810328685E+04  0.12810328685E+04  0.25500000920E-02 0. -1.
    10030    2    1    2    0    0  0.00000000000E+00  0.00000000000E+00  0.31259684379E+03  0.28746625808E+04  0.28576158186E+04 0.  0.
        5    1    3    3  502    0 -0.97934920280E+03  0.10246628401E+04 -0.24806513629E+02  0.14176375595E+04  0.46999998093E+01 0. -1.
       -5    1    3    3    0  502  0.97934920280E+03 -0.10246628401E+04  0.33740335742E+03  0.14570250213E+04  0.46999998093E+01 0.  1.
</event>
<event>
 5   0  0.6733688E-06  0.2944669E+04  0.7818609E-02  0.8259710E-01
       -2   -1    0    0    0  501  0.00000000000E+00  0.00000000000E+00  0.16453411429E+04  0.16453411429E+04  0.25500000920E-02 0.  1.
        2   -1    0    0  501    0  0.00000000000E+00  0.00000000000E+00 -0.13175196913E+04  0.13175196913E+04  0.25500000920E-02 0. -1.
    10030    2    1    2    0    0  0.00000000000E+00  0.00000000000E+00  0.32782145160E+03  0.29628608342E+04  0.29446693224E+04 0.  0.
        5    1    3    3  502    0  0.37579343648E+03  0.13200316074E+04  0.70016016772E+03  0.15407629610E+04  0.46999998093E+01 0.  1.
       -5    1    3    3    0  502 -0.37579343648E+03 -0.13200316074E+04 -0.37233871612E+03  0.14220978732E+04  0.46999998093E+01 0. -1.
</event>
<event>
 5   0  0.6612533E-06  0.2881745E+04  0.7818609E-02  0.8278330E-01
        2   -1    0    0  501    0  0.00000000000E+00  0.00000000000E+00  0.12816511726E+04  0.12816511726E+04  0.25500000920E-02 0.  1.
       -2   -1    0    0    0  501  0.00000000000E+00  0.00000000000E+00 -0.16198740143E+04  0.16198740143E+04  0.25500000920E-02 0. -1.
    10030    2    1    2    0    0  0.00000000000E+00  0.00000000000E+00 -0.33822284173E+03  0.29015251868E+04  0.28817449088E+04 0.  0.
        3    1    3    3  502    0  0.82222243326E+03 -0.59968705106E+03  0.85790916559E+03  0.13310456174E+04  0.10100000352E+00 0.  1.
       -3    1    3    3    0  502 -0.82222243326E+03  0.59968705106E+03 -0.11961320073E+04  0.15704795695E+04  0.10100000352E+00 0. -1.
</event>
<event>
 5   0  0.2474769E-06  0.2841659E+04  0.7818609E-02  0.8290450E-01
        1   -1    0    0  501    0  0.00000000000E+00  0.00000000000E+00  0.15769068362E+04  0.15769068362E+04  0.50400001928E-02 0. -1.
       -1   -1    0    0    0  501  0.00000000000E+00  0.00000000000E+00 -0.12802001868E+04  0.12802001868E+04  0.50400001928E-02 0.  1.
    10030    2    1    2    0    0  0.00000000000E+00  0.00000000000E+00  0.29670664939E+03  0.28571070231E+04  0.28416589706E+04 0.  0.
        1    1    3    3  502    0  0.44092341816E+03  0.12857559947E+04  0.56433487634E+03  0.14717526257E+04  0.50400001928E-02 0. -1.
       -1    1    3    3    0  502 -0.44092341816E+03 -0.12857559947E+04 -0.26762822695E+03  0.13853543974E+04  0.50400001928E-02 0.  1.
</event>
<event>
 5   0  0.2474769E-06  0.2919807E+04  0.7818609E-02  0.8267009E-01
        1   -1    0    0  501    0  0.00000000000E+00  0.00000000000E+00  0.11026067668E+04  0.11026067668E+04  0.50400001928E-02 0. -1.
       -1   -1    0    0    0  501  0.00000000000E+00  0.00000000000E+00 -0.19329815307E+04  0.19329815307E+04  0.50400001928E-02 0.  1.
    10030    2    1    2    0    0  0.00000000000E+00  0.00000000000E+00 -0.83037476391E+03  0.30355882975E+04  0.29198071962E+04 0.  0.
        1    1    3    3  502    0 -0.44544523917E+03  0.74396597187E+02  0.10281583224E+04  0.11229718833E+04  0.50400001928E-02 0. -1.
       -1    1    3    3    0  502  0.44544523917E+03 -0.74396597187E+02 -0.18585330863E+04  0.19126164142E+04  0.50400001928E-02 0.  1.
</event>
<event>
 5   0  0.6615403E-06  0.2887464E+04  0.7818609E-02  0.8276617E-01
        2   -1    0    0  501    0  0.00000000000E+00  0.00000000000E+00  0.14330884149E+04  0.14330884149E+04  0.25500000920E-02 0. -1.
       -2   -1    0    0    0  501  0.00000000000E+00  0.00000000000E+00 -0.14544547538E+04  0.14544547538E+04  0.25500000920E-02 0.  1.
    10030    2    1    2    0    0  0.00000000000E+00  0.00000000000E+00 -0.21366338941E+02  0.28875431687E+04  0.28874641177E+04 0.  0.
        2    1    3    3  502    0  0.26024794399E+03 -0.47308039484E+01  0.14094299617E+04  0.14332634753E+04  0.25500000920E-02 0. -1.
       -2    1    3    3    0  502 -0.26024794399E+03  0.47308039484E+01 -0.14307963006E+04  0.14542796934E+04  0.25500000920E-02 0.  1.
</event>
<event>
 5   0  0.6393633E-06  0.2801407E+04  0.7818609E-02  0.8302832E-01
       -2   -1    0    0    0  501  0.00000000000E+00  0.00000000000E+00  0.10063375864E+04  0.10063375864E+04  0.25500000920E-02 0.  1.
        2   -1    0    0  501    0  0.00000000000E+00  0.00000000000E+00 -0.19496151043E+04  0.19496151043E+04  0.25500000920E-02 0. -1.
    10030    2    1    2    0    0  0.00000000000E+00  0.00000000000E+00 -0.94327751796E+03  0.29559526907E+04  0.28014074738E+04 0.  0.
        4    1    3    3  502    0  0.24624264354E+03  0.85243961494E+03  0.67197954011E+03  0.11130349733E+04  0.12699999809E+01 0.  1.
       -4    1    3    3    0  502 -0.24624264354E+03 -0.85243961494E+03 -0.16152570581E+04  0.18429177174E+04  0.12699999809E+01 0. -1.
</event>
<event>
 5   0  0.2348684E-06  0.2861805E+04  0.7818609E-02  0.8284333E-01
       -1   -1    0    0    0  501  0.00000000000E+00  0.00000000000E+00  0.15245396915E+04  0.15245396915E+04  0.50400001928E-02 0.  1.
        1   -1    0    0  501    0  0.00000000000E+00  0.00000000000E+00 -0.13430160891E+04  0.13430160891E+04  0.50400001928E-02 0. -1.
    10030    2    1    2    0    0  0.00000000000E+00  0.00000000000E+00  0.18152360247E+03  0.28675557806E+04  0.28618045595E+04 0.  0.
        5    1    3    3  502    0  0.41361748043E+03 -0.49213969558E+03 -0.11901570846E+04  0.13526924543E+04  0.46999998093E+01 0. -1.
       -5    1    3    3    0  502 -0.41361748043E+03  0.49213969558E+03  0.13716806870E+04  0.15148633263E+04  0.46999998093E+01 0.  1.
</event>
<event>
 5   0  0.6513041E-06  0.2898235E+04  0.7818609E-02  0.8273403E-01
       -2   -1    0    0    0  501  0.00000000000E+00  0.00000000000E+00  0.84531151247E+03  0.84531151248E+03  0.25500000920E-02 0.  1.
        2   -1    0    0  501    0  0.00000000000E+00  0.00000000000E+00 -0.24842216765E+04  0.24842216765E+04  0.25500000920E-02 0. -1.
    10030    2    1    2    0    0  0.00000000000E+00  0.00000000000E+00 -0.16389101641E+04  0.33295331890E+04  0.28982347612E+04 0.  0.
        1    1    3    3  502    0  0.10379041468E+04 -0.80153489845E+03 -0.15278534132E+04  0.20134644928E+04  0.50400001928E-02 0. -1.
       -1    1    3    3    0  502 -0.10379041468E+04  0.80153489845E+03 -0.11105675082E+03  0.13160686962E+04  0.50400001928E-02 0.  1.
</event>
<event>
 5   0  0.2348684E-06  0.2888222E+04  0.7818609E-02  0.8276390E-01
       -1   -1    0    0    0  501  0.00000000000E+00  0.00000000000E+00  0.14061212761E+04  0.14061212761E+04  0.50400001928E-02 0.  1.
        1   -1    0    0  501    0  0.00000000000E+00  0.00000000000E+00 -0.14831271755E+04  0.14831271755E+04  0.50400001928E-02 0. -1.
    10030    2    1    2    0    0  0.00000000000E+00  0.00000000000E+00 -0.77005899425E+02  0.28892484517E+04  0.28882220668E+04 0.  0.
        5    1    3    3  502    0  0.87464938889E+03  0.10764915776E+04 -0.44062704062E+03  0.14553418667E+04  0.46999998093E+01 0. -1.
       -5    1    3    3    0  502 -0.87464938889E+03 -0.10764915776E+04  0.36362114119E+03  0.14339065850E+04  0.46999998093E+01 0.  1.
</event>
<event>
 5   0  0.2336512E-06  0.2930694E+04  0.7818609E-02  0.8263803E-01
        1   -1    0    0  501    0  0.00000000000E+00  0.00000000000E+00  0.11421072244E+04  0.11421072244E+04  0.50400001928E-02 0.  1.
       -1   -1    0    0    0  501  0.00000000000E+00  0.00000000000E+00 -0.18800700357E+04  0.18800700357E+04  0.50400001928E-02 0. -1.
    10030    2    1    2    0    0  0.00000000000E+00  0.00000000000E+00 -0.73796281133E+03  0.30221772601E+04  0.29306938224E+04 0.  0.
        4    1    3    3  502    0  0.11064668718E+03  0.10208390615E+04  0.70906310634E+03  0.12478490216E+04  0.12699999809E+01 0.  1.
       -4    1    3    3    0  502 -0.11064668718E+03 -0.10208390615E+04 -0.14470259177E+04  0.17743282386E+04  0.12699999809E+01 0. -1.
</event>
<event>
 5   0  0.2474769E-06  0.2912704E+04  0.7818609E-02  0.8269108E-01
       -1   -1    0    0    0  501  0.00000000000E+00  0.00000000000E+00  0.75241718036E+03  0.75241718037E+03  0.50400001928E-02 0.  1.
        1   -1    0    0  501    0  0.00000000000E+00  0.00000000000E+00 -0.28188632555E+04  0.28188632555E+04  0.50400001928E-02 0. -1.
    10030    2    1    2    0    0  0.00000000000E+00  0.00000000000E+00 -0.20664460752E+04  0.35712804359E+04  0.29127039963E+04 0.  0.
        1    1    3    3  502    0  0.22650592610E+03 -0.96300519891E+03 -0.23436516170E+04  0.25438920672E+04  0.50400001928E-02 0. -1.
       -1    1    3    3    0  502 -0.22650592610E+03  0.96300519891E+03  0.27720554183E+03  0.10273883687E+04  0.50400001928E-02 0.  1.
</event>
<event>
 5   0  0.2474769E-06  0.2565015E+04  0.7818609E-02  0.8380183E-01
       -1   -1    0    0    0  501  0.00000000000E+00  0.00000000000E+00  0.13066881736E+04  0.13066881736E+04  0.50400001928E-02 0.  1.
        1   -1    0    0  501    0  0.00000000000E+00  0.00000000000E+00 -0.12587740689E+04  0.12587740689E+04  0.50400001928E-02 0. -1.
    10030    2    1    2    0    0  0.00000000000E+00  0.00000000000E+00  0.47914104641E+02  0.25654622425E+04  0.25650147673E+04 0.  0.
        1    1    3    3  502    0 -0.99919253407E+03 -0.38657099597E+03 -0.68114985904E+03  0.12695621236E+04  0.50400001928E-02 0. -1.
       -1    1    3    3    0  502  0.99919253407E+03  0.38657099597E+03  0.72906396368E+03  0.12959001189E+04  0.50400001928E-02 0.  1.
</event>
<event>
 5   0  0.2474769E-06  0.2344590E+04  0.7818609E-02  0.8460544E-01
        1   -1    0    0  501    0  0.00000000000E+00  0.00000000000E+00  0.12346993409E+04  0.12346993409E+04  0.50400001928E-02 0.  1.
       -1   -1    0    0    0  501  0.00000000000E+00  0.00000000000E+00 -0.11130451001E+04  0.11130451001E+04  0.50400001928E-02 0. -1.
    10030    2    1    2    0    0  0.00000000000E+00  0.00000000000E+00  0.12165424077E+03  0.23477444410E+04  0.23445904133E+04 0.  0.
        1    1    3    3  502    0 -0.56056369618E+03 -0.48076685069E+03  0.97249552629E+03  0.12211125955E+04  0.50400001928E-02 0.  1.
       -1    1    3    3    0  502  0.56056369618E+03  0.48076685069E+03 -0.85084128552E+03  0.11266318455E+04  0.50400001928E-02 0. -1.
</event>
<event>
 5   0  0.2429358E-06  0.2890455E+04  0.7818609E-02  0.8275723E-01
        1   -1    0    0  501    0  0.00000000000E+00  0.00000000000E+00  0.14084878802E+04  0.14084878802E+04  0.50400001928E-02 0. -1.
       -1   -1    0    0    0  501  0.00000000000E+00  0.00000000000E+00 -0.14829251188E+04  0.14829251188E+04  0.50400001928E-02 0.  1.
    10030    2    1    2    0    0  0.00000000000E+00  0.00000000000E+00 -0.74437238670E+02  0.28914129990E+04  0.28904546750E+04 0.  0.
        2    1    3    3  502    0 -0.60086285531E+03 -0.11188128083E+04 -0.72730514165E+03  0.14634722546E+04  0.25500000920E-02 0.  1.
       -2    1    3    3    0  502  0.60086285531E+03  0.11188128083E+04  0.65286790298E+03  0.14279407444E+04  0.25500000920E-02 0. -1.
</event>
<event>
 5   0  0.2348684E-06  0.2893481E+04  0.7818609E-02  0.8274820E-01
       -1   -1    0    0    0  501  0.00000000000E+00  0.00000000000E+00  0.22425985622E+04  0.22425985622E+04  0.50400001928E-02 0. -1.
        1   -1    0    0  501    0  0.00000000000E+00  0.00000000000E+00 -0.93331797169E+03  0.93331797171E+03  0.50400001928E-02 0.  1.
    10030    2    1    2    0    0  0.00000000000E+00  0.00000000000E+00  0.13092805905E+04  0.31759165339E+04  0.28934806316E+04 0.  0.
        5    1    3    3  502    0 -0.55199520464E+03  0.58599232118E+03 -0.66475482023E+03  0.10440338919E+04  0.46999998093E+01 0.  1.
       -5    1    3    3    0  502  0.55199520464E+03 -0.58599232118E+03  0.19740354107E+04  0.21318826420E+04  0.46999998093E+01 0. -1.
</event>
<event>
 5   0  0.6612533E-06  0.2916010E+04  0.7818609E-02  0.8268130E-01
       -2   -1    0    0    0  501  0.00000000000E+00  0.00000000000E+00  0.10574777504E+04  0.10574777504E+04  0.25500000920E-02 0. -1.
        2   -1    0    0  501    0  0.00000000000E+00  0.00000000000E+00 -0.20102354555E+04  0.20102354555E+04  0.25500000920E-02 0.  1.
    10030    2    1    2    0    0  0.00000000000E+00  0.00000000000E+00 -0.95275770513E+03  0.30677132059E+04  0.29160104714E+04 0.  0.
        3    1    3    3  502    0 -0.18186110357E+03  0.13027455794E+04 -0.11380340440E+04  0.17393507413E+04  0.10100000352E+00 0.  1.
       -3    1    3    3    0  502  0.18186110357E+03 -0.13027455794E+04  0.18527633888E+03  0.13283624647E+04  0.10100000352E+00 0. -1.
</event>
<event>
 5   0  0.2508094E-06  0.2899480E+04  0.7818609E-02  0.8273032E-01
        1   -1    0    0  501    0  0.00000000000E+00  0.00000000000E+00  0.17256835485E+04  0.17256835485E+04  0.50400001928E-02 0.  1.
       -1   -1    0    0    0  501  0.00000000000E+00  0.00000000000E+00 -0.12179209934E+04  0.12179209934E+04  0.50400001928E-02 0. -1.
    10030    2    1    2    0    0  0.00000000000E+00  0.00000000000E+00  0.50776255506E+03  0.29436045419E+04  0.28994801063E+04 0.  0.
        3    1    3    3  502    0 -0.54535961060E+03 -0.44148451726E+03 -0.10340541784E+04  0.12496374426E+04  0.10100000352E+00 0. -1.
       -3    1    3    3    0  502  0.54535961060E+03  0.44148451726E+03  0.15418167335E+04  0.16939670993E+04  0.10100000352E+00 0.  1.
</event>
<event>
 5   0  0.2429358E-06  0.2858688E+04  0.7818609E-02  0.8285276E-01
       -1   -1    0    0    0  501  0.00000000000E+00  0.00000000000E+00  0.97290645821E+03  0.97290645822E+03  0.50400001928E-02 0. -1.
        1   -1    0    0  501    0  0.00000000000E+00  0.00000000000E+00 -0.20999183286E+04  0.20999183286E+04  0.50400001928E-02 0.  1.
    10030    2    1    2    0    0  0.00000000000E+00  0.00000000000E+00 -0.11270118704E+04  0.30728247868E+04  0.28586878834E+04 0.  0.
        2    1    3    3  502    0  0.13965716549E+04  0.10927084206E+03 -0.86880915912E+03  0.16483876544E+04  0.25500000920E-02 0. -1.
       -2    1    3    3    0  502 -0.13965716549E+04 -0.10927084206E+03 -0.25820271127E+03  0.14244371324E+04  0.25500000920E-02 0.  1.
</event>
<event>
 5   0  0.6733688E-06  0.2906169E+04  0.7818609E-02  0.8271045E-01
       -2   -1    0    0    0  501  0.00000000000E+00  0.00000000000E+00  0.11161228503E+04  0.11161228503E+04  0.25500000920E-02 0.  1.
        2   -1    0    0  501    0  0.00000000000E+00  0.00000000000E+00 -0.18917756001E+04  0.18917756001E+04  0.25500000920E-02 0. -1.
    10030    2    1    2    0    0  0.00000000000E+00  0.00000000000E+00 -0.77565274988E+03  0.30078984504E+04  0.29061685945E+04 0.  0.
        5    1    3    3  502    0  0.94475324202E+03 -0.29397833906E+03  0.71359086466E+03  0.12199245732E+04  0.46999998093E+01 0.  1.
       -5    1    3    3    0  502 -0.94475324202E+03  0.29397833906E+03 -0.14892436145E+04  0.17879738772E+04  0.46999998093E+01 0. -1.
</event>
<event>
 5   0  0.6612533E-06  0.2864700E+04  0.7818609E-02  0.8283459E-01
       -2   -1    0    0    0  501  0.00000000000E+00  0.00000000000E+00  0.12260042412E+04  0.12260042412E+04  0.25500000920E-02 0.  1.
        2   -1    0    0  501    0  0.00000000000E+00  0.00000000000E+00 -0.16734247639E+04  0.16734247639E+04  0.25500000920E-02 0. -1.
    10030    2    1    2    0    0  0.00000000000E+00  0.00000000000E+00 -0.44742052269E+03  0.28994290052E+04  0.28646995360E+04 0.  0.
        3    1    3    3  502    0 -0.48587504178E+03 -0.91272617597E+02  0.11369164283E+04  0.12397516776E+04  0.10100000352E+00 0.  1.
       -3    1    3    3    0  502  0.48587504178E+03  0.91272617597E+02 -0.15843369510E+04  0.16596773275E+04  0.10100000352E+00 0. -1.
</event>
<event>
 5   0  0.2474769E-06  0.2897763E+04  0.7818609E-02  0.8273543E-01
       -1   -1    0    0    0  501  0.00000000000E+00  0.00000000000E+00  0.10725302224E+04  0.10725302224E+04  0.50400001928E-02 0.  1.
        1   -1    0    0  501    0  0.00000000000E+00  0.00000000000E+00 -0.19572942863E+04  0.19572942863E+04  0.50400001928E-02 0. -1.
    10030    2    1    2    0    0  0.00000000000E+00  0.00000000000E+00 -0.88476406389E+03  0.30298245087E+04  0.28977627758E+04 0.  0.
        1    1    3    3  502    0 -0.15722055215E+03 -0.95591970666E+03  0.68410242847E+03  0.11859582287E+04  0.50400001928E-02 0.  1.
       -1    1    3    3    0  502  0.15722055215E+03  0.95591970666E+03 -0.15688664924E+04  0.18438662800E+04  0.50400001928E-02 0. -1.
</event>
<event>
 5   0  0.6393633E-06  0.2861710E+04  0.7818609E-02  0.8284362E-01
        2   -1    0    0  501    0  0.00000000000E+00  0.00000000000E+00  0.14986947782E+04  0.14986947782E+04  0.25500000920E-02 0.  1.
       -2   -1    0    0    0  501  0.00000000000E+00  0.00000000000E+00 -0.13660857593E+04  0.13660857593E+04  0.25500000920E-02 0. -1.
    10030    2    1    2    0    0  0.00000000000E+00  0.00000000000E+00  0.13260901897E+03  0.28647805375E+04  0.28617096946E+04 0.  0.
        4    1    3    3  502    0  0.37365587247E+03  0.10924780545E+04 -0.77971594930E+03  0.13932284755E+04  0.12699999809E+01 0. -1.
       -4    1    3    3    0  502 -0.37365587247E+03 -0.10924780545E+04  0.91232496827E+03  0.14715520620E+04  0.12699999809E+01 0.  1.
</event>
<event>
 5   0  0.6513041E-06  0.2883766E+04  0.7818609E-02  0.8277724E-01
        2   -1    0    0  501    0  0.00000000000E+00  0.00000000000E+00  0.12942407842E+04  0.12942407842E+04  0.25500000920E-02 0. -1.
       -2   -1    0    0    0  501  0.00000000000E+00  0.00000000000E+00 -0.16063673101E+04  0.16063673101E+04  0.25500000920E-02 0.  1.
    10030    2    1    2    0    0  0.00000000000E+00  0.00000000000E+00 -0.31212652587E+03  0.29006080943E+04  0.28837656542E+04 0.  0.
        1    1    3    3  502    0 -0.94243960111E+03 -0.49529164934E+03 -0.11341208331E+04  0.15555501547E+04  0.50400001928E-02 0.  1.
       -1    1    3    3    0  502  0.94243960111E+03  0.49529164934E+03  0.82199430727E+03  0.13450579396E+04  0.50400001928E-02 0. -1.
</event>
<event>
 5   0  0.6612533E-06  0.2911572E+04  0.7818609E-02  0.8269443E-01
        2   -1    0    0  501    0  0.00000000000E+00  0.00000000000E+00  0.15941698105E+04  0.15941698105E+04  0.25500000920E-02 0. -1.
       -2   -1    0    0    0  501  0.00000000000E+00  0.00000000000E+00 -0.13294147947E+04  0.13294147947E+04  0.25500000920E-02 0.  1.
    10030    2    1    2    0    0  0.00000000000E+00  0.00000000000E+00  0.26475501581E+03  0.29235846052E+04  0.29115720367E+04 0.  0.
        3    1    3    3  502    0  0.11124489978E+04  0.72611347460E+02  0.10724547239E+04  0.15469241499E+04  0.10100000352E+00 0. -1.
       -3    1    3    3    0  502 -0.11124489978E+04 -0.72611347460E+02 -0.80769970809E+03  0.13766604553E+04  0.10100000352E+00 0.  1.
</event>
<event>
 5   0  0.2348684E-06  0.2899922E+04  0.7818609E-02  0.8272901E-01
        1   -1    0    0  501    0  0.00000000000E+00  0.00000000000E+00  0.22963683273E+04  0.22963683273E+04  0.50400001928E-02 0. -1.
       -1   -1    0    0    0  501  0.00000000000E+00  0.00000000000E+00 -0.91552682409E+03  0.91552682411E+03  0.50400001928E-02 0.  1.
    10030    2    1    2    0    0  0.00000000000E+00  0.00000000000E+00  0.13808415032E+04  0.32118951514E+04  0.28999219311E+04 0.  0.
        5    1    3    3  502    0  0.34555801986E+03 -0.73740835794E+03 -0.63829812792E+03  0.10347115644E+04  0.46999998093E+01 0.  1.
       -5    1    3    3    0  502 -0.34555801986E+03  0.73740835794E+03  0.20191396311E+04  0.21771835870E+04  0.46999998093E+01 0. -1.
</event>
<event>
 5   0  0.2429358E-06  0.2884245E+04  0.7818609E-02  0.8277580E-01
       -1   -1    0    0    0  501  0.00000000000E+00  0.00000000000E+00  0.22324216196E+04  0.22324216197E+04  0.50400001928E-02 0. -1.
        1   -1    0    0  501    0  0.00000000000E+00  0.00000000000E+00 -0.93159705973E+03  0.93159705974E+03  0.50400001928E-02 0.  1.
    10030    2    1    2    0    0  0.00000000000E+00  0.00000000000E+00  0.13008245599E+04  0.31640186794E+04  0.28842450776E+04 0.  0.
        2    1    3    3  502    0 -0.95706878748E+02  0.10178747542E+04 -0.46534500784E+03  0.11232874958E+04  0.25500000920E-02 0.  1.
       -2    1    3    3    0  502  0.95706878748E+02 -0.10178747542E+04  0.17661695678E+04  0.20407311836E+04  0.25500000920E-02 0. -1.
</event>
<event>
 5   0  0.2508094E-06  0.2964456E+04  0.7818609E-02  0.8253954E-01
        1   -1    0    0  501    0  0.00000000000E+00  0.00000000000E+00  0.15642382014E+04  0.15642382014E+04  0.50400001928E-02 0. -1.
       -1   -1    0    0    0  501  0.00000000000E+00  0.00000000000E+00 -0.14045170818E+04  0.14045170819E+04  0.50400001928E-02 0.  1.
    10030    2    1    2    0    0  0.00000000000E+00  0.00000000000E+00  0.15972111954E+03  0.29687552832E+04  0.29644556154E+04 0.  0.
        3    1    3    3  502    0  0.91120130333E+03  0.87559444147E+03 -0.69588921079E+03  0.14426417591E+04  0.10100000352E+00 0.  1.
       -3    1    3    3    0  502 -0.91120130333E+03 -0.87559444147E+03  0.85561033032E+03  0.15261135242E+04  0.10100000352E+00 0. -1.
</event>
<event>
 5   0  0.6615403E-06  0.2886240E+04  0.7818609E-02  0.8276983E-01
       -2   -1    0    0    0  501  0.00000000000E+00  0.00000000000E+00  0.11942910295E+04  0.11942910295E+04  0.25500000920E-02 0. -1.
        2   -1    0    0  501    0  0.00000000000E+00  0.00000000000E+00 -0.17437917549E+04  0.17437917549E+04  0.25500000920E-02 0.  1.
    10030    2    1    2    0    0  0.00000000000E+00  0.00000000000E+00 -0.54950072545E+03  0.29380827844E+04  0.28862396644E+04 0.  0.
        2    1    3    3  502    0 -0.92634480623E+02 -0.11658285251E+04 -0.11354297318E+04  0.16300116481E+04  0.25500000920E-02 0.  1.
       -2    1    3    3    0  502  0.92634480623E+02  0.11658285251E+04  0.58592900640E+03  0.13080711363E+04  0.25500000920E-02 0. -1.
</event>
<event>
 5   0  0.6393633E-06  0.2884868E+04  0.7818609E-02  0.8277394E-01
       -2   -1    0    0    0  501  0.00000000000E+00  0.00000000000E+00  0.14899368037E+04  0.14899368037E+04  0.25500000920E-02 0.  1.
        2   -1    0    0  501    0  0.00000000000E+00  0.00000000000E+00 -0.13964456895E+04  0.13964456895E+04  0.25500000920E-02 0. -1.
    10030    2    1    2    0    0  0.00000000000E+00  0.00000000000E+00  0.93491114192E+02  0.28863824932E+04  0.28848679881E+04 0.  0.
        4    1    3    3  502    0  0.91092150375E+03  0.16226555335E+03  0.11539005347E+04  0.14790524510E+04  0.12699999809E+01 0.  1.
       -4    1    3    3    0  502 -0.91092150375E+03 -0.16226555335E+03 -0.10604094205E+04  0.14073300423E+04  0.12699999809E+01 0. -1.
</event>
<event>
 5   0  0.2429358E-06  0.2930501E+04  0.7818609E-02  0.8263860E-01
       -1   -1    0    0    0  501  0.00000000000E+00  0.00000000000E+00  0.17913343388E+04  0.17913343388E+04  0.50400001928E-02 0. -1.
        1   -1    0    0  501    0  0.00000000000E+00  0.00000000000E+00 -0.11985253352E+04  0.11985253352E+04  0.50400001928E-02 0.  1.
    10030    2    1    2    0    0  0.00000000000E+00  0.00000000000E+00  0.59280900359E+03  0.29898596740E+04  0.29305013830E+04 0.  0.
        2    1    3    3  502    0 -0.73143525129E+03 -0.12694555710E+04  0.31791750413E+03  0.14991952885E+04  0.25500000920E-02 0. -1.
       -2    1    3    3    0  502  0.73143525129E+03  0.12694555710E+04  0.27489149946E+03  0.14906643855E+04  0.25500000920E-02 0.  1.
</event>
<event>
 5   0  0.2348684E-06  0.2860005E+04  0.7818609E-02  0.8284877E-01
        1   -1    0    0  501    0  0.00000000000E+00  0.00000000000E+00  0.16619715218E+04  0.16619715218E+04  0.50400001928E-02 0.  1.
       -1   -1    0    0    0  501  0.00000000000E+00  0.00000000000E+00 -0.12304108159E+04  0.12304108159E+04  0.50400001928E-02 0. -1.
    10030    2    1    2    0    0  0.00000000000E+00  0.00000000000E+00  0.43156070587E+03  0.28923823376E+04  0.28600054098E+04 0.  0.
        5    1    3    3  502    0 -0.73413466006E+03 -0.12270108891E+04  0.23539645453E+03  0.14491180082E+04  0.46999998093E+01 0. -1.
       -5    1    3    3    0  502  0.73413466006E+03  0.12270108891E+04  0.19616425134E+03  0.14432643294E+04  0.46999998093E+01 0.  1.
</event>
<event>
 5   0  0.2429358E-06  0.2833504E+04  0.7818609E-02  0.8292942E-01
        1   -1    0    0  501    0  0.00000000000E+00  0.00000000000E+00  0.97386220616E+03  0.97386220618E+03  0.50400001928E-02 0. -1.
       -1   -1    0    0    0  501  0.00000000000E+00  0.00000000000E+00 -0.20610579484E+04  0.20610579484E+04  0.50400001928E-02 0.  1.
    10030    2    1    2    0    0  0.00000000000E+00  0.00000000000E+00 -0.10871957422E+04  0.30349201545E+04  0.28335041490E+04 0.  0.
        2    1    3    3  502    0  0.18698135001E+03  0.84082080178E+03  0.66119030445E+03  0.10858702798E+04  0.25500000920E-02 0. -1.
       -2    1    3    3    0  502 -0.18698135001E+03 -0.84082080178E+03 -0.17483860466E+04  0.19490498747E+04  0.25500000920E-02 0.  1.
</event>
<event>
 5   0  0.6615403E-06  0.2913470E+04  0.7818609E-02  0.8268881E-01
       -2   -1    0    0    0  501  0.00000000000E+00  0.00000000000E+00  0.19499009494E+04  0.19499009494E+04  0.25500000920E-02 0. -1.
        2   -1    0    0  501    0  0.00000000000E+00  0.00000000000E+00 -0.10882996397E+04  0.10882996398E+04  0.25500000920E-02 0.  1.
    10030    2    1    2    0    0  0.00000000000E+00  0.00000000000E+00  0.86160130967E+03  0.30382005892E+04  0.29134697533E+04 0.  0.
        2    1    3    3  502    0  0.35925153597E+01 -0.14097697138E+04  0.48196793527E+02  0.14105979168E+04  0.25500000920E-02 0. -1.
       -2    1    3    3    0  502 -0.35925153597E+01  0.14097697138E+04  0.81340451614E+03  0.16276026723E+04  0.25500000920E-02 0.  1.
</event>
<event>
 5   0  0.6612533E-06  0.2979568E+04  0.7818609E-02  0.8249590E-01
       -2   -1    0    0    0  501  0.00000000000E+00  0.00000000000E+00  0.10652408741E+04  0.10652408741E+04  0.25500000920E-02 0.  1.
        2   -1    0    0  501    0  0.00000000000E+00  0.00000000000E+00 -0.20835254221E+04  0.20835254221E+04  0.25500000920E-02 0. -1.
    10030    2    1    2    0    0  0.00000000000E+00  0.00000000000E+00 -0.10182845480E+04  0.31487662962E+04  0.29795680505E+04 0.  0.
        3    1    3    3  502    0 -0.85648380131E+03  0.14969849651E+03 -0.17875837594E+04  0.19878203764E+04  0.10100000352E+00 0. -1.
       -3    1    3    3    0  502  0.85648380131E+03 -0.14969849651E+03  0.76929921141E+03  0.11609459198E+04  0.10100000352E+00 0.  1.
</event>
<event>
 5   0  0.6615403E-06  0.2907194E+04  0.7818609E-02  0.8270740E-01
       -2   -1    0    0    0  501  0.00000000000E+00  0.00000000000E+00  0.13604390267E+04  0.13604390267E+04  0.25500000920E-02 0.  1.
        2   -1    0    0  501    0  0.00000000000E+00  0.00000000000E+00 -0.15531337825E+04  0.15531337825E+04  0.25500000920E-02 0. -1.
    10030    2    1    2    0    0  0.00000000000E+00  0.00000000000E+00 -0.19269475578E+03  0.29135728093E+04  0.29071937063E+04 0.  0.
        2    1    3    3  502    0  0.11597265547E+03  0.10654255109E+03 -0.15445589295E+04  0.15525666681E+04  0.25500000920E-02 0. -1.
       -2    1    3    3    0  502 -0.11597265547E+03 -0.10654255109E+03  0.13518641738E+04  0.13610061412E+04  0.25500000920E-02 0.  1.
</event>
<event>
 5   0  0.2508094E-06  0.2889416E+04  0.7818609E-02  0.8276033E-01
       -1   -1    0    0    0  501  0.00000000000E+00  0.00000000000E+00  0.16429286663E+04  0.16429286663E+04  0.50400001928E-02 0. -1.
        1   -1    0    0  501    0  0.00000000000E+00  0.00000000000E+00 -0.12704029426E+04  0.12704029427E+04  0.50400001928E-02 0.  1.
    10030    2    1    2    0    0  0.00000000000E+00  0.00000000000E+00  0.37252572369E+03  0.29133316090E+04  0.28894161433E+04 0.  0.
        3    1    3    3  502    0  0.84211722383E+03  0.96693080373E+03  0.85740336960E+03  0.15424840830E+04  0.10100000352E+00 0.  1.
       -3    1    3    3    0  502 -0.84211722383E+03 -0.96693080373E+03 -0.48487764591E+03  0.13708475260E+04  0.10100000352E+00 0. -1.
</event>
<event>
 5   0  0.2348684E-06  0.2892330E+04  0.7818609E-02  0.8275163E-01
        1   -1    0    0  501    0  0.00000000000E+00  0.00000000000E+00  0.15824630603E+04  0.15824630603E+04  0.50400001928E-02 0.  1.
       -1   -1    0    0    0  501  0.00000000000E+00  0.00000000000E+00 -0.13216061842E+04  0.13216061842E+04  0.50400001928E-02 0. -1.
    10030    2    1    2    0    0  0.00000000000E+00  0.00000000000E+00  0.26085687608E+03  0.29040692445E+04  0.28923298337E+04 0.  0.
        5    1    3    3  502    0  0.25846036596E+03 -0.13968257642E+04  0.40253930536E+03  0.14764768737E+04  0.46999998093E+01 0.  1.
       -5    1    3    3    0  502 -0.25846036596E+03  0.13968257642E+04 -0.14168242928E+03  0.14275923708E+04  0.46999998093E+01 0. -1.
</event>
<event>
 5   0  0.6733688E-06  0.2894348E+04  0.7818609E-02  0.8274561E-01
       -2   -1    0    0    0  501  0.00000000000E+00  0.00000000000E+00  0.12834135023E+04  0.12834135023E+04  0.25500000920E-02 0. -1.
        2   -1    0    0  501    0  0.00000000000E+00  0.00000000000E+00 -0.16318299525E+04  0.16318299525E+04  0.25500000920E-02 0.  1.
    10030    2    1    2    0    0  0.00000000000E+00  0.00000000000E+00 -0.34841645022E+03  0.29152434549E+04  0.28943480057E+04 0.  0.
        5    1    3    3  502    0  0.59040196585E+03  0.53776267874E+03  0.10413713643E+04  0.13123412622E+04  0.46999998093E+01 0. -1.
       -5    1    3    3    0  502 -0.59040196585E+03 -0.53776267874E+03 -0.13897878145E+04  0.16029021927E+04  0.46999998093E+01 0.  1.
</event>
<event>
 5   0  0.2348684E-06  0.2874792E+04  0.7818609E-02  0.8280417E-01
       -1   -1    0    0    0  501  0.00000000000E+00  0.00000000000E+00  0.85274397118E+03  0.85274397119E+03  0.50400001928E-02 0. -1.
        1   -1    0    0  501    0  0.00000000000E+00  0.00000000000E+00 -0.24228936450E+04  0.24228936450E+04  0.50400001928E-02 0.  1.
    10030    2    1    2    0    0  0.00000000000E+00  0.00000000000E+00 -0.15701496738E+04  0.32756376162E+04  0.28747924785E+04 0.  0.
        5    1    3    3  502    0 -0.10215886680E+04 -0.80683658524E+03 -0.14795292251E+04  0.19706997488E+04  0.46999998093E+01 0.  1.
       -5    1    3    3    0  502  0.10215886680E+04  0.80683658524E+03 -0.90620448661E+02  0.13049378674E+04  0.46999998093E+01 0. -1.
</event>
<event>
 5   0  0.2429358E-06  0.3075085E+04  0.7818609E-02  0.8222609E-01
        1   -1    0    0  501    0  0.00000000000E+00  0.00000000000E+00  0.11633366576E+04  0.11633366576E+04  0.50400001928E-02 0.  1.
       -1   -1    0    0    0  501  0.00000000000E+00  0.00000000000E+00 -0.20321171770E+04  0.20321171770E+04  0.50400001928E-02 0. -1.
    10030    2    1    2    0    0  0.00000000000E+00  0.00000000000E+00 -0.86878051939E+03  0.31954538346E+04  0.30750846522E+04 0.  0.
        2    1    3    3  502    0  0.62218093975E+03  0.10395213547E+04  0.54941163360E+03  0.13302506951E+04  0.25500000920E-02 0.  1.
       -2    1    3    3    0  502 -0.62218093975E+03 -0.10395213547E+04 -0.14181921530E+04  0.18652031395E+04  0.25500000920E-02 0. -1.
</event>
<event>
 5   0  0.6733688E-06  0.2906829E+04  0.7818609E-02  0.8270849E-01
        2   -1    0    0  501    0  0.00000000000E+00  0.00000000000E+00  0.13479005452E+04  0.13479005452E+04  0.25500000920E-02 0.  1.
       -2   -1    0    0    0  501  0.00000000000E+00  0.00000000000E+00 -0.15671881530E+04  0.15671881530E+04  0.25500000920E-02 0. -1.
    10030    2    1    2    0    0  0.00000000000E+00  0.00000000000E+00 -0.21928760776E+03  0.29150886983E+04  0.29068290393E+04 0.  0.
        5    1    3    3  502    0 -0.80893698908E+03 -0.86726234546E+02 -0.13174293564E+04  0.15484000424E+04  0.46999998093E+01 0. -1.
       -5    1    3    3    0  502  0.80893698908E+03  0.86726234546E+02  0.10981417486E+04  0.13666886559E+04  0.46999998093E+01 0.  1.
</event>
<event>
 5   0  0.2474769E-06  0.2898192E+04  0.7818609E-02  0.8273416E-01
        1   -1    0    0  501    0  0.00000000000E+00  0.00000000000E+00  0.17496631545E+04  0.17496631545E+04  0.50400001928E-02 0.  1.
       -1   -1    0    0    0  501  0.00000000000E+00  0.00000000000E+00 -0.12001615827E+04  0.12001615827E+04  0.50400001928E-02 0. -1.
    10030    2    1    2    0    0  0.00000000000E+00  0.00000000000E+00  0.54950157183E+03  0.29498247373E+04  0.28981915056E+04 0.  0.
        1    1    3    3  502    0 -0.10436131720E+04  0.79068837671E+03 -0.35724795322E+03  0.13571818824E+04  0.50400001928E-02 0. -1.
       -1    1    3    3    0  502  0.10436131720E+04 -0.79068837671E+03  0.90674952505E+03  0.15926428548E+04  0.50400001928E-02 0.  1.
</event>
<event>
 5   0  0.6612533E-06  0.2918887E+04  0.7818609E-02  0.8267280E-01
        2   -1    0    0  501    0  0.00000000000E+00  0.00000000000E+00  0.16794897602E+04  0.16794897602E+04  0.25500000920E-02 0. -1.
       -2   -1    0    0    0  501  0.00000000000E+00  0.00000000000E+00 -0.12682274244E+04  0.12682274244E+04  0.25500000920E-02 0.  1.
    10030    2    1    2    0    0  0.00000000000E+00  0.00000000000E+00  0.41126233576E+03  0.29477171846E+04  0.29188867556E+04 0.  0.
        3    1    3    3  502    0 -0.79027352151E+03 -0.12109051260E+04  0.40545292263E+03  0.15017375089E+04  0.10100000352E+00 0. -1.
       -3    1    3    3    0  502  0.79027352151E+03  0.12109051260E+04  0.58094131302E+01  0.14459796757E+04  0.10100000352E+00 0.  1.
</event>
<event>
 5   0  0.6513041E-06  0.2885683E+04  0.7818609E-02  0.8277150E-01
       -2   -1    0    0    0  501  0.00000000000E+00  0.00000000000E+00  0.10601624121E+04  0.10601624121E+04  0.25500000920E-02 0. -1.
        2   -1    0    0  501    0  0.00000000000E+00  0.00000000000E+00 -0.19636529703E+04  0.19636529703E+04  0.25500000920E-02 0.  1.
    10030    2    1    2    0    0  0.00000000000E+00  0.00000000000E+00 -0.90349055822E+03  0.30238153824E+04  0.28856826364E+04 0.  0.
        1    1    3    3  502    0 -0.86810152696E+03 -0.85233572173E+03 -0.12645795193E+04  0.17547757134E+04  0.50400001928E-02 0.  1.
       -1    1    3    3    0  502  0.86810152696E+03  0.85233572173E+03  0.36108896112E+03  0.12690396690E+04  0.50400001928E-02 0. -1.
</event>
<event>
 5   0  0.6612533E-06  0.2841978E+04  0.7818609E-02  0.8290353E-01
        2   -1    0    0  501    0  0.00000000000E+00  0.00000000000E+00  0.11026744179E+04  0.11026744179E+04  0.25500000920E-02 0.  1.
       -2   -1    0    0    0  501  0.00000000000E+00  0.00000000000E+00 -0.18311927256E+04  0.18311927256E+04  0.25500000920E-02 0. -1.
    10030    2    1    2    0    0  0.00000000000E+00  0.00000000000E+00 -0.72851830766E+03  0.29338671435E+04  0.28419777429E+04 0.  0.
        3    1    3    3  502    0 -0.60223914464E+03  0.45551167504E+03  0.87841691086E+03  0.11583605453E+04  0.10100000352E+00 0.  1.
       -3    1    3    3    0  502  0.60223914464E+03 -0.45551167504E+03 -0.16069352185E+04  0.17755065982E+04  0.10100000352E+00 0. -1.
</event>
<event>
 5   0  0.2429358E-06  0.2876931E+04  0.7818609E-02  0.8279774E-01
       -1   -1    0    0    0  501  0.00000000000E+00  0.00000000000E+00  0.28162800662E+04  0.28162800662E+04  0.50400001928E-02 0. -1.
        1   -1    0    0  501    0  0.00000000000E+00  0.00000000000E+00 -0.73472217850E+03  0.73472217852E+03  0.50400001928E-02 0.  1.
    10030    2    1    2    0    0  0.00000000000E+00  0.00000000000E+00  0.20815578877E+04  0.35510022447E+04  0.28769312995E+04 0.  0.
        2    1    3    3  502    0 -0.96160781513E+03  0.75459100044E+03  0.19768050261E+04  0.23241891660E+04  0.25500000920E-02 0. -1.
       -2    1    3    3    0  502  0.96160781513E+03 -0.75459100044E+03  0.10475286157E+03  0.12268130787E+04  0.25500000920E-02 0.  1.
</event>
<event>
 5   0  0.6393633E-06  0.2930373E+04  0.7818609E-02  0.8263898E-01
        2   -1    0    0  501    0  0.00000000000E+00  0.00000000000E+00  0.19661815384E+04  0.19661815384E+04  0.25500000920E-02 0.  1.
       -2   -1    0    0    0  501  0.00000000000E+00  0.00000000000E+00 -0.10918477152E+04  0.10918477152E+04  0.25500000920E-02 0. -1.
    10030    2    1    2    0    0  0.00000000000E+00  0.00000000000E+00  0.87433382321E+03  0.30580292535E+04  0.29303725499E+04 0.  0.
        4    1    3    3  502    0  0.69853130353E+03  0.10746481103E+04 -0.30365621726E+03  0.13172028144E+04  0.12699999809E+01 0. -1.
       -4    1    3    3    0  502 -0.69853130353E+03 -0.10746481103E+04  0.11779900405E+04  0.17408264392E+04  0.12699999809E+01 0.  1.
</event>
<event>
 5   0  0.2348684E-06  0.2864663E+04  0.7818609E-02  0.8283470E-01
       -1   -1    0    0    0  501  0.00000000000E+00  0.00000000000E+00  0.11601805515E+04  0.11601805515E+04  0.50400001928E-02 0.  1.
        1   -1    0    0  501    0  0.00000000000E+00  0.00000000000E+00 -0.17683221584E+04  0.17683221584E+04  0.50400001928E-02 0. -1.
    10030    2    1    2    0    0  0.00000000000E+00  0.00000000000E+00 -0.60814160691E+03  0.29285027099E+04  0.28646626167E+04 0.  0.
        5    1    3    3  502    0 -0.14618887062E+03 -0.68258548842E+03  0.97450407971E+03  0.11987386814E+04  0.46999998093E+01 0.  1.
       -5    1    3    3    0  502  0.14618887062E+03  0.68258548842E+03 -0.15826456866E+04  0.17297640285E+04  0.46999998093E+01 0. -1.
</event>
<event>
 5   0  0.2429358E-06  0.2864716E+04  0.7818609E-02  0.8283454E-01
       -1   -1    0    0    0  501  0.00000000000E+00  0.00000000000E+00  0.12313520131E+04  0.12313520131E+04  0.50400001928E-02 0. -1.
        1   -1    0    0  501    0  0.00000000000E+00  0.00000000000E+00 -0.16661756840E+04  0.16661756840E+04  0.50400001928E-02 0.  1.
    10030    2    1    2    0    0  0.00000000000E+00  0.00000000000E+00 -0.43482367095E+03  0.28975276971E+04  0.28647155410E+04 0.  0.
        2    1    3    3  502    0  0.13721546595E+04  0.35444066510E+03 -0.42766823362E+03  0.14803164232E+04  0.25500000920E-02 0. -1.
       -2    1    3    3    0  502 -0.13721546595E+04 -0.35444066510E+03 -0.71554373371E+01  0.14172112739E+04  0.25500000920E-02 0.  1.
</event>
<event>
 5   0  0.2159500E-06  0.2994845E+04  0.7818609E-02  0.8245205E-01
        3   -1    0    0  501    0  0.00000000000E+00  0.00000000000E+00  0.21258419632E+04  0.21258419656E+04  0.10100000352E+00 0.  1.
       -3   -1    0    0    0  501  0.00000000000E+00  0.00000000000E+00 -0.10547697757E+04  0.10547697805E+04  0.10100000352E+00 0. -1.
    10030    2    1    2    0    0  0.00000000000E+00  0.00000000000E+00  0.10710721875E+04  0.31806117461E+04  0.29948448122E+04 0.  0.
        5    1    3    3  502    0  0.25584438450E+03 -0.22954331894E+03  0.20833699990E+04  0.21115395159E+04  0.46999998093E+01 0.  1.
       -5    1    3    3    0  502 -0.25584438450E+03  0.22954331894E+03 -0.10122978115E+04  0.10690722303E+04  0.46999998093E+01 0. -1.
</event>
<event>
 5   0  0.2429358E-06  0.2841889E+04  0.7818609E-02  0.8290380E-01
       -1   -1    0    0    0  501  0.00000000000E+00  0.00000000000E+00  0.13978664521E+04  0.13978664521E+04  0.50400001928E-02 0. -1.
        1   -1    0    0  501    0  0.00000000000E+00  0.00000000000E+00 -0.14444033276E+04  0.14444033276E+04  0.50400001928E-02 0.  1.
    10030    2    1    2    0    0  0.00000000000E+00  0.00000000000E+00 -0.46536875555E+02  0.28422697797E+04  0.28418887768E+04 0.  0.
        2    1    3    3  502    0 -0.88645145234E+03 -0.47638718561E+03 -0.10265689307E+04  0.14375620673E+04  0.25500000920E-02 0.  1.
       -2    1    3    3    0  502  0.88645145234E+03  0.47638718561E+03  0.98003205516E+03  0.14047077123E+04  0.25500000920E-02 0. -1.
</event>
<event>
 5   0  0.2508094E-06  0.2889509E+04  0.7818609E-02  0.8276006E-01
       -1   -1    0    0    0  501  0.00000000000E+00  0.00000000000E+00  0.16015258439E+04  0.16015258439E+04  0.50400001928E-02 0.  1.
        1   -1    0    0  501    0  0.00000000000E+00  0.00000000000E+00 -0.13033288938E+04  0.13033288938E+04  0.50400001928E-02 0. -1.
    10030    2    1    2    0    0  0.00000000000E+00  0.00000000000E+00  0.29819695015E+03  0.29048547377E+04  0.28895085441E+04 0.  0.
        3    1    3    3  502    0  0.81000199853E+03  0.10346216048E+04  0.75292963523E+03  0.15144134668E+04  0.10100000352E+00 0.  1.
       -3    1    3    3    0  502 -0.81000199853E+03 -0.10346216048E+04 -0.45473268508E+03  0.13904412709E+04  0.10100000352E+00 0. -1.
</event>
<event>
 5   0  0.2348684E-06  0.2908213E+04  0.7818609E-02  0.8270438E-01
       -1   -1    0    0    0  501  0.00000000000E+00  0.00000000000E+00  0.85665940052E+03  0.85665940053E+03  0.50400001928E-02 0.  1.
        1   -1    0    0  501    0  0.00000000000E+00  0.00000000000E+00 -0.24682229346E+04  0.24682229346E+04  0.50400001928E-02 0. -1.
    10030    2    1    2    0    0  0.00000000000E+00  0.00000000000E+00 -0.16115635341E+04  0.33248823351E+04  0.29082134581E+04 0.  0.
        5    1    3    3  502    0 -0.11283516232E+04  0.85941433964E+03 -0.43951677531E+03  0.14849132899E+04  0.46999998093E+01 0.  1.
       -5    1    3    3    0  502  0.11283516232E+04 -0.85941433964E+03 -0.11720467587E+04  0.18399690452E+04  0.46999998093E+01 0. -1.
</event>
<event>
 5   0  0.6733688E-06  0.2911982E+04  0.7818609E-02  0.8269321E-01
       -2   -1    0    0    0  501  0.00000000000E+00  0.00000000000E+00  0.12479739077E+04  0.12479739077E+04  0.25500000920E-02 0.  1.
        2   -1    0    0  501    0  0.00000000000E+00  0.00000000000E+00 -0.16986816864E+04  0.16986816864E+04  0.25500000920E-02 0. -1.
    10030    2    1    2    0    0  0.00000000000E+00  0.00000000000E+00 -0.45070777866E+03  0.29466555940E+04  0.29119824327E+04 0.  0.
        5    1    3    3  502    0 -0.10691344685E+04  0.84965615006E+03  0.28555822485E+03  0.13951808753E+04  0.46999998093E+01 0.  1.
       -5    1    3    3    0  502  0.10691344685E+04 -0.84965615006E+03 -0.73626600351E+03  0.15514747188E+04  0.46999998093E+01 0. -1.
</event>
<event>
 5   0  0.2474769E-06  0.2893310E+04  0.7818609E-02  0.8274871E-01
       -1   -1    0    0    0  501  0.00000000000E+00  0.00000000000E+00  0.10236594284E+04  0.10236594284E+04  0.50400001928E-02 0.  1.
        1   -1    0    0  501    0  0.00000000000E+00  0.00000000000E+00 -0.20444406921E+04  0.20444406922E+04  0.50400001928E-02 0. -1.
    10030    2    1    2    0    0  0.00000000000E+00  0.00000000000E+00 -0.10207812638E+04  0.30681001205E+04  0.28933102082E+04 0.  0.
        1    1    3    3  502    0 -0.12522896260E+04 -0.45737438752E+03 -0.11059138944E+04  0.17321853768E+04  0.50400001928E-02 0. -1.
       -1    1    3    3    0  502  0.12522896260E+04  0.45737438752E+03  0.85132630618E+02  0.13359147437E+04  0.50400001928E-02 0.  1.
</event>
<event>
 5   0  0.2348684E-06  0.2879880E+04  0.7818609E-02  0.8278889E-01
        1   -1    0    0  501    0  0.00000000000E+00  0.00000000000E+00  0.12440487735E+04  0.12440487735E+04  0.50400001928E-02 0.  1.
       -1   -1    0    0    0  501  0.00000000000E+00  0.00000000000E+00 -0.16666765776E+04  0.16666765776E+04  0.50400001928E-02 0. -1.
    10030    2    1    2    0    0  0.00000000000E+00  0.00000000000E+00 -0.42262780409E+03  0.29107253512E+04  0.28798798255E+04 0.  0.
        5    1    3    3  502    0  0.32706802497E+03 -0.10933484698E+04  0.67616865010E+03  0.13265031107E+04  0.46999998093E+01 0.  1.
       -5    1    3    3    0  502 -0.32706802497E+03  0.10933484698E+04 -0.10987964542E+04  0.15842222404E+04  0.46999998093E+01 0. -1.
</event>
<event>
 5   0  0.2336512E-06  0.2894883E+04  0.7818609E-02  0.8274402E-01
       -1   -1    0    0    0  501  0.00000000000E+00  0.00000000000E+00  0.84390334646E+03  0.84390334648E+03  0.50400001928E-02 0. -1.
        1   -1    0    0  501    0  0.00000000000E+00  0.00000000000E+00 -0.24826143705E+04  0.24826143705E+04  0.50400001928E-02 0.  1.
    10030    2    1    2    0    0  0.00000000000E+00  0.00000000000E+00 -0.16387110240E+04  0.33265177169E+04  0.28948827784E+04 0.  0.
        4    1    3    3  502    0  0.21780505013E+03  0.84049256076E+03 -0.21501425851E+04  0.23188319330E+04  0.12699999809E+01 0.  1.
       -4    1    3    3    0  502 -0.21780505013E+03 -0.84049256076E+03  0.51143156107E+03  0.10076857839E+04  0.12699999809E+01 0. -1.
</event>
<event>
 5   0  0.2429358E-06  0.2917515E+04  0.7818609E-02  0.8267685E-01
       -1   -1    0    0    0  501  0.00000000000E+00  0.00000000000E+00  0.12398497751E+04  0.12398497751E+04  0.50400001928E-02 0.  1.
        1   -1    0    0  501    0  0.00000000000E+00  0.00000000000E+00 -0.17163159526E+04  0.17163159526E+04  0.50400001928E-02 0. -1.
    10030    2    1    2    0    0  0.00000000000E+00  0.00000000000E+00 -0.47646617753E+03  0.29561657277E+04  0.29175153455E+04 0.  0.
        2    1    3    3  502    0 -0.32919300553E+03  0.68246297919E+03 -0.15012820964E+04  0.16816574223E+04  0.25500000920E-02 0. -1.
       -2    1    3    3    0  502  0.32919300553E+03 -0.68246297919E+03  0.10248159189E+04  0.12745083054E+04  0.25500000920E-02 0.  1.
</event>
<event>
 5   0  0.6615403E-06  0.2919337E+04  0.7818609E-02  0.8267147E-01
        2   -1    0    0  501    0  0.00000000000E+00  0.00000000000E+00  0.18352105953E+04  0.18352105953E+04  0.25500000920E-02 0. -1.
       -2   -1    0    0    0  501  0.00000000000E+00  0.00000000000E+00 -0.11609741899E+04  0.11609741899E+04  0.25500000920E-02 0.  1.
    10030    2    1    2    0    0  0.00000000000E+00  0.00000000000E+00  0.67423640534E+03  0.29961847852E+04  0.29193370030E+04 0.  0.
        2    1    3    3  502    0 -0.13460456494E+04  0.30367942090E+02  0.91576004959E+03  0.16283051221E+04  0.25500000920E-02 0.  1.
       -2    1    3    3    0  502  0.13460456494E+04 -0.30367942090E+02 -0.24152364425E+03  0.13678796631E+04  0.25500000920E-02 0. -1.
</event>
<event>
 5   0  0.6612533E-06  0.2908314E+04  0.7818609E-02  0.8270408E-01
        2   -1    0    0  501    0  0.00000000000E+00  0.00000000000E+00  0.24492161981E+04  0.24492161981E+04  0.25500000920E-02 0. -1.
       -2   -1    0    0    0  501  0.00000000000E+00  0.00000000000E+00 -0.86336725419E+03  0.86336725419E+03  0.25500000920E-02 0.  1.
    10030    2    1    2    0    0  0.00000000000E+00  0.00000000000E+00  0.15858489439E+04  0.33125834523E+04  0.29083143323E+04 0.  0.
        3    1    3    3  502    0 -0.11057933957E+04 -0.63562931605E+03 -0.25619238714E+01  0.12754647134E+04  0.10100000352E+00 0.  1.
       -3    1    3    3    0  502  0.11057933957E+04  0.63562931605E+03  0.15884108678E+04  0.20371187389E+04  0.10100000352E+00 0. -1.
</event>
<event>
 5   0  0.6393633E-06  0.2867397E+04  0.7818609E-02  0.8282644E-01
       -2   -1    0    0    0  501  0.00000000000E+00  0.00000000000E+00  0.10339257862E+04  0.10339257862E+04  0.25500000920E-02 0. -1.
        2   -1    0    0  501    0  0.00000000000E+00  0.00000000000E+00 -0.19880452526E+04  0.19880452526E+04  0.25500000920E-02 0.  1.
    10030    2    1    2    0    0  0.00000000000E+00  0.00000000000E+00 -0.95411946635E+03  0.30219710388E+04  0.28673969037E+04 0.  0.
        4    1    3    3  502    0  0.12085757205E+04 -0.35112899008E+03  0.24664771809E+03  0.12824911499E+04  0.12699999809E+01 0. -1.
       -4    1    3    3    0  502 -0.12085757205E+04  0.35112899008E+03 -0.12007671844E+04  0.17394798889E+04  0.12699999809E+01 0.  1.
</event>
<event>
 5   0  0.2348684E-06  0.2917019E+04  0.7818609E-02  0.8267832E-01
        1   -1    0    0  501    0  0.00000000000E+00  0.00000000000E+00  0.16807491942E+04  0.16807491942E+04  0.50400001928E-02 0.  1.
       -1   -1    0    0    0  501  0.00000000000E+00  0.00000000000E+00 -0.12656559829E+04  0.12656559829E+04  0.50400001928E-02 0. -1.
    10030    2    1    2    0    0  0.00000000000E+00  0.00000000000E+00  0.41509321131E+03  0.29464051771E+04  0.29170192138E+04 0.  0.
        5    1    3    3  502    0 -0.14548003890E+04 -0.63263578835E+02  0.12436573524E+03  0.14614839645E+04  0.46999998093E+01 0. -1.
       -5    1    3    3    0  502  0.14548003890E+04  0.63263578835E+02  0.29072747606E+03  0.14849212126E+04  0.46999998093E+01 0.  1.
</event>
<event>
 5   0  0.6513041E-06  0.2866783E+04  0.7818609E-02  0.8282830E-01
       -2   -1    0    0    0  501  0.00000000000E+00  0.00000000000E+00  0.10135662334E+04  0.10135662334E+04  0.25500000920E-02 0. -1.
        2   -1    0    0  501    0  0.00000000000E+00  0.00000000000E+00 -0.20271109456E+04  0.20271109456E+04  0.25500000920E-02 0.  1.
    10030    2    1    2    0    0  0.00000000000E+00  0.00000000000E+00 -0.10135447122E+04  0.30406771790E+04  0.28667830095E+04 0.  0.
        1    1    3    3  502    0  0.99810620672E+03 -0.10277371601E+04 -0.55597061852E+03  0.15367377782E+04  0.50400001928E-02 0.  1.
       -1    1    3    3    0  502 -0.99810620672E+03  0.10277371601E+04 -0.45757409364E+03  0.15039394009E+04  0.50400001928E-02 0. -1.
</event>
<event>
 5   0  0.6733688E-06  0.2909052E+04  0.7818609E-02  0.8270189E-01
        2   -1    0    0  501    0  0.00000000000E+00  0.00000000000E+00  0.19660898263E+04  0.19660898263E+04  0.25500000920E-02 0.  1.
       -2   -1    0    0    0  501  0.00000000000E+00  0.00000000000E+00 -0.10760676222E+04  0.10760676222E+04  0.25500000920E-02 0. -1.
    10030    2    1    2    0    0  0.00000000000E+00  0.00000000000E+00  0.89002220419E+03  0.30421574485E+04  0.29090518073E+04 0.  0.
        5    1    3    3  502    0 -0.66982010039E+03 -0.52699628662E+03  0.16776015201E+04  0.18816888699E+04  0.46999998093E+01 0.  1.
       -5    1    3    3    0  502  0.66982010039E+03  0.52699628662E+03 -0.78757931591E+03  0.11604685786E+04  0.46999998093E+01 0. -1.
</event>
<event>
 5   0  0.2336512E-06  0.2885053E+04  0.7818609E-02  0.8277339E-01
       -1   -1    0    0    0  501  0.00000000000E+00  0.00000000000E+00  0.12262590764E+04  0.12262590764E+04  0.50400001928E-02 0.  1.
        1   -1    0    0  501    0  0.00000000000E+00  0.00000000000E+00 -0.16969355213E+04  0.16969355213E+04  0.50400001928E-02 0. -1.
    10030    2    1    2    0    0  0.00000000000E+00  0.00000000000E+00 -0.47067644494E+03  0.29231945977E+04  0.28850529181E+04 0.  0.
        4    1    3    3  502    0  0.10225208308E+04  0.66110419731E+03  0.54836887065E+03  0.13354091659E+04  0.12699999809E+01 0.  1.
       -4    1    3    3    0  502 -0.10225208308E+04 -0.66110419731E+03 -0.10190453156E+04  0.15877854318E+04  0.12699999809E+01 0. -1.
</event>
<event>
 5   0  0.2429358E-06  0.2918951E+04  0.7818609E-02  0.8267261E-01
        1   -1    0    0  501    0  0.00000000000E+00  0.00000000000E+00  0.13607492618E+04  0.13607492618E+04  0.50400001928E-02 0. -1.
       -1   -1    0    0    0  501  0.00000000000E+00  0.00000000000E+00 -0.15653645289E+04  0.15653645289E+04  0.50400001928E-02 0.  1.
    10030    2    1    2    0    0  0.00000000000E+00  0.00000000000E+00 -0.20461526706E+03  0.29261137907E+04  0.29189509260E+04 0.  0.
        2    1    3    3  502    0  0.80290489401E+03  0.54615606887E+03  0.98991911640E+03  0.13866804165E+04  0.25500000920E-02 0. -1.
       -2    1    3    3    0  502 -0.80290489401E+03 -0.54615606887E+03 -0.11945343835E+04  0.15394333742E+04  0.25500000920E-02 0.  1.
</event>
<event>
 5   0  0.2429358E-06  0.2923485E+04  0.7818609E-02  0.8265924E-01
       -1   -1    0    0    0  501  0.00000000000E+00  0.00000000000E+00  0.13558547786E+04  0.13558547786E+04  0.50400001928E-02 0.  1.
        1   -1    0    0  501    0  0.00000000000E+00  0.00000000000E+00 -0.15758992206E+04  0.15758992206E+04  0.50400001928E-02 0. -1.
    10030    2    1    2    0    0  0.00000000000E+00  0.00000000000E+00 -0.22004444195E+03  0.29317539992E+04  0.29234845571E+04 0.  0.
        2    1    3    3  502    0 -0.11250459874E+04  0.44841064845E+03  0.71076094182E+03  0.14042726587E+04  0.25500000920E-02 0.  1.
       -2    1    3    3    0  502  0.11250459874E+04 -0.44841064845E+03 -0.93080538377E+03  0.15274813406E+04  0.25500000920E-02 0. -1.
</event>
<event>
 5   0  0.2348684E-06  0.2877036E+04  0.7818609E-02  0.8279743E-01
       -1   -1    0    0    0  501  0.00000000000E+00  0.00000000000E+00  0.14248760072E+04  0.14248760072E+04  0.50400001928E-02 0. -1.
        1   -1    0    0  501    0  0.00000000000E+00  0.00000000000E+00 -0.14522904373E+04  0.14522904373E+04  0.50400001928E-02 0.  1.
    10030    2    1    2    0    0  0.00000000000E+00  0.00000000000E+00 -0.27414430047E+02  0.28771664445E+04  0.28770358354E+04 0.  0.
        5    1    3    3  502    0  0.67258053543E+03 -0.12422829730E+04  0.25774598147E+03  0.14359967418E+04  0.46999998093E+01 0. -1.
       -5    1    3    3    0  502 -0.67258053543E+03  0.12422829730E+04 -0.28516041151E+03  0.14411697027E+04  0.46999998093E+01 0.  1.
</event>
<event>
 5   0  0.2429358E-06  0.2892140E+04  0.7818609E-02  0.8275220E-01
        1   -1    0    0  501    0  0.00000000000E+00  0.00000000000E+00  0.16899152606E+04  0.16899152606E+04  0.50400001928E-02 0.  1.
       -1   -1    0    0    0  501  0.00000000000E+00  0.00000000000E+00 -0.12374105464E+04  0.12374105464E+04  0.50400001928E-02 0. -1.
    10030    2    1    2    0    0  0.00000000000E+00  0.00000000000E+00  0.45250471425E+03  0.29273258070E+04  0.28921403603E+04 0.  0.
        2    1    3    3  502    0  0.86289265551E+03 -0.99767099918E+03  0.82607300379E+03  0.15563829108E+04  0.25500000920E-02 0.  1.
       -2    1    3    3    0  502 -0.86289265551E+03  0.99767099918E+03 -0.37356828954E+03  0.13709428961E+04  0.25500000920E-02 0. -1.
</event>
<event>
 5   0  0.6615403E-06  0.2942459E+04  0.7818609E-02  0.8260355E-01
        2   -1    0    0  501    0  0.00000000000E+00  0.00000000000E+00  0.20299901880E+04  0.20299901880E+04  0.25500000920E-02 0.  1.
       -2   -1    0    0    0  501  0.00000000000E+00  0.00000000000E+00 -0.10662696361E+04  0.10662696361E+04  0.25500000920E-02 0. -1.
    10030    2    1    2    0    0  0.00000000000E+00  0.00000000000E+00  0.96372055189E+03  0.30962598242E+04  0.29424594469E+04 0.  0.
        2    1    3    3  502    0 -0.82990615328E+03  0.44275736892E+03  0.16722455460E+04  0.19186410496E+04  0.25500000920E-02 0.  1.
       -2    1    3    3    0  502  0.82990615328E+03 -0.44275736892E+03 -0.70852499413E+03  0.11776187746E+04  0.25500000920E-02 0. -1.
</event>
<event>
 5   0  0.6615403E-06  0.2892627E+04  0.7818609E-02  0.8275075E-01
        2   -1    0    0  501    0  0.00000000000E+00  0.00000000000E+00  0.25530996232E+04  0.25530996232E+04  0.25500000920E-02 0.  1.
       -2   -1    0    0    0  501  0.00000000000E+00  0.00000000000E+00 -0.81932643757E+03  0.81932643757E+03  0.25500000920E-02 0. -1.
    10030    2    1    2    0    0  0.00000000000E+00  0.00000000000E+00  0.17337731856E+04  0.33724260607E+04  0.28926265013E+04 0.  0.
        2    1    3    3  502    0  0.19930446892E+03  0.21786447958E+03 -0.78381173133E+03  0.83758464228E+03  0.25500000920E-02 0. -1.
       -2    1    3    3    0  502 -0.19930446892E+03 -0.21786447958E+03  0.25175849169E+04  0.25348414185E+04  0.25500000920E-02 0.  1.
</event>
<event>
 5   0  0.6612533E-06  0.2896447E+04  0.7818609E-02  0.8273935E-01
        2   -1    0    0  501    0  0.00000000000E+00  0.00000000000E+00  0.19734500462E+04  0.19734500462E+04  0.25500000920E-02 0. -1.
       -2   -1    0    0    0  501  0.00000000000E+00  0.00000000000E+00 -0.10627839596E+04  0.10627839596E+04  0.25500000920E-02 0.  1.
    10030    2    1    2    0    0  0.00000000000E+00  0.00000000000E+00  0.91066608654E+03  0.30362340058E+04  0.28964468262E+04 0.  0.
        3    1    3    3  502    0  0.14264509973E+04  0.23811011000E+03  0.53579811123E+03  0.15422511139E+04  0.10100000352E+00 0. -1.
       -3    1    3    3    0  502 -0.14264509973E+04 -0.23811011000E+03  0.37486797531E+03  0.14939828919E+04  0.10100000352E+00 0.  1.
</event>
<event>
 5   0  0.2474769E-06  0.2909350E+04  0.7818609E-02  0.8270101E-01
        1   -1    0    0  501    0  0.00000000000E+00  0.00000000000E+00  0.16319986022E+04  0.16319986022E+04  0.50400001928E-02 0.  1.
       -1   -1    0    0    0  501  0.00000000000E+00  0.00000000000E+00 -0.12966187585E+04  0.12966187585E+04  0.50400001928E-02 0. -1.
    10030    2    1    2    0    0  0.00000000000E+00  0.00000000000E+00  0.33537984361E+03  0.29286173607E+04  0.29093504440E+04 0.  0.
        1    1    3    3  502    0 -0.26138218210E+03 -0.67413144472E+03  0.14383114575E+04  0.16098179086E+04  0.50400001928E-02 0.  1.
       -1    1    3    3    0  502  0.26138218210E+03  0.67413144472E+03 -0.11029316139E+04  0.13187994521E+04  0.50400001928E-02 0. -1.
</event>
<event>
 5   0  0.2429358E-06  0.2939975E+04  0.7818609E-02  0.8261082E-01
       -1   -1    0    0    0  501  0.00000000000E+00  0.00000000000E+00  0.18939128932E+04  0.18939128932E+04  0.50400001928E-02 0. -1.
        1   -1    0    0  501    0  0.00000000000E+00  0.00000000000E+00 -0.11409513922E+04  0.11409513922E+04  0.50400001928E-02 0.  1.
    10030    2    1    2    0    0  0.00000000000E+00  0.00000000000E+00  0.75296150100E+03  0.30348642854E+04  0.29399745252E+04 0.  0.
        2    1    3    3  502    0  0.13592655632E+03  0.14631689546E+04  0.41676773221E+03  0.15274274978E+04  0.25500000920E-02 0.  1.
       -2    1    3    3    0  502 -0.13592655632E+03 -0.14631689546E+04  0.33619376880E+03  0.15074367876E+04  0.25500000920E-02 0. -1.
</event>
<event>
 5   0  0.2429358E-06  0.2871385E+04  0.7818609E-02  0.8281442E-01
       -1   -1    0    0    0  501  0.00000000000E+00  0.00000000000E+00  0.27228024556E+04  0.27228024556E+04  0.50400001928E-02 0.  1.
        1   -1    0    0  501    0  0.00000000000E+00  0.00000000000E+00 -0.75701896998E+03  0.75701897000E+03  0.50400001928E-02 0. -1.
    10030    2    1    2    0    0  0.00000000000E+00  0.00000000000E+00  0.19657834856E+04  0.34798214256E+04  0.28713851086E+04 0.  0.
        2    1    3    3  502    0 -0.11521059955E+04  0.73447908530E+03  0.44854935106E+03  0.14380557263E+04  0.25500000920E-02 0. -1.
       -2    1    3    3    0  502  0.11521059955E+04 -0.73447908530E+03  0.15172341345E+04  0.20417656993E+04  0.25500000920E-02 0.  1.
</event>
<event>
 5   0  0.6612533E-06  0.2913218E+04  0.7818609E-02  0.8268955E-01
        2   -1    0    0  501    0  0.00000000000E+00  0.00000000000E+00  0.15357612358E+04  0.15357612358E+04  0.25500000920E-02 0.  1.
       -2   -1    0    0    0  501  0.00000000000E+00  0.00000000000E+00 -0.13815366268E+04  0.13815366268E+04  0.25500000920E-02 0. -1.
    10030    2    1    2    0    0  0.00000000000E+00  0.00000000000E+00  0.15422460904E+03  0.29172978626E+04  0.29132184245E+04 0.  0.
        3    1    3    3  502    0  0.13475823081E+04 -0.19646207428E+03 -0.44046245901E+03  0.14312870473E+04  0.10100000352E+00 0.  1.
       -3    1    3    3    0  502 -0.13475823081E+04  0.19646207428E+03  0.59468706805E+03  0.14860108152E+04  0.10100000352E+00 0. -1.
</event>
<event>
 5   0  0.6615403E-06  0.2904276E+04  0.7818609E-02  0.8271606E-01
        2   -1    0    0  501    0  0.00000000000E+00  0.00000000000E+00  0.18201910067E+04  0.18201910067E+04  0.25500000920E-02 0.  1.
       -2   -1    0    0    0  501  0.00000000000E+00  0.00000000000E+00 -0.11585076123E+04  0.11585076123E+04  0.25500000920E-02 0. -1.
    10030    2    1    2    0    0  0.00000000000E+00  0.00000000000E+00  0.66168339447E+03  0.29786986190E+04  0.29042762521E+04 0.  0.
        2    1    3    3  502    0 -0.83885984994E+03  0.11119439192E+04 -0.90289522338E+02  0.13957998872E+04  0.25500000920E-02 0.  1.
       -2    1    3    3    0  502  0.83885984994E+03 -0.11119439192E+04  0.75197291680E+03  0.15828987318E+04  0.25500000920E-02 0. -1.
</event>
<event>
 5   0  0.6615403E-06  0.2897852E+04  0.7818609E-02  0.8273517E-01
        2   -1    0    0  501    0  0.00000000000E+00  0.00000000000E+00  0.16299881025E+04  0.16299881025E+04  0.25500000920E-02 0. -1.
       -2   -1    0    0    0  501  0.00000000000E+00  0.00000000000E+00 -0.12879766478E+04  0.12879766478E+04  0.25500000920E-02 0.  1.
    10030    2    1    2    0    0  0.00000000000E+00  0.00000000000E+00  0.34201145468E+03  0.29179647503E+04  0.28978520405E+04 0.  0.
        2    1    3    3  502    0  0.24619432180E+03  0.10528518772E+04  0.11422091049E+04  0.15728160600E+04  0.25500000920E-02 0. -1.
       -2    1    3    3    0  502 -0.24619432180E+03 -0.10528518772E+04 -0.80019765020E+03  0.13451486902E+04  0.25500000920E-02 0.  1.
</event>
<event>
 5   0  0.2336512E-06  0.2887801E+04  0.7818609E-02  0.8276516E-01
       -1   -1    0    0    0  501  0.00000000000E+00  0.00000000000E+00  0.10851027623E+04  0.10851027623E+04  0.50400001928E-02 0. -1.
        1   -1    0    0  501    0  0.00000000000E+00  0.00000000000E+00 -0.19213371488E+04  0.19213371488E+04  0.50400001928E-02 0.  1.
    10030    2    1    2    0    0  0.00000000000E+00  0.00000000000E+00 -0.83623438648E+03  0.30064399111E+04  0.28878007186E+04 0.  0.
        4    1    3    3  502    0 -0.26581740421E+03 -0.84512349972E+03  0.76887893522E+03  0.11730596967E+04  0.12699999809E+01 0. -1.
       -4    1    3    3    0  502  0.26581740421E+03  0.84512349972E+03 -0.16051133217E+04  0.18333802144E+04  0.12699999809E+01 0.  1.
</event>
<event>
 5   0  0.2159500E-06  0.2841995E+04  0.7818609E-02  0.8290348E-01
        3   -1    0    0  501    0  0.00000000000E+00  0.00000000000E+00  0.98591894651E+03  0.98591895168E+03  0.10100000352E+00 0.  1.
       -3   -1    0    0    0  501  0.00000000000E+00  0.00000000000E+00 -0.20480724710E+04  0.20480724735E+04  0.10100000352E+00 0. -1.
    10030    2    1    2    0    0  0.00000000000E+00  0.00000000000E+00 -0.10621535245E+04  0.30339914251E+04  0.28419946971E+04 0.  0.
        1    1    3    3  502    0 -0.11724606524E+04  0.39557980616E+03 -0.12769058304E+04  0.17780989467E+04  0.50400001928E-02 0. -1.
       -1    1    3    3    0  502  0.11724606524E+04 -0.39557980616E+03  0.21475230600E+03  0.12558924784E+04  0.50400001928E-02 0.  1.
</event>
<event>
 5   0  0.6513041E-06  0.2894210E+04  0.7818609E-02  0.8274602E-01
        2   -1    0    0  501    0  0.00000000000E+00  0.00000000000E+00  0.16401003970E+04  0.16401003970E+04  0.25500000920E-02 0. -1.
       -2   -1    0    0    0  501  0.00000000000E+00  0.00000000000E+00 -0.12768200540E+04  0.12768200540E+04  0.25500000920E-02 0.  1.
    10030    2    1    2    0    0  0.00000000000E+00  0.00000000000E+00  0.36328034299E+03  0.29169204510E+04  0.28942101357E+04 0.  0.
        1    1    3    3  502    0 -0.89087049765E+03  0.86622883916E+03 -0.56587406052E+03  0.13653629912E+04  0.50400001928E-02 0. -1.
       -1    1    3    3    0  502  0.89087049765E+03 -0.86622883916E+03  0.92915440352E+03  0.15515574598E+04  0.50400001928E-02 0.  1.
</event>
<event>
 5   0  0.6612533E-06  0.2961303E+04  0.7818609E-02  0.8254868E-01
        2   -1    0    0  501    0  0.00000000000E+00  0.00000000000E+00  0.21775852952E+04  0.21775852952E+04  0.25500000920E-02 0. -1.
       -2   -1    0    0    0  501  0.00000000000E+00  0.00000000000E+00 -0.10067706337E+04  0.10067706337E+04  0.25500000920E-02 0.  1.
    10030    2    1    2    0    0  0.00000000000E+00  0.00000000000E+00  0.11708146615E+04  0.31843559289E+04  0.29613030426E+04 0.  0.
        3    1    3    3  502    0  0.10372329425E+04  0.97396000428E+03  0.10259992082E+04  0.17541734955E+04  0.10100000352E+00 0. -1.
       -3    1    3    3    0  502 -0.10372329425E+04 -0.97396000428E+03  0.14481545326E+03  0.14301824333E+04  0.10100000352E+00 0.  1.
</event>
<event>
 5   0  0.2429358E-06  0.2937155E+04  0.7818609E-02  0.8261908E-01
       -1   -1    0    0    0  501  0.00000000000E+00  0.00000000000E+00  0.10290846323E+04  0.10290846323E+04  0.50400001928E-02 0.  1.
        1   -1    0    0  501    0  0.00000000000E+00  0.00000000000E+00 -0.20957647808E+04  0.20957647808E+04  0.50400001928E-02 0. -1.
    10030    2    1    2    0    0  0.00000000000E+00  0.00000000000E+00 -0.10666801485E+04  0.31248494131E+04  0.29371546291E+04 0.  0.
        2    1    3    3  502    0 -0.77454665001E+02 -0.13209445692E+04  0.14441374712E+03  0.13310706631E+04  0.25500000920E-02 0.  1.
       -2    1    3    3    0  502  0.77454665001E+02  0.13209445692E+04 -0.12110938956E+04  0.17937787500E+04  0.25500000920E-02 0. -1.
</event>
<event>
 5   0  0.6612533E-06  0.2898019E+04  0.7818609E-02  0.8273467E-01
        2   -1    0    0  501    0  0.00000000000E+00  0.00000000000E+00  0.15571321710E+04  0.15571321710E+04  0.25500000920E-02 0. -1.
       -2   -1    0    0    0  501  0.00000000000E+00  0.00000000000E+00 -0.13483948001E+04  0.13483948001E+04  0.25500000920E-02 0.  1.
    10030    2    1    2    0    0  0.00000000000E+00  0.00000000000E+00  0.20873737087E+03  0.29055269710E+04  0.28980192700E+04 0.  0.
        3    1    3    3  502    0  0.39875360771E+03 -0.10917662128E+04 -0.76313064924E+03  0.13904410455E+04  0.10100000352E+00 0.  1.
       -3    1    3    3    0  502 -0.39875360771E+03  0.10917662128E+04  0.97186802011E+03  0.15150859255E+04  0.10100000352E+00 0. -1.
</event>
<event>
 5   0  0.6615403E-06  0.2887725E+04  0.7818609E-02  0.8276539E-01
        2   -1    0    0  501    0  0.00000000000E+00  0.00000000000E+00  0.13368726290E+04  0.13368726290E+04  0.25500000920E-02 0. -1.
       -2   -1    0    0    0  501  0.00000000000E+00  0.00000000000E+00 -0.15594150541E+04  0.15594150541E+04  0.25500000920E-02 0.  1.
    10030    2    1    2    0    0  0.00000000000E+00  0.00000000000E+00 -0.22254242508E+03  0.28962876831E+04  0.28877252660E+04 0.  0.
        2    1    3    3  502    0  0.11139271539E+04  0.68717387670E+03 -0.72274907589E+03  0.14951280439E+04  0.25500000920E-02 0.  1.
       -2    1    3    3    0  502 -0.11139271539E+04 -0.68717387670E+03  0.50020665081E+03  0.14011596392E+04  0.25500000920E-02 0. -1.
</event>
<event>
 5   0  0.6733688E-06  0.2877383E+04  0.7818609E-02  0.8279639E-01
       -2   -1    0    0    0  501  0.00000000000E+00  0.00000000000E+00  0.89564494926E+03  0.89564494926E+03  0.25500000920E-02 0.  1.
        2   -1    0    0  501    0  0.00000000000E+00  0.00000000000E+00 -0.23109977080E+04  0.23109977080E+04  0.25500000920E-02 0. -1.
    10030    2    1    2    0    0  0.00000000000E+00  0.00000000000E+00 -0.14153527587E+04  0.32066426572E+04  0.28773831339E+04 0.  0.
        5    1    3    3  502    0  0.10318564761E+04  0.99346779802E+03 -0.55772325555E+03  0.15371347933E+04  0.46999998093E+01 0. -1.
       -5    1    3    3    0  502 -0.10318564761E+04 -0.99346779802E+03 -0.85762950315E+03  0.16695078639E+04  0.46999998093E+01 0.  1.
</event>
<event>
 5   0  0.2348684E-06  0.2903044E+04  0.7818609E-02  0.8271972E-01
       -1   -1    0    0    0  501  0.00000000000E+00  0.00000000000E+00  0.10958762198E+04  0.10958762198E+04  0.50400001928E-02 0. -1.
        1   -1    0    0  501    0  0.00000000000E+00  0.00000000000E+00 -0.19225859917E+04  0.19225859917E+04  0.50400001928E-02 0.  1.
    10030    2    1    2    0    0  0.00000000000E+00  0.00000000000E+00 -0.82670977189E+03  0.30184622115E+04  0.29030441049E+04 0.  0.
        5    1    3    3  502    0 -0.10655404039E+03  0.60265641304E+03  0.95515955901E+03  0.11344163208E+04  0.46999998093E+01 0. -1.
       -5    1    3    3    0  502  0.10655404039E+03 -0.60265641304E+03 -0.17818693309E+04  0.18840458907E+04  0.46999998093E+01 0.  1.
</event>
<event>
 5   0  0.2348684E-06  0.2918471E+04  0.7818609E-02  0.8267403E-01
        1   -1    0    0  501    0  0.00000000000E+00  0.00000000000E+00  0.15004470557E+04  0.15004470557E+04  0.50400001928E-02 0. -1.
       -1   -1    0    0    0  501  0.00000000000E+00  0.00000000000E+00 -0.14191563484E+04  0.14191563484E+04  0.50400001928E-02 0.  1.
    10030    2    1    2    0    0  0.00000000000E+00  0.00000000000E+00  0.81290707334E+02  0.29196034041E+04  0.29184714934E+04 0.  0.
        5    1    3    3  502    0 -0.51704844654E+03 -0.86152190689E+03  0.10992560262E+04  0.14892766678E+04  0.46999998093E+01 0. -1.
       -5    1    3    3    0  502  0.51704844654E+03  0.86152190689E+03 -0.10179653189E+04  0.14303267363E+04  0.46999998093E+01 0.  1.
</event>
<event>
 5   0  0.6513041E-06  0.3288362E+04  0.7818609E-02  0.8165863E-01
        2   -1    0    0  501    0  0.00000000000E+00  0.00000000000E+00  0.21211878956E+04  0.21211878956E+04  0.25500000920E-02 0. -1.
       -2   -1    0    0    0  501  0.00000000000E+00  0.00000000000E+00 -0.12744421168E+04  0.12744421168E+04  0.25500000920E-02 0.  1.
    10030    2    1    2    0    0  0.00000000000E+00  0.00000000000E+00  0.84674577878E+03  0.33956300124E+04  0.32883620189E+04 0.  0.
        1    1    3    3  502    0  0.15487561576E+04 -0.50542585478E+03  0.19425615431E+03  0.16406816826E+04  0.50400001928E-02 0. -1.
       -1    1    3    3    0  502 -0.15487561576E+04  0.50542585478E+03  0.65248962447E+03  0.17549483298E+04  0.50400001928E-02 0.  1.
</event>
<event>
 5   0  0.2336512E-06  0.2889905E+04  0.7818609E-02  0.8275887E-01
       -1   -1    0    0    0  501  0.00000000000E+00  0.00000000000E+00  0.97973027086E+03  0.97973027087E+03  0.50400001928E-02 0.  1.
        1   -1    0    0  501    0  0.00000000000E+00  0.00000000000E+00 -0.21310847158E+04  0.21310847158E+04  0.50400001928E-02 0. -1.
    10030    2    1    2    0    0  0.00000000000E+00  0.00000000000E+00 -0.11513544450E+04  0.31108149867E+04  0.28899053312E+04 0.  0.
        4    1    3    3  502    0 -0.54829333720E+03  0.75525435129E+02  0.86110325181E+03  0.10236357253E+04  0.12699999809E+01 0.  1.
       -4    1    3    3    0  502  0.54829333720E+03 -0.75525435129E+02 -0.20124576968E+04  0.20871792614E+04  0.12699999809E+01 0. -1.
</event>
<event>
 5   0  0.6615403E-06  0.2933906E+04  0.7818609E-02  0.8262860E-01
       -2   -1    0    0    0  501  0.00000000000E+00  0.00000000000E+00  0.21172369501E+04  0.21172369501E+04  0.25500000920E-02 0. -1.
        2   -1    0    0  501    0  0.00000000000E+00  0.00000000000E+00 -0.10163960508E+04  0.10163960508E+04  0.25500000920E-02 0.  1.
    10030    2    1    2    0    0  0.00000000000E+00  0.00000000000E+00  0.11008408993E+04  0.31336330009E+04  0.29339061162E+04 0.  0.
        2    1    3    3  502    0  0.73283781967E+03 -0.66182670680E+03  0.17091151220E+04  0.19738643215E+04  0.25500000920E-02 0. -1.
       -2    1    3    3    0  502 -0.73283781967E+03  0.66182670680E+03 -0.60827422262E+03  0.11597686794E+04  0.25500000920E-02 0.  1.
</event>
<event>
 5   0  0.2474769E-06  0.2922106E+04  0.7818609E-02  0.8266331E-01
       -1   -1    0    0    0  501  0.00000000000E+00  0.00000000000E+00  0.12074198375E+04  0.12074198376E+04  0.50400001928E-02 0.  1.
        1   -1    0    0  501    0  0.00000000000E+00  0.00000000000E+00 -0.17679646651E+04  0.17679646651E+04  0.50400001928E-02 0. -1.
    10030    2    1    2    0    0  0.00000000000E+00  0.00000000000E+00 -0.56054482753E+03  0.29753845026E+04  0.29221058220E+04 0.  0.
        1    1    3    3  502    0 -0.13551934976E+04  0.53229968024E+03 -0.15646917230E+03  0.14643684535E+04  0.50400001928E-02 0.  1.
       -1    1    3    3    0  502  0.13551934976E+04 -0.53229968024E+03 -0.40407565523E+03  0.15110160492E+04  0.50400001928E-02 0. -1.
</event>
<event>
 5   0  0.6393633E-06  0.2864047E+04  0.7818609E-02  0.8283656E-01
       -2   -1    0    0    0  501  0.00000000000E+00  0.00000000000E+00  0.10641940200E+04  0.10641940200E+04  0.25500000920E-02 0.  1.
        2   -1    0    0  501    0  0.00000000000E+00  0.00000000000E+00 -0.19269905169E+04  0.19269905169E+04  0.25500000920E-02 0. -1.
    10030    2    1    2    0    0  0.00000000000E+00  0.00000000000E+00 -0.86279649687E+03  0.29911845369E+04  0.28640473353E+04 0.  0.
        4    1    3    3  502    0  0.64384255268E+03  0.59205935468E+03 -0.16155838462E+04  0.18371663749E+04  0.12699999809E+01 0. -1.
       -4    1    3    3    0  502 -0.64384255268E+03 -0.59205935468E+03  0.75278734933E+03  0.11540181620E+04  0.12699999809E+01 0.  1.
</event>
<event>
 5   0  0.2336512E-06  0.2893604E+04  0.7818609E-02  0.8274783E-01
        1   -1    0    0  501    0  0.00000000000E+00  0.00000000000E+00  0.19541839635E+04  0.19541839635E+04  0.50400001928E-02 0. -1.
       -1   -1    0    0    0  501  0.00000000000E+00  0.00000000000E+00 -0.10711563957E+04  0.10711563957E+04  0.50400001928E-02 0.  1.
    10030    2    1    2    0    0  0.00000000000E+00  0.00000000000E+00  0.88302756785E+03  0.30253403592E+04  0.28936044310E+04 0.  0.
        4    1    3    3  502    0  0.81134917485E+03 -0.34658336357E+03  0.16403765552E+04  0.18625907675E+04  0.12699999809E+01 0. -1.
       -4    1    3    3    0  502 -0.81134917485E+03  0.34658336357E+03 -0.75734898734E+03  0.11627495917E+04  0.12699999809E+01 0.  1.
</event>
<event>
 5   0  0.2159500E-06  0.2904798E+04  0.7818609E-02  0.8271451E-01
        4   -1    0    0  501    0  0.00000000000E+00  0.00000000000E+00  0.21842811889E+04  0.21842815581E+04  0.12699999809E+01 0.  1.
       -4   -1    0    0    0  501  0.00000000000E+00  0.00000000000E+00 -0.96574623386E+03  0.96574706891E+03  0.12699999809E+01 0. -1.
    10030    2    1    2    0    0  0.00000000000E+00  0.00000000000E+00  0.12185349551E+04  0.31500286271E+04  0.29047982571E+04 0.  0.
        2    1    3    3  502    0 -0.64121915072E+03  0.12149411553E+04  0.98069257168E+02  0.13772659835E+04  0.25500000920E-02 0.  1.
       -2    1    3    3    0  502  0.64121915072E+03 -0.12149411553E+04  0.11204656979E+04  0.17727626435E+04  0.25500000920E-02 0. -1.
</event>
<event>
 5   0  0.2336512E-06  0.2930243E+04  0.7818609E-02  0.8263936E-01
       -1   -1    0    0    0  501  0.00000000000E+00  0.00000000000E+00  0.10022544334E+04  0.10022544334E+04  0.50400001928E-02 0. -1.
        1   -1    0    0  501    0  0.00000000000E+00  0.00000000000E+00 -0.21417520826E+04  0.21417520826E+04  0.50400001928E-02 0.  1.
    10030    2    1    2    0    0  0.00000000000E+00  0.00000000000E+00 -0.11394976492E+04  0.31440065160E+04  0.29302426658E+04 0.  0.
        4    1    3    3  502    0 -0.69462980825E+03 -0.95090644502E+03 -0.15050305138E+04  0.19109819722E+04  0.12699999809E+01 0.  1.
       -4    1    3    3    0  502  0.69462980825E+03  0.95090644502E+03  0.36553286460E+03  0.12330245438E+04  0.12699999809E+01 0. -1.
</event>
<event>
 5   0  0.2348684E-06  0.2955751E+04  0.7818609E-02  0.8256480E-01
       -1   -1    0    0    0  501  0.00000000000E+00  0.00000000000E+00  0.15729744489E+04  0.15729744489E+04  0.50400001928E-02 0.  1.
        1   -1    0    0  501    0  0.00000000000E+00  0.00000000000E+00 -0.13885264315E+04  0.13885264316E+04  0.50400001928E-02 0. -1.
    10030    2    1    2    0    0  0.00000000000E+00  0.00000000000E+00  0.18444801731E+03  0.29615008804E+04  0.29557514093E+04 0.  0.
        5    1    3    3  502    0  0.73020224364E+03  0.27450411119E+03 -0.11654254229E+04  0.14024215950E+04  0.46999998093E+01 0. -1.
       -5    1    3    3    0  502 -0.73020224364E+03 -0.27450411119E+03  0.13498734402E+04  0.15590792854E+04  0.46999998093E+01 0.  1.
</event>
<event>
 5   0  0.6513041E-06  0.2931366E+04  0.7818609E-02  0.8263606E-01
       -2   -1    0    0    0  501  0.00000000000E+00  0.00000000000E+00  0.94227942405E+03  0.94227942405E+03  0.25500000920E-02 0. -1.
        2   -1    0    0  501    0  0.00000000000E+00  0.00000000000E+00 -0.22798191598E+04  0.22798191598E+04  0.25500000920E-02 0.  1.
    10030    2    1    2    0    0  0.00000000000E+00  0.00000000000E+00 -0.13375397358E+04  0.32220985839E+04  0.29313660194E+04 0.  0.
        1    1    3    3  502    0  0.12017377959E+04  0.94325757486E+02  0.24768227203E+03  0.12306167505E+04  0.50400001928E-02 0. -1.
       -1    1    3    3    0  502 -0.12017377959E+04 -0.94325757486E+02 -0.15852220078E+04  0.19914818334E+04  0.50400001928E-02 0.  1.
</event>
<event>
 5   0  0.2348684E-06  0.2746886E+04  0.7818609E-02  0.8319950E-01
        1   -1    0    0  501    0  0.00000000000E+00  0.00000000000E+00  0.13792129697E+04  0.13792129697E+04  0.50400001928E-02 0.  1.
       -1   -1    0    0    0  501  0.00000000000E+00  0.00000000000E+00 -0.13676975130E+04  0.13676975130E+04  0.50400001928E-02 0. -1.
    10030    2    1    2    0    0  0.00000000000E+00  0.00000000000E+00  0.11515456747E+02  0.27469104827E+04  0.27468863453E+04 0.  0.
        5    1    3    3  502    0 -0.27005212000E+03 -0.12305692687E+04  0.55265848939E+03  0.13757479306E+04  0.46999998093E+01 0.  1.
       -5    1    3    3    0  502  0.27005212000E+03  0.12305692687E+04 -0.54114303265E+03  0.13711625521E+04  0.46999998093E+01 0. -1.
</event>
<event>
 5   0  0.6513041E-06  0.3037018E+04  0.7818609E-02  0.8233239E-01
        2   -1    0    0  501    0  0.00000000000E+00  0.00000000000E+00  0.28038350678E+04  0.28038350678E+04  0.25500000920E-02 0. -1.
       -2   -1    0    0    0  501  0.00000000000E+00  0.00000000000E+00 -0.82239822170E+03  0.82239822170E+03  0.25500000920E-02 0.  1.
    10030    2    1    2    0    0  0.00000000000E+00  0.00000000000E+00  0.19814368461E+04  0.36262332895E+04  0.30370175987E+04 0.  0.
        1    1    3    3  502    0 -0.55371393371E+03  0.60699731091E+03  0.25155153032E+04  0.26462921412E+04  0.50400001928E-02 0. -1.
       -1    1    3    3    0  502  0.55371393371E+03 -0.60699731091E+03 -0.53407845709E+03  0.97994114833E+03  0.50400001928E-02 0.  1.
</event>
<event>
 5   0  0.2508094E-06  0.2841327E+04  0.7818609E-02  0.8290552E-01
       -1   -1    0    0    0  501  0.00000000000E+00  0.00000000000E+00  0.96551689947E+03  0.96551689949E+03  0.50400001928E-02 0. -1.
        1   -1    0    0  501    0  0.00000000000E+00  0.00000000000E+00 -0.20903676682E+04  0.20903676682E+04  0.50400001928E-02 0.  1.
    10030    2    1    2    0    0  0.00000000000E+00  0.00000000000E+00 -0.11248507687E+04  0.30558845677E+04  0.28413273727E+04 0.  0.
        3    1    3    3  502    0 -0.21547145606E+02 -0.19394323398E+03 -0.20758854648E+04  0.20850368655E+04  0.10100000352E+00 0.  1.
       -3    1    3    3    0  502  0.21547145606E+02  0.19394323398E+03  0.95103469606E+03  0.97084770217E+03  0.10100000352E+00 0. -1.
</event>
<event>
 5   0  0.2348684E-06  0.2891778E+04  0.7818609E-02  0.8275328E-01
        1   -1    0    0  501    0  0.00000000000E+00  0.00000000000E+00  0.94691470254E+03  0.94691470255E+03  0.50400001928E-02 0. -1.
       -1   -1    0    0    0  501  0.00000000000E+00  0.00000000000E+00 -0.22077958302E+04  0.22077958302E+04  0.50400001928E-02 0.  1.
    10030    2    1    2    0    0  0.00000000000E+00  0.00000000000E+00 -0.12608811277E+04  0.31547105328E+04  0.28917775377E+04 0.  0.
        5    1    3    3  502    0  0.11923654241E+04  0.80677427421E+03 -0.48427213840E+03  0.15189343726E+04  0.46999998093E+01 0.  1.
       -5    1    3    3    0  502 -0.11923654241E+04 -0.80677427421E+03 -0.77660898926E+03  0.16357761602E+04  0.46999998093E+01 0. -1.
</event>
<event>
 5   0  0.6393633E-06  0.2370693E+04  0.7818609E-02  0.8450558E-01
        2   -1    0    0  501    0  0.00000000000E+00  0.00000000000E+00  0.16121778036E+04  0.16121778036E+04  0.25500000920E-02 0. -1.
       -2   -1    0    0    0  501  0.00000000000E+00  0.00000000000E+00 -0.87152099933E+03  0.87152099934E+03  0.25500000920E-02 0.  1.
    10030    2    1    2    0    0  0.00000000000E+00  0.00000000000E+00  0.74065680431E+03  0.24836988030E+04  0.23706934096E+04 0.  0.
        4    1    3    3  502    0 -0.10449280719E+04  0.55218234218E+03  0.27508173786E+03  0.12134461628E+04  0.12699999809E+01 0. -1.
       -4    1    3    3    0  502  0.10449280719E+04 -0.55218234218E+03  0.46557506645E+03  0.12702526402E+04  0.12699999809E+01 0.  1.
</event>
<event>
 5   0  0.6615403E-06  0.2896519E+04  0.7818609E-02  0.8273914E-01
       -2   -1    0    0    0  501  0.00000000000E+00  0.00000000000E+00  0.90363211425E+03  0.90363211426E+03  0.25500000920E-02 0.  1.
        2   -1    0    0  501    0  0.00000000000E+00  0.00000000000E+00 -0.23211383066E+04  0.23211383066E+04  0.25500000920E-02 0. -1.
    10030    2    1    2    0    0  0.00000000000E+00  0.00000000000E+00 -0.14175061924E+04  0.32247704209E+04  0.28965186797E+04 0.  0.
        2    1    3    3  502    0 -0.16962516054E+03 -0.12861185088E+04  0.80955683388E+01  0.12972814082E+04  0.25500000920E-02 0.  1.
       -2    1    3    3    0  502  0.16962516054E+03  0.12861185088E+04 -0.14256017607E+04  0.19274890127E+04  0.25500000920E-02 0. -1.
</event>
<event>
 5   0  0.2336512E-06  0.2934111E+04  0.7818609E-02  0.8262800E-01
        1   -1    0    0  501    0  0.00000000000E+00  0.00000000000E+00  0.17084700863E+04  0.17084700863E+04  0.50400001928E-02 0. -1.
       -1   -1    0    0    0  501  0.00000000000E+00  0.00000000000E+00 -0.12597542318E+04  0.12597542318E+04  0.50400001928E-02 0.  1.
    10030    2    1    2    0    0  0.00000000000E+00  0.00000000000E+00  0.44871585449E+03  0.29682243181E+04  0.29341113961E+04 0.  0.
        4    1    3    3  502    0  0.48260924343E+03  0.10515045842E+04 -0.68817008197E+03  0.13461624149E+04  0.12699999809E+01 0.  1.
       -4    1    3    3    0  502 -0.48260924343E+03 -0.10515045842E+04  0.11368859365E+04  0.16220619032E+04  0.12699999809E+01 0. -1.
</event>
<event>
 5   0  0.6733688E-06  0.3072098E+04  0.7818609E-02  0.8223437E-01
        2   -1    0    0  501    0  0.00000000000E+00  0.00000000000E+00  0.13569316964E+04  0.13569316964E+04  0.25500000920E-02 0. -1.
       -2   -1    0    0    0  501  0.00000000000E+00  0.00000000000E+00 -0.17388095943E+04  0.17388095943E+04  0.25500000920E-02 0.  1.
    10030    2    1    2    0    0  0.00000000000E+00  0.00000000000E+00 -0.38187789791E+03  0.30957412908E+04  0.30720975587E+04 0.  0.
        5    1    3    3  502    0 -0.47040947857E+03  0.11311642779E+03  0.12781368614E+04  0.13666515028E+04  0.46999998093E+01 0. -1.
       -5    1    3    3    0  502  0.47040947857E+03 -0.11311642779E+03 -0.16600147593E+04  0.17290897879E+04  0.46999998093E+01 0.  1.
</event>
<event>
 5   0  0.2474769E-06  0.2778230E+04  0.7818609E-02  0.8310059E-01
       -1   -1    0    0    0  501  0.00000000000E+00  0.00000000000E+00  0.91946126194E+03  0.91946126195E+03  0.50400001928E-02 0.  1.
        1   -1    0    0  501    0  0.00000000000E+00  0.00000000000E+00 -0.20986645154E+04  0.20986645154E+04  0.50400001928E-02 0. -1.
    10030    2    1    2    0    0  0.00000000000E+00  0.00000000000E+00 -0.11792032535E+04  0.30181257774E+04  0.27782301732E+04 0.  0.
        1    1    3    3  502    0  0.59832369605E+03  0.10518707489E+04  0.15136233995E+03  0.12195629855E+04  0.50400001928E-02 0.  1.
       -1    1    3    3    0  502 -0.59832369605E+03 -0.10518707489E+04 -0.13305655935E+04  0.17985627919E+04  0.50400001928E-02 0. -1.
</event>
<event>
 5   0  0.6393633E-06  0.2866547E+04  0.7818609E-02  0.8282901E-01
        2   -1    0    0  501    0  0.00000000000E+00  0.00000000000E+00  0.18500370167E+04  0.18500370167E+04  0.25500000920E-02 0.  1.
       -2   -1    0    0    0  501  0.00000000000E+00  0.00000000000E+00 -0.11103952166E+04  0.11103952166E+04  0.25500000920E-02 0. -1.
    10030    2    1    2    0    0  0.00000000000E+00  0.00000000000E+00  0.73964180008E+03  0.29604322332E+04  0.28665465311E+04 0.  0.
        4    1    3    3  502    0 -0.10077794773E+04 -0.36632460161E+03  0.13519988933E+04  0.17256059252E+04  0.12699999809E+01 0. -1.
       -4    1    3    3    0  502  0.10077794773E+04  0.36632460161E+03 -0.61235709321E+03  0.12348263081E+04  0.12699999809E+01 0.  1.
</event>
<event>
 5   0  0.2429358E-06  0.2791262E+04  0.7818609E-02  0.8305986E-01
       -1   -1    0    0    0  501  0.00000000000E+00  0.00000000000E+00  0.67739330795E+03  0.67739330797E+03  0.50400001928E-02 0.  1.
        1   -1    0    0  501    0  0.00000000000E+00  0.00000000000E+00 -0.28754142156E+04  0.28754142156E+04  0.50400001928E-02 0. -1.
    10030    2    1    2    0    0  0.00000000000E+00  0.00000000000E+00 -0.21980209077E+04  0.35528075236E+04  0.27912623290E+04 0.  0.
        2    1    3    3  502    0  0.27143496077E+03  0.13501780217E+04 -0.81120204257E+03  0.15983448883E+04  0.25500000920E-02 0.  1.
       -2    1    3    3    0  502 -0.27143496077E+03 -0.13501780217E+04 -0.13868188651E+04  0.19544626353E+04  0.25500000920E-02 0. -1.
</event>
<event>
 5   0  0.2429358E-06  0.2875915E+04  0.7818609E-02  0.8280080E-01
       -1   -1    0    0    0  501  0.00000000000E+00  0.00000000000E+00  0.92610779532E+03  0.92610779534E+03  0.50400001928E-02 0. -1.
        1   -1    0    0  501    0  0.00000000000E+00  0.00000000000E+00 -0.22327004879E+04  0.22327004879E+04  0.50400001928E-02 0.  1.
    10030    2    1    2    0    0  0.00000000000E+00  0.00000000000E+00 -0.13065926926E+04  0.31588082833E+04  0.28759146903E+04 0.  0.
        2    1    3    3  502    0  0.78570202263E+03 -0.75696674278E+03  0.37553656551E+03  0.11538431566E+04  0.25500000920E-02 0. -1.
       -2    1    3    3    0  502 -0.78570202263E+03  0.75696674278E+03 -0.16821292581E+04  0.20049651266E+04  0.25500000920E-02 0.  1.
</event>
<event>
 5   0  0.6615403E-06  0.2912145E+04  0.7818609E-02  0.8269273E-01
        2   -1    0    0  501    0  0.00000000000E+00  0.00000000000E+00  0.20378260375E+04  0.20378260375E+04  0.25500000920E-02 0. -1.
       -2   -1    0    0    0  501  0.00000000000E+00  0.00000000000E+00 -0.10403962970E+04  0.10403962970E+04  0.25500000920E-02 0.  1.
    10030    2    1    2    0    0  0.00000000000E+00  0.00000000000E+00  0.99742974057E+03  0.30782223345E+04  0.29121446827E+04 0.  0.
        2    1    3    3  502    0 -0.37858030865E+03  0.12017032688E+04 -0.27279552588E+03  0.12891203184E+04  0.25500000920E-02 0.  1.
       -2    1    3    3    0  502  0.37858030865E+03 -0.12017032688E+04  0.12702252665E+04  0.17891020161E+04  0.25500000920E-02 0. -1.
</event>
<event>
 5   0  0.2348684E-06  0.2927166E+04  0.7818609E-02  0.8264840E-01
        1   -1    0    0  501    0  0.00000000000E+00  0.00000000000E+00  0.14719313760E+04  0.14719313760E+04  0.50400001928E-02 0.  1.
       -1   -1    0    0    0  501  0.00000000000E+00  0.00000000000E+00 -0.14552817404E+04  0.14552817405E+04  0.50400001928E-02 0. -1.
    10030    2    1    2    0    0  0.00000000000E+00  0.00000000000E+00  0.16649635527E+02  0.29272131164E+04  0.29271657655E+04 0.  0.
        5    1    3    3  502    0  0.57483013665E+03  0.10862081869E+04 -0.78653069943E+03  0.14590855158E+04  0.46999998093E+01 0. -1.
       -5    1    3    3    0  502 -0.57483013665E+03 -0.10862081869E+04  0.80318033495E+03  0.14681276006E+04  0.46999998093E+01 0.  1.
</event>
<event>
 5   0  0.2474769E-06  0.2906142E+04  0.7818609E-02  0.8271052E-01
        1   -1    0    0  501    0  0.00000000000E+00  0.00000000000E+00  0.11723031786E+04  0.11723031786E+04  0.50400001928E-02 0.  1.
       -1   -1    0    0    0  501  0.00000000000E+00  0.00000000000E+00 -0.18010830046E+04  0.18010830046E+04  0.50400001928E-02 0. -1.
    10030    2    1    2    0    0  0.00000000000E+00  0.00000000000E+00 -0.62877982605E+03  0.29733861832E+04  0.29061420001E+04 0.  0.
        1    1    3    3  502    0  0.30017728570E+03  0.12461729904E+04  0.38581511354E+03  0.13386212409E+04  0.50400001928E-02 0.  1.
       -1    1    3    3    0  502 -0.30017728570E+03 -0.12461729904E+04 -0.10145949396E+04  0.16347649422E+04  0.50400001928E-02 0. -1.
</event>
<event>
 5   0  0.2348684E-06  0.2915157E+04  0.7818609E-02  0.8268382E-01
       -1   -1    0    0    0  501  0.00000000000E+00  0.00000000000E+00  0.12807879966E+04  0.12807879966E+04  0.50400001928E-02 0.  1.
        1   -1    0    0  501    0  0.00000000000E+00  0.00000000000E+00 -0.16587713320E+04  0.16587713320E+04  0.50400001928E-02 0. -1.
    10030    2    1    2    0    0  0.00000000000E+00  0.00000000000E+00 -0.37798333543E+03  0.29395593287E+04  0.29151565387E+04 0.  0.
        5    1    3    3  502    0 -0.86476938946E+03 -0.61087030331E+03 -0.11991377073E+04  0.15996693269E+04  0.46999998093E+01 0. -1.
       -5    1    3    3    0  502  0.86476938946E+03  0.61087030331E+03  0.82115437185E+03  0.13398900018E+04  0.46999998093E+01 0.  1.
</event>
<event>
 5   0  0.6615403E-06  0.2908207E+04  0.7818609E-02  0.8270440E-01
        2   -1    0    0  501    0  0.00000000000E+00  0.00000000000E+00  0.33854348465E+04  0.33854348465E+04  0.25500000920E-02 0.  1.
       -2   -1    0    0    0  501  0.00000000000E+00  0.00000000000E+00 -0.62456304377E+03  0.62456304377E+03  0.25500000920E-02 0. -1.
    10030    2    1    2    0    0  0.00000000000E+00  0.00000000000E+00  0.27608718027E+04  0.40099978903E+04  0.29082073463E+04 0.  0.
        2    1    3    3  502    0  0.17000579754E+03 -0.11988419712E+04  0.24906445176E+04  0.27693743258E+04  0.25500000920E-02 0.  1.
       -2    1    3    3    0  502 -0.17000579754E+03  0.11988419712E+04  0.27022728514E+03  0.12406235645E+04  0.25500000920E-02 0. -1.
</event>
<event>
 5   0  0.6615403E-06  0.2946701E+04  0.7818609E-02  0.8259117E-01
        2   -1    0    0  501    0  0.00000000000E+00  0.00000000000E+00  0.14018574036E+04  0.14018574036E+04  0.25500000920E-02 0.  1.
       -2   -1    0    0    0  501  0.00000000000E+00  0.00000000000E+00 -0.15484895918E+04  0.15484895918E+04  0.25500000920E-02 0. -1.
    10030    2    1    2    0    0  0.00000000000E+00  0.00000000000E+00 -0.14663218821E+03  0.29503469953E+04  0.29467009340E+04 0.  0.
        2    1    3    3  502    0 -0.12569617016E+04  0.63231660490E+02 -0.84029960078E+03  0.15132925630E+04  0.25500000920E-02 0. -1.
       -2    1    3    3    0  502  0.12569617016E+04 -0.63231660490E+02  0.69366741257E+03  0.14370544323E+04  0.25500000920E-02 0.  1.
</event>
<event>
 5   0  0.2474769E-06  0.2870980E+04  0.7818609E-02  0.8281564E-01
       -1   -1    0    0    0  501  0.00000000000E+00  0.00000000000E+00  0.19351647229E+04  0.19351647229E+04  0.50400001928E-02 0.  1.
        1   -1    0    0  501    0  0.00000000000E+00  0.00000000000E+00 -0.10648352315E+04  0.10648352315E+04  0.50400001928E-02 0. -1.
    10030    2    1    2    0    0  0.00000000000E+00  0.00000000000E+00  0.87032949148E+03  0.29999999544E+04  0.28709800248E+04 0.  0.
        1    1    3    3  502    0  0.40362944975E+03 -0.13509014640E+04  0.15326328004E+03  0.14182175895E+04  0.50400001928E-02 0. -1.
       -1    1    3    3    0  502 -0.40362944975E+03  0.13509014640E+04  0.71706621144E+03  0.15817823649E+04  0.50400001928E-02 0.  1.
</event>
<event>
 5   0  0.6612533E-06  0.2866796E+04  0.7818609E-02  0.8282826E-01
       -2   -1    0    0    0  501  0.00000000000E+00  0.00000000000E+00  0.16550992521E+04  0.16550992521E+04  0.25500000920E-02 0.  1.
        2   -1    0    0  501    0  0.00000000000E+00  0.00000000000E+00 -0.12413939942E+04  0.12413939942E+04  0.25500000920E-02 0. -1.
    10030    2    1    2    0    0  0.00000000000E+00  0.00000000000E+00  0.41370525790E+03  0.28964932464E+04  0.28667963105E+04 0.  0.
        3    1    3    3  502    0  0.17881440938E+03 -0.61110764413E+03  0.15043687326E+04  0.16335704574E+04  0.10100000352E+00 0.  1.
       -3    1    3    3    0  502 -0.17881440938E+03  0.61110764413E+03 -0.10906634747E+04  0.12629227890E+04  0.10100000352E+00 0. -1.
</event>
<event>
 5   0  0.6612533E-06  0.2901386E+04  0.7818609E-02  0.8272465E-01
        2   -1    0    0  501    0  0.00000000000E+00  0.00000000000E+00  0.89305509726E+03  0.89305509727E+03  0.25500000920E-02 0. -1.
       -2   -1    0    0    0  501  0.00000000000E+00  0.00000000000E+00 -0.23565297048E+04  0.23565297048E+04  0.25500000920E-02 0.  1.
    10030    2    1    2    0    0  0.00000000000E+00  0.00000000000E+00 -0.14634746076E+04  0.32495848021E+04  0.29013864718E+04 0.  0.
        3    1    3    3  502    0  0.84283126150E+03  0.81100049667E+03 -0.16928767719E+04  0.20576486863E+04  0.10100000352E+00 0.  1.
       -3    1    3    3    0  502 -0.84283126150E+03 -0.81100049667E+03  0.22940216438E+03  0.11919361158E+04  0.10100000352E+00 0. -1.
</event>
<event>
 5   0  0.6393633E-06  0.2907322E+04  0.7818609E-02  0.8270702E-01
       -2   -1    0    0    0  501  0.00000000000E+00  0.00000000000E+00  0.12015981254E+04  0.12015981254E+04  0.25500000920E-02 0.  1.
        2   -1    0    0  501    0  0.00000000000E+00  0.00000000000E+00 -0.17585997481E+04  0.17585997481E+04  0.25500000920E-02 0. -1.
    10030    2    1    2    0    0  0.00000000000E+00  0.00000000000E+00 -0.55700162270E+03  0.29601978735E+04  0.29073219021E+04 0.  0.
        4    1    3    3  502    0 -0.16606456264E+03  0.13102051022E+04 -0.89693004863E+03  0.15964648364E+04  0.12699999809E+01 0. -1.
       -4    1    3    3    0  502  0.16606456264E+03 -0.13102051022E+04  0.33992842593E+03  0.13637330371E+04  0.12699999809E+01 0.  1.
</event>
<event>
 5   0  0.2336512E-06  0.2840577E+04  0.7818609E-02  0.8290780E-01
        1   -1    0    0  501    0  0.00000000000E+00  0.00000000000E+00  0.17332287046E+04  0.17332287046E+04  0.50400001928E-02 0. -1.
       -1   -1    0    0    0  501  0.00000000000E+00  0.00000000000E+00 -0.11638508711E+04  0.11638508711E+04  0.50400001928E-02 0.  1.
    10030    2    1    2    0    0  0.00000000000E+00  0.00000000000E+00  0.56937783355E+03  0.28970795757E+04  0.28405772214E+04 0.  0.
        4    1    3    3  502    0 -0.58097618437E+03  0.74365945899E+03 -0.79786460426E+03  0.12357800198E+04  0.12699999809E+01 0.  1.
       -4    1    3    3    0  502  0.58097618437E+03 -0.74365945899E+03  0.13672424378E+04  0.16612995559E+04  0.12699999809E+01 0. -1.
</event>
<event>
 5   0  0.2336512E-06  0.2979142E+04  0.7818609E-02  0.8249712E-01
        1   -1    0    0  501    0  0.00000000000E+00  0.00000000000E+00  0.21892130815E+04  0.21892130815E+04  0.50400001928E-02 0. -1.
       -1   -1    0    0    0  501  0.00000000000E+00  0.00000000000E+00 -0.10135248948E+04  0.10135248948E+04  0.50400001928E-02 0.  1.
    10030    2    1    2    0    0  0.00000000000E+00  0.00000000000E+00  0.11756881867E+04  0.32027379764E+04  0.29791421303E+04 0.  0.
        4    1    3    3  502    0 -0.85064380728E+03 -0.57692262892E+03 -0.57121431713E+03  0.11758920085E+04  0.12699999809E+01 0.  1.
       -4    1    3    3    0  502  0.85064380728E+03  0.57692262892E+03  0.17469025039E+04  0.20268459679E+04  0.12699999809E+01 0. -1.
</event>
<event>
 5   0  0.6733688E-06  0.2866065E+04  0.7818609E-02  0.8283046E-01
        2   -1    0    0  501    0  0.00000000000E+00  0.00000000000E+00  0.28462424888E+04  0.28462424888E+04  0.25500000920E-02 0. -1.
       -2   -1    0    0    0  501  0.00000000000E+00  0.00000000000E+00 -0.72150660559E+03  0.72150660560E+03  0.25500000920E-02 0.  1.
    10030    2    1    2    0    0  0.00000000000E+00  0.00000000000E+00  0.21247358832E+04  0.35677490944E+04  0.28660654262E+04 0.  0.
        5    1    3    3  502    0  0.34243934255E+01 -0.84660664435E+03  0.25016384238E+04  0.26410171204E+04  0.46999998093E+01 0. -1.
       -5    1    3    3    0  502 -0.34243934255E+01  0.84660664435E+03 -0.37690254052E+03  0.92673197408E+03  0.46999998093E+01 0.  1.
</event>
<event>
 5   0  0.2336512E-06  0.2926192E+04  0.7818609E-02  0.8265127E-01
        1   -1    0    0  501    0  0.00000000000E+00  0.00000000000E+00  0.16240480794E+04  0.16240480794E+04  0.50400001928E-02 0.  1.
       -1   -1    0    0    0  501  0.00000000000E+00  0.00000000000E+00 -0.13180951206E+04  0.13180951206E+04  0.50400001928E-02 0. -1.
    10030    2    1    2    0    0  0.00000000000E+00  0.00000000000E+00  0.30595295882E+03  0.29421432000E+04  0.29261919616E+04 0.  0.
        4    1    3    3  502    0  0.42729952978E+03  0.10742232249E+04  0.10545852638E+04  0.15648297404E+04  0.12699999809E+01 0.  1.
       -4    1    3    3    0  502 -0.42729952978E+03 -0.10742232249E+04 -0.74863230498E+03  0.13773134596E+04  0.12699999809E+01 0. -1.
</event>
<event>
 5   0  0.6612533E-06  0.2886320E+04  0.7818609E-02  0.8276959E-01
        2   -1    0    0  501    0  0.00000000000E+00  0.00000000000E+00  0.14692986291E+04  0.14692986291E+04  0.25500000920E-02 0. -1.
       -2   -1    0    0    0  501  0.00000000000E+00  0.00000000000E+00 -0.14174864035E+04  0.14174864035E+04  0.25500000920E-02 0.  1.
    10030    2    1    2    0    0  0.00000000000E+00  0.00000000000E+00  0.51812225654E+02  0.28867850326E+04  0.28863200304E+04 0.  0.
        3    1    3    3  502    0  0.95930485241E+03 -0.91169708388E+03 -0.54973282674E+03  0.14330609072E+04  0.10100000352E+00 0.  1.
       -3    1    3    3    0  502 -0.95930485241E+03  0.91169708388E+03  0.60154505239E+03  0.14537241254E+04  0.10100000352E+00 0. -1.
</event>
<event>
 5   0  0.6612533E-06  0.2875224E+04  0.7818609E-02  0.8280288E-01
        2   -1    0    0  501    0  0.00000000000E+00  0.00000000000E+00  0.16126983136E+04  0.16126983136E+04  0.25500000920E-02 0.  1.
       -2   -1    0    0    0  501  0.00000000000E+00  0.00000000000E+00 -0.12815340734E+04  0.12815340734E+04  0.25500000920E-02 0. -1.
    10030    2    1    2    0    0  0.00000000000E+00  0.00000000000E+00  0.33116424026E+03  0.28942323870E+04  0.28752237054E+04 0.  0.
        3    1    3    3  502    0 -0.63255490937E+03 -0.42856176821E+03  0.13913919465E+04  0.15873759673E+04  0.10100000352E+00 0.  1.
       -3    1    3    3    0  502  0.63255490937E+03  0.42856176821E+03 -0.10602277062E+04  0.13068564197E+04  0.10100000352E+00 0. -1.
</event>
<event>
 5   0  0.2336512E-06  0.2678436E+04  0.7818609E-02  0.8342036E-01
       -1   -1    0    0    0  501  0.00000000000E+00  0.00000000000E+00  0.17500713987E+04  0.17500713988E+04  0.50400001928E-02 0.  1.
        1   -1    0    0  501    0  0.00000000000E+00  0.00000000000E+00 -0.10248184535E+04  0.10248184535E+04  0.50400001928E-02 0. -1.
    10030    2    1    2    0    0  0.00000000000E+00  0.00000000000E+00  0.72525294529E+03  0.27748898522E+04  0.26784364576E+04 0.  0.
        4    1    3    3  502    0 -0.11045043587E+04  0.26752390453E+03 -0.37141127434E+03  0.11955947748E+04  0.12699999809E+01 0. -1.
       -4    1    3    3    0  502  0.11045043587E+04 -0.26752390453E+03  0.10966642196E+04  0.15792950774E+04  0.12699999809E+01 0.  1.
</event>
<event>
 5   0  0.2508094E-06  0.2894983E+04  0.7818609E-02  0.8274372E-01
        1   -1    0    0  501    0  0.00000000000E+00  0.00000000000E+00  0.18585488217E+04  0.18585488217E+04  0.50400001928E-02 0. -1.
       -1   -1    0    0    0  501  0.00000000000E+00  0.00000000000E+00 -0.11273478620E+04  0.11273478620E+04  0.50400001928E-02 0.  1.
    10030    2    1    2    0    0  0.00000000000E+00  0.00000000000E+00  0.73120095968E+03  0.29858966837E+04  0.28949825841E+04 0.  0.
        3    1    3    3  502    0 -0.76097469291E+03 -0.10547344770E+04  0.10209144767E+04  0.16534248332E+04  0.10100000352E+00 0. -1.
       -3    1    3    3    0  502  0.76097469291E+03  0.10547344770E+04 -0.28971351706E+03  0.13324718505E+04  0.10100000352E+00 0.  1.
</event>
<event>
 5   0  0.2336512E-06  0.2898992E+04  0.7818609E-02  0.8273177E-01
       -1   -1    0    0    0  501  0.00000000000E+00  0.00000000000E+00  0.12446961537E+04  0.12446961537E+04  0.50400001928E-02 0. -1.
        1   -1    0    0  501    0  0.00000000000E+00  0.00000000000E+00 -0.16879933337E+04  0.16879933337E+04  0.50400001928E-02 0.  1.
    10030    2    1    2    0    0  0.00000000000E+00  0.00000000000E+00 -0.44329718002E+03  0.29326894873E+04  0.28989921075E+04 0.  0.
        4    1    3    3  502    0  0.11823281711E+04  0.44240457174E+03 -0.94225962579E+03  0.15752703021E+04  0.12699999809E+01 0.  1.
       -4    1    3    3    0  502 -0.11823281711E+04 -0.44240457174E+03  0.49896244577E+03  0.13574191853E+04  0.12699999809E+01 0. -1.
</event>
<event>
 5   0  0.6733688E-06  0.2877761E+04  0.7818609E-02  0.8279525E-01
       -2   -1    0    0    0  501  0.00000000000E+00  0.00000000000E+00  0.12037816188E+04  0.12037816189E+04  0.25500000920E-02 0.  1.
        2   -1    0    0  501    0  0.00000000000E+00  0.00000000000E+00 -0.17198941677E+04  0.17198941677E+04  0.25500000920E-02 0. -1.
    10030    2    1    2    0    0  0.00000000000E+00  0.00000000000E+00 -0.51611254885E+03  0.29236757865E+04  0.28777609251E+04 0.  0.
        5    1    3    3  502    0  0.10107119065E+04  0.10213958231E+04 -0.18225411027E+03  0.14484566393E+04  0.46999998093E+01 0.  1.
       -5    1    3    3    0  502 -0.10107119065E+04 -0.10213958231E+04 -0.33385843858E+03  0.14752191472E+04  0.46999998093E+01 0. -1.
</event>
<event>
 5   0  0.2336512E-06  0.2879108E+04  0.7818609E-02  0.8279121E-01
       -1   -1    0    0    0  501  0.00000000000E+00  0.00000000000E+00  0.10169183762E+04  0.10169183762E+04  0.50400001928E-02 0. -1.
        1   -1    0    0  501    0  0.00000000000E+00  0.00000000000E+00 -0.20378383860E+04  0.20378383860E+04  0.50400001928E-02 0.  1.
    10030    2    1    2    0    0  0.00000000000E+00  0.00000000000E+00 -0.10209200098E+04  0.30547567622E+04  0.28791077107E+04 0.  0.
        4    1    3    3  502    0 -0.94325106526E+03  0.60663005609E+03 -0.14680697359E+04  0.18474179169E+04  0.12699999809E+01 0.  1.
       -4    1    3    3    0  502  0.94325106526E+03 -0.60663005609E+03  0.44714972611E+03  0.12073388454E+04  0.12699999809E+01 0. -1.
</event>
<event>
 5   0  0.2429358E-06  0.2422369E+04  0.7818609E-02  0.8431176E-01
       -1   -1    0    0    0  501  0.00000000000E+00  0.00000000000E+00  0.13052781927E+04  0.13052781927E+04  0.50400001928E-02 0. -1.
        1   -1    0    0  501    0  0.00000000000E+00  0.00000000000E+00 -0.11238737999E+04  0.11238737999E+04  0.50400001928E-02 0.  1.
    10030    2    1    2    0    0  0.00000000000E+00  0.00000000000E+00  0.18140439277E+03  0.24291519926E+04  0.24223690573E+04 0.  0.
        2    1    3    3  502    0  0.19066542865E+03  0.21631693019E+03 -0.10889512437E+04  0.11264817492E+04  0.25500000920E-02 0.  1.
       -2    1    3    3    0  502 -0.19066542865E+03 -0.21631693019E+03  0.12703556365E+04  0.13026702434E+04  0.25500000920E-02 0. -1.
</event>
<event>
 5   0  0.2348684E-06  0.2897405E+04  0.7818609E-02  0.8273650E-01
        1   -1    0    0  501    0  0.00000000000E+00  0.00000000000E+00  0.15098744804E+04  0.15098744805E+04  0.50400001928E-02 0. -1.
       -1   -1    0    0    0  501  0.00000000000E+00  0.00000000000E+00 -0.13900091955E+04  0.13900091955E+04  0.50400001928E-02 0.  1.
    10030    2    1    2    0    0  0.00000000000E+00  0.00000000000E+00  0.11986528495E+03  0.28998836760E+04  0.28974053302E+04 0.  0.
        5    1    3    3  502    0  0.10460377173E+04 -0.37782867959E+03 -0.86917595796E+03  0.14115375847E+04  0.46999998093E+01 0.  1.
       -5    1    3    3    0  502 -0.10460377173E+04  0.37782867959E+03  0.98904124292E+03  0.14883460912E+04  0.46999998093E+01 0. -1.
</event>
<event>
 5   0  0.6615403E-06  0.2858009E+04  0.7818609E-02  0.8285482E-01
        2   -1    0    0  501    0  0.00000000000E+00  0.00000000000E+00  0.12394531428E+04  0.12394531428E+04  0.25500000920E-02 0. -1.
       -2   -1    0    0    0  501  0.00000000000E+00  0.00000000000E+00 -0.16475438066E+04  0.16475438066E+04  0.25500000920E-02 0.  1.
    10030    2    1    2    0    0  0.00000000000E+00  0.00000000000E+00 -0.40809066386E+03  0.28869969494E+04  0.28580086417E+04 0.  0.
        2    1    3    3  502    0  0.12312154404E+04 -0.66354209937E+03 -0.50005987888E+03  0.14853415300E+04  0.25500000920E-02 0.  1.
       -2    1    3    3    0  502 -0.12312154404E+04  0.66354209937E+03  0.91969215029E+02  0.14016554194E+04  0.25500000920E-02 0. -1.
</event>
<event>
 5   0  0.6393633E-06  0.2894086E+04  0.7818609E-02  0.8274639E-01
       -2   -1    0    0    0  501  0.00000000000E+00  0.00000000000E+00  0.86913915433E+03  0.86913915433E+03  0.25500000920E-02 0. -1.
        2   -1    0    0  501    0  0.00000000000E+00  0.00000000000E+00 -0.24092036271E+04  0.24092036271E+04  0.25500000920E-02 0.  1.
    10030    2    1    2    0    0  0.00000000000E+00  0.00000000000E+00 -0.15400644728E+04  0.32783427814E+04  0.28940858336E+04 0.  0.
        4    1    3    3  502    0 -0.12997026891E+03  0.12765267981E+04 -0.12242838652E+02  0.12831852700E+04  0.12699999809E+01 0. -1.
       -4    1    3    3    0  502  0.12997026891E+03 -0.12765267981E+04 -0.15278216341E+04  0.19951575115E+04  0.12699999809E+01 0.  1.
</event>
<event>
 5   0  0.6612533E-06  0.2893333E+04  0.7818609E-02  0.8274864E-01
        2   -1    0    0  501    0  0.00000000000E+00  0.00000000000E+00  0.23073857318E+04  0.23073857318E+04  0.25500000920E-02 0. -1.
       -2   -1    0    0    0  501  0.00000000000E+00  0.00000000000E+00 -0.90701943645E+03  0.90701943646E+03  0.25500000920E-02 0.  1.
    10030    2    1    2    0    0  0.00000000000E+00  0.00000000000E+00  0.14003662954E+04  0.32144051683E+04  0.28933328230E+04 0.  0.
        3    1    3    3  502    0 -0.33737126254E+02  0.13877367583E+04  0.24768667671E+03  0.14100709926E+04  0.10100000352E+00 0.  1.
       -3    1    3    3    0  502  0.33737126254E+02 -0.13877367583E+04  0.11526796187E+04  0.18043341757E+04  0.10100000352E+00 0. -1.
</event>
<event>
 5   0  0.2474769E-06  0.2874958E+04  0.7818609E-02  0.8280367E-01
        1   -1    0    0  501    0  0.00000000000E+00  0.00000000000E+00  0.21416468119E+04  0.21416468119E+04  0.50400001928E-02 0. -1.
       -1   -1    0    0    0  501  0.00000000000E+00  0.00000000000E+00 -0.96483992793E+03  0.96483992795E+03  0.50400001928E-02 0.  1.
    10030    2    1    2    0    0  0.00000000000E+00  0.00000000000E+00  0.11768068839E+04  0.31064867398E+04  0.28749583341E+04 0.  0.
        1    1    3    3  502    0 -0.11338357948E+04 -0.86986623093E+03  0.75613153059E+03  0.16167825336E+04  0.50400001928E-02 0.  1.
       -1    1    3    3    0  502  0.11338357948E+04  0.86986623093E+03  0.42067535334E+03  0.14897042063E+04  0.50400001928E-02 0. -1.
</event>
<event>
 5   0  0.2508094E-06  0.3029468E+04  0.7818609E-02  0.8235366E-01
        1   -1    0    0  501    0  0.00000000000E+00  0.00000000000E+00  0.20276758613E+04  0.20276758613E+04  0.50400001928E-02 0.  1.
       -1   -1    0    0    0  501  0.00000000000E+00  0.00000000000E+00 -0.11315511659E+04  0.11315511659E+04  0.50400001928E-02 0. -1.
    10030    2    1    2    0    0  0.00000000000E+00  0.00000000000E+00  0.89612469548E+03  0.31592270272E+04  0.30294679301E+04 0.  0.
        3    1    3    3  502    0 -0.38905952760E+03  0.10167643418E+04 -0.65025442520E+03  0.12680725021E+04  0.10100000352E+00 0. -1.
       -3    1    3    3    0  502  0.38905952760E+03 -0.10167643418E+04  0.15463791207E+04  0.18911545251E+04  0.10100000352E+00 0.  1.
</event>
<event>
 5   0  0.2348684E-06  0.2905054E+04  0.7818609E-02  0.8271375E-01
        1   -1    0    0  501    0  0.00000000000E+00  0.00000000000E+00  0.88014853818E+03  0.88014853820E+03  0.50400001928E-02 0.  1.
       -1   -1    0    0    0  501  0.00000000000E+00  0.00000000000E+00 -0.23971345224E+04  0.23971345224E+04  0.50400001928E-02 0. -1.
    10030    2    1    2    0    0  0.00000000000E+00  0.00000000000E+00 -0.15169859842E+04  0.32772830606E+04  0.29050538348E+04 0.  0.
        5    1    3    3  502    0  0.12909684295E+04 -0.66297966879E+03 -0.69014247192E+03  0.16070034999E+04  0.46999998093E+01 0.  1.
       -5    1    3    3    0  502 -0.12909684295E+04  0.66297966879E+03 -0.82684351229E+03  0.16702795607E+04  0.46999998093E+01 0. -1.
</event>
<event>
 5   0  0.2348684E-06  0.2895262E+04  0.7818609E-02  0.8274289E-01
        1   -1    0    0  501    0  0.00000000000E+00  0.00000000000E+00  0.21546174065E+04  0.21546174065E+04  0.50400001928E-02 0.  1.
       -1   -1    0    0    0  501  0.00000000000E+00  0.00000000000E+00 -0.97262514214E+03  0.97262514216E+03  0.50400001928E-02 0. -1.
    10030    2    1    2    0    0  0.00000000000E+00  0.00000000000E+00  0.11819922643E+04  0.31272425486E+04  0.28952616885E+04 0.  0.
        5    1    3    3  502    0 -0.11757174868E+03  0.81082985995E+03  0.18800804022E+04  0.20508516735E+04  0.46999998093E+01 0.  1.
       -5    1    3    3    0  502  0.11757174868E+03 -0.81082985995E+03 -0.69808813787E+03  0.10763908752E+04  0.46999998093E+01 0. -1.
</event>
<event>
 5   0  0.6615403E-06  0.2895853E+04  0.7818609E-02  0.8274112E-01
        2   -1    0    0  501    0  0.00000000000E+00  0.00000000000E+00  0.13606045278E+04  0.13606045278E+04  0.25500000920E-02 0. -1.
       -2   -1    0    0    0  501  0.00000000000E+00  0.00000000000E+00 -0.15408524411E+04  0.15408524411E+04  0.25500000920E-02 0.  1.
    10030    2    1    2    0    0  0.00000000000E+00  0.00000000000E+00 -0.18024791328E+03  0.29014569689E+04  0.28958527643E+04 0.  0.
        2    1    3    3  502    0  0.30732816227E+03 -0.10182230171E+04  0.89425491448E+03  0.13895756777E+04  0.25500000920E-02 0. -1.
       -2    1    3    3    0  502 -0.30732816227E+03  0.10182230171E+04 -0.10745028278E+04  0.15118812913E+04  0.25500000920E-02 0.  1.
</event>
<event>
 5   0  0.6615403E-06  0.2901544E+04  0.7818609E-02  0.8272418E-01
        2   -1    0    0  501    0  0.00000000000E+00  0.00000000000E+00  0.22433686650E+04  0.22433686650E+04  0.25500000920E-02 0. -1.
       -2   -1    0    0    0  501  0.00000000000E+00  0.00000000000E+00 -0.93820497946E+03  0.93820497946E+03  0.25500000920E-02 0.  1.
    10030    2    1    2    0    0  0.00000000000E+00  0.00000000000E+00  0.13051636855E+04  0.31815736445E+04  0.29015441766E+04 0.  0.
        2    1    3    3  502    0  0.42695174224E+03 -0.12526973679E+04  0.91765061900E+00  0.13234573388E+04  0.25500000920E-02 0.  1.
       -2    1    3    3    0  502 -0.42695174224E+03  0.12526973679E+04  0.13042460349E+04  0.18581163056E+04  0.25500000920E-02 0. -1.
</event>
<event>
 5   0  0.2508094E-06  0.2803367E+04  0.7818609E-02  0.8302224E-01
       -1   -1    0    0    0  501  0.00000000000E+00  0.00000000000E+00  0.24739309894E+04  0.24739309894E+04  0.50400001928E-02 0.  1.
        1   -1    0    0  501    0  0.00000000000E+00  0.00000000000E+00 -0.79416764428E+03  0.79416764429E+03  0.50400001928E-02 0. -1.
    10030    2    1    2    0    0  0.00000000000E+00  0.00000000000E+00  0.16797633451E+04  0.32680986337E+04  0.28033665090E+04 0.  0.
        3    1    3    3  502    0 -0.44815762155E+03 -0.11750940960E+04  0.15613687865E+04  0.20048850057E+04  0.10100000352E+00 0.  1.
       -3    1    3    3    0  502  0.44815762155E+03  0.11750940960E+04  0.11839455862E+03  0.12632136280E+04  0.10100000352E+00 0. -1.
</event>
<event>
 5   0  0.2474769E-06  0.2903351E+04  0.7818609E-02  0.8271881E-01
        1   -1    0    0  501    0  0.00000000000E+00  0.00000000000E+00  0.14178913230E+04  0.14178913230E+04  0.50400001928E-02 0.  1.
       -1   -1    0    0    0  501  0.00000000000E+00  0.00000000000E+00 -0.14862649710E+04  0.14862649710E+04  0.50400001928E-02 0. -1.
    10030    2    1    2    0    0  0.00000000000E+00  0.00000000000E+00 -0.68373647951E+02  0.29041562940E+04  0.29033513091E+04 0.  0.
        1    1    3    3  502    0  0.20327468486E+03 -0.14359300705E+04 -0.98597542509E+02  0.14535945929E+04  0.50400001928E-02 0.  1.
       -1    1    3    3    0  502 -0.20327468486E+03  0.14359300705E+04  0.30223894559E+02  0.14505617011E+04  0.50400001928E-02 0. -1.
</event>
<event>
 5   0  0.6513041E-06  0.2979834E+04  0.7818609E-02  0.8249513E-01
        2   -1    0    0  501    0  0.00000000000E+00  0.00000000000E+00  0.21675969404E+04  0.21675969404E+04  0.25500000920E-02 0. -1.
       -2   -1    0    0    0  501  0.00000000000E+00  0.00000000000E+00 -0.10241078452E+04  0.10241078452E+04  0.25500000920E-02 0.  1.
    10030    2    1    2    0    0  0.00000000000E+00  0.00000000000E+00  0.11434890952E+04  0.31917047855E+04  0.29798342449E+04 0.  0.
        1    1    3    3  502    0 -0.62383871003E+03  0.59248065492E+03 -0.73115030666E+03  0.11290654691E+04  0.50400001928E-02 0.  1.
       -1    1    3    3    0  502  0.62383871003E+03 -0.59248065492E+03  0.18746394019E+04  0.20626393164E+04  0.50400001928E-02 0. -1.
</event>
<event>
 5   0  0.6733688E-06  0.2888918E+04  0.7818609E-02  0.8276182E-01
        2   -1    0    0  501    0  0.00000000000E+00  0.00000000000E+00  0.31165681388E+04  0.31165681388E+04  0.25500000920E-02 0.  1.
       -2   -1    0    0    0  501  0.00000000000E+00  0.00000000000E+00 -0.66947416118E+03  0.66947416118E+03  0.25500000920E-02 0. -1.
    10030    2    1    2    0    0  0.00000000000E+00  0.00000000000E+00  0.24470939776E+04  0.37860423000E+04  0.28889180262E+04 0.  0.
        5    1    3    3  502    0 -0.98755517469E+03 -0.88797668435E+02 -0.15301250459E+03  0.10032871800E+04  0.46999998093E+01 0. -1.
       -5    1    3    3    0  502  0.98755517469E+03  0.88797668435E+02  0.26001064822E+04  0.27827551200E+04  0.46999998093E+01 0.  1.
</event>
<event>
 5   0  0.2429358E-06  0.2916065E+04  0.7818609E-02  0.8268114E-01
       -1   -1    0    0    0  501  0.00000000000E+00  0.00000000000E+00  0.14262825217E+04  0.14262825217E+04  0.50400001928E-02 0.  1.
        1   -1    0    0  501    0  0.00000000000E+00  0.00000000000E+00 -0.14904887756E+04  0.14904887756E+04  0.50400001928E-02 0. -1.
    10030    2    1    2    0    0  0.00000000000E+00  0.00000000000E+00 -0.64206253872E+02  0.29167712973E+04  0.29160645325E+04 0.  0.
        2    1    3    3  502    0  0.23248617606E+03  0.85964864142E+03 -0.11868579169E+04  0.14838050154E+04  0.25500000920E-02 0. -1.
       -2    1    3    3    0  502 -0.23248617606E+03 -0.85964864142E+03  0.11226516630E+04  0.14329662820E+04  0.25500000920E-02 0.  1.
</event>
<event>
 5   0  0.2429358E-06  0.2910417E+04  0.7818609E-02  0.8269785E-01
       -1   -1    0    0    0  501  0.00000000000E+00  0.00000000000E+00  0.10215858446E+04  0.10215858446E+04  0.50400001928E-02 0. -1.
        1   -1    0    0  501    0  0.00000000000E+00  0.00000000000E+00 -0.20728868600E+04  0.20728868600E+04  0.50400001928E-02 0.  1.
    10030    2    1    2    0    0  0.00000000000E+00  0.00000000000E+00 -0.10513010154E+04  0.30944727046E+04  0.29104170654E+04 0.  0.
        2    1    3    3  502    0  0.10383632808E+04 -0.71860479167E+03  0.24330140275E+03  0.12859963927E+04  0.25500000920E-02 0. -1.
       -2    1    3    3    0  502 -0.10383632808E+04  0.71860479167E+03 -0.12946024182E+04  0.18084763119E+04  0.25500000920E-02 0.  1.
</event>
<event>
 5   0  0.2508094E-06  0.2884241E+04  0.7818609E-02  0.8277582E-01
        1   -1    0    0  501    0  0.00000000000E+00  0.00000000000E+00  0.20628551262E+04  0.20628551262E+04  0.50400001928E-02 0. -1.
       -1   -1    0    0    0  501  0.00000000000E+00  0.00000000000E+00 -0.10081710511E+04  0.10081710511E+04  0.50400001928E-02 0.  1.
    10030    2    1    2    0    0  0.00000000000E+00  0.00000000000E+00  0.10546840751E+04  0.30710261773E+04  0.28842405037E+04 0.  0.
        3    1    3    3  502    0  0.36982831815E+03 -0.99161207421E+03 -0.51571238597E+03  0.11772963798E+04  0.10100000352E+00 0.  1.
       -3    1    3    3    0  502 -0.36982831815E+03  0.99161207421E+03  0.15703964611E+04  0.18937297975E+04  0.10100000352E+00 0. -1.
</event>
<event>
 5   0  0.6612533E-06  0.2926065E+04  0.7818609E-02  0.8265165E-01
        2   -1    0    0  501    0  0.00000000000E+00  0.00000000000E+00  0.19778946597E+04  0.19778946597E+04  0.25500000920E-02 0. -1.
       -2   -1    0    0    0  501  0.00000000000E+00  0.00000000000E+00 -0.10821928131E+04  0.10821928131E+04  0.25500000920E-02 0.  1.
    10030    2    1    2    0    0  0.00000000000E+00  0.00000000000E+00  0.89570184663E+03  0.30600874728E+04  0.29260645145E+04 0.  0.
        3    1    3    3  502    0  0.86850225084E+03  0.10464331847E+04 -0.11644182201E+03  0.13648726233E+04  0.10100000352E+00 0.  1.
       -3    1    3    3    0  502 -0.86850225084E+03 -0.10464331847E+04  0.10121436686E+04  0.16952148495E+04  0.10100000352E+00 0. -1.
</event>
<event>
 5   0  0.2348684E-06  0.2599607E+04  0.7818609E-02  0.8368335E-01
        1   -1    0    0  501    0  0.00000000000E+00  0.00000000000E+00  0.10925279535E+04  0.10925279535E+04  0.50400001928E-02 0.  1.
       -1   -1    0    0    0  501  0.00000000000E+00  0.00000000000E+00 -0.15464036779E+04  0.15464036779E+04  0.50400001928E-02 0. -1.
    10030    2    1    2    0    0  0.00000000000E+00  0.00000000000E+00 -0.45387572434E+03  0.26389316314E+04  0.25996070823E+04 0.  0.
        5    1    3    3  502    0  0.43078221137E+03 -0.13391415964E+03  0.10105020214E+04  0.11066357762E+04  0.46999998093E+01 0.  1.
       -5    1    3    3    0  502 -0.43078221137E+03  0.13391415964E+03 -0.14643777458E+04  0.15322958553E+04  0.46999998093E+01 0. -1.
</event>
<event>
 5   0  0.2336512E-06  0.2885569E+04  0.7818609E-02  0.8277184E-01
        1   -1    0    0  501    0  0.00000000000E+00  0.00000000000E+00  0.18543070911E+04  0.18543070911E+04  0.50400001928E-02 0.  1.
       -1   -1    0    0    0  501  0.00000000000E+00  0.00000000000E+00 -0.11225905465E+04  0.11225905465E+04  0.50400001928E-02 0. -1.
    10030    2    1    2    0    0  0.00000000000E+00  0.00000000000E+00  0.73171654466E+03  0.29768976376E+04  0.28855693447E+04 0.  0.
        4    1    3    3  502    0  0.19793020267E+03 -0.18995667385E+03  0.18271518513E+04  0.18476323778E+04  0.12699999809E+01 0.  1.
       -4    1    3    3    0  502 -0.19793020267E+03  0.18995667385E+03 -0.10954353066E+04  0.11292652598E+04  0.12699999809E+01 0. -1.
</event>
<event>
 5   0  0.6612533E-06  0.2938100E+04  0.7818609E-02  0.8261631E-01
       -2   -1    0    0    0  501  0.00000000000E+00  0.00000000000E+00  0.98967881945E+03  0.98967881945E+03  0.25500000920E-02 0.  1.
        2   -1    0    0  501    0  0.00000000000E+00  0.00000000000E+00 -0.21806144595E+04  0.21806144595E+04  0.25500000920E-02 0. -1.
    10030    2    1    2    0    0  0.00000000000E+00  0.00000000000E+00 -0.11909356400E+04  0.31702932789E+04  0.29381000282E+04 0.  0.
        3    1    3    3  502    0 -0.13446531340E+03  0.90508633372E+03 -0.18355741172E+04  0.20509984257E+04  0.10100000352E+00 0. -1.
       -3    1    3    3    0  502  0.13446531340E+03 -0.90508633372E+03  0.64463847722E+03  0.11192948533E+04  0.10100000352E+00 0.  1.
</event>
<event>
 5   0  0.6733688E-06  0.2879751E+04  0.7818609E-02  0.8278928E-01
        2   -1    0    0  501    0  0.00000000000E+00  0.00000000000E+00  0.16888560389E+04  0.16888560389E+04  0.25500000920E-02 0.  1.
       -2   -1    0    0    0  501  0.00000000000E+00  0.00000000000E+00 -0.12276006902E+04  0.12276006902E+04  0.25500000920E-02 0. -1.
    10030    2    1    2    0    0  0.00000000000E+00  0.00000000000E+00  0.46125534876E+03  0.29164567291E+04  0.28797505719E+04 0.  0.
        5    1    3    3  502    0 -0.20717797096E+03 -0.28117450319E+03  0.16452993828E+04  0.16819672892E+04  0.46999998093E+01 0.  1.
       -5    1    3    3    0  502  0.20717797096E+03  0.28117450319E+03 -0.11840440340E+04  0.12344894400E+04  0.46999998093E+01 0. -1.
</event>
<event>
 5   0  0.6733688E-06  0.2901775E+04  0.7818609E-02  0.8272350E-01
       -2   -1    0    0    0  501  0.00000000000E+00  0.00000000000E+00  0.94977446141E+03  0.94977446142E+03  0.25500000920E-02 0. -1.
        2   -1    0    0  501    0  0.00000000000E+00  0.00000000000E+00 -0.22163937900E+04  0.22163937900E+04  0.25500000920E-02 0.  1.
    10030    2    1    2    0    0  0.00000000000E+00  0.00000000000E+00 -0.12666193286E+04  0.31661682514E+04  0.29017747798E+04 0.  0.
        5    1    3    3  502    0 -0.68168954519E+03  0.20500023159E+03  0.74613099887E+03  0.10312416247E+04  0.46999998093E+01 0. -1.
       -5    1    3    3    0  502  0.68168954519E+03 -0.20500023159E+03 -0.20127503275E+04  0.21349266268E+04  0.46999998093E+01 0.  1.
</event>
<event>
 5   0  0.6733688E-06  0.2870705E+04  0.7818609E-02  0.8281647E-01
        2   -1    0    0  501    0  0.00000000000E+00  0.00000000000E+00  0.12473208240E+04  0.12473208240E+04  0.25500000920E-02 0. -1.
       -2   -1    0    0    0  501  0.00000000000E+00  0.00000000000E+00 -0.16517294659E+04  0.16517294659E+04  0.25500000920E-02 0.  1.
    10030    2    1    2    0    0  0.00000000000E+00  0.00000000000E+00 -0.40440864183E+03  0.28990502899E+04  0.28707048322E+04 0.  0.
        5    1    3    3  502    0 -0.77687870299E+03  0.11670900855E+04 -0.51277085322E+03  0.14928482256E+04  0.46999998093E+01 0. -1.
       -5    1    3    3    0  502  0.77687870299E+03 -0.11670900855E+04  0.10836221139E+03  0.14062020643E+04  0.46999998093E+01 0.  1.
</event>
<event>
 5   0  0.6615403E-06  0.2879949E+04  0.7818609E-02  0.8278868E-01
        2   -1    0    0  501    0  0.00000000000E+00  0.00000000000E+00  0.21716158869E+04  0.21716158869E+04  0.25500000920E-02 0. -1.
       -2   -1    0    0    0  501  0.00000000000E+00  0.00000000000E+00 -0.95483126985E+03  0.95483126986E+03  0.25500000920E-02 0.  1.
    10030    2    1    2    0    0  0.00000000000E+00  0.00000000000E+00  0.12167846170E+04  0.31264471567E+04  0.28799491349E+04 0.  0.
        2    1    3    3  502    0 -0.18533238514E+03  0.12248497679E+04  0.14053387100E+04  0.18733878234E+04  0.25500000920E-02 0.  1.
       -2    1    3    3    0  502  0.18533238514E+03 -0.12248497679E+04 -0.18855409292E+03  0.12530593334E+04  0.25500000920E-02 0. -1.
</event>
<event>
 5   0  0.6393633E-06  0.2900217E+04  0.7818609E-02  0.8272813E-01
       -2   -1    0    0    0  501  0.00000000000E+00  0.00000000000E+00  0.98603682926E+03  0.98603682926E+03  0.25500000920E-02 0. -1.
        2   -1    0    0  501    0  0.00000000000E+00  0.00000000000E+00 -0.21325916916E+04  0.21325916916E+04  0.25500000920E-02 0.  1.
    10030    2    1    2    0    0  0.00000000000E+00  0.00000000000E+00 -0.11465548623E+04  0.31186285209E+04  0.29002165089E+04 0.  0.
        4    1    3    3  502    0 -0.10185869573E+04 -0.36274984259E+03  0.46577672597E+03  0.11773089693E+04  0.12699999809E+01 0. -1.
       -4    1    3    3    0  502  0.10185869573E+04  0.36274984259E+03 -0.16123315883E+04  0.19413195516E+04  0.12699999809E+01 0.  1.
</event>
<event>
 5   0  0.6612533E-06  0.2895266E+04  0.7818609E-02  0.8274287E-01
        2   -1    0    0  501    0  0.00000000000E+00  0.00000000000E+00  0.18849544426E+04  0.18849544426E+04  0.25500000920E-02 0.  1.
       -2   -1    0    0    0  501  0.00000000000E+00  0.00000000000E+00 -0.11117727784E+04  0.11117727784E+04  0.25500000920E-02 0. -1.
    10030    2    1    2    0    0  0.00000000000E+00  0.00000000000E+00  0.77318166413E+03  0.29967272210E+04  0.28952658170E+04 0.  0.
        3    1    3    3  502    0  0.50815567325E+03 -0.12955310540E+04 -0.26154421408E+02  0.13918717484E+04  0.10100000352E+00 0.  1.
       -3    1    3    3    0  502 -0.50815567325E+03  0.12955310540E+04  0.79933608554E+03  0.16048554726E+04  0.10100000352E+00 0. -1.
</event>
<event>
 5   0  0.6733688E-06  0.2899490E+04  0.7818609E-02  0.8273029E-01
       -2   -1    0    0    0  501  0.00000000000E+00  0.00000000000E+00  0.16860555483E+04  0.16860555483E+04  0.25500000920E-02 0.  1.
        2   -1    0    0  501    0  0.00000000000E+00  0.00000000000E+00 -0.12465548204E+04  0.12465548204E+04  0.25500000920E-02 0. -1.
    10030    2    1    2    0    0  0.00000000000E+00  0.00000000000E+00  0.43950072792E+03  0.29326103688E+04  0.28994900733E+04 0.  0.
        5    1    3    3  502    0 -0.52924867744E+03  0.91978622003E+03 -0.77927107195E+03  0.13165851080E+04  0.46999998093E+01 0. -1.
       -5    1    3    3    0  502  0.52924867744E+03 -0.91978622003E+03  0.12187717999E+04  0.16160252607E+04  0.46999998093E+01 0.  1.
</event>
<event>
 5   0  0.6513041E-06  0.2871091E+04  0.7818609E-02  0.8281531E-01
        2   -1    0    0  501    0  0.00000000000E+00  0.00000000000E+00  0.24607151258E+04  0.24607151258E+04  0.25500000920E-02 0. -1.
       -2   -1    0    0    0  501  0.00000000000E+00  0.00000000000E+00 -0.83747617979E+03  0.83747617979E+03  0.25500000920E-02 0.  1.
    10030    2    1    2    0    0  0.00000000000E+00  0.00000000000E+00  0.16232389461E+04  0.32981913056E+04  0.28710905964E+04 0.  0.
        1    1    3    3  502    0 -0.77449362603E+02  0.33719733178E+03 -0.78886610872E+03  0.86140012877E+03  0.50400001928E-02 0.  1.
       -1    1    3    3    0  502  0.77449362603E+02 -0.33719733178E+03  0.24121050548E+04  0.24367911769E+04  0.50400001928E-02 0. -1.
</event>
<event>
 5   0  0.2159500E-06  0.2906025E+04  0.7818609E-02  0.8271087E-01
        3   -1    0    0  501    0  0.00000000000E+00  0.00000000000E+00  0.13673344555E+04  0.13673344592E+04  0.10100000352E+00 0. -1.
       -3   -1    0    0    0  501  0.00000000000E+00  0.00000000000E+00 -0.15440594947E+04  0.15440594980E+04  0.10100000352E+00 0.  1.
    10030    2    1    2    0    0  0.00000000000E+00  0.00000000000E+00 -0.17672503915E+03  0.29113939572E+04  0.29060252983E+04 0.  0.
        5    1    3    3  502    0  0.26078147666E+03  0.14291287460E+04 -0.11683539219E+03  0.14574253155E+04  0.46999998093E+01 0. -1.
       -5    1    3    3    0  502 -0.26078147666E+03 -0.14291287460E+04 -0.59889646960E+02  0.14539686417E+04  0.46999998093E+01 0.  1.
</event>
<event>
 5   0  0.6513041E-06  0.2953415E+04  0.7818609E-02  0.8257160E-01
        2   -1    0    0  501    0  0.00000000000E+00  0.00000000000E+00  0.10655885407E+04  0.10655885407E+04  0.25500000920E-02 0.  1.
       -2   -1    0    0    0  501  0.00000000000E+00  0.00000000000E+00 -0.20464422416E+04  0.20464422416E+04  0.25500000920E-02 0. -1.
    10030    2    1    2    0    0  0.00000000000E+00  0.00000000000E+00 -0.98085370093E+03  0.31120307823E+04  0.29534152447E+04 0.  0.
        1    1    3    3  502    0 -0.14750703862E+04  0.66988308955E+02 -0.47084594611E+03  0.15498438576E+04  0.50400001928E-02 0. -1.
       -1    1    3    3    0  502  0.14750703862E+04 -0.66988308955E+02 -0.51000775482E+03  0.15621869247E+04  0.50400001928E-02 0.  1.
</event>
<event>
 5   0  0.2429358E-06  0.2766030E+04  0.7818609E-02  0.8313893E-01
        1   -1    0    0  501    0  0.00000000000E+00  0.00000000000E+00  0.15031512670E+04  0.15031512670E+04  0.50400001928E-02 0. -1.
       -1   -1    0    0    0  501  0.00000000000E+00  0.00000000000E+00 -0.12724802694E+04  0.12724802694E+04  0.50400001928E-02 0.  1.
    10030    2    1    2    0    0  0.00000000000E+00  0.00000000000E+00  0.23067099763E+03  0.27756315364E+04  0.27660298835E+04 0.  0.
        2    1    3    3  502    0  0.11119770936E+04  0.50804030749E+03  0.76421165196E+03  0.14417411209E+04  0.25500000920E-02 0. -1.
       -2    1    3    3    0  502 -0.11119770936E+04 -0.50804030749E+03 -0.53354065433E+03  0.13338904155E+04  0.25500000920E-02 0.  1.
</event>
<event>
 5   0  0.6612533E-06  0.2927840E+04  0.7818609E-02  0.8264642E-01
       -2   -1    0    0    0  501  0.00000000000E+00  0.00000000000E+00  0.13445252067E+04  0.13445252067E+04  0.25500000920E-02 0. -1.
        2   -1    0    0  501    0  0.00000000000E+00  0.00000000000E+00 -0.15939175981E+04  0.15939175981E+04  0.25500000920E-02 0.  1.
    10030    2    1    2    0    0  0.00000000000E+00  0.00000000000E+00 -0.24939239141E+03  0.29384428049E+04  0.29278404247E+04 0.  0.
        3    1    3    3  502    0  0.14343270158E+04  0.12591869806E+03 -0.39006410831E+03  0.14917437868E+04  0.10100000352E+00 0.  1.
       -3    1    3    3    0  502 -0.14343270158E+04 -0.12591869806E+03  0.14067171690E+03  0.14466990181E+04  0.10100000352E+00 0. -1.
</event>
<event>
 5   0  0.2336512E-06  0.2917770E+04  0.7818609E-02  0.8267610E-01
       -1   -1    0    0    0  501  0.00000000000E+00  0.00000000000E+00  0.94859062940E+03  0.94859062941E+03  0.50400001928E-02 0. -1.
        1   -1    0    0  501    0  0.00000000000E+00  0.00000000000E+00 -0.22436925466E+04  0.22436925466E+04  0.50400001928E-02 0.  1.
    10030    2    1    2    0    0  0.00000000000E+00  0.00000000000E+00 -0.12951019172E+04  0.31922831760E+04  0.29177701931E+04 0.  0.
        4    1    3    3  502    0 -0.47559390010E+03 -0.13652527736E+04 -0.86149784233E+03  0.16829393450E+04  0.12699999809E+01 0.  1.
       -4    1    3    3    0  502  0.47559390010E+03  0.13652527736E+04 -0.43360407486E+03  0.15093438310E+04  0.12699999809E+01 0. -1.
</event>
<event>
 5   0  0.2474769E-06  0.2882128E+04  0.7818609E-02  0.8278215E-01
        1   -1    0    0  501    0  0.00000000000E+00  0.00000000000E+00  0.23350327579E+04  0.23350327579E+04  0.50400001928E-02 0.  1.
       -1   -1    0    0    0  501  0.00000000000E+00  0.00000000000E+00 -0.88935153124E+03  0.88935153125E+03  0.50400001928E-02 0. -1.
    10030    2    1    2    0    0  0.00000000000E+00  0.00000000000E+00  0.14456812267E+04  0.32243842892E+04  0.28821276577E+04 0.  0.
        1    1    3    3  502    0 -0.21920513611E+03  0.54292902473E+03  0.21959614094E+04  0.22726788882E+04  0.50400001928E-02 0.  1.
       -1    1    3    3    0  502  0.21920513611E+03 -0.54292902473E+03 -0.75028018269E+03  0.95170540093E+03  0.50400001928E-02 0. -1.
</event>
<event>
 5   0  0.2348684E-06  0.2837000E+04  0.7818609E-02  0.8291873E-01
        1   -1    0    0  501    0  0.00000000000E+00  0.00000000000E+00  0.13138344531E+04  0.13138344532E+04  0.50400001928E-02 0.  1.
       -1   -1    0    0    0  501  0.00000000000E+00  0.00000000000E+00 -0.15315032379E+04  0.15315032379E+04  0.50400001928E-02 0. -1.
    10030    2    1    2    0    0  0.00000000000E+00  0.00000000000E+00 -0.21766878471E+03  0.28453376910E+04  0.28369996257E+04 0.  0.
        5    1    3    3  502    0 -0.54580461463E+03 -0.13026771083E+04  0.22888214526E+02  0.14125920452E+04  0.46999998093E+01 0. -1.
       -5    1    3    3    0  502  0.54580461463E+03  0.13026771083E+04 -0.24055699923E+03  0.14327456458E+04  0.46999998093E+01 0.  1.
</event>
<event>
 5   0  0.6393633E-06  0.2899878E+04  0.7818609E-02  0.8272914E-01
       -2   -1    0    0    0  501  0.00000000000E+00  0.00000000000E+00  0.16453279683E+04  0.16453279683E+04  0.25500000920E-02 0.  1.
        2   -1    0    0  501    0  0.00000000000E+00  0.00000000000E+00 -0.12777534642E+04  0.12777534642E+04  0.25500000920E-02 0. -1.
    10030    2    1    2    0    0  0.00000000000E+00  0.00000000000E+00  0.36757450410E+03  0.29230814325E+04  0.28998782811E+04 0.  0.
        4    1    3    3  502    0  0.85259686012E+03  0.11727214311E+04  0.19505423971E+03  0.14629575285E+04  0.12699999809E+01 0.  1.
       -4    1    3    3    0  502 -0.85259686012E+03 -0.11727214311E+04  0.17252026439E+03  0.14601239041E+04  0.12699999809E+01 0. -1.
</event>
<event>
 5   0  0.2429358E-06  0.2848842E+04  0.7818609E-02  0.8288263E-01
        1   -1    0    0  501    0  0.00000000000E+00  0.00000000000E+00  0.15573273132E+04  0.15573273132E+04  0.50400001928E-02 0.  1.
       -1   -1    0    0    0  501  0.00000000000E+00  0.00000000000E+00 -0.13028571021E+04  0.13028571021E+04  0.50400001928E-02 0. -1.
    10030    2    1    2    0    0  0.00000000000E+00  0.00000000000E+00  0.25447021110E+03  0.28601844154E+04  0.28488418351E+04 0.  0.
        2    1    3    3  502    0 -0.80524562422E+03 -0.48416020164E+03  0.12020784314E+04  0.15257208695E+04  0.25500000920E-02 0.  1.
       -2    1    3    3    0  502  0.80524562422E+03  0.48416020164E+03 -0.94760822032E+03  0.13344635459E+04  0.25500000920E-02 0. -1.
</event>
<event>
 5   0  0.6615403E-06  0.2591417E+04  0.7818609E-02  0.8371122E-01
       -2   -1    0    0    0  501  0.00000000000E+00  0.00000000000E+00  0.95318385572E+03  0.95318385572E+03  0.25500000920E-02 0.  1.
        2   -1    0    0  501    0  0.00000000000E+00  0.00000000000E+00 -0.17613191307E+04  0.17613191307E+04  0.25500000920E-02 0. -1.
    10030    2    1    2    0    0  0.00000000000E+00  0.00000000000E+00 -0.80813527498E+03  0.27145029864E+04  0.25914173420E+04 0.  0.
        2    1    3    3  502    0  0.21380470495E+03 -0.99577526564E+03  0.43496415069E+03  0.11074631569E+04  0.25500000920E-02 0.  1.
       -2    1    3    3    0  502 -0.21380470495E+03  0.99577526564E+03 -0.12430994257E+04  0.16070398295E+04  0.25500000920E-02 0. -1.
</event>
<event>
 5   0  0.6513041E-06  0.2899213E+04  0.7818609E-02  0.8273112E-01
        2   -1    0    0  501    0  0.00000000000E+00  0.00000000000E+00  0.22003925911E+04  0.22003925911E+04  0.25500000920E-02 0. -1.
       -2   -1    0    0    0  501  0.00000000000E+00  0.00000000000E+00 -0.95499253676E+03  0.95499253676E+03  0.25500000920E-02 0.  1.
    10030    2    1    2    0    0  0.00000000000E+00  0.00000000000E+00  0.12454000543E+04  0.31553851278E+04  0.28992126534E+04 0.  0.
        1    1    3    3  502    0  0.82427899441E+03 -0.49239865500E+03  0.18046934335E+04  0.20442139529E+04  0.50400001928E-02 0. -1.
       -1    1    3    3    0  502 -0.82427899441E+03  0.49239865500E+03 -0.55929337919E+03  0.11111711750E+04  0.50400001928E-02 0.  1.
</event>
<event>
 5   0  0.6733688E-06  0.2905187E+04  0.7818609E-02  0.8271336E-01
        2   -1    0    0  501    0  0.00000000000E+00  0.00000000000E+00  0.23397895549E+04  0.23397895549E+04  0.25500000920E-02 0. -1.
       -2   -1    0    0    0  501  0.00000000000E+00  0.00000000000E+00 -0.90180253305E+03  0.90180253305E+03  0.25500000920E-02 0.  1.
    10030    2    1    2    0    0  0.00000000000E+00  0.00000000000E+00  0.14379870219E+04  0.32415920880E+04  0.29051871867E+04 0.  0.
        5    1    3    3  502    0  0.69526318492E+03 -0.12230550099E+04  0.31552675533E+03  0.14418161037E+04  0.46999998093E+01 0. -1.
       -5    1    3    3    0  502 -0.69526318492E+03  0.12230550099E+04  0.11224602665E+04  0.17997759843E+04  0.46999998093E+01 0.  1.
</event>
<event>
 5   0  0.2429358E-06  0.2938309E+04  0.7818609E-02  0.8261570E-01
        1   -1    0    0  501    0  0.00000000000E+00  0.00000000000E+00  0.21357913024E+04  0.21357913024E+04  0.50400001928E-02 0. -1.
       -1   -1    0    0    0  501  0.00000000000E+00  0.00000000000E+00 -0.10105925502E+04  0.10105925502E+04  0.50400001928E-02 0.  1.
    10030    2    1    2    0    0  0.00000000000E+00  0.00000000000E+00  0.11251987522E+04  0.31463838526E+04  0.29383088871E+04 0.  0.
        2    1    3    3  502    0  0.16641402825E+02 -0.57635332256E+03  0.20095684673E+04  0.20906519351E+04  0.25500000920E-02 0. -1.
       -2    1    3    3    0  502 -0.16641402825E+02  0.57635332256E+03 -0.88436971514E+03  0.10557319176E+04  0.25500000920E-02 0.  1.
</event>
<event>
 5   0  0.2336512E-06  0.2932290E+04  0.7818609E-02  0.8263334E-01
        1   -1    0    0  501    0  0.00000000000E+00  0.00000000000E+00  0.16216402261E+04  0.16216402261E+04  0.50400001928E-02 0. -1.
       -1   -1    0    0    0  501  0.00000000000E+00  0.00000000000E+00 -0.13255601873E+04  0.13255601873E+04  0.50400001928E-02 0.  1.
    10030    2    1    2    0    0  0.00000000000E+00  0.00000000000E+00  0.29608003881E+03  0.29472004135E+04  0.29322903826E+04 0.  0.
        4    1    3    3  502    0  0.13291739599E+04 -0.30454704616E+03  0.68941397446E+03  0.15279874214E+04  0.12699999809E+01 0. -1.
       -4    1    3    3    0  502 -0.13291739599E+04  0.30454704616E+03 -0.39333393565E+03  0.14192129921E+04  0.12699999809E+01 0.  1.
</event>
<event>
 5   0  0.6393633E-06  0.2903494E+04  0.7818609E-02  0.8271839E-01
       -2   -1    0    0    0  501  0.00000000000E+00  0.00000000000E+00  0.10081025040E+04  0.10081025040E+04  0.25500000920E-02 0.  1.
        2   -1    0    0  501    0  0.00000000000E+00  0.00000000000E+00 -0.20906303655E+04  0.20906303655E+04  0.25500000920E-02 0. -1.
    10030    2    1    2    0    0  0.00000000000E+00  0.00000000000E+00 -0.10825278615E+04  0.30987328695E+04  0.29034942441E+04 0.  0.
        4    1    3    3  502    0  0.11626208858E+04 -0.31835161917E+03  0.32216967640E+03  0.12477299350E+04  0.12699999809E+01 0.  1.
       -4    1    3    3    0  502 -0.11626208858E+04  0.31835161917E+03 -0.14046975379E+04  0.18510029345E+04  0.12699999809E+01 0. -1.
</event>
<event>
 5   0  0.6612533E-06  0.2879001E+04  0.7818609E-02  0.8279153E-01
       -2   -1    0    0    0  501  0.00000000000E+00  0.00000000000E+00  0.94863746111E+03  0.94863746111E+03  0.25500000920E-02 0. -1.
        2   -1    0    0  501    0  0.00000000000E+00  0.00000000000E+00 -0.21843558341E+04  0.21843558341E+04  0.25500000920E-02 0.  1.
    10030    2    1    2    0    0  0.00000000000E+00  0.00000000000E+00 -0.12357183730E+04  0.31329932952E+04  0.28790010578E+04 0.  0.
        3    1    3    3  502    0 -0.88027770180E+03 -0.69088746553E+03  0.36753648037E+03  0.11778358956E+04  0.10100000352E+00 0. -1.
       -3    1    3    3    0  502  0.88027770180E+03  0.69088746553E+03 -0.16032548534E+04  0.19551573997E+04  0.10100000352E+00 0.  1.
</event>
<event>
 5   0  0.2474769E-06  0.2910822E+04  0.7818609E-02  0.8269665E-01
        1   -1    0    0  501    0  0.00000000000E+00  0.00000000000E+00  0.11779839365E+04  0.11779839365E+04  0.50400001928E-02 0. -1.
       -1   -1    0    0    0  501  0.00000000000E+00  0.00000000000E+00 -0.17981753560E+04  0.17981753560E+04  0.50400001928E-02 0.  1.
    10030    2    1    2    0    0  0.00000000000E+00  0.00000000000E+00 -0.62019141954E+03  0.29761592925E+04  0.29108223472E+04 0.  0.
        1    1    3    3  502    0 -0.29702473434E+03 -0.25398286742E+03  0.11233325680E+04  0.11893725439E+04  0.50400001928E-02 0. -1.
       -1    1    3    3    0  502  0.29702473434E+03  0.25398286742E+03 -0.17435239875E+04  0.17867867486E+04  0.50400001928E-02 0.  1.
</event>
<event>
 5   0  0.2508094E-06  0.2910315E+04  0.7818609E-02  0.8269815E-01
        1   -1    0    0  501    0  0.00000000000E+00  0.00000000000E+00  0.17428016313E+04  0.17428016313E+04  0.50400001928E-02 0. -1.
       -1   -1    0    0    0  501  0.00000000000E+00  0.00000000000E+00 -0.12149879202E+04  0.12149879202E+04  0.50400001928E-02 0.  1.
    10030    2    1    2    0    0  0.00000000000E+00  0.00000000000E+00  0.52781371111E+03  0.29577895515E+04  0.29103147110E+04 0.  0.
        3    1    3    3  502    0  0.56701028525E+03  0.47186718801E+03 -0.10108763878E+04  0.12514113585E+04  0.10100000352E+00 0.  1.
       -3    1    3    3    0  502 -0.56701028525E+03 -0.47186718801E+03  0.15386900989E+04  0.17063781929E+04  0.10100000352E+00 0. -1.
</event>
<event>
 5   0  0.2429358E-06  0.2896640E+04  0.7818609E-02  0.8273878E-01
        1   -1    0    0  501    0  0.00000000000E+00  0.00000000000E+00  0.17269784826E+04  0.17269784826E+04  0.50400001928E-02 0. -1.
       -1   -1    0    0    0  501  0.00000000000E+00  0.00000000000E+00 -0.12146250235E+04  0.12146250235E+04  0.50400001928E-02 0.  1.
    10030    2    1    2    0    0  0.00000000000E+00  0.00000000000E+00  0.51235345915E+03  0.29416035061E+04  0.28966403160E+04 0.  0.
        2    1    3    3  502    0  0.53487355538E+03  0.11068504369E+04 -0.52149320547E+03  0.13353511798E+04  0.25500000920E-02 0.  1.
       -2    1    3    3    0  502 -0.53487355538E+03 -0.11068504369E+04  0.10338466646E+04  0.16062523264E+04  0.25500000920E-02 0. -1.
</event>
<event>
 5   0  0.2429358E-06  0.2909400E+04  0.7818609E-02  0.8270086E-01
        1   -1    0    0  501    0  0.00000000000E+00  0.00000000000E+00  0.15505653393E+04  0.15505653393E+04  0.50400001928E-02 0.  1.
       -1   -1    0    0    0  501  0.00000000000E+00  0.00000000000E+00 -0.13647617937E+04  0.13647617937E+04  0.50400001928E-02 0. -1.
    10030    2    1    2    0    0  0.00000000000E+00  0.00000000000E+00  0.18580354562E+03  0.29153271329E+04  0.29094001675E+04 0.  0.
        2    1    3    3  502    0  0.21701752822E+03 -0.14189587303E+04 -0.14340028162E+03  0.14426032465E+04  0.25500000920E-02 0. -1.
       -2    1    3    3    0  502 -0.21701752822E+03  0.14189587303E+04  0.32920382724E+03  0.14727238865E+04  0.25500000920E-02 0.  1.
</event>
<event>
 5   0  0.6733688E-06  0.2904611E+04  0.7818609E-02  0.8271507E-01
        2   -1    0    0  501    0  0.00000000000E+00  0.00000000000E+00  0.13314285925E+04  0.13314285925E+04  0.25500000920E-02 0. -1.
       -2   -1    0    0    0  501  0.00000000000E+00  0.00000000000E+00 -0.15841565544E+04  0.15841565544E+04  0.25500000920E-02 0.  1.
    10030    2    1    2    0    0  0.00000000000E+00  0.00000000000E+00 -0.25272796188E+03  0.29155851469E+04  0.29046110456E+04 0.  0.
        5    1    3    3  502    0 -0.13243837704E+04  0.59180899978E+03 -0.19690736443E+03  0.14639073959E+04  0.46999998093E+01 0.  1.
       -5    1    3    3    0  502  0.13243837704E+04 -0.59180899978E+03 -0.55820597448E+02  0.14516777510E+04  0.46999998093E+01 0. -1.
</event>
<event>
 5   0  0.2348684E-06  0.2878684E+04  0.7818609E-02  0.8279248E-01
       -1   -1    0    0    0  501  0.00000000000E+00  0.00000000000E+00  0.10970454321E+04  0.10970454321E+04  0.50400001928E-02 0.  1.
        1   -1    0    0  501    0  0.00000000000E+00  0.00000000000E+00 -0.18884406822E+04  0.18884406822E+04  0.50400001928E-02 0. -1.
    10030    2    1    2    0    0  0.00000000000E+00  0.00000000000E+00 -0.79139525015E+03  0.29854861143E+04  0.28786838827E+04 0.  0.
        5    1    3    3  502    0 -0.91208610708E+03 -0.42415851126E+03 -0.14633938617E+04  0.17757689022E+04  0.46999998093E+01 0. -1.
       -5    1    3    3    0  502  0.91208610708E+03  0.42415851126E+03  0.67199861157E+03  0.12097172121E+04  0.46999998093E+01 0.  1.
</event>
<event>
 5   0  0.2508094E-06  0.2903981E+04  0.7818609E-02  0.8271694E-01
        1   -1    0    0  501    0  0.00000000000E+00  0.00000000000E+00  0.19704083199E+04  0.19704083199E+04  0.50400001928E-02 0. -1.
       -1   -1    0    0    0  501  0.00000000000E+00  0.00000000000E+00 -0.10699692391E+04  0.10699692391E+04  0.50400001928E-02 0.  1.
    10030    2    1    2    0    0  0.00000000000E+00  0.00000000000E+00  0.90043908080E+03  0.30403775590E+04  0.29039809164E+04 0.  0.
        3    1    3    3  502    0 -0.10688124127E+04 -0.10800704009E+03  0.14729590264E+04  0.18230835959E+04  0.10100000352E+00 0. -1.
       -3    1    3    3    0  502  0.10688124127E+04  0.10800704009E+03 -0.57251994560E+03  0.12172939630E+04  0.10100000352E+00 0.  1.
</event>
<event>
 5   0  0.2348684E-06  0.2920170E+04  0.7818609E-02  0.8266901E-01
       -1   -1    0    0    0  501  0.00000000000E+00  0.00000000000E+00  0.14603965718E+04  0.14603965718E+04  0.50400001928E-02 0. -1.
        1   -1    0    0  501    0  0.00000000000E+00  0.00000000000E+00 -0.14597738644E+04  0.14597738644E+04  0.50400001928E-02 0.  1.
    10030    2    1    2    0    0  0.00000000000E+00  0.00000000000E+00  0.62270745384E+00  0.29201704362E+04  0.29201703698E+04 0.  0.
        5    1    3    3  502    0 -0.14600364978E+04 -0.11126386226E+01  0.11212928385E+02  0.14600875428E+04  0.46999998093E+01 0.  1.
       -5    1    3    3    0  502  0.14600364978E+04  0.11126386226E+01 -0.10590220931E+02  0.14600828934E+04  0.46999998093E+01 0. -1.
</event>
<event>
 5   0  0.2474769E-06  0.2890513E+04  0.7818609E-02  0.8275706E-01
        1   -1    0    0  501    0  0.00000000000E+00  0.00000000000E+00  0.13349973813E+04  0.13349973813E+04  0.50400001928E-02 0. -1.
       -1   -1    0    0    0  501  0.00000000000E+00  0.00000000000E+00 -0.15646218953E+04  0.15646218953E+04  0.50400001928E-02 0.  1.
    10030    2    1    2    0    0  0.00000000000E+00  0.00000000000E+00 -0.22962451392E+03  0.28996192766E+04  0.28905128493E+04 0.  0.
        1    1    3    3  502    0  0.65349472386E+03 -0.11258968740E+03  0.11733807106E+04  0.13477960097E+04  0.50400001928E-02 0. -1.
       -1    1    3    3    0  502 -0.65349472386E+03  0.11258968740E+03 -0.14030052245E+04  0.15518232669E+04  0.50400001928E-02 0.  1.
</event>
<event>
 5   0  0.6615403E-06  0.2964074E+04  0.7818609E-02  0.8254065E-01
        2   -1    0    0  501    0  0.00000000000E+00  0.00000000000E+00  0.20359128757E+04  0.20359128757E+04  0.25500000920E-02 0. -1.
       -2   -1    0    0    0  501  0.00000000000E+00  0.00000000000E+00 -0.10788444912E+04  0.10788444912E+04  0.25500000920E-02 0.  1.
    10030    2    1    2    0    0  0.00000000000E+00  0.00000000000E+00  0.95706838449E+03  0.31147573669E+04  0.29640738119E+04 0.  0.
        2    1    3    3  502    0  0.77182857292E+03 -0.94541933813E+03  0.13620474436E+04  0.18288549176E+04  0.25500000920E-02 0. -1.
       -2    1    3    3    0  502 -0.77182857292E+03  0.94541933813E+03 -0.40497905912E+03  0.12859024493E+04  0.25500000920E-02 0.  1.
</event>
<event>
 5   0  0.6513041E-06  0.2906060E+04  0.7818609E-02  0.8271077E-01
       -2   -1    0    0    0  501  0.00000000000E+00  0.00000000000E+00  0.11494456352E+04  0.11494456352E+04  0.25500000920E-02 0. -1.
        2   -1    0    0  501    0  0.00000000000E+00  0.00000000000E+00 -0.18367951654E+04  0.18367951654E+04  0.25500000920E-02 0.  1.
    10030    2    1    2    0    0  0.00000000000E+00  0.00000000000E+00 -0.68734953018E+03  0.29862408006E+04  0.29060600033E+04 0.  0.
        1    1    3    3  502    0  0.56778399922E+03  0.94838557307E+03  0.62547056608E+03  0.12700501148E+04  0.50400001928E-02 0. -1.
       -1    1    3    3    0  502 -0.56778399922E+03 -0.94838557307E+03 -0.13128200963E+04  0.17161906858E+04  0.50400001928E-02 0.  1.
</event>
<event>
 5   0  0.2348684E-06  0.2893443E+04  0.7818609E-02  0.8274831E-01
       -1   -1    0    0    0  501  0.00000000000E+00  0.00000000000E+00  0.16208147801E+04  0.16208147801E+04  0.50400001928E-02 0. -1.
        1   -1    0    0  501    0  0.00000000000E+00  0.00000000000E+00 -0.12913277095E+04  0.12913277095E+04  0.50400001928E-02 0.  1.
    10030    2    1    2    0    0  0.00000000000E+00  0.00000000000E+00  0.32948707060E+03  0.29121424896E+04  0.28934429578E+04 0.  0.
        5    1    3    3  502    0  0.13683021331E+04  0.18853114453E+03  0.59785735224E+03  0.15050748232E+04  0.46999998093E+01 0.  1.
       -5    1    3    3    0  502 -0.13683021331E+04 -0.18853114453E+03 -0.26837028164E+03  0.14070676664E+04  0.46999998093E+01 0. -1.
</event>
<event>
 5   0  0.2429358E-06  0.2902917E+04  0.7818609E-02  0.8272010E-01
        1   -1    0    0  501    0  0.00000000000E+00  0.00000000000E+00  0.24525125791E+04  0.24525125791E+04  0.50400001928E-02 0.  1.
       -1   -1    0    0    0  501  0.00000000000E+00  0.00000000000E+00 -0.85900960777E+03  0.85900960779E+03  0.50400001928E-02 0. -1.
    10030    2    1    2    0    0  0.00000000000E+00  0.00000000000E+00  0.15935029713E+04  0.33115221869E+04  0.29029170630E+04 0.  0.
        2    1    3    3  502    0  0.16897264723E+01  0.12817748710E+04  0.19878399333E+02  0.12819301174E+04  0.25500000920E-02 0. -1.
       -2    1    3    3    0  502 -0.16897264723E+01 -0.12817748710E+04  0.15736245720E+04  0.20295920695E+04  0.25500000920E-02 0.  1.
</event>
<event>
 5   0  0.2508094E-06  0.2924581E+04  0.7818609E-02  0.8265601E-01
       -1   -1    0    0    0  501  0.00000000000E+00  0.00000000000E+00  0.12638196736E+04  0.12638196736E+04  0.50400001928E-02 0.  1.
        1   -1    0    0  501    0  0.00000000000E+00  0.00000000000E+00 -0.16919289350E+04  0.16919289350E+04  0.50400001928E-02 0. -1.
    10030    2    1    2    0    0  0.00000000000E+00  0.00000000000E+00 -0.42810926148E+03  0.29557486086E+04  0.29245807046E+04 0.  0.
        3    1    3    3  502    0  0.47609743062E+03  0.68622508184E+03  0.99903695751E+03  0.13021706797E+04  0.10100000352E+00 0.  1.
       -3    1    3    3    0  502 -0.47609743062E+03 -0.68622508184E+03 -0.14271462190E+04  0.16535779289E+04  0.10100000352E+00 0. -1.
</event>
<event>
 5   0  0.6615403E-06  0.2886970E+04  0.7818609E-02  0.8276765E-01
       -2   -1    0    0    0  501  0.00000000000E+00  0.00000000000E+00  0.12352768447E+04  0.12352768447E+04  0.25500000920E-02 0. -1.
        2   -1    0    0  501    0  0.00000000000E+00  0.00000000000E+00 -0.16867865674E+04  0.16867865674E+04  0.25500000920E-02 0.  1.
    10030    2    1    2    0    0  0.00000000000E+00  0.00000000000E+00 -0.45150972272E+03  0.29220634121E+04  0.28869696144E+04 0.  0.
        2    1    3    3  502    0  0.12479495506E+04 -0.71527052387E+03 -0.10321130197E+03  0.14420965904E+04  0.25500000920E-02 0.  1.
       -2    1    3    3    0  502 -0.12479495506E+04  0.71527052387E+03 -0.34829842075E+03  0.14799668216E+04  0.25500000920E-02 0. -1.
</event>
<event>
 5   0  0.6513041E-06  0.2886614E+04  0.7818609E-02  0.8276871E-01
        2   -1    0    0  501    0  0.00000000000E+00  0.00000000000E+00  0.24176478749E+04  0.24176478749E+04  0.25500000920E-02 0.  1.
       -2   -1    0    0    0  501  0.00000000000E+00  0.00000000000E+00 -0.86163699854E+03  0.86163699854E+03  0.25500000920E-02 0. -1.
    10030    2    1    2    0    0  0.00000000000E+00  0.00000000000E+00  0.15560108763E+04  0.32792848734E+04  0.28866138352E+04 0.  0.
        1    1    3    3  502    0  0.64136930344E+03 -0.12091578422E+04  0.25776047558E+03  0.13927877561E+04  0.50400001928E-02 0. -1.
       -1    1    3    3    0  502 -0.64136930344E+03  0.12091578422E+04  0.12982504007E+04  0.18864971173E+04  0.50400001928E-02 0.  1.
</event>
<event>
 5   0  0.2474769E-06  0.2887436E+04  0.7818609E-02  0.8276626E-01
       -1   -1    0    0    0  501  0.00000000000E+00  0.00000000000E+00  0.12598843070E+04  0.12598843070E+04  0.50400001928E-02 0.  1.
        1   -1    0    0  501    0  0.00000000000E+00  0.00000000000E+00 -0.16543750250E+04  0.16543750250E+04  0.50400001928E-02 0. -1.
    10030    2    1    2    0    0  0.00000000000E+00  0.00000000000E+00 -0.39449071797E+03  0.29142593320E+04  0.28874356318E+04 0.  0.
        1    1    3    3  502    0  0.22669999873E+03 -0.32403401647E+03 -0.15986435011E+04  0.16468308889E+04  0.50400001928E-02 0. -1.
       -1    1    3    3    0  502 -0.22669999873E+03  0.32403401647E+03  0.12041527831E+04  0.12674284431E+04  0.50400001928E-02 0.  1.
</event>
<event>
 5   0  0.6615403E-06  0.2916938E+04  0.7818609E-02  0.8267856E-01
       -2   -1    0    0    0  501  0.00000000000E+00  0.00000000000E+00  0.11189715695E+04  0.11189715695E+04  0.25500000920E-02 0. -1.
        2   -1    0    0  501    0  0.00000000000E+00  0.00000000000E+00 -0.19009704539E+04  0.19009704539E+04  0.25500000920E-02 0.  1.
    10030    2    1    2    0    0  0.00000000000E+00  0.00000000000E+00 -0.78199888444E+03  0.30199420234E+04  0.29169380469E+04 0.  0.
        2    1    3    3  502    0  0.18612128398E+03 -0.96018877022E+03 -0.15111137808E+04  0.18000190181E+04  0.25500000920E-02 0.  1.
       -2    1    3    3    0  502 -0.18612128398E+03  0.96018877022E+03  0.72911489639E+03  0.12199230053E+04  0.25500000920E-02 0. -1.
</event>
<event>
 5   0  0.2336512E-06  0.2900155E+04  0.7818609E-02  0.8272831E-01
        1   -1    0    0  501    0  0.00000000000E+00  0.00000000000E+00  0.14721721604E+04  0.14721721604E+04  0.50400001928E-02 0.  1.
       -1   -1    0    0    0  501  0.00000000000E+00  0.00000000000E+00 -0.14283146335E+04  0.14283146335E+04  0.50400001928E-02 0. -1.
    10030    2    1    2    0    0  0.00000000000E+00  0.00000000000E+00  0.43857526905E+02  0.29004867939E+04  0.29001551957E+04 0.  0.
        4    1    3    3  502    0 -0.91139330176E+03 -0.10052154640E+04  0.53348264980E+03  0.14579784738E+04  0.12699999809E+01 0.  1.
       -4    1    3    3    0  502  0.91139330176E+03  0.10052154640E+04 -0.48962512290E+03  0.14425083201E+04  0.12699999809E+01 0. -1.
</event>
<event>
 5   0  0.2508094E-06  0.2920621E+04  0.7818609E-02  0.8266768E-01
       -1   -1    0    0    0  501  0.00000000000E+00  0.00000000000E+00  0.14141238305E+04  0.14141238305E+04  0.50400001928E-02 0.  1.
        1   -1    0    0  501    0  0.00000000000E+00  0.00000000000E+00 -0.15080059040E+04  0.15080059040E+04  0.50400001928E-02 0. -1.
    10030    2    1    2    0    0  0.00000000000E+00  0.00000000000E+00 -0.93882073444E+02  0.29221297345E+04  0.29206212253E+04 0.  0.
        3    1    3    3  502    0  0.33574716521E+03  0.14997188592E+03  0.13670437913E+04  0.14156364162E+04  0.10100000352E+00 0.  1.
       -3    1    3    3    0  502 -0.33574716521E+03 -0.14997188592E+03 -0.14609258647E+04  0.15064933182E+04  0.10100000352E+00 0. -1.
</event>
<event>
 5   0  0.6733688E-06  0.2892958E+04  0.7818609E-02  0.8274976E-01
        2   -1    0    0  501    0  0.00000000000E+00  0.00000000000E+00  0.26300510446E+04  0.26300510446E+04  0.25500000920E-02 0. -1.
       -2   -1    0    0    0  501  0.00000000000E+00  0.00000000000E+00 -0.79553665603E+03  0.79553665603E+03  0.25500000920E-02 0.  1.
    10030    2    1    2    0    0  0.00000000000E+00  0.00000000000E+00  0.18345143886E+04  0.34255877006E+04  0.28929583566E+04 0.  0.
        5    1    3    3  502    0  0.80398066561E+02  0.31262006893E+03  0.25868492028E+04  0.26069150436E+04  0.46999998093E+01 0. -1.
       -5    1    3    3    0  502 -0.80398066561E+02 -0.31262006893E+03 -0.75233481424E+03  0.81867265701E+03  0.46999998093E+01 0.  1.
</event>
<event>
 5   0  0.6615403E-06  0.2903690E+04  0.7818609E-02  0.8271780E-01
       -2   -1    0    0    0  501  0.00000000000E+00  0.00000000000E+00  0.27719202477E+04  0.27719202477E+04  0.25500000920E-02 0.  1.
        2   -1    0    0  501    0  0.00000000000E+00  0.00000000000E+00 -0.76043104349E+03  0.76043104350E+03  0.25500000920E-02 0. -1.
    10030    2    1    2    0    0  0.00000000000E+00  0.00000000000E+00  0.20114892042E+04  0.35323512912E+04  0.29036902083E+04 0.  0.
        2    1    3    3  502    0 -0.11274852013E+04 -0.84135978744E+03  0.14422391797E+04  0.20147364648E+04  0.25500000920E-02 0.  1.
       -2    1    3    3    0  502  0.11274852013E+04  0.84135978744E+03  0.56925002449E+03  0.15176148264E+04  0.25500000920E-02 0. -1.
</event>
<event>
 5   0  0.2159500E-06  0.2900505E+04  0.7818609E-02  0.8272727E-01
        3   -1    0    0  501    0  0.00000000000E+00  0.00000000000E+00  0.15593483104E+04  0.15593483136E+04  0.10100000352E+00 0. -1.
       -3   -1    0    0    0  501  0.00000000000E+00  0.00000000000E+00 -0.13487890053E+04  0.13487890091E+04  0.10100000352E+00 0.  1.
    10030    2    1    2    0    0  0.00000000000E+00  0.00000000000E+00  0.21055930509E+03  0.29081373227E+04  0.29005046917E+04 0.  0.
        3    1    3    3  502    0 -0.88852086767E+03  0.36634795778E+03  0.11942093143E+04  0.15329109743E+04  0.10100000352E+00 0. -1.
       -3    1    3    3    0  502  0.88852086767E+03 -0.36634795778E+03 -0.98365000925E+03  0.13752263484E+04  0.10100000352E+00 0.  1.
</event>
<event>
 5   0  0.2348684E-06  0.2869295E+04  0.7818609E-02  0.8282072E-01
       -1   -1    0    0    0  501  0.00000000000E+00  0.00000000000E+00  0.11977977333E+04  0.11977977333E+04  0.50400001928E-02 0.  1.
        1   -1    0    0  501    0  0.00000000000E+00  0.00000000000E+00 -0.17183309732E+04  0.17183309732E+04  0.50400001928E-02 0. -1.
    10030    2    1    2    0    0  0.00000000000E+00  0.00000000000E+00 -0.52053323986E+03  0.29161287065E+04  0.28692946483E+04 0.  0.
        5    1    3    3  502    0 -0.10581482955E+04 -0.93209385891E+03 -0.52861055399E+03  0.15059641380E+04  0.46999998093E+01 0.  1.
       -5    1    3    3    0  502  0.10581482955E+04  0.93209385891E+03  0.80773141265E+01  0.14101645685E+04  0.46999998093E+01 0. -1.
</event>
<event>
 5   0  0.2429358E-06  0.2845200E+04  0.7818609E-02  0.8289371E-01
        1   -1    0    0  501    0  0.00000000000E+00  0.00000000000E+00  0.12013595435E+04  0.12013595435E+04  0.50400001928E-02 0. -1.
       -1   -1    0    0    0  501  0.00000000000E+00  0.00000000000E+00 -0.16845840946E+04  0.16845840946E+04  0.50400001928E-02 0.  1.
    10030    2    1    2    0    0  0.00000000000E+00  0.00000000000E+00 -0.48322455114E+03  0.28859436381E+04  0.28452002944E+04 0.  0.
        2    1    3    3  502    0 -0.10467716005E+04 -0.40649773299E+03  0.64429043888E+03  0.12946356090E+04  0.25500000920E-02 0. -1.
       -2    1    3    3    0  502  0.10467716005E+04  0.40649773299E+03 -0.11275149900E+04  0.15913080290E+04  0.25500000920E-02 0.  1.
</event>
<event>
 5   0  0.2474769E-06  0.2899223E+04  0.7818609E-02  0.8273109E-01
        1   -1    0    0  501    0  0.00000000000E+00  0.00000000000E+00  0.14149671747E+04  0.14149671747E+04  0.50400001928E-02 0. -1.
       -1   -1    0    0    0  501  0.00000000000E+00  0.00000000000E+00 -0.14851037795E+04  0.14851037795E+04  0.50400001928E-02 0.  1.
    10030    2    1    2    0    0  0.00000000000E+00  0.00000000000E+00 -0.70136604750E+02  0.29000709542E+04  0.28992227227E+04 0.  0.
        1    1    3    3  502    0 -0.64081044061E+03 -0.12908869787E+04 -0.19114563707E+03  0.14538101207E+04  0.50400001928E-02 0. -1.
       -1    1    3    3    0  502  0.64081044061E+03  0.12908869787E+04  0.12100903232E+03  0.14462608335E+04  0.50400001928E-02 0.  1.
</event>
<event>
 5   0  0.6615403E-06  0.2887336E+04  0.7818609E-02  0.8276655E-01
        2   -1    0    0  501    0  0.00000000000E+00  0.00000000000E+00  0.70591776813E+03  0.70591776813E+03  0.25500000920E-02 0. -1.
       -2   -1    0    0    0  501  0.00000000000E+00  0.00000000000E+00 -0.29524372405E+04  0.29524372405E+04  0.25500000920E-02 0.  1.
    10030    2    1    2    0    0  0.00000000000E+00  0.00000000000E+00 -0.22465194724E+04  0.36583550087E+04  0.28873364247E+04 0.  0.
        2    1    3    3  502    0 -0.97085466331E+03 -0.96364245050E+03 -0.17080375097E+04  0.21882773325E+04  0.25500000920E-02 0. -1.
       -2    1    3    3    0  502  0.97085466331E+03  0.96364245050E+03 -0.53848196276E+03  0.14700776761E+04  0.25500000920E-02 0.  1.
</event>
<event>
 5   0  0.2474769E-06  0.2943147E+04  0.7818609E-02  0.8260155E-01
        1   -1    0    0  501    0  0.00000000000E+00  0.00000000000E+00  0.27152793820E+04  0.27152793820E+04  0.50400001928E-02 0. -1.
       -1   -1    0    0    0  501  0.00000000000E+00  0.00000000000E+00 -0.79753434367E+03  0.79753434369E+03  0.50400001928E-02 0.  1.
    10030    2    1    2    0    0  0.00000000000E+00  0.00000000000E+00  0.19177450383E+04  0.35128137257E+04  0.29431469959E+04 0.  0.
        1    1    3    3  502    0 -0.80746279580E+03 -0.12166813217E+04  0.74133400947E+03  0.16376463961E+04  0.50400001928E-02 0.  1.
       -1    1    3    3    0  502  0.80746279580E+03  0.12166813217E+04  0.11764110289E+04  0.18751673296E+04  0.50400001928E-02 0. -1.
</event>
<event>
 5   0  0.6733688E-06  0.2694655E+04  0.7818609E-02  0.8336741E-01
        2   -1    0    0  501    0  0.00000000000E+00  0.00000000000E+00  0.30637104212E+04  0.30637104212E+04  0.25500000920E-02 0. -1.
       -2   -1    0    0    0  501  0.00000000000E+00  0.00000000000E+00 -0.59251414852E+03  0.59251414853E+03  0.25500000920E-02 0.  1.
    10030    2    1    2    0    0  0.00000000000E+00  0.00000000000E+00  0.24711962727E+04  0.36562245698E+04  0.26946552815E+04 0.  0.
        5    1    3    3  502    0  0.31889916368E+03 -0.72443041655E+03 -0.24378007904E+03  0.82821912677E+03  0.46999998093E+01 0.  1.
       -5    1    3    3    0  502 -0.31889916368E+03  0.72443041655E+03  0.27149763518E+04  0.28280054430E+04  0.46999998093E+01 0. -1.
</event>
<event>
 5   0  0.2508094E-06  0.2908950E+04  0.7818609E-02  0.8270220E-01
       -1   -1    0    0    0  501  0.00000000000E+00  0.00000000000E+00  0.10470019473E+04  0.10470019473E+04  0.50400001928E-02 0.  1.
        1   -1    0    0  501    0  0.00000000000E+00  0.00000000000E+00 -0.20205289342E+04  0.20205289342E+04  0.50400001928E-02 0. -1.
    10030    2    1    2    0    0  0.00000000000E+00  0.00000000000E+00 -0.97352698690E+03  0.30675308816E+04  0.29089501397E+04 0.  0.
        3    1    3    3  502    0 -0.50819607745E+03 -0.72906446007E+03 -0.17009215023E+04  0.19190967165E+04  0.10100000352E+00 0. -1.
       -3    1    3    3    0  502  0.50819607745E+03  0.72906446007E+03  0.72739451545E+03  0.11484341650E+04  0.10100000352E+00 0.  1.
</event>
<event>
 5   0  0.2159500E-06  0.2868958E+04  0.7818609E-02  0.8282174E-01
        3   -1    0    0  501    0  0.00000000000E+00  0.00000000000E+00  0.81811855058E+03  0.81811855682E+03  0.10100000352E+00 0. -1.
       -3   -1    0    0    0  501  0.00000000000E+00  0.00000000000E+00 -0.25151976821E+04  0.25151976842E+04  0.10100000352E+00 0.  1.
    10030    2    1    2    0    0  0.00000000000E+00  0.00000000000E+00 -0.16970791316E+04  0.33333162410E+04  0.28689579264E+04 0.  0.
        4    1    3    3  502    0  0.88494173808E+03 -0.11288182581E+04 -0.82601802740E+03  0.16551918119E+04  0.12699999809E+01 0.  1.
       -4    1    3    3    0  502 -0.88494173808E+03  0.11288182581E+04 -0.87106110416E+03  0.16781244291E+04  0.12699999809E+01 0. -1.
</event>
<event>
 5   0  0.2348684E-06  0.2893561E+04  0.7818609E-02  0.8274796E-01
       -1   -1    0    0    0  501  0.00000000000E+00  0.00000000000E+00  0.13068828437E+04  0.13068828437E+04  0.50400001928E-02 0. -1.
        1   -1    0    0  501    0  0.00000000000E+00  0.00000000000E+00 -0.16016537163E+04  0.16016537163E+04  0.50400001928E-02 0.  1.
    10030    2    1    2    0    0  0.00000000000E+00  0.00000000000E+00 -0.29477087266E+03  0.29085365600E+04  0.28935609642E+04 0.  0.
        5    1    3    3  502    0  0.62989670416E+03 -0.12154927098E+04  0.32296719310E+03  0.14065995462E+04  0.46999998093E+01 0.  1.
       -5    1    3    3    0  502 -0.62989670416E+03  0.12154927098E+04 -0.61773806577E+03  0.15019370138E+04  0.46999998093E+01 0. -1.
</event>
<event>
 5   0  0.6615403E-06  0.2896389E+04  0.7818609E-02  0.8273953E-01
        2   -1    0    0  501    0  0.00000000000E+00  0.00000000000E+00  0.11820464923E+04  0.11820464923E+04  0.25500000920E-02 0. -1.
       -2   -1    0    0    0  501  0.00000000000E+00  0.00000000000E+00 -0.17742683236E+04  0.17742683236E+04  0.25500000920E-02 0.  1.
    10030    2    1    2    0    0  0.00000000000E+00  0.00000000000E+00 -0.59222183130E+03  0.29563148158E+04  0.28963892337E+04 0.  0.
        2    1    3    3  502    0 -0.97576845183E+01 -0.50349212658E+03 -0.16820212328E+04  0.17557889855E+04  0.25500000920E-02 0.  1.
       -2    1    3    3    0  502  0.97576845183E+01  0.50349212658E+03  0.10897994015E+04  0.12005258304E+04  0.25500000920E-02 0. -1.
</event>
<event>
 5   0  0.2159500E-06  0.2920802E+04  0.7818609E-02  0.8266715E-01
        3   -1    0    0  501    0  0.00000000000E+00  0.00000000000E+00  0.13709489600E+04  0.13709489638E+04  0.10100000352E+00 0.  1.
       -3   -1    0    0    0  501  0.00000000000E+00  0.00000000000E+00 -0.15556899421E+04  0.15556899454E+04  0.10100000352E+00 0. -1.
    10030    2    1    2    0    0  0.00000000000E+00  0.00000000000E+00 -0.18474098207E+03  0.29266389091E+04  0.29208022997E+04 0.  0.
        1    1    3    3  502    0  0.49103321407E+03 -0.84478136222E+03 -0.11798975184E+04  0.15319684466E+04  0.50400001928E-02 0. -1.
       -1    1    3    3    0  502 -0.49103321407E+03  0.84478136222E+03  0.99515653635E+03  0.13946704626E+04  0.50400001928E-02 0.  1.
</event>
<event>
 5   0  0.2474769E-06  0.2883403E+04  0.7818609E-02  0.8277833E-01
        1   -1    0    0  501    0  0.00000000000E+00  0.00000000000E+00  0.14681603350E+04  0.14681603350E+04  0.50400001928E-02 0. -1.
       -1   -1    0    0    0  501  0.00000000000E+00  0.00000000000E+00 -0.14157191738E+04  0.14157191738E+04  0.50400001928E-02 0.  1.
    10030    2    1    2    0    0  0.00000000000E+00  0.00000000000E+00  0.52441161179E+02  0.28838795088E+04  0.28834026681E+04 0.  0.
        1    1    3    3  502    0  0.11276139334E+04  0.16415161475E+03  0.90956752313E+03  0.14580027485E+04  0.50400001928E-02 0. -1.
       -1    1    3    3    0  502 -0.11276139334E+04 -0.16415161475E+03 -0.85712636195E+03  0.14258767604E+04  0.50400001928E-02 0.  1.
</event>
<event>
 5   0  0.6615403E-06  0.2843117E+04  0.7818609E-02  0.8290006E-01
        2   -1    0    0  501    0  0.00000000000E+00  0.00000000000E+00  0.13620188379E+04  0.13620188379E+04  0.25500000920E-02 0. -1.
       -2   -1    0    0    0  501  0.00000000000E+00  0.00000000000E+00 -0.14837006912E+04  0.14837006912E+04  0.25500000920E-02 0.  1.
    10030    2    1    2    0    0  0.00000000000E+00  0.00000000000E+00 -0.12168185330E+03  0.28457195291E+04  0.28431168046E+04 0.  0.
        2    1    3    3  502    0  0.54773417753E+03 -0.93862244663E+03 -0.97808776394E+03  0.14620808803E+04  0.25500000920E-02 0.  1.
       -2    1    3    3    0  502 -0.54773417753E+03  0.93862244663E+03  0.85640591064E+03  0.13836386488E+04  0.25500000920E-02 0. -1.
</event>
<event>
 5   0  0.2429358E-06  0.2911913E+04  0.7818609E-02  0.8269342E-01
        1   -1    0    0  501    0  0.00000000000E+00  0.00000000000E+00  0.16911155017E+04  0.16911155017E+04  0.50400001928E-02 0.  1.
       -1   -1    0    0    0  501  0.00000000000E+00  0.00000000000E+00 -0.12534975618E+04  0.12534975618E+04  0.50400001928E-02 0. -1.
    10030    2    1    2    0    0  0.00000000000E+00  0.00000000000E+00  0.43761793989E+03  0.29446130635E+04  0.29119128820E+04 0.  0.
        2    1    3    3  502    0  0.10978862260E+03 -0.35386228783E+03  0.16426467690E+04  0.16839122507E+04  0.25500000920E-02 0.  1.
       -2    1    3    3    0  502 -0.10978862260E+03  0.35386228783E+03 -0.12050288291E+04  0.12607008128E+04  0.25500000920E-02 0. -1.
</event>
<event>
 5   0  0.2429358E-06  0.2914001E+04  0.7818609E-02  0.8268724E-01
        1   -1    0    0  501    0  0.00000000000E+00  0.00000000000E+00  0.16080116916E+04  0.16080116917E+04  0.50400001928E-02 0.  1.
       -1   -1    0    0    0  501  0.00000000000E+00  0.00000000000E+00 -0.13201708823E+04  0.13201708823E+04  0.50400001928E-02 0. -1.
    10030    2    1    2    0    0  0.00000000000E+00  0.00000000000E+00  0.28784080932E+03  0.29281825740E+04  0.29140008331E+04 0.  0.
        2    1    3    3  502    0  0.79422843138E+03  0.10428360356E+04 -0.49521310076E+03  0.14012643625E+04  0.25500000920E-02 0. -1.
       -2    1    3    3    0  502 -0.79422843138E+03 -0.10428360356E+04  0.78305391008E+03  0.15269182115E+04  0.25500000920E-02 0.  1.
</event>
<event>
 5   0  0.2336512E-06  0.2903514E+04  0.7818609E-02  0.8271833E-01
        1   -1    0    0  501    0  0.00000000000E+00  0.00000000000E+00  0.29602769239E+04  0.29602769239E+04  0.50400001928E-02 0. -1.
       -1   -1    0    0    0  501  0.00000000000E+00  0.00000000000E+00 -0.71195971252E+03  0.71195971254E+03  0.50400001928E-02 0.  1.
    10030    2    1    2    0    0  0.00000000000E+00  0.00000000000E+00  0.22483172114E+04  0.36722366365E+04  0.29035136699E+04 0.  0.
        4    1    3    3  502    0  0.40114755854E+03 -0.88451846467E+03  0.24888673740E+04  0.26716576682E+04  0.12699999809E+01 0. -1.
       -4    1    3    3    0  502 -0.40114755854E+03  0.88451846467E+03 -0.24055016258E+03  0.10005789682E+04  0.12699999809E+01 0.  1.
</event>
<event>
 5   0  0.2336512E-06  0.2892593E+04  0.7818609E-02  0.8275085E-01
       -1   -1    0    0    0  501  0.00000000000E+00  0.00000000000E+00  0.16914375793E+04  0.16914375793E+04  0.50400001928E-02 0. -1.
        1   -1    0    0  501    0  0.00000000000E+00  0.00000000000E+00 -0.12366841941E+04  0.12366841942E+04  0.50400001928E-02 0.  1.
    10030    2    1    2    0    0  0.00000000000E+00  0.00000000000E+00  0.45475338519E+03  0.29281217735E+04  0.28925933829E+04 0.  0.
        4    1    3    3  502    0  0.13374579667E+03 -0.23812606901E+03  0.16650960860E+04  0.16873466008E+04  0.12699999809E+01 0. -1.
       -4    1    3    3    0  502 -0.13374579667E+03  0.23812606901E+03 -0.12103427008E+04  0.12407751727E+04  0.12699999809E+01 0.  1.
</event>
<event>
 5   0  0.2348684E-06  0.2932225E+04  0.7818609E-02  0.8263354E-01
        1   -1    0    0  501    0  0.00000000000E+00  0.00000000000E+00  0.26548704510E+04  0.26548704510E+04  0.50400001928E-02 0. -1.
       -1   -1    0    0    0  501  0.00000000000E+00  0.00000000000E+00 -0.80963879179E+03  0.80963879181E+03  0.50400001928E-02 0.  1.
    10030    2    1    2    0    0  0.00000000000E+00  0.00000000000E+00  0.18452316592E+04  0.34645092428E+04  0.29322251649E+04 0.  0.
        5    1    3    3  502    0 -0.57719197351E+03  0.32070275935E+03 -0.62399766770E+03  0.90851307830E+03  0.46999998093E+01 0.  1.
       -5    1    3    3    0  502  0.57719197351E+03 -0.32070275935E+03  0.24692293269E+04  0.25559961645E+04  0.46999998093E+01 0. -1.
</event>
<event>
 5   0  0.2508094E-06  0.2923816E+04  0.7818609E-02  0.8265827E-01
        1   -1    0    0  501    0  0.00000000000E+00  0.00000000000E+00  0.13767760637E+04  0.13767760637E+04  0.50400001928E-02 0.  1.
       -1   -1    0    0    0  501  0.00000000000E+00  0.00000000000E+00 -0.15523035083E+04  0.15523035083E+04  0.50400001928E-02 0. -1.
    10030    2    1    2    0    0  0.00000000000E+00  0.00000000000E+00 -0.17552744462E+03  0.29290795720E+04  0.29238155303E+04 0.  0.
        3    1    3    3  502    0 -0.95808244482E+03  0.99185683542E+03  0.39836486495E+03  0.14354081402E+04  0.10100000352E+00 0.  1.
       -3    1    3    3    0  502  0.95808244482E+03 -0.99185683542E+03 -0.57389230957E+03  0.14936714318E+04  0.10100000352E+00 0. -1.
</event>
<event>
 5   0  0.6733688E-06  0.2791622E+04  0.7818609E-02  0.8305874E-01
       -2   -1    0    0    0  501  0.00000000000E+00  0.00000000000E+00  0.98222657162E+03  0.98222657163E+03  0.25500000920E-02 0.  1.
        2   -1    0    0  501    0  0.00000000000E+00  0.00000000000E+00 -0.19835428448E+04  0.19835428448E+04  0.25500000920E-02 0. -1.
    10030    2    1    2    0    0  0.00000000000E+00  0.00000000000E+00 -0.10013162732E+04  0.29657694164E+04  0.27916221006E+04 0.  0.
        5    1    3    3  502    0 -0.42439834529E+03  0.12577166296E+04 -0.42105997988E+02  0.13280662938E+04  0.46999998093E+01 0.  1.
       -5    1    3    3    0  502  0.42439834529E+03 -0.12577166296E+04 -0.95921027521E+03  0.16377031226E+04  0.46999998093E+01 0. -1.
</event>
<event>
 5   0  0.2348684E-06  0.2866923E+04  0.7818609E-02  0.8282787E-01
       -1   -1    0    0    0  501  0.00000000000E+00  0.00000000000E+00  0.77660459232E+03  0.77660459234E+03  0.50400001928E-02 0. -1.
        1   -1    0    0  501    0  0.00000000000E+00  0.00000000000E+00 -0.26458915000E+04  0.26458915000E+04  0.50400001928E-02 0.  1.
    10030    2    1    2    0    0  0.00000000000E+00  0.00000000000E+00 -0.18692869077E+04  0.34224960924E+04  0.28669227333E+04 0.  0.
        5    1    3    3  502    0 -0.27990047493E+03  0.90282187993E+03 -0.22211440412E+04  0.24139044232E+04  0.46999998093E+01 0.  1.
       -5    1    3    3    0  502  0.27990047493E+03 -0.90282187993E+03  0.35185713346E+03  0.10085916692E+04  0.46999998093E+01 0. -1.
</event>
<event>
 5   0  0.6513041E-06  0.2893760E+04  0.7818609E-02  0.8274736E-01
       -2   -1    0    0    0  501  0.00000000000E+00  0.00000000000E+00  0.15367239464E+04  0.15367239464E+04  0.25500000920E-02 0.  1.
        2   -1    0    0  501    0  0.00000000000E+00  0.00000000000E+00 -0.13622888165E+04  0.13622888165E+04  0.25500000920E-02 0. -1.
    10030    2    1    2    0    0  0.00000000000E+00  0.00000000000E+00  0.17443512990E+03  0.28990127629E+04  0.28937600773E+04 0.  0.
        1    1    3    3  502    0  0.11988084334E+04 -0.60305757359E+03  0.62916323217E+03  0.14821155386E+04  0.50400001928E-02 0.  1.
       -1    1    3    3    0  502 -0.11988084334E+04  0.60305757359E+03 -0.45472810227E+03  0.14168972243E+04  0.50400001928E-02 0. -1.
</event>
<event>
 5   0  0.2508094E-06  0.2890010E+04  0.7818609E-02  0.8275856E-01
       -1   -1    0    0    0  501  0.00000000000E+00  0.00000000000E+00  0.91590696842E+03  0.91590696843E+03  0.50400001928E-02 0.  1.
        1   -1    0    0  501    0  0.00000000000E+00  0.00000000000E+00 -0.22797508067E+04  0.22797508067E+04  0.50400001928E-02 0. -1.
    10030    2    1    2    0    0  0.00000000000E+00  0.00000000000E+00 -0.13638438383E+04  0.31956577751E+04  0.28900101385E+04 0.  0.
        3    1    3    3  502    0  0.40880960962E+03  0.12366248916E+04  0.10104759564E+02  0.13024855223E+04  0.10100000352E+00 0.  1.
       -3    1    3    3    0  502 -0.40880960962E+03 -0.12366248916E+04 -0.13739485978E+04  0.18931722529E+04  0.10100000352E+00 0. -1.
</event>
<event>
 5   0  0.2336512E-06  0.2645318E+04  0.7818609E-02  0.8352969E-01
        1   -1    0    0  501    0  0.00000000000E+00  0.00000000000E+00  0.22908533729E+04  0.22908533730E+04  0.50400001928E-02 0. -1.
       -1   -1    0    0    0  501  0.00000000000E+00  0.00000000000E+00 -0.76365735058E+03  0.76365735060E+03  0.50400001928E-02 0.  1.
    10030    2    1    2    0    0  0.00000000000E+00  0.00000000000E+00  0.15271960224E+04  0.30545107236E+04  0.26453181415E+04 0.  0.
        4    1    3    3  502    0  0.69157213753E+03  0.10165947629E+04  0.20065063091E+03  0.12457926079E+04  0.12699999809E+01 0.  1.
       -4    1    3    3    0  502 -0.69157213753E+03 -0.10165947629E+04  0.13265453914E+04  0.18087181156E+04  0.12699999809E+01 0. -1.
</event>
<event>
 5   0  0.6513041E-06  0.2842261E+04  0.7818609E-02  0.8290267E-01
       -2   -1    0    0    0  501  0.00000000000E+00  0.00000000000E+00  0.15319827829E+04  0.15319827829E+04  0.25500000920E-02 0. -1.
        2   -1    0    0  501    0  0.00000000000E+00  0.00000000000E+00 -0.13182995115E+04  0.13182995115E+04  0.25500000920E-02 0.  1.
    10030    2    1    2    0    0  0.00000000000E+00  0.00000000000E+00  0.21368327140E+03  0.28502822944E+04  0.28422611803E+04 0.  0.
        1    1    3    3  502    0 -0.73461215754E+03 -0.76452158745E+03  0.10558016790E+04  0.14962838852E+04  0.50400001928E-02 0. -1.
       -1    1    3    3    0  502  0.73461215754E+03  0.76452158745E+03 -0.84211840760E+03  0.13539984092E+04  0.50400001928E-02 0.  1.
</event>
<event>
 5   0  0.6612533E-06  0.2912894E+04  0.7818609E-02  0.8269051E-01
        2   -1    0    0  501    0  0.00000000000E+00  0.00000000000E+00  0.29944046972E+04  0.29944046972E+04  0.25500000920E-02 0. -1.
       -2   -1    0    0    0  501  0.00000000000E+00  0.00000000000E+00 -0.70840045846E+03  0.70840045846E+03  0.25500000920E-02 0.  1.
    10030    2    1    2    0    0  0.00000000000E+00  0.00000000000E+00  0.22860042387E+04  0.37028051556E+04  0.29128938603E+04 0.  0.
        3    1    3    3  502    0 -0.40943765451E+03  0.12487046839E+04  0.19412520705E+04  0.23442188874E+04  0.10100000352E+00 0. -1.
       -3    1    3    3    0  502  0.40943765451E+03 -0.12487046839E+04  0.34475216826E+03  0.13585862683E+04  0.10100000352E+00 0.  1.
</event>
<event>
 5   0  0.6513041E-06  0.2446274E+04  0.7818609E-02  0.8422380E-01
       -2   -1    0    0    0  501  0.00000000000E+00  0.00000000000E+00  0.98834507407E+03  0.98834507408E+03  0.25500000920E-02 0.  1.
        2   -1    0    0  501    0  0.00000000000E+00  0.00000000000E+00 -0.15137061342E+04  0.15137061342E+04  0.25500000920E-02 0. -1.
    10030    2    1    2    0    0  0.00000000000E+00  0.00000000000E+00 -0.52536106016E+03  0.25020512083E+04  0.24462739024E+04 0.  0.
        1    1    3    3  502    0 -0.42433900065E+03  0.93915776718E+03  0.41111406322E+03  0.11095475078E+04  0.50400001928E-02 0.  1.
       -1    1    3    3    0  502  0.42433900065E+03 -0.93915776718E+03 -0.93647512338E+03  0.13925037005E+04  0.50400001928E-02 0. -1.
</event>
<event>
 5   0  0.6612533E-06  0.2893254E+04  0.7818609E-02  0.8274887E-01
        2   -1    0    0  501    0  0.00000000000E+00  0.00000000000E+00  0.22907896976E+04  0.22907896976E+04  0.25500000920E-02 0. -1.
       -2   -1    0    0    0  501  0.00000000000E+00  0.00000000000E+00 -0.91354093869E+03  0.91354093869E+03  0.25500000920E-02 0.  1.
    10030    2    1    2    0    0  0.00000000000E+00  0.00000000000E+00  0.13772487589E+04  0.32043306363E+04  0.28932543412E+04 0.  0.
        3    1    3    3  502    0  0.13231006359E+04 -0.57567885700E+03  0.80334056340E+03  0.16514713168E+04  0.10100000352E+00 0. -1.
       -3    1    3    3    0  502 -0.13231006359E+04  0.57567885700E+03  0.57390819547E+03  0.15528593195E+04  0.10100000352E+00 0.  1.
</event>
<event>
 5   0  0.6615403E-06  0.2927501E+04  0.7818609E-02  0.8264742E-01
        2   -1    0    0  501    0  0.00000000000E+00  0.00000000000E+00  0.13103331616E+04  0.13103331616E+04  0.25500000920E-02 0.  1.
       -2   -1    0    0    0  501  0.00000000000E+00  0.00000000000E+00 -0.16351308671E+04  0.16351308671E+04  0.25500000920E-02 0. -1.
    10030    2    1    2    0    0  0.00000000000E+00  0.00000000000E+00 -0.32479770548E+03  0.29454640287E+04  0.29275014594E+04 0.  0.
        2    1    3    3  502    0  0.11049794866E+04 -0.95962085925E+03 -0.18928997576E+03  0.14756973112E+04  0.25500000920E-02 0.  1.
       -2    1    3    3    0  502 -0.11049794866E+04  0.95962085925E+03 -0.13550772972E+03  0.14697667176E+04  0.25500000920E-02 0. -1.
</event>
<event>
 5   0  0.6513041E-06  0.2906294E+04  0.7818609E-02  0.8271007E-01
       -2   -1    0    0    0  501  0.00000000000E+00  0.00000000000E+00  0.91439578263E+03  0.91439578264E+03  0.25500000920E-02 0. -1.
        2   -1    0    0  501    0  0.00000000000E+00  0.00000000000E+00 -0.23093242828E+04  0.23093242828E+04  0.25500000920E-02 0.  1.
    10030    2    1    2    0    0  0.00000000000E+00  0.00000000000E+00 -0.13949285002E+04  0.32237200655E+04  0.29062941248E+04 0.  0.
        1    1    3    3  502    0 -0.63988430928E+03 -0.21089944683E+03  0.73067809807E+03  0.99389183967E+03  0.50400001928E-02 0. -1.
       -1    1    3    3    0  502  0.63988430928E+03  0.21089944683E+03 -0.21256065983E+04  0.22298282258E+04  0.50400001928E-02 0.  1.
</event>
<event>
 5   0  0.2348684E-06  0.2900474E+04  0.7818609E-02  0.8272736E-01
       -1   -1    0    0    0  501  0.00000000000E+00  0.00000000000E+00  0.73006931655E+03  0.73006931657E+03  0.50400001928E-02 0.  1.
        1   -1    0    0  501    0  0.00000000000E+00  0.00000000000E+00 -0.28808053950E+04  0.28808053950E+04  0.50400001928E-02 0. -1.
    10030    2    1    2    0    0  0.00000000000E+00  0.00000000000E+00 -0.21507360785E+04  0.36108747116E+04  0.29004741860E+04 0.  0.
        5    1    3    3  502    0  0.13578555085E+04 -0.48222677288E+03 -0.87136998665E+03  0.16839305170E+04  0.46999998093E+01 0.  1.
       -5    1    3    3    0  502 -0.13578555085E+04  0.48222677288E+03 -0.12793660918E+04  0.19269441946E+04  0.46999998093E+01 0. -1.
</event>
<event>
 5   0  0.2348684E-06  0.2569755E+04  0.7818609E-02  0.8378548E-01
        1   -1    0    0  501    0  0.00000000000E+00  0.00000000000E+00  0.14194769616E+04  0.14194769616E+04  0.50400001928E-02 0.  1.
       -1   -1    0    0    0  501  0.00000000000E+00  0.00000000000E+00 -0.11630415586E+04  0.11630415586E+04  0.50400001928E-02 0. -1.
    10030    2    1    2    0    0  0.00000000000E+00  0.00000000000E+00  0.25643540300E+03  0.25825185203E+04  0.25697553953E+04 0.  0.
        5    1    3    3  502    0  0.80488696539E+03  0.25480430557E+03 -0.84515897532E+03  0.11946062300E+04  0.46999998093E+01 0. -1.
       -5    1    3    3    0  502 -0.80488696539E+03 -0.25480430557E+03  0.11015943783E+04  0.13879122903E+04  0.46999998093E+01 0.  1.
</event>
<event>
 5   0  0.6615403E-06  0.2847028E+04  0.7818609E-02  0.8288815E-01
        2   -1    0    0  501    0  0.00000000000E+00  0.00000000000E+00  0.15535763167E+04  0.15535763167E+04  0.25500000920E-02 0.  1.
       -2   -1    0    0    0  501  0.00000000000E+00  0.00000000000E+00 -0.13043399381E+04  0.13043399381E+04  0.25500000920E-02 0. -1.
    10030    2    1    2    0    0  0.00000000000E+00  0.00000000000E+00  0.24923637858E+03  0.28579162549E+04  0.28470276689E+04 0.  0.
        2    1    3    3  502    0 -0.11738389935E+04 -0.41025854307E+03  0.82021976922E+03  0.14896209332E+04  0.25500000920E-02 0.  1.
       -2    1    3    3    0  502  0.11738389935E+04  0.41025854307E+03 -0.57098339063E+03  0.13682953217E+04  0.25500000920E-02 0. -1.
</event>
<event>
 5   0  0.2508094E-06  0.2914852E+04  0.7818609E-02  0.8268472E-01
       -1   -1    0    0    0  501  0.00000000000E+00  0.00000000000E+00  0.78980153287E+03  0.78980153288E+03  0.50400001928E-02 0.  1.
        1   -1    0    0  501    0  0.00000000000E+00  0.00000000000E+00 -0.26893980514E+04  0.26893980514E+04  0.50400001928E-02 0. -1.
    10030    2    1    2    0    0  0.00000000000E+00  0.00000000000E+00 -0.18995965185E+04  0.34791995843E+04  0.29148521084E+04 0.  0.
        3    1    3    3  502    0 -0.11456930902E+04 -0.29739931395E+03  0.65144343414E+02  0.11854546827E+04  0.10100000352E+00 0.  1.
       -3    1    3    3    0  502  0.11456930902E+04  0.29739931395E+03 -0.19647408619E+04  0.22937449016E+04  0.10100000352E+00 0. -1.
</event>
<event>
 5   0  0.2348684E-06  0.2885422E+04  0.7818609E-02  0.8277228E-01
       -1   -1    0    0    0  501  0.00000000000E+00  0.00000000000E+00  0.97670111675E+03  0.97670111676E+03  0.50400001928E-02 0.  1.
        1   -1    0    0  501    0  0.00000000000E+00  0.00000000000E+00 -0.21310665009E+04  0.21310665009E+04  0.50400001928E-02 0. -1.
    10030    2    1    2    0    0  0.00000000000E+00  0.00000000000E+00 -0.11543653842E+04  0.31077676177E+04  0.28854220013E+04 0.  0.
        5    1    3    3  502    0 -0.46491291254E+03 -0.54113469047E+03  0.77340807861E+03  0.10522133413E+04  0.46999998093E+01 0.  1.
       -5    1    3    3    0  502  0.46491291254E+03  0.54113469047E+03 -0.19277734628E+04  0.20555542764E+04  0.46999998093E+01 0. -1.
</event>
<event>
 5   0  0.2159500E-06  0.2914253E+04  0.7818609E-02  0.8268649E-01
        4   -1    0    0  501    0  0.00000000000E+00  0.00000000000E+00  0.18138164055E+04  0.18138168502E+04  0.12699999809E+01 0.  1.
       -4   -1    0    0    0  501  0.00000000000E+00  0.00000000000E+00 -0.11705791479E+04  0.11705798369E+04  0.12699999809E+01 0. -1.
    10030    2    1    2    0    0  0.00000000000E+00  0.00000000000E+00  0.64323725760E+03  0.29843966870E+04  0.29142528058E+04 0.  0.
        3    1    3    3  502    0  0.59434156026E+03  0.11085176011E+04  0.10749635208E+04  0.16545693528E+04  0.10100000352E+00 0.  1.
       -3    1    3    3    0  502 -0.59434156026E+03 -0.11085176011E+04 -0.43172626315E+03  0.13298273342E+04  0.10100000352E+00 0. -1.
</event>
<event>
 5   0  0.6612533E-06  0.2871123E+04  0.7818609E-02  0.8281521E-01
        2   -1    0    0  501    0  0.00000000000E+00  0.00000000000E+00  0.14335280810E+04  0.14335280810E+04  0.25500000920E-02 0.  1.
       -2   -1    0    0    0  501  0.00000000000E+00  0.00000000000E+00 -0.14375980247E+04  0.14375980247E+04  0.25500000920E-02 0. -1.
    10030    2    1    2    0    0  0.00000000000E+00  0.00000000000E+00 -0.40699437552E+01  0.28711261057E+04  0.28711232210E+04 0.  0.
        3    1    3    3  502    0  0.35357487096E+03 -0.75122078506E+03 -0.11731421514E+04  0.14372231472E+04  0.10100000352E+00 0. -1.
       -3    1    3    3    0  502 -0.35357487096E+03  0.75122078506E+03  0.11690722077E+04  0.14339029585E+04  0.10100000352E+00 0.  1.
</event>
<event>
 5   0  0.2348684E-06  0.2892894E+04  0.7818609E-02  0.8274995E-01
       -1   -1    0    0    0  501  0.00000000000E+00  0.00000000000E+00  0.14455992000E+04  0.14455992000E+04  0.50400001928E-02 0.  1.
        1   -1    0    0  501    0  0.00000000000E+00  0.00000000000E+00 -0.14472953169E+04  0.14472953169E+04  0.50400001928E-02 0. -1.
    10030    2    1    2    0    0  0.00000000000E+00  0.00000000000E+00 -0.16961168658E+01  0.28928945170E+04  0.28928940197E+04 0.  0.
        5    1    3    3  502    0  0.28740084758E+03  0.88959157682E+03  0.11028796527E+04  0.14458001380E+04  0.46999998093E+01 0.  1.
       -5    1    3    3    0  502 -0.28740084758E+03 -0.88959157682E+03 -0.11045757696E+04  0.14470943789E+04  0.46999998093E+01 0. -1.
</event>
<event>
 5   0  0.6615403E-06  0.2903364E+04  0.7818609E-02  0.8271877E-01
       -2   -1    0    0    0  501  0.00000000000E+00  0.00000000000E+00  0.10953333910E+04  0.10953333910E+04  0.25500000920E-02 0. -1.
        2   -1    0    0  501    0  0.00000000000E+00  0.00000000000E+00 -0.19239633785E+04  0.19239633785E+04  0.25500000920E-02 0.  1.
    10030    2    1    2    0    0  0.00000000000E+00  0.00000000000E+00 -0.82862998749E+03  0.30192967694E+04  0.29033644838E+04 0.  0.
        2    1    3    3  502    0  0.12974548032E+04  0.64870561604E+03 -0.47289722294E+03  0.15257259669E+04  0.25500000920E-02 0. -1.
       -2    1    3    3    0  502 -0.12974548032E+04 -0.64870561604E+03 -0.35573276455E+03  0.14935708026E+04  0.25500000920E-02 0.  1.
</event>
<event>
 5   0  0.2474769E-06  0.2893382E+04  0.7818609E-02  0.8274849E-01
       -1   -1    0    0    0  501  0.00000000000E+00  0.00000000000E+00  0.12460452091E+04  0.12460452091E+04  0.50400001928E-02 0. -1.
        1   -1    0    0  501    0  0.00000000000E+00  0.00000000000E+00 -0.16796457608E+04  0.16796457608E+04  0.50400001928E-02 0.  1.
    10030    2    1    2    0    0  0.00000000000E+00  0.00000000000E+00 -0.43360055174E+03  0.29256909699E+04  0.28933817952E+04 0.  0.
        1    1    3    3  502    0 -0.39017462313E+03  0.78201256357E+03  0.94895448956E+03  0.12900753890E+04  0.50400001928E-02 0. -1.
       -1    1    3    3    0  502  0.39017462313E+03 -0.78201256357E+03 -0.13825550413E+04  0.16356155809E+04  0.50400001928E-02 0.  1.
</event>
<event>
 5   0  0.6513041E-06  0.2389915E+04  0.7818609E-02  0.8443289E-01
       -2   -1    0    0    0  501  0.00000000000E+00  0.00000000000E+00  0.14995592341E+04  0.14995592341E+04  0.25500000920E-02 0.  1.
        2   -1    0    0  501    0  0.00000000000E+00  0.00000000000E+00 -0.95222870871E+03  0.95222870872E+03  0.25500000920E-02 0. -1.
    10030    2    1    2    0    0  0.00000000000E+00  0.00000000000E+00  0.54733052543E+03  0.24517879429E+04  0.23899149384E+04 0.  0.
        1    1    3    3  502    0  0.78879297908E+03  0.21058097705E+03  0.11688290749E+04  0.14257279257E+04  0.50400001928E-02 0.  1.
       -1    1    3    3    0  502 -0.78879297908E+03 -0.21058097705E+03 -0.62149854950E+03  0.10260600171E+04  0.50400001928E-02 0. -1.
</event>
<event>
 5   0  0.2429358E-06  0.2897637E+04  0.7818609E-02  0.8273581E-01
        1   -1    0    0  501    0  0.00000000000E+00  0.00000000000E+00  0.23172700218E+04  0.23172700218E+04  0.50400001928E-02 0.  1.
       -1   -1    0    0    0  501  0.00000000000E+00  0.00000000000E+00 -0.90583972000E+03  0.90583972001E+03  0.50400001928E-02 0. -1.
    10030    2    1    2    0    0  0.00000000000E+00  0.00000000000E+00  0.14114303018E+04  0.32231097418E+04  0.28976371255E+04 0.  0.
        2    1    3    3  502    0  0.84467162501E+03 -0.40438493375E+03 -0.52393209242E+03  0.10730806895E+04  0.25500000920E-02 0. -1.
       -2    1    3    3    0  502 -0.84467162501E+03  0.40438493375E+03  0.19353623942E+04  0.21500290523E+04  0.25500000920E-02 0.  1.
</event>
<event>
 5   0  0.2508094E-06  0.2861218E+04  0.7818609E-02  0.8284511E-01
       -1   -1    0    0    0  501  0.00000000000E+00  0.00000000000E+00  0.10685249674E+04  0.10685249674E+04  0.50400001928E-02 0.  1.
        1   -1    0    0  501    0  0.00000000000E+00  0.00000000000E+00 -0.19153902901E+04  0.19153902901E+04  0.50400001928E-02 0. -1.
    10030    2    1    2    0    0  0.00000000000E+00  0.00000000000E+00 -0.84686532273E+03  0.29839152575E+04  0.28612181652E+04 0.  0.
        3    1    3    3  502    0  0.80222875041E+03  0.37516911470E+03 -0.15951427191E+04  0.18245007912E+04  0.10100000352E+00 0. -1.
       -3    1    3    3    0  502 -0.80222875041E+03 -0.37516911470E+03  0.74827739634E+03  0.11594144663E+04  0.10100000352E+00 0.  1.
</event>
<event>
 5   0  0.2348684E-06  0.2943077E+04  0.7818609E-02  0.8260175E-01
        1   -1    0    0  501    0  0.00000000000E+00  0.00000000000E+00  0.26909177654E+04  0.26909177654E+04  0.50400001928E-02 0.  1.
       -1   -1    0    0    0  501  0.00000000000E+00  0.00000000000E+00 -0.80471626467E+03  0.80471626469E+03  0.50400001928E-02 0. -1.
    10030    2    1    2    0    0  0.00000000000E+00  0.00000000000E+00  0.18862015008E+04  0.34956340301E+04  0.29430768205E+04 0.  0.
        5    1    3    3  502    0  0.90860590651E+03  0.78257330938E+03 -0.69915098929E+02  0.12012060144E+04  0.46999998093E+01 0. -1.
       -5    1    3    3    0  502 -0.90860590651E+03 -0.78257330938E+03  0.19561165997E+04  0.22944280158E+04  0.46999998093E+01 0.  1.
</event>
<event>
 5   0  0.2429358E-06  0.2865600E+04  0.7818609E-02  0.8283187E-01
       -1   -1    0    0    0  501  0.00000000000E+00  0.00000000000E+00  0.12674523420E+04  0.12674523420E+04  0.50400001928E-02 0. -1.
        1   -1    0    0  501    0  0.00000000000E+00  0.00000000000E+00 -0.16197183443E+04  0.16197183443E+04  0.50400001928E-02 0.  1.
    10030    2    1    2    0    0  0.00000000000E+00  0.00000000000E+00 -0.35226600227E+03  0.28871706863E+04  0.28655999783E+04 0.  0.
        2    1    3    3  502    0 -0.66543641694E+03 -0.34617079582E+02  0.11018439420E+04  0.12876583552E+04  0.25500000920E-02 0. -1.
       -2    1    3    3    0  502  0.66543641694E+03  0.34617079582E+02 -0.14541099443E+04  0.15995123311E+04  0.25500000920E-02 0.  1.
</event>
<event>
 5   0  0.6393633E-06  0.2850582E+04  0.7818609E-02  0.8287734E-01
        2   -1    0    0  501    0  0.00000000000E+00  0.00000000000E+00  0.20375434538E+04  0.20375434538E+04  0.25500000920E-02 0. -1.
       -2   -1    0    0    0  501  0.00000000000E+00  0.00000000000E+00 -0.99701163135E+03  0.99701163135E+03  0.25500000920E-02 0.  1.
    10030    2    1    2    0    0  0.00000000000E+00  0.00000000000E+00  0.10405318225E+04  0.30345550852E+04  0.28505820619E+04 0.  0.
        4    1    3    3  502    0  0.12803344580E+03 -0.19391624215E+03 -0.97671059334E+03  0.10039727428E+04  0.12699999809E+01 0.  1.
       -4    1    3    3    0  502 -0.12803344580E+03  0.19391624215E+03  0.20172424158E+04  0.20305823424E+04  0.12699999809E+01 0. -1.
</event>
<event>
 5   0  0.2336512E-06  0.2886564E+04  0.7818609E-02  0.8276886E-01
       -1   -1    0    0    0  501  0.00000000000E+00  0.00000000000E+00  0.17604398013E+04  0.17604398013E+04  0.50400001928E-02 0.  1.
        1   -1    0    0  501    0  0.00000000000E+00  0.00000000000E+00 -0.11832627995E+04  0.11832627995E+04  0.50400001928E-02 0. -1.
    10030    2    1    2    0    0  0.00000000000E+00  0.00000000000E+00  0.57717700180E+03  0.29437026007E+04  0.28865639972E+04 0.  0.
        4    1    3    3  502    0  0.31294373290E+03 -0.51776843423E+03 -0.10477096736E+04  0.12098409418E+04  0.12699999809E+01 0. -1.
       -4    1    3    3    0  502 -0.31294373290E+03  0.51776843423E+03  0.16248866754E+04  0.17338616589E+04  0.12699999809E+01 0.  1.
</event>
<event>
 5   0  0.2348684E-06  0.2938193E+04  0.7818609E-02  0.8261604E-01
       -1   -1    0    0    0  501  0.00000000000E+00  0.00000000000E+00  0.12019124724E+04  0.12019124724E+04  0.50400001928E-02 0. -1.
        1   -1    0    0  501    0  0.00000000000E+00  0.00000000000E+00 -0.17956749793E+04  0.17956749793E+04  0.50400001928E-02 0.  1.
    10030    2    1    2    0    0  0.00000000000E+00  0.00000000000E+00 -0.59376250686E+03  0.29975874517E+04  0.29381927465E+04 0.  0.
        5    1    3    3  502    0  0.51719173506E+03 -0.10054947719E+04 -0.12537725126E+04  0.16883348692E+04  0.46999998093E+01 0.  1.
       -5    1    3    3    0  502 -0.51719173506E+03  0.10054947719E+04  0.66001000574E+03  0.13092525825E+04  0.46999998093E+01 0. -1.
</event>
<event>
 5   0  0.2429358E-06  0.2852466E+04  0.7818609E-02  0.8287162E-01
        1   -1    0    0  501    0  0.00000000000E+00  0.00000000000E+00  0.22873011602E+04  0.22873011602E+04  0.50400001928E-02 0. -1.
       -1   -1    0    0    0  501  0.00000000000E+00  0.00000000000E+00 -0.88931937232E+03  0.88931937233E+03  0.50400001928E-02 0.  1.
    10030    2    1    2    0    0  0.00000000000E+00  0.00000000000E+00  0.13979817879E+04  0.31766205325E+04  0.28524664640E+04 0.  0.
        2    1    3    3  502    0 -0.10024246702E+04 -0.70887289411E+03  0.15072704374E+04  0.19440216487E+04  0.25500000920E-02 0. -1.
       -2    1    3    3    0  502  0.10024246702E+04  0.70887289411E+03 -0.10928864947E+03  0.12325988838E+04  0.25500000920E-02 0.  1.
</event>
<event>
 5   0  0.6513041E-06  0.2908622E+04  0.7818609E-02  0.8270317E-01
        2   -1    0    0  501    0  0.00000000000E+00  0.00000000000E+00  0.22407187258E+04  0.22407187258E+04  0.25500000920E-02 0.  1.
       -2   -1    0    0    0  501  0.00000000000E+00  0.00000000000E+00 -0.94390263470E+03  0.94390263471E+03  0.25500000920E-02 0. -1.
    10030    2    1    2    0    0  0.00000000000E+00  0.00000000000E+00  0.12968160911E+04  0.31846213605E+04  0.29086218791E+04 0.  0.
        1    1    3    3  502    0  0.72132756392E+03 -0.88278625960E+03  0.16370855033E+04  0.19949120231E+04  0.50400001928E-02 0.  1.
       -1    1    3    3    0  502 -0.72132756392E+03  0.88278625960E+03 -0.34026941224E+03  0.11897093374E+04  0.50400001928E-02 0. -1.
</event>
<event>
 5   0  0.6612533E-06  0.2888868E+04  0.7818609E-02  0.8276197E-01
       -2   -1    0    0    0  501  0.00000000000E+00  0.00000000000E+00  0.10082138519E+04  0.10082138519E+04  0.25500000920E-02 0.  1.
        2   -1    0    0  501    0  0.00000000000E+00  0.00000000000E+00 -0.20693922113E+04  0.20693922113E+04  0.25500000920E-02 0. -1.
    10030    2    1    2    0    0  0.00000000000E+00  0.00000000000E+00 -0.10611783594E+04  0.30776060632E+04  0.28888682160E+04 0.  0.
        3    1    3    3  502    0 -0.51513744518E+02 -0.48116752818E+03 -0.19804652516E+04  0.20387296238E+04  0.10100000352E+00 0. -1.
       -3    1    3    3    0  502  0.51513744518E+02  0.48116752818E+03  0.91928689215E+03  0.10388764394E+04  0.10100000352E+00 0.  1.
</event>
<event>
 5   0  0.6612533E-06  0.2892582E+04  0.7818609E-02  0.8275088E-01
        2   -1    0    0  501    0  0.00000000000E+00  0.00000000000E+00  0.15596351922E+04  0.15596351922E+04  0.25500000920E-02 0.  1.
       -2   -1    0    0    0  501  0.00000000000E+00  0.00000000000E+00 -0.13411836920E+04  0.13411836920E+04  0.25500000920E-02 0. -1.
    10030    2    1    2    0    0  0.00000000000E+00  0.00000000000E+00  0.21845150018E+03  0.29008188842E+04  0.28925817432E+04 0.  0.
        3    1    3    3  502    0  0.94802941111E+03  0.16510519247E+03 -0.97354224485E+03  0.13688696072E+04  0.10100000352E+00 0. -1.
       -3    1    3    3    0  502 -0.94802941111E+03 -0.16510519247E+03  0.11919937450E+04  0.15319492770E+04  0.10100000352E+00 0.  1.
</event>
<event>
 5   0  0.2336512E-06  0.2911423E+04  0.7818609E-02  0.8269487E-01
       -1   -1    0    0    0  501  0.00000000000E+00  0.00000000000E+00  0.16696594236E+04  0.16696594236E+04  0.50400001928E-02 0.  1.
        1   -1    0    0  501    0  0.00000000000E+00  0.00000000000E+00 -0.12691789738E+04  0.12691789738E+04  0.50400001928E-02 0. -1.
    10030    2    1    2    0    0  0.00000000000E+00  0.00000000000E+00  0.40048044981E+03  0.29388383974E+04  0.29114234552E+04 0.  0.
        4    1    3    3  502    0  0.11279789751E+04 -0.38529601603E+03  0.10437556706E+04  0.15843664668E+04  0.12699999809E+01 0.  1.
       -4    1    3    3    0  502 -0.11279789751E+04  0.38529601603E+03 -0.64327522082E+03  0.13544719306E+04  0.12699999809E+01 0. -1.
</event>
<event>
 5   0  0.6513041E-06  0.2906547E+04  0.7818609E-02  0.8270932E-01
       -2   -1    0    0    0  501  0.00000000000E+00  0.00000000000E+00  0.10494998839E+04  0.10494998839E+04  0.25500000920E-02 0. -1.
        2   -1    0    0  501    0  0.00000000000E+00  0.00000000000E+00 -0.20123907920E+04  0.20123907920E+04  0.25500000920E-02 0.  1.
    10030    2    1    2    0    0  0.00000000000E+00  0.00000000000E+00 -0.96289090803E+03  0.30618906759E+04  0.29065470253E+04 0.  0.
        1    1    3    3  502    0 -0.38453268010E+03 -0.51561857024E+03  0.89138360639E+03  0.10992236469E+04  0.50400001928E-02 0. -1.
       -1    1    3    3    0  502  0.38453268010E+03  0.51561857024E+03 -0.18542745144E+04  0.19626670290E+04  0.50400001928E-02 0.  1.
</event>
<event>
 5   0  0.2429358E-06  0.2926292E+04  0.7818609E-02  0.8265097E-01
       -1   -1    0    0    0  501  0.00000000000E+00  0.00000000000E+00  0.10450491125E+04  0.10450491126E+04  0.50400001928E-02 0. -1.
        1   -1    0    0  501    0  0.00000000000E+00  0.00000000000E+00 -0.20485130105E+04  0.20485130105E+04  0.50400001928E-02 0.  1.
    10030    2    1    2    0    0  0.00000000000E+00  0.00000000000E+00 -0.10034638980E+04  0.30935621231E+04  0.29262923324E+04 0.  0.
        2    1    3    3  502    0 -0.72102511586E+03 -0.25061205422E+03 -0.18213268223E+04  0.19748202483E+04  0.25500000920E-02 0.  1.
       -2    1    3    3    0  502  0.72102511586E+03  0.25061205422E+03  0.81786292432E+03  0.11187418748E+04  0.25500000920E-02 0. -1.
</event>
<event>
 5   0  0.2474769E-06  0.2818364E+04  0.7818609E-02  0.8297590E-01
        1   -1    0    0  501    0  0.00000000000E+00  0.00000000000E+00  0.20768899563E+04  0.20768899563E+04  0.50400001928E-02 0.  1.
       -1   -1    0    0    0  501  0.00000000000E+00  0.00000000000E+00 -0.95613814511E+03  0.95613814513E+03  0.50400001928E-02 0. -1.
    10030    2    1    2    0    0  0.00000000000E+00  0.00000000000E+00  0.11207518112E+04  0.30330281014E+04  0.28183638590E+04 0.  0.
        1    1    3    3  502    0  0.56543177572E+03 -0.12631163061E+04  0.27439534684E+03  0.14108397152E+04  0.50400001928E-02 0.  1.
       -1    1    3    3    0  502 -0.56543177572E+03  0.12631163061E+04  0.84635646432E+03  0.16221883862E+04  0.50400001928E-02 0. -1.
</event>
<event>
 5   0  0.2348684E-06  0.2873700E+04  0.7818609E-02  0.8280746E-01
        1   -1    0    0  501    0  0.00000000000E+00  0.00000000000E+00  0.25532659885E+04  0.25532659885E+04  0.50400001928E-02 0. -1.
       -1   -1    0    0    0  501  0.00000000000E+00  0.00000000000E+00 -0.80858735577E+03  0.80858735579E+03  0.50400001928E-02 0.  1.
    10030    2    1    2    0    0  0.00000000000E+00  0.00000000000E+00  0.17446786327E+04  0.33618533443E+04  0.28737004675E+04 0.  0.
        5    1    3    3  502    0  0.64499622778E+03  0.11490086120E+04  0.20205886390E+03  0.13330756913E+04  0.46999998093E+01 0.  1.
       -5    1    3    3    0  502 -0.64499622778E+03 -0.11490086120E+04  0.15426197688E+04  0.20287776530E+04  0.46999998093E+01 0. -1.
</event>
<event>
 5   0  0.6615403E-06  0.2842282E+04  0.7818609E-02  0.8290260E-01
       -2   -1    0    0    0  501  0.00000000000E+00  0.00000000000E+00  0.22726997856E+04  0.22726997856E+04  0.25500000920E-02 0.  1.
        2   -1    0    0  501    0  0.00000000000E+00  0.00000000000E+00 -0.88865321495E+03  0.88865321495E+03  0.25500000920E-02 0. -1.
    10030    2    1    2    0    0  0.00000000000E+00  0.00000000000E+00  0.13840465706E+04  0.31613530005E+04  0.28422821613E+04 0.  0.
        2    1    3    3  502    0 -0.68661218249E+03  0.12291811174E+04  0.90689215234E+03  0.16747465135E+04  0.25500000920E-02 0.  1.
       -2    1    3    3    0  502  0.68661218249E+03 -0.12291811174E+04  0.47715441827E+03  0.14866064870E+04  0.25500000920E-02 0. -1.
</event>
<event>
 5   0  0.6513041E-06  0.2920148E+04  0.7818609E-02  0.8266908E-01
       -2   -1    0    0    0  501  0.00000000000E+00  0.00000000000E+00  0.12705923791E+04  0.12705923791E+04  0.25500000920E-02 0.  1.
        2   -1    0    0  501    0  0.00000000000E+00  0.00000000000E+00 -0.16778130379E+04  0.16778130379E+04  0.25500000920E-02 0. -1.
    10030    2    1    2    0    0  0.00000000000E+00  0.00000000000E+00 -0.40722065883E+03  0.29484054170E+04  0.29201482562E+04 0.  0.
        1    1    3    3  502    0 -0.86844302888E+02 -0.12920160516E+04 -0.88465127887E+03  0.15682650591E+04  0.50400001928E-02 0. -1.
       -1    1    3    3    0  502  0.86844302888E+02  0.12920160516E+04  0.47743062004E+03  0.13801403579E+04  0.50400001928E-02 0.  1.
</event>
<event>
 5   0  0.6733688E-06  0.2802579E+04  0.7818609E-02  0.8302468E-01
       -2   -1    0    0    0  501  0.00000000000E+00  0.00000000000E+00  0.14787163628E+04  0.14787163628E+04  0.25500000920E-02 0.  1.
        2   -1    0    0  501    0  0.00000000000E+00  0.00000000000E+00 -0.13279164739E+04  0.13279164739E+04  0.25500000920E-02 0. -1.
    10030    2    1    2    0    0  0.00000000000E+00  0.00000000000E+00  0.15079988892E+03  0.28066328367E+04  0.28025786828E+04 0.  0.
        5    1    3    3  502    0 -0.19375230638E+03  0.30045378349E+03 -0.12814686323E+04  0.13304121082E+04  0.46999998093E+01 0. -1.
       -5    1    3    3    0  502  0.19375230638E+03 -0.30045378349E+03  0.14322685212E+04  0.14762207284E+04  0.46999998093E+01 0.  1.
</event>
<event>
 5   0  0.2159500E-06  0.2901325E+04  0.7818609E-02  0.8272483E-01
        3   -1    0    0  501    0  0.00000000000E+00  0.00000000000E+00  0.16807782666E+04  0.16807782697E+04  0.10100000352E+00 0. -1.
       -3   -1    0    0    0  501  0.00000000000E+00  0.00000000000E+00 -0.12520522063E+04  0.12520522104E+04  0.10100000352E+00 0.  1.
    10030    2    1    2    0    0  0.00000000000E+00  0.00000000000E+00  0.42872606035E+03  0.29328304800E+04  0.29013253161E+04 0.  0.
        5    1    3    3  502    0 -0.12440664188E+04 -0.51455625105E+03 -0.33181017945E+03  0.13865747276E+04  0.46999998093E+01 0.  1.
       -5    1    3    3    0  502  0.12440664188E+04  0.51455625105E+03  0.76053623980E+03  0.15462557525E+04  0.46999998093E+01 0. -1.
</event>
<event>
 5   0  0.2429358E-06  0.2892944E+04  0.7818609E-02  0.8274980E-01
       -1   -1    0    0    0  501  0.00000000000E+00  0.00000000000E+00  0.12187250629E+04  0.12187250629E+04  0.50400001928E-02 0.  1.
        1   -1    0    0  501    0  0.00000000000E+00  0.00000000000E+00 -0.17167791649E+04  0.17167791649E+04  0.50400001928E-02 0. -1.
    10030    2    1    2    0    0  0.00000000000E+00  0.00000000000E+00 -0.49805410206E+03  0.29355042278E+04  0.28929443795E+04 0.  0.
        2    1    3    3  502    0  0.11161246057E+03  0.28783844477E+03 -0.16829597735E+04  0.17110411774E+04  0.25500000920E-02 0. -1.
       -2    1    3    3    0  502 -0.11161246057E+03 -0.28783844477E+03  0.11849056714E+04  0.12244630504E+04  0.25500000920E-02 0.  1.
</event>
<event>
 5   0  0.6393633E-06  0.2880318E+04  0.7818609E-02  0.8278758E-01
       -2   -1    0    0    0  501  0.00000000000E+00  0.00000000000E+00  0.15514788653E+04  0.15514788653E+04  0.25500000920E-02 0. -1.
        2   -1    0    0  501    0  0.00000000000E+00  0.00000000000E+00 -0.13368264559E+04  0.13368264559E+04  0.25500000920E-02 0.  1.
    10030    2    1    2    0    0  0.00000000000E+00  0.00000000000E+00  0.21465240944E+03  0.28883053212E+04  0.28803180331E+04 0.  0.
        4    1    3    3  502    0 -0.43587954890E+03  0.12095020025E+04 -0.54344979560E+03  0.13957884397E+04  0.12699999809E+01 0.  1.
       -4    1    3    3    0  502  0.43587954890E+03 -0.12095020025E+04  0.75810220504E+03  0.14925168815E+04  0.12699999809E+01 0. -1.
</event>
<event>
 5   0  0.6513041E-06  0.2905294E+04  0.7818609E-02  0.8271304E-01
       -2   -1    0    0    0  501  0.00000000000E+00  0.00000000000E+00  0.12397918115E+04  0.12397918115E+04  0.25500000920E-02 0.  1.
        2   -1    0    0  501    0  0.00000000000E+00  0.00000000000E+00 -0.17020467604E+04  0.17020467604E+04  0.25500000920E-02 0. -1.
    10030    2    1    2    0    0  0.00000000000E+00  0.00000000000E+00 -0.46225494890E+03  0.29418385719E+04  0.29052942269E+04 0.  0.
        1    1    3    3  502    0  0.94961618574E+03 -0.27368149123E+03 -0.13091842173E+04  0.16403157543E+04  0.50400001928E-02 0. -1.
       -1    1    3    3    0  502 -0.94961618574E+03  0.27368149123E+03  0.84692926844E+03  0.13015228176E+04  0.50400001928E-02 0.  1.
</event>
<event>
 5   0  0.2474769E-06  0.2862444E+04  0.7818609E-02  0.8284140E-01
       -1   -1    0    0    0  501  0.00000000000E+00  0.00000000000E+00  0.10124029142E+04  0.10124029142E+04  0.50400001928E-02 0.  1.
        1   -1    0    0  501    0  0.00000000000E+00  0.00000000000E+00 -0.20233018598E+04  0.20233018598E+04  0.50400001928E-02 0. -1.
    10030    2    1    2    0    0  0.00000000000E+00  0.00000000000E+00 -0.10108989457E+04  0.30357047740E+04  0.28624441997E+04 0.  0.
        1    1    3    3  502    0  0.24734590888E+03 -0.10414779726E+04 -0.15129744323E+04  0.18533612705E+04  0.50400001928E-02 0. -1.
       -1    1    3    3    0  502 -0.24734590888E+03  0.10414779726E+04  0.50207548667E+03  0.11823435035E+04  0.50400001928E-02 0.  1.
</event>
<event>
 5   0  0.2348684E-06  0.2917183E+04  0.7818609E-02  0.8267783E-01
        1   -1    0    0  501    0  0.00000000000E+00  0.00000000000E+00  0.16051963893E+04  0.16051963893E+04  0.50400001928E-02 0.  1.
       -1   -1    0    0    0  501  0.00000000000E+00  0.00000000000E+00 -0.13253760274E+04  0.13253760274E+04  0.50400001928E-02 0. -1.
    10030    2    1    2    0    0  0.00000000000E+00  0.00000000000E+00  0.27982036185E+03  0.29305724167E+04  0.29171827599E+04 0.  0.
        5    1    3    3  502    0  0.26213635416E+03 -0.27074209590E+03  0.15554376245E+04  0.16004452644E+04  0.46999998093E+01 0.  1.
       -5    1    3    3    0  502 -0.26213635416E+03  0.27074209590E+03 -0.12756172626E+04  0.13301271523E+04  0.46999998093E+01 0. -1.
</event>
<event>
 5   0  0.6733688E-06  0.2951008E+04  0.7818609E-02  0.8257861E-01
       -2   -1    0    0    0  501  0.00000000000E+00  0.00000000000E+00  0.12086842690E+04  0.12086842690E+04  0.25500000920E-02 0.  1.
        2   -1    0    0  501    0  0.00000000000E+00  0.00000000000E+00 -0.18012251567E+04  0.18012251567E+04  0.25500000920E-02 0. -1.
    10030    2    1    2    0    0  0.00000000000E+00  0.00000000000E+00 -0.59254088776E+03  0.30099094257E+04  0.29510083103E+04 0.  0.
        5    1    3    3  502    0 -0.13242230511E+04  0.46488664776E+03  0.16823595653E+03  0.14135104214E+04  0.46999998093E+01 0.  1.
       -5    1    3    3    0  502  0.13242230511E+04 -0.46488664776E+03 -0.76077684429E+03  0.15963990043E+04  0.46999998093E+01 0. -1.
</event>
<event>
 5   0  0.6733688E-06  0.2767136E+04  0.7818609E-02  0.8313545E-01
        2   -1    0    0  501    0  0.00000000000E+00  0.00000000000E+00  0.16489138047E+04  0.16489138047E+04  0.25500000920E-02 0.  1.
       -2   -1    0    0    0  501  0.00000000000E+00  0.00000000000E+00 -0.11609216669E+04  0.11609216669E+04  0.25500000920E-02 0. -1.
    10030    2    1    2    0    0  0.00000000000E+00  0.00000000000E+00  0.48799213782E+03  0.28098354716E+04  0.27671355317E+04 0.  0.
        5    1    3    3  502    0  0.12081690438E+04  0.51393782695E+03 -0.19912431549E+03  0.13279597552E+04  0.46999998093E+01 0.  1.
       -5    1    3    3    0  502 -0.12081690438E+04 -0.51393782695E+03  0.68711645330E+03  0.14818757164E+04  0.46999998093E+01 0. -1.
</event>
<event>
 5   0  0.6733688E-06  0.2833627E+04  0.7818609E-02  0.8292904E-01
        2   -1    0    0  501    0  0.00000000000E+00  0.00000000000E+00  0.12606505290E+04  0.12606505290E+04  0.25500000920E-02 0.  1.
       -2   -1    0    0    0  501  0.00000000000E+00  0.00000000000E+00 -0.15923217029E+04  0.15923217029E+04  0.25500000920E-02 0. -1.
    10030    2    1    2    0    0  0.00000000000E+00  0.00000000000E+00 -0.33167117386E+03  0.28529722319E+04  0.28336274964E+04 0.  0.
        5    1    3    3  502    0  0.10494395123E+04  0.48949841229E+03 -0.98774622445E+03  0.15220370165E+04  0.46999998093E+01 0. -1.
       -5    1    3    3    0  502 -0.10494395123E+04 -0.48949841229E+03  0.65607505060E+03  0.13309352154E+04  0.46999998093E+01 0.  1.
</event>
<event>
 5   0  0.6393633E-06  0.2916061E+04  0.7818609E-02  0.8268115E-01
        2   -1    0    0  501    0  0.00000000000E+00  0.00000000000E+00  0.15290585805E+04  0.15290585805E+04  0.25500000920E-02 0. -1.
       -2   -1    0    0    0  501  0.00000000000E+00  0.00000000000E+00 -0.13903014141E+04  0.13903014141E+04  0.25500000920E-02 0.  1.
    10030    2    1    2    0    0  0.00000000000E+00  0.00000000000E+00  0.13875716632E+03  0.29193599946E+04  0.29160605664E+04 0.  0.
        4    1    3    3  502    0  0.21808872610E+02  0.13982004164E+03  0.15221667527E+04  0.15287310119E+04  0.12699999809E+01 0. -1.
       -4    1    3    3    0  502 -0.21808872610E+02 -0.13982004164E+03 -0.13834095863E+04  0.13906289827E+04  0.12699999809E+01 0.  1.
</event>
<event>
 5   0  0.6393633E-06  0.2919150E+04  0.7818609E-02  0.8267203E-01
       -2   -1    0    0    0  501  0.00000000000E+00  0.00000000000E+00  0.29604447656E+04  0.29604447656E+04  0.25500000920E-02 0.  1.
        2   -1    0    0  501    0  0.00000000000E+00  0.00000000000E+00 -0.71960779077E+03  0.71960779077E+03  0.25500000920E-02 0. -1.
    10030    2    1    2    0    0  0.00000000000E+00  0.00000000000E+00  0.22408369748E+04  0.36800525564E+04  0.29191499567E+04 0.  0.
        4    1    3    3  502    0 -0.24545000604E+03 -0.74028706938E+03 -0.43489283397E+03  0.89297482635E+03  0.12699999809E+01 0. -1.
       -4    1    3    3    0  502  0.24545000604E+03  0.74028706938E+03  0.26757298088E+04  0.27870777300E+04  0.12699999809E+01 0.  1.
</event>
<event>
 5   0  0.2348684E-06  0.2913328E+04  0.7818609E-02  0.8268923E-01
        1   -1    0    0  501    0  0.00000000000E+00  0.00000000000E+00  0.20905094057E+04  0.20905094057E+04  0.50400001928E-02 0. -1.
       -1   -1    0    0    0  501  0.00000000000E+00  0.00000000000E+00 -0.10150013494E+04  0.10150013494E+04  0.50400001928E-02 0.  1.
    10030    2    1    2    0    0  0.00000000000E+00  0.00000000000E+00  0.10755080563E+04  0.31055107551E+04  0.29133279031E+04 0.  0.
        5    1    3    3  502    0  0.82919946979E+03 -0.81400261640E+03  0.14741533655E+04  0.18770514791E+04  0.46999998093E+01 0. -1.
       -5    1    3    3    0  502 -0.82919946979E+03  0.81400261640E+03 -0.39864530922E+03  0.12284592760E+04  0.46999998093E+01 0.  1.
</event>
<event>
 5   0  0.6612533E-06  0.2920777E+04  0.7818609E-02  0.8266722E-01
        2   -1    0    0  501    0  0.00000000000E+00  0.00000000000E+00  0.12099181094E+04  0.12099181094E+04  0.25500000920E-02 0.  1.
       -2   -1    0    0    0  501  0.00000000000E+00  0.00000000000E+00 -0.17627096041E+04  0.17627096041E+04  0.25500000920E-02 0. -1.
    10030    2    1    2    0    0  0.00000000000E+00  0.00000000000E+00 -0.55279149476E+03  0.29726277135E+04  0.29207767950E+04 0.  0.
        3    1    3    3  502    0 -0.28968665331E+03 -0.97686471254E+03  0.78838502708E+03  0.12883066346E+04  0.10100000352E+00 0.  1.
       -3    1    3    3    0  502  0.28968665331E+03  0.97686471254E+03 -0.13411765218E+04  0.16843210789E+04  0.10100000352E+00 0. -1.
</event>
<event>
 5   0  0.6615403E-06  0.2905936E+04  0.7818609E-02  0.8271113E-01
       -2   -1    0    0    0  501  0.00000000000E+00  0.00000000000E+00  0.14822811054E+04  0.14822811054E+04  0.25500000920E-02 0.  1.
        2   -1    0    0  501    0  0.00000000000E+00  0.00000000000E+00 -0.14242347249E+04  0.14242347249E+04  0.25500000920E-02 0. -1.
    10030    2    1    2    0    0  0.00000000000E+00  0.00000000000E+00  0.58046380506E+02  0.29065158303E+04  0.29059361468E+04 0.  0.
        2    1    3    3  502    0  0.10796679746E+04  0.26195155121E+03  0.96559380960E+03  0.14719622807E+04  0.25500000920E-02 0.  1.
       -2    1    3    3    0  502 -0.10796679746E+04 -0.26195155121E+03 -0.90754742909E+03  0.14345535496E+04  0.25500000920E-02 0. -1.
</event>
<event>
 5   0  0.2508094E-06  0.2908638E+04  0.7818609E-02  0.8270312E-01
        1   -1    0    0  501    0  0.00000000000E+00  0.00000000000E+00  0.24839206680E+04  0.24839206680E+04  0.50400001928E-02 0. -1.
       -1   -1    0    0    0  501  0.00000000000E+00  0.00000000000E+00 -0.85149428692E+03  0.85149428693E+03  0.50400001928E-02 0.  1.
    10030    2    1    2    0    0  0.00000000000E+00  0.00000000000E+00  0.16324263811E+04  0.33354149549E+04  0.29086383467E+04 0.  0.
        3    1    3    3  502    0 -0.83951660053E+03  0.33445416120E+03 -0.49045049314E+03  0.10281971625E+04  0.10100000352E+00 0.  1.
       -3    1    3    3    0  502  0.83951660053E+03 -0.33445416120E+03  0.21228768742E+04  0.23072177924E+04  0.10100000352E+00 0. -1.
</event>
<event>
 5   0  0.6733688E-06  0.2891564E+04  0.7818609E-02  0.8275392E-01
       -2   -1    0    0    0  501  0.00000000000E+00  0.00000000000E+00  0.10688672026E+04  0.10688672026E+04  0.25500000920E-02 0.  1.
        2   -1    0    0  501    0  0.00000000000E+00  0.00000000000E+00 -0.19556087891E+04  0.19556087891E+04  0.25500000920E-02 0. -1.
    10030    2    1    2    0    0  0.00000000000E+00  0.00000000000E+00 -0.88674158660E+03  0.30244759917E+04  0.28915643488E+04 0.  0.
        5    1    3    3  502    0 -0.10154442882E+04  0.98217846906E+03 -0.12189618806E+03  0.14179853378E+04  0.46999998093E+01 0.  1.
       -5    1    3    3    0  502  0.10154442882E+04 -0.98217846906E+03 -0.76484539853E+03  0.16064906539E+04  0.46999998093E+01 0. -1.
</event>
<event>
 5   0  0.6615403E-06  0.2925380E+04  0.7818609E-02  0.8265366E-01
       -2   -1    0    0    0  501  0.00000000000E+00  0.00000000000E+00  0.16855279691E+04  0.16855279691E+04  0.25500000920E-02 0.  1.
        2   -1    0    0  501    0  0.00000000000E+00  0.00000000000E+00 -0.12693128214E+04  0.12693128214E+04  0.25500000920E-02 0. -1.
    10030    2    1    2    0    0  0.00000000000E+00  0.00000000000E+00  0.41621514765E+03  0.29548407905E+04  0.29253801544E+04 0.  0.
        2    1    3    3  502    0 -0.28496195806E+03 -0.29284548592E+03 -0.12104936561E+04  0.12775980149E+04  0.25500000920E-02 0. -1.
       -2    1    3    3    0  502  0.28496195806E+03  0.29284548592E+03  0.16267088037E+04  0.16772427756E+04  0.25500000920E-02 0.  1.
</event>
<event>
 5   0  0.2474769E-06  0.2878559E+04  0.7818609E-02  0.8279286E-01
        1   -1    0    0  501    0  0.00000000000E+00  0.00000000000E+00  0.14888865543E+04  0.14888865543E+04  0.50400001928E-02 0.  1.
       -1   -1    0    0    0  501  0.00000000000E+00  0.00000000000E+00 -0.13913251537E+04  0.13913251538E+04  0.50400001928E-02 0. -1.
    10030    2    1    2    0    0  0.00000000000E+00  0.00000000000E+00  0.97561400525E+02  0.28802117080E+04  0.28785588853E+04 0.  0.
        1    1    3    3  502    0  0.19032384005E+00 -0.44541130166E+03 -0.13206300180E+04  0.13937198098E+04  0.50400001928E-02 0. -1.
       -1    1    3    3    0  502 -0.19032384005E+00  0.44541130166E+03  0.14181914185E+04  0.14864918982E+04  0.50400001928E-02 0.  1.
</event>
<event>
 5   0  0.6733688E-06  0.2915282E+04  0.7818609E-02  0.8268345E-01
        2   -1    0    0  501    0  0.00000000000E+00  0.00000000000E+00  0.12555165108E+04  0.12555165108E+04  0.25500000920E-02 0. -1.
       -2   -1    0    0    0  501  0.00000000000E+00  0.00000000000E+00 -0.16923054876E+04  0.16923054876E+04  0.25500000920E-02 0.  1.
    10030    2    1    2    0    0  0.00000000000E+00  0.00000000000E+00 -0.43678897687E+03  0.29478219984E+04  0.29152821345E+04 0.  0.
        5    1    3    3  502    0 -0.94564783579E+03  0.78920167147E+03  0.56979709404E+03  0.13571219274E+04  0.46999998093E+01 0. -1.
       -5    1    3    3    0  502  0.94564783579E+03 -0.78920167147E+03 -0.10065860709E+04  0.15907000710E+04  0.46999998093E+01 0.  1.
</event>
<event>
 5   0  0.2159500E-06  0.2716862E+04  0.7818609E-02  0.8329555E-01
       -4   -1    0    0    0  501  0.00000000000E+00  0.00000000000E+00  0.16810122710E+04  0.16810127507E+04  0.12699999809E+01 0. -1.
        4   -1    0    0  501    0  0.00000000000E+00  0.00000000000E+00 -0.10977508005E+04  0.10977515351E+04  0.12699999809E+01 0.  1.
    10030    2    1    2    0    0  0.00000000000E+00  0.00000000000E+00  0.58326147053E+03  0.27787642859E+04  0.27168616110E+04 0.  0.
        1    1    3    3  502    0 -0.12233167129E+04 -0.59009908763E+03  0.26629662400E+03  0.13840645235E+04  0.50400001928E-02 0. -1.
       -1    1    3    3    0  502  0.12233167129E+04  0.59009908763E+03  0.31696484654E+03  0.13946997624E+04  0.50400001928E-02 0.  1.
</event>
<event>
 5   0  0.6612533E-06  0.2910057E+04  0.7818609E-02  0.8269892E-01
       -2   -1    0    0    0  501  0.00000000000E+00  0.00000000000E+00  0.10500265007E+04  0.10500265007E+04  0.25500000920E-02 0. -1.
        2   -1    0    0  501    0  0.00000000000E+00  0.00000000000E+00 -0.20162422534E+04  0.20162422534E+04  0.25500000920E-02 0.  1.
    10030    2    1    2    0    0  0.00000000000E+00  0.00000000000E+00 -0.96621575277E+03  0.30662687541E+04  0.29100569052E+04 0.  0.
        3    1    3    3  502    0 -0.50867066312E+03 -0.11005185079E+04  0.36457814558E+03  0.12660189826E+04  0.10100000352E+00 0. -1.
       -3    1    3    3    0  502  0.50867066312E+03  0.11005185079E+04 -0.13307938984E+04  0.18002497715E+04  0.10100000352E+00 0.  1.
</event>
<event>
 5   0  0.2429358E-06  0.2902904E+04  0.7818609E-02  0.8272014E-01
       -1   -1    0    0    0  501  0.00000000000E+00  0.00000000000E+00  0.93584793356E+03  0.93584793357E+03  0.50400001928E-02 0.  1.
        1   -1    0    0  501    0  0.00000000000E+00  0.00000000000E+00 -0.22511281105E+04  0.22511281105E+04  0.50400001928E-02 0. -1.
    10030    2    1    2    0    0  0.00000000000E+00  0.00000000000E+00 -0.13152801769E+04  0.31869760441E+04  0.29029044699E+04 0.  0.
        2    1    3    3  502    0  0.21586530145E+03 -0.86723505583E+03 -0.19132452751E+04  0.21116822567E+04  0.25500000920E-02 0. -1.
       -2    1    3    3    0  502 -0.21586530145E+03  0.86723505583E+03  0.59796509822E+03  0.10752937874E+04  0.25500000920E-02 0.  1.
</event>
<event>
 5   0  0.2348684E-06  0.2952626E+04  0.7818609E-02  0.8257390E-01
        1   -1    0    0  501    0  0.00000000000E+00  0.00000000000E+00  0.19463982317E+04  0.19463982317E+04  0.50400001928E-02 0.  1.
       -1   -1    0    0    0  501  0.00000000000E+00  0.00000000000E+00 -0.11197602650E+04  0.11197602651E+04  0.50400001928E-02 0. -1.
    10030    2    1    2    0    0  0.00000000000E+00  0.00000000000E+00  0.82663796665E+03  0.30661584967E+04  0.29526255434E+04 0.  0.
        5    1    3    3  502    0 -0.97556086064E+03 -0.11059452730E+04  0.48408143673E+03  0.15521568436E+04  0.46999998093E+01 0.  1.
       -5    1    3    3    0  502  0.97556086064E+03  0.11059452730E+04  0.34255652992E+03  0.15140016532E+04  0.46999998093E+01 0. -1.
</event>
<event>
 5   0  0.6615403E-06  0.2850710E+04  0.7818609E-02  0.8287696E-01
        2   -1    0    0  501    0  0.00000000000E+00  0.00000000000E+00  0.18918897292E+04  0.18918897292E+04  0.25500000920E-02 0.  1.
       -2   -1    0    0    0  501  0.00000000000E+00  0.00000000000E+00 -0.10738660778E+04  0.10738660778E+04  0.25500000920E-02 0. -1.
    10030    2    1    2    0    0  0.00000000000E+00  0.00000000000E+00  0.81802365139E+03  0.29657558071E+04  0.28507095280E+04 0.  0.
        2    1    3    3  502    0 -0.25387447204E+03 -0.66401456933E+03 -0.87626864298E+03  0.11283679943E+04  0.25500000920E-02 0. -1.
       -2    1    3    3    0  502  0.25387447204E+03  0.66401456933E+03  0.16942922944E+04  0.18373878128E+04  0.25500000920E-02 0.  1.
</event>
<event>
 5   0  0.6513041E-06  0.2907772E+04  0.7818609E-02  0.8270569E-01
       -2   -1    0    0    0  501  0.00000000000E+00  0.00000000000E+00  0.11353868840E+04  0.11353868840E+04  0.25500000920E-02 0. -1.
        2   -1    0    0  501    0  0.00000000000E+00  0.00000000000E+00 -0.18617303034E+04  0.18617303034E+04  0.25500000920E-02 0.  1.
    10030    2    1    2    0    0  0.00000000000E+00  0.00000000000E+00 -0.72634341943E+03  0.29971171874E+04  0.29077717709E+04 0.  0.
        1    1    3    3  502    0 -0.77477190493E+03 -0.32974794774E+03 -0.15848234114E+04  0.17946226509E+04  0.50400001928E-02 0.  1.
       -1    1    3    3    0  502  0.77477190493E+03  0.32974794774E+03  0.85847999194E+03  0.12024945365E+04  0.50400001928E-02 0. -1.
</event>
<event>
 5   0  0.2336512E-06  0.2933052E+04  0.7818609E-02  0.8263111E-01
        1   -1    0    0  501    0  0.00000000000E+00  0.00000000000E+00  0.18426570863E+04  0.18426570863E+04  0.50400001928E-02 0.  1.
       -1   -1    0    0    0  501  0.00000000000E+00  0.00000000000E+00 -0.11671726190E+04  0.11671726190E+04  0.50400001928E-02 0. -1.
    10030    2    1    2    0    0  0.00000000000E+00  0.00000000000E+00  0.67548446729E+03  0.30098297053E+04  0.29330522650E+04 0.  0.
        4    1    3    3  502    0  0.34179062389E+03  0.14182087212E+04  0.49187545674E+03  0.15395063772E+04  0.12699999809E+01 0.  1.
       -4    1    3    3    0  502 -0.34179062389E+03 -0.14182087212E+04  0.18360901055E+03  0.14703233281E+04  0.12699999809E+01 0. -1.
</event>
<event>
 5   0  0.2508094E-06  0.2920392E+04  0.7818609E-02  0.8266836E-01
        1   -1    0    0  501    0  0.00000000000E+00  0.00000000000E+00  0.26265455004E+04  0.26265455004E+04  0.50400001928E-02 0. -1.
       -1   -1    0    0    0  501  0.00000000000E+00  0.00000000000E+00 -0.81177835822E+03  0.81177835823E+03  0.50400001928E-02 0.  1.
    10030    2    1    2    0    0  0.00000000000E+00  0.00000000000E+00  0.18147671421E+04  0.34383238586E+04  0.29203922984E+04 0.  0.
        3    1    3    3  502    0 -0.10891791820E+04 -0.89357992766E+03  0.45540320732E+03  0.14806040893E+04  0.10100000352E+00 0.  1.
       -3    1    3    3    0  502  0.10891791820E+04  0.89357992766E+03  0.13593639348E+04  0.19577197693E+04  0.10100000352E+00 0. -1.
</event>
<event>
 5   0  0.6615403E-06  0.2909288E+04  0.7818609E-02  0.8270119E-01
        2   -1    0    0  501    0  0.00000000000E+00  0.00000000000E+00  0.18341821645E+04  0.18341821645E+04  0.25500000920E-02 0.  1.
       -2   -1    0    0    0  501  0.00000000000E+00  0.00000000000E+00 -0.11536419653E+04  0.11536419653E+04  0.25500000920E-02 0. -1.
    10030    2    1    2    0    0  0.00000000000E+00  0.00000000000E+00  0.68054019919E+03  0.29878241299E+04  0.29092882409E+04 0.  0.
        2    1    3    3  502    0 -0.46834446832E+03 -0.93274035816E+03  0.13808538292E+04  0.17309270390E+04  0.25500000920E-02 0.  1.
       -2    1    3    3    0  502  0.46834446832E+03  0.93274035816E+03 -0.70031362999E+03  0.12568970909E+04  0.25500000920E-02 0. -1.
</event>
<event>
 5   0  0.2474769E-06  0.2857858E+04  0.7818609E-02  0.8285527E-01
       -1   -1    0    0    0  501  0.00000000000E+00  0.00000000000E+00  0.17500625107E+04  0.17500625107E+04  0.50400001928E-02 0. -1.
        1   -1    0    0  501    0  0.00000000000E+00  0.00000000000E+00 -0.11667232518E+04  0.11667232519E+04  0.50400001928E-02 0.  1.
    10030    2    1    2    0    0  0.00000000000E+00  0.00000000000E+00  0.58333925885E+03  0.29167857626E+04  0.28578583754E+04 0.  0.
        1    1    3    3  502    0 -0.17823621698E+03 -0.11828140401E+04  0.10894659818E+04  0.16179472575E+04  0.50400001928E-02 0. -1.
       -1    1    3    3    0  502  0.17823621698E+03  0.11828140401E+04 -0.50612672293E+03  0.12988385051E+04  0.50400001928E-02 0.  1.
</event>
<event>
 5   0  0.2474769E-06  0.2889442E+04  0.7818609E-02  0.8276026E-01
        1   -1    0    0  501    0  0.00000000000E+00  0.00000000000E+00  0.24923869209E+04  0.24923869209E+04  0.50400001928E-02 0. -1.
       -1   -1    0    0    0  501  0.00000000000E+00  0.00000000000E+00 -0.83743787816E+03  0.83743787817E+03  0.50400001928E-02 0.  1.
    10030    2    1    2    0    0  0.00000000000E+00  0.00000000000E+00  0.16549490427E+04  0.33298247991E+04  0.28894423093E+04 0.  0.
        1    1    3    3  502    0 -0.86915963080E+03  0.11405788386E+04  0.62502815496E+03  0.15642949675E+04  0.50400001928E-02 0. -1.
       -1    1    3    3    0  502  0.86915963080E+03 -0.11405788386E+04  0.10299208878E+04  0.17655298315E+04  0.50400001928E-02 0.  1.
</event>
<event>
 5   0  0.2429358E-06  0.2813135E+04  0.7818609E-02  0.8299202E-01
        1   -1    0    0  501    0  0.00000000000E+00  0.00000000000E+00  0.11997155542E+04  0.11997155542E+04  0.50400001928E-02 0. -1.
       -1   -1    0    0    0  501  0.00000000000E+00  0.00000000000E+00 -0.16490838541E+04  0.16490838541E+04  0.50400001928E-02 0.  1.
    10030    2    1    2    0    0  0.00000000000E+00  0.00000000000E+00 -0.44936829989E+03  0.28487994084E+04  0.28131345862E+04 0.  0.
        2    1    3    3  502    0 -0.39637458443E+03 -0.50643641596E+03  0.10421111809E+04  0.12245759951E+04  0.25500000920E-02 0. -1.
       -2    1    3    3    0  502  0.39637458443E+03  0.50643641596E+03 -0.14914794807E+04  0.16242234132E+04  0.25500000920E-02 0.  1.
</event>
<event>
 5   0  0.6393633E-06  0.2878605E+04  0.7818609E-02  0.8279272E-01
        2   -1    0    0  501    0  0.00000000000E+00  0.00000000000E+00  0.17968419668E+04  0.17968419668E+04  0.25500000920E-02 0.  1.
       -2   -1    0    0    0  501  0.00000000000E+00  0.00000000000E+00 -0.11529066828E+04  0.11529066828E+04  0.25500000920E-02 0. -1.
    10030    2    1    2    0    0  0.00000000000E+00  0.00000000000E+00  0.64393528394E+03  0.29497486496E+04  0.28786046005E+04 0.  0.
        4    1    3    3  502    0  0.13553637557E+04  0.33415012483E+03 -0.37300165340E+02  0.13964455347E+04  0.12699999809E+01 0. -1.
       -4    1    3    3    0  502 -0.13553637557E+04 -0.33415012483E+03  0.68123544928E+03  0.15533031148E+04  0.12699999809E+01 0.  1.
</event>
<event>
 5   0  0.2159500E-06  0.2436583E+04  0.7818609E-02  0.8425933E-01
       -4   -1    0    0    0  501  0.00000000000E+00  0.00000000000E+00  0.93287244693E+03  0.93287331141E+03  0.12699999809E+01 0.  1.
        4   -1    0    0  501    0  0.00000000000E+00  0.00000000000E+00 -0.15910345232E+04  0.15910350301E+04  0.12699999809E+01 0. -1.
    10030    2    1    2    0    0  0.00000000000E+00  0.00000000000E+00 -0.65816207628E+03  0.25239083415E+04  0.24365828526E+04 0.  0.
        5    1    3    3  502    0 -0.11289316574E+04  0.45571913816E+03 -0.28223533266E+03  0.12497381698E+04  0.46999998093E+01 0.  1.
       -5    1    3    3    0  502  0.11289316574E+04 -0.45571913816E+03 -0.37592674363E+03  0.12741701717E+04  0.46999998093E+01 0. -1.
</event>
<event>
 5   0  0.6393633E-06  0.2895488E+04  0.7818609E-02  0.8274221E-01
        2   -1    0    0  501    0  0.00000000000E+00  0.00000000000E+00  0.13245646959E+04  0.13245646960E+04  0.25500000920E-02 0.  1.
       -2   -1    0    0    0  501  0.00000000000E+00  0.00000000000E+00 -0.15823785234E+04  0.15823785234E+04  0.25500000920E-02 0. -1.
    10030    2    1    2    0    0  0.00000000000E+00  0.00000000000E+00 -0.25781382748E+03  0.29069432194E+04  0.28954880264E+04 0.  0.
        4    1    3    3  502    0 -0.87881097074E+03 -0.89178909406E+03  0.60085573895E+03  0.13887497048E+04  0.12699999809E+01 0.  1.
       -4    1    3    3    0  502  0.87881097074E+03  0.89178909406E+03 -0.85866956643E+03  0.15181935146E+04  0.12699999809E+01 0. -1.
</event>
<event>
 5   0  0.6513041E-06  0.2892085E+04  0.7818609E-02  0.8275236E-01
       -2   -1    0    0    0  501  0.00000000000E+00  0.00000000000E+00  0.11994185398E+04  0.11994185398E+04  0.25500000920E-02 0.  1.
        2   -1    0    0  501    0  0.00000000000E+00  0.00000000000E+00 -0.17433776771E+04  0.17433776772E+04  0.25500000920E-02 0. -1.
    10030    2    1    2    0    0  0.00000000000E+00  0.00000000000E+00 -0.54395913740E+03  0.29427962169E+04  0.28920854121E+04 0.  0.
        1    1    3    3  502    0 -0.46162353569E+03 -0.12797439352E+04 -0.77067384281E+03  0.15635789077E+04  0.50400001928E-02 0. -1.
       -1    1    3    3    0  502  0.46162353569E+03  0.12797439352E+04  0.22671470542E+03  0.13792173092E+04  0.50400001928E-02 0.  1.
</event>
<event>
 5   0  0.6733688E-06  0.2904030E+04  0.7818609E-02  0.8271680E-01
       -2   -1    0    0    0  501  0.00000000000E+00  0.00000000000E+00  0.11513457321E+04  0.11513457321E+04  0.25500000920E-02 0. -1.
        2   -1    0    0  501    0  0.00000000000E+00  0.00000000000E+00 -0.18312025357E+04  0.18312025357E+04  0.25500000920E-02 0.  1.
    10030    2    1    2    0    0  0.00000000000E+00  0.00000000000E+00 -0.67985680359E+03  0.29825482678E+04  0.29040297685E+04 0.  0.
        5    1    3    3  502    0 -0.11043287020E+04 -0.80387741450E+03  0.16589615189E+03  0.13759739834E+04  0.46999998093E+01 0. -1.
       -5    1    3    3    0  502  0.11043287020E+04  0.80387741450E+03 -0.84575295548E+03  0.16065742844E+04  0.46999998093E+01 0.  1.
</event>
<event>
 5   0  0.6612533E-06  0.3270551E+04  0.7818609E-02  0.8170429E-01
       -2   -1    0    0    0  501  0.00000000000E+00  0.00000000000E+00  0.13734271760E+04  0.13734271760E+04  0.25500000920E-02 0.  1.
        2   -1    0    0  501    0  0.00000000000E+00  0.00000000000E+00 -0.19470455696E+04  0.19470455696E+04  0.25500000920E-02 0. -1.
    10030    2    1    2    0    0  0.00000000000E+00  0.00000000000E+00 -0.57361839358E+03  0.33204727456E+04  0.32705505947E+04 0.  0.
        3    1    3    3  502    0  0.86996923721E+03  0.11214094123E+04 -0.11114385485E+04  0.18026927639E+04  0.10100000352E+00 0. -1.
       -3    1    3    3    0  502 -0.86996923721E+03 -0.11214094123E+04  0.53782015490E+03  0.15177799817E+04  0.10100000352E+00 0.  1.
</event>
<event>
 5   0  0.6393633E-06  0.2916164E+04  0.7818609E-02  0.8268084E-01
        2   -1    0    0  501    0  0.00000000000E+00  0.00000000000E+00  0.18205910503E+04  0.18205910503E+04  0.25500000920E-02 0.  1.
       -2   -1    0    0    0  501  0.00000000000E+00  0.00000000000E+00 -0.11677541550E+04  0.11677541551E+04  0.25500000920E-02 0. -1.
    10030    2    1    2    0    0  0.00000000000E+00  0.00000000000E+00  0.65283689521E+03  0.29883452053E+04  0.29161637564E+04 0.  0.
        4    1    3    3  502    0 -0.12341218356E+04 -0.19002460573E+03  0.10979385069E+04  0.16627196498E+04  0.12699999809E+01 0.  1.
       -4    1    3    3    0  502  0.12341218356E+04  0.19002460573E+03 -0.44510161164E+03  0.13256255556E+04  0.12699999809E+01 0. -1.
</event>
<event>
 5   0  0.2508094E-06  0.2935835E+04  0.7818609E-02  0.8262295E-01
       -1   -1    0    0    0  501  0.00000000000E+00  0.00000000000E+00  0.13122861875E+04  0.13122861875E+04  0.50400001928E-02 0.  1.
        1   -1    0    0  501    0  0.00000000000E+00  0.00000000000E+00 -0.16420061117E+04  0.16420061117E+04  0.50400001928E-02 0. -1.
    10030    2    1    2    0    0  0.00000000000E+00  0.00000000000E+00 -0.32971992427E+03  0.29542922992E+04  0.29358351045E+04 0.  0.
        3    1    3    3  502    0  0.44350235369E+03 -0.11280317724E+03 -0.15683913616E+04  0.16337901847E+04  0.10100000352E+00 0. -1.
       -3    1    3    3    0  502 -0.44350235369E+03  0.11280317724E+03  0.12386714373E+04  0.13205021145E+04  0.10100000352E+00 0.  1.
</event>
<event>
 5   0  0.2429358E-06  0.2881445E+04  0.7818609E-02  0.8278420E-01
        1   -1    0    0  501    0  0.00000000000E+00  0.00000000000E+00  0.15885994596E+04  0.15885994596E+04  0.50400001928E-02 0.  1.
       -1   -1    0    0    0  501  0.00000000000E+00  0.00000000000E+00 -0.13066105952E+04  0.13066105952E+04  0.50400001928E-02 0. -1.
    10030    2    1    2    0    0  0.00000000000E+00  0.00000000000E+00  0.28198886441E+03  0.28952100548E+04  0.28814446969E+04 0.  0.
        2    1    3    3  502    0 -0.57508602198E+03 -0.52945582737E+03 -0.10750075093E+04  0.13291683682E+04  0.25500000920E-02 0. -1.
       -2    1    3    3    0  502  0.57508602198E+03  0.52945582737E+03  0.13569963737E+04  0.15660416866E+04  0.25500000920E-02 0.  1.
</event>
<event>
 5   0  0.2348684E-06  0.2966114E+04  0.7818609E-02  0.8253474E-01
       -1   -1    0    0    0  501  0.00000000000E+00  0.00000000000E+00  0.88235371671E+03  0.88235371672E+03  0.50400001928E-02 0.  1.
        1   -1    0    0  501    0  0.00000000000E+00  0.00000000000E+00 -0.24927161350E+04  0.24927161350E+04  0.50400001928E-02 0. -1.
    10030    2    1    2    0    0  0.00000000000E+00  0.00000000000E+00 -0.16103624183E+04  0.33750698518E+04  0.29661135153E+04 0.  0.
        5    1    3    3  502    0 -0.62261881995E+03  0.64456245793E+03 -0.21497639232E+04  0.23290817875E+04  0.46999998093E+01 0. -1.
       -5    1    3    3    0  502  0.62261881995E+03 -0.64456245793E+03  0.53940150490E+03  0.10459880643E+04  0.46999998093E+01 0.  1.
</event>
<event>
 5   0  0.6393633E-06  0.2904273E+04  0.7818609E-02  0.8271607E-01
        2   -1    0    0  501    0  0.00000000000E+00  0.00000000000E+00  0.13244773920E+04  0.13244773920E+04  0.25500000920E-02 0. -1.
       -2   -1    0    0    0  501  0.00000000000E+00  0.00000000000E+00 -0.15921004703E+04  0.15921004703E+04  0.25500000920E-02 0.  1.
    10030    2    1    2    0    0  0.00000000000E+00  0.00000000000E+00 -0.26762307829E+03  0.29165778624E+04  0.29042734574E+04 0.  0.
        4    1    3    3  502    0  0.58628263302E+03 -0.36127234331E+03  0.11500626801E+04  0.13404815601E+04  0.12699999809E+01 0. -1.
       -4    1    3    3    0  502 -0.58628263302E+03  0.36127234331E+03 -0.14176857584E+04  0.15760963023E+04  0.12699999809E+01 0.  1.
</event>
<event>
 5   0  0.2474769E-06  0.2891375E+04  0.7818609E-02  0.8275448E-01
       -1   -1    0    0    0  501  0.00000000000E+00  0.00000000000E+00  0.12831224386E+04  0.12831224386E+04  0.50400001928E-02 0.  1.
        1   -1    0    0  501    0  0.00000000000E+00  0.00000000000E+00 -0.16288492425E+04  0.16288492425E+04  0.50400001928E-02 0. -1.
    10030    2    1    2    0    0  0.00000000000E+00  0.00000000000E+00 -0.34572680396E+03  0.29119716811E+04  0.28913754596E+04 0.  0.
        1    1    3    3  502    0  0.82865596602E+02  0.65434724658E+03  0.11227591675E+04  0.13021617313E+04  0.50400001928E-02 0.  1.
       -1    1    3    3    0  502 -0.82865596602E+02 -0.65434724658E+03 -0.14684859714E+04  0.16098099498E+04  0.50400001928E-02 0. -1.
</event>
<event>
 5   0  0.2348684E-06  0.2850323E+04  0.7818609E-02  0.8287813E-01
        1   -1    0    0  501    0  0.00000000000E+00  0.00000000000E+00  0.13196766660E+04  0.13196766660E+04  0.50400001928E-02 0. -1.
       -1   -1    0    0    0  501  0.00000000000E+00  0.00000000000E+00 -0.15390776185E+04  0.15390776185E+04  0.50400001928E-02 0.  1.
    10030    2    1    2    0    0  0.00000000000E+00  0.00000000000E+00 -0.21940095246E+03  0.28587542845E+04  0.28503226626E+04 0.  0.
        5    1    3    3  502    0 -0.48986849203E+03 -0.13377081730E+04 -0.15017371692E+03  0.14324833440E+04  0.46999998093E+01 0. -1.
       -5    1    3    3    0  502  0.48986849203E+03  0.13377081730E+04 -0.69227235546E+02  0.14262709405E+04  0.46999998093E+01 0.  1.
</event>
<event>
 5   0  0.2474769E-06  0.2917757E+04  0.7818609E-02  0.8267614E-01
       -1   -1    0    0    0  501  0.00000000000E+00  0.00000000000E+00  0.16445364278E+04  0.16445364278E+04  0.50400001928E-02 0.  1.
        1   -1    0    0  501    0  0.00000000000E+00  0.00000000000E+00 -0.12941804417E+04  0.12941804418E+04  0.50400001928E-02 0. -1.
    10030    2    1    2    0    0  0.00000000000E+00  0.00000000000E+00  0.35035598605E+03  0.29387168696E+04  0.29177572761E+04 0.  0.
        1    1    3    3  502    0 -0.46382911622E+03 -0.58664285836E+03 -0.10864332074E+04  0.13189482198E+04  0.50400001928E-02 0. -1.
       -1    1    3    3    0  502  0.46382911622E+03  0.58664285836E+03  0.14367891935E+04  0.16197686498E+04  0.50400001928E-02 0.  1.
</event>
<event>
 5   0  0.2429358E-06  0.2878832E+04  0.7818609E-02  0.8279204E-01
        1   -1    0    0  501    0  0.00000000000E+00  0.00000000000E+00  0.82405772612E+03  0.82405772614E+03  0.50400001928E-02 0. -1.
       -1   -1    0    0    0  501  0.00000000000E+00  0.00000000000E+00 -0.25142879699E+04  0.25142879699E+04  0.50400001928E-02 0.  1.
    10030    2    1    2    0    0  0.00000000000E+00  0.00000000000E+00 -0.16902302438E+04  0.33383456961E+04  0.28788320044E+04 0.  0.
        2    1    3    3  502    0 -0.69677575501E+03  0.12734092434E+03 -0.22982078781E+04  0.24048849483E+04  0.25500000920E-02 0.  1.
       -2    1    3    3    0  502  0.69677575501E+03 -0.12734092434E+03  0.60797763428E+03  0.93346074774E+03  0.25500000920E-02 0. -1.
</event>
<event>
 5   0  0.6733688E-06  0.2917077E+04  0.7818609E-02  0.8267815E-01
        2   -1    0    0  501    0  0.00000000000E+00  0.00000000000E+00  0.19999597447E+04  0.19999597447E+04  0.25500000920E-02 0.  1.
       -2   -1    0    0    0  501  0.00000000000E+00  0.00000000000E+00 -0.10636889468E+04  0.10636889468E+04  0.25500000920E-02 0. -1.
    10030    2    1    2    0    0  0.00000000000E+00  0.00000000000E+00  0.93627079788E+03  0.30636486915E+04  0.29170773555E+04 0.  0.
        5    1    3    3  502    0 -0.56469371581E+03  0.65278203717E+02 -0.94254969241E+03  0.11007098842E+04  0.46999998093E+01 0. -1.
       -5    1    3    3    0  502  0.56469371581E+03 -0.65278203717E+02  0.18788204903E+04  0.19629388073E+04  0.46999998093E+01 0.  1.
</event>
<event>
 5   0  0.6393633E-06  0.2914586E+04  0.7818609E-02  0.8268551E-01
        2   -1    0    0  501    0  0.00000000000E+00  0.00000000000E+00  0.29470247278E+04  0.29470247278E+04  0.25500000920E-02 0.  1.
       -2   -1    0    0    0  501  0.00000000000E+00  0.00000000000E+00 -0.72062588044E+03  0.72062588045E+03  0.25500000920E-02 0. -1.
    10030    2    1    2    0    0  0.00000000000E+00  0.00000000000E+00  0.22263988473E+04  0.36676506082E+04  0.29145855892E+04 0.  0.
        4    1    3    3  502    0 -0.12422129534E+04 -0.56285742293E+03  0.46687902800E+03  0.14414850466E+04  0.12699999809E+01 0. -1.
       -4    1    3    3    0  502  0.12422129534E+04  0.56285742293E+03  0.17595198193E+04  0.22261655616E+04  0.12699999809E+01 0.  1.
</event>
<event>
 5   0  0.2508094E-06  0.2879731E+04  0.7818609E-02  0.8278934E-01
       -1   -1    0    0    0  501  0.00000000000E+00  0.00000000000E+00  0.10090136277E+04  0.10090136277E+04  0.50400001928E-02 0.  1.
        1   -1    0    0  501    0  0.00000000000E+00  0.00000000000E+00 -0.20546917176E+04  0.20546917176E+04  0.50400001928E-02 0. -1.
    10030    2    1    2    0    0  0.00000000000E+00  0.00000000000E+00 -0.10456780898E+04  0.30637053453E+04  0.28797305039E+04 0.  0.
        3    1    3    3  502    0  0.11696376262E+04  0.58649454848E+03  0.11654138608E+03  0.13136247322E+04  0.10100000352E+00 0. -1.
       -3    1    3    3    0  502 -0.11696376262E+04 -0.58649454848E+03 -0.11622194759E+04  0.17500806131E+04  0.10100000352E+00 0.  1.
</event>
<event>
 5   0  0.2429358E-06  0.2917258E+04  0.7818609E-02  0.8267761E-01
        1   -1    0    0  501    0  0.00000000000E+00  0.00000000000E+00  0.25692965556E+04  0.25692965556E+04  0.50400001928E-02 0. -1.
       -1   -1    0    0    0  501  0.00000000000E+00  0.00000000000E+00 -0.82808577296E+03  0.82808577297E+03  0.50400001928E-02 0.  1.
    10030    2    1    2    0    0  0.00000000000E+00  0.00000000000E+00  0.17412107826E+04  0.33973823286E+04  0.29172575644E+04 0.  0.
        2    1    3    3  502    0  0.75148328787E+03 -0.12480368833E+04  0.78602498402E+03  0.16553424025E+04  0.25500000920E-02 0. -1.
       -2    1    3    3    0  502 -0.75148328787E+03  0.12480368833E+04  0.95518579862E+03  0.17420399261E+04  0.25500000920E-02 0.  1.
</event>
<event>
 5   0  0.6393633E-06  0.2826227E+04  0.7818609E-02  0.8295172E-01
       -2   -1    0    0    0  501  0.00000000000E+00  0.00000000000E+00  0.10670959447E+04  0.10670959447E+04  0.25500000920E-02 0.  1.
        2   -1    0    0  501    0  0.00000000000E+00  0.00000000000E+00 -0.18713309751E+04  0.18713309751E+04  0.25500000920E-02 0. -1.
    10030    2    1    2    0    0  0.00000000000E+00  0.00000000000E+00 -0.80423503032E+03  0.29384269198E+04  0.28262269511E+04 0.  0.
        4    1    3    3  502    0 -0.35196896231E+03 -0.12244672486E+04 -0.10376843247E+04  0.16431654098E+04  0.12699999809E+01 0. -1.
       -4    1    3    3    0  502  0.35196896231E+03  0.12244672486E+04  0.23344929439E+03  0.12952615100E+04  0.12699999809E+01 0.  1.
</event>
<event>
 5   0  0.2474769E-06  0.2924126E+04  0.7818609E-02  0.8265735E-01
        1   -1    0    0  501    0  0.00000000000E+00  0.00000000000E+00  0.20268521330E+04  0.20268521330E+04  0.50400001928E-02 0. -1.
       -1   -1    0    0    0  501  0.00000000000E+00  0.00000000000E+00 -0.10546539071E+04  0.10546539071E+04  0.50400001928E-02 0.  1.
    10030    2    1    2    0    0  0.00000000000E+00  0.00000000000E+00  0.97219822594E+03  0.30815060401E+04  0.29241255248E+04 0.  0.
        1    1    3    3  502    0  0.11988529009E+04 -0.45090047370E+03  0.12290753381E+04  0.17751579372E+04  0.50400001928E-02 0. -1.
       -1    1    3    3    0  502 -0.11988529009E+04  0.45090047370E+03 -0.25687711219E+03  0.13063481029E+04  0.50400001928E-02 0.  1.
</event>
<event>
 5   0  0.6513041E-06  0.2872815E+04  0.7818609E-02  0.8281012E-01
       -2   -1    0    0    0  501  0.00000000000E+00  0.00000000000E+00  0.16590480335E+04  0.16590480335E+04  0.25500000920E-02 0. -1.
        2   -1    0    0  501    0  0.00000000000E+00  0.00000000000E+00 -0.12436447169E+04  0.12436447169E+04  0.25500000920E-02 0.  1.
    10030    2    1    2    0    0  0.00000000000E+00  0.00000000000E+00  0.41540331659E+03  0.29026927505E+04  0.28728148719E+04 0.  0.
        1    1    3    3  502    0 -0.12257901019E+04 -0.54159785667E+03 -0.31476095122E+03  0.13765769389E+04  0.50400001928E-02 0.  1.
       -1    1    3    3    0  502  0.12257901019E+04  0.54159785667E+03  0.73016426781E+03  0.15261158116E+04  0.50400001928E-02 0. -1.
</event>
<event>
 5   0  0.2474769E-06  0.2913497E+04  0.7818609E-02  0.8268873E-01
       -1   -1    0    0    0  501  0.00000000000E+00  0.00000000000E+00  0.89655806613E+03  0.89655806614E+03  0.50400001928E-02 0. -1.
        1   -1    0    0  501    0  0.00000000000E+00  0.00000000000E+00 -0.23669594686E+04  0.23669594686E+04  0.50400001928E-02 0.  1.
    10030    2    1    2    0    0  0.00000000000E+00  0.00000000000E+00 -0.14704014025E+04  0.32635175347E+04  0.29134972825E+04 0.  0.
        1    1    3    3  502    0  0.17610786696E+03 -0.77136323156E+02  0.88228427768E+03  0.90298922465E+03  0.50400001928E-02 0. -1.
       -1    1    3    3    0  502 -0.17610786696E+03  0.77136323156E+02 -0.23526856802E+04  0.23605283101E+04  0.50400001928E-02 0.  1.
</event>
<event>
 5   0  0.2474769E-06  0.2864650E+04  0.7818609E-02  0.8283474E-01
       -1   -1    0    0    0  501  0.00000000000E+00  0.00000000000E+00  0.11133699059E+04  0.11133699059E+04  0.50400001928E-02 0.  1.
        1   -1    0    0  501    0  0.00000000000E+00  0.00000000000E+00 -0.18426530166E+04  0.18426530166E+04  0.50400001928E-02 0. -1.
    10030    2    1    2    0    0  0.00000000000E+00  0.00000000000E+00 -0.72928311069E+03  0.29560229225E+04  0.28646496579E+04 0.  0.
        1    1    3    3  502    0  0.30381358069E+03  0.32475051541E+02 -0.18086325420E+04  0.18342597943E+04  0.50400001928E-02 0. -1.
       -1    1    3    3    0  502 -0.30381358069E+03 -0.32475051541E+02  0.10793494313E+04  0.11217631282E+04  0.50400001928E-02 0.  1.
</event>
<event>
 5   0  0.6612533E-06  0.2871600E+04  0.7818609E-02  0.8281378E-01
       -2   -1    0    0    0  501  0.00000000000E+00  0.00000000000E+00  0.12596850665E+04  0.12596850665E+04  0.25500000920E-02 0. -1.
        2   -1    0    0  501    0  0.00000000000E+00  0.00000000000E+00 -0.16365378446E+04  0.16365378446E+04  0.25500000920E-02 0.  1.
    10030    2    1    2    0    0  0.00000000000E+00  0.00000000000E+00 -0.37685277818E+03  0.28962229111E+04  0.28716004483E+04 0.  0.
        3    1    3    3  502    0 -0.11923242493E+04 -0.66794677229E+03 -0.63235072427E+03  0.15058743157E+04  0.10100000352E+00 0. -1.
       -3    1    3    3    0  502  0.11923242493E+04  0.66794677229E+03  0.25549794609E+03  0.13903485954E+04  0.10100000352E+00 0.  1.
</event>
<event>
 5   0  0.2348684E-06  0.2944270E+04  0.7818609E-02  0.8259826E-01
       -1   -1    0    0    0  501  0.00000000000E+00  0.00000000000E+00  0.20865821669E+04  0.20865821669E+04  0.50400001928E-02 0. -1.
        1   -1    0    0  501    0  0.00000000000E+00  0.00000000000E+00 -0.10386272960E+04  0.10386272960E+04  0.50400001928E-02 0.  1.
    10030    2    1    2    0    0  0.00000000000E+00  0.00000000000E+00  0.10479548709E+04  0.31252094629E+04  0.29442698204E+04 0.  0.
        5    1    3    3  502    0  0.11424479342E+04  0.31041532835E+03 -0.40478896925E+03  0.12511679176E+04  0.46999998093E+01 0.  1.
       -5    1    3    3    0  502 -0.11424479342E+04 -0.31041532835E+03  0.14527438402E+04  0.18740415453E+04  0.46999998093E+01 0. -1.
</event>
<event>
 5   0  0.6612533E-06  0.2884206E+04  0.7818609E-02  0.8277592E-01
       -2   -1    0    0    0  501  0.00000000000E+00  0.00000000000E+00  0.11905727400E+04  0.11905727400E+04  0.25500000920E-02 0.  1.
        2   -1    0    0  501    0  0.00000000000E+00  0.00000000000E+00 -0.17467740111E+04  0.17467740111E+04  0.25500000920E-02 0. -1.
    10030    2    1    2    0    0  0.00000000000E+00  0.00000000000E+00 -0.55620127103E+03  0.29373467511E+04  0.28842063176E+04 0.  0.
        3    1    3    3  502    0 -0.97599904053E+03 -0.91956558596E+03 -0.81842890745E+03  0.15709872312E+04  0.10100000352E+00 0.  1.
       -3    1    3    3    0  502  0.97599904053E+03  0.91956558596E+03  0.26222763641E+03  0.13663595199E+04  0.10100000352E+00 0. -1.
</event>
<event>
 5   0  0.6393633E-06  0.2907279E+04  0.7818609E-02  0.8270715E-01
        2   -1    0    0  501    0  0.00000000000E+00  0.00000000000E+00  0.17135077050E+04  0.17135077050E+04  0.25500000920E-02 0.  1.
       -2   -1    0    0    0  501  0.00000000000E+00  0.00000000000E+00 -0.12331825737E+04  0.12331825737E+04  0.25500000920E-02 0. -1.
    10030    2    1    2    0    0  0.00000000000E+00  0.00000000000E+00  0.48032513128E+03  0.29466902787E+04  0.29072790315E+04 0.  0.
        4    1    3    3  502    0  0.92985855317E+03  0.12467989051E+03  0.13655677778E+04  0.16567917710E+04  0.12699999809E+01 0.  1.
       -4    1    3    3    0  502 -0.92985855317E+03 -0.12467989051E+03 -0.88524264649E+03  0.12898985077E+04  0.12699999809E+01 0. -1.
</event>
<event>
 5   0  0.6612533E-06  0.2979254E+04  0.7818609E-02  0.8249680E-01
        2   -1    0    0  501    0  0.00000000000E+00  0.00000000000E+00  0.12527527059E+04  0.12527527059E+04  0.25500000920E-02 0.  1.
       -2   -1    0    0    0  501  0.00000000000E+00  0.00000000000E+00 -0.17712902045E+04  0.17712902045E+04  0.25500000920E-02 0. -1.
    10030    2    1    2    0    0  0.00000000000E+00  0.00000000000E+00 -0.51853749865E+03  0.30240429104E+04  0.29792539983E+04 0.  0.
        3    1    3    3  502    0  0.13985028086E+03  0.18807956098E+01  0.12460732873E+04  0.12538980365E+04  0.10100000352E+00 0.  1.
       -3    1    3    3    0  502 -0.13985028086E+03 -0.18807956098E+01 -0.17646107859E+04  0.17701448739E+04  0.10100000352E+00 0. -1.
</event>
<event>
 5   0  0.6513041E-06  0.2874899E+04  0.7818609E-02  0.8280385E-01
        2   -1    0    0  501    0  0.00000000000E+00  0.00000000000E+00  0.92592449990E+03  0.92592449991E+03  0.25500000920E-02 0.  1.
       -2   -1    0    0    0  501  0.00000000000E+00  0.00000000000E+00 -0.22315647208E+04  0.22315647208E+04  0.25500000920E-02 0. -1.
    10030    2    1    2    0    0  0.00000000000E+00  0.00000000000E+00 -0.13056402209E+04  0.31574892207E+04  0.28748985708E+04 0.  0.
        1    1    3    3  502    0 -0.18582511287E+03 -0.85019182966E+03 -0.19093509023E+04  0.20983274263E+04  0.50400001928E-02 0. -1.
       -1    1    3    3    0  502  0.18582511287E+03  0.85019182966E+03  0.60371068143E+03  0.10591617944E+04  0.50400001928E-02 0.  1.
</event>
<event>
 5   0  0.2429358E-06  0.2805500E+04  0.7818609E-02  0.8301563E-01
        1   -1    0    0  501    0  0.00000000000E+00  0.00000000000E+00  0.19438204062E+04  0.19438204062E+04  0.50400001928E-02 0.  1.
       -1   -1    0    0    0  501  0.00000000000E+00  0.00000000000E+00 -0.10122884972E+04  0.10122884972E+04  0.50400001928E-02 0. -1.
    10030    2    1    2    0    0  0.00000000000E+00  0.00000000000E+00  0.93153190903E+03  0.29561089034E+04  0.28054996259E+04 0.  0.
        2    1    3    3  502    0  0.10663664287E+04  0.76735395694E+03 -0.52296717840E+02  0.13148020391E+04  0.25500000920E-02 0. -1.
       -2    1    3    3    0  502 -0.10663664287E+04 -0.76735395694E+03  0.98382862687E+03  0.16413068642E+04  0.25500000920E-02 0.  1.
</event>
<event>
 5   0  0.2336512E-06  0.2789740E+04  0.7818609E-02  0.8306461E-01
        1   -1    0    0  501    0  0.00000000000E+00  0.00000000000E+00  0.16063028419E+04  0.16063028419E+04  0.50400001928E-02 0. -1.
       -1   -1    0    0    0  501  0.00000000000E+00  0.00000000000E+00 -0.12112673161E+04  0.12112673162E+04  0.50400001928E-02 0.  1.
    10030    2    1    2    0    0  0.00000000000E+00  0.00000000000E+00  0.39503552575E+03  0.28175701581E+04  0.27897398676E+04 0.  0.
        4    1    3    3  502    0  0.98242038875E+03 -0.99015998279E+03  0.20730502815E+03  0.14101572960E+04  0.12699999809E+01 0.  1.
       -4    1    3    3    0  502 -0.98242038875E+03  0.99015998279E+03  0.18773049760E+03  0.14074128621E+04  0.12699999809E+01 0. -1.
</event>
<event>
 5   0  0.6733688E-06  0.2894440E+04  0.7818609E-02  0.8274534E-01
       -2   -1    0    0    0  501  0.00000000000E+00  0.00000000000E+00  0.15198444874E+04  0.15198444874E+04  0.25500000920E-02 0. -1.
        2   -1    0    0  501    0  0.00000000000E+00  0.00000000000E+00 -0.13780660472E+04  0.13780660472E+04  0.25500000920E-02 0.  1.
    10030    2    1    2    0    0  0.00000000000E+00  0.00000000000E+00  0.14177844023E+03  0.28979105346E+04  0.28944402465E+04 0.  0.
        5    1    3    3  502    0  0.11194528438E+04  0.84651079199E+03  0.42439725004E+03  0.14662504241E+04  0.46999998093E+01 0. -1.
       -5    1    3    3    0  502 -0.11194528438E+04 -0.84651079199E+03 -0.28261880981E+03  0.14316601105E+04  0.46999998093E+01 0.  1.
</event>
<event>
 5   0  0.2474769E-06  0.2894765E+04  0.7818609E-02  0.8274437E-01
       -1   -1    0    0    0  501  0.00000000000E+00  0.00000000000E+00  0.14292695880E+04  0.14292695880E+04  0.50400001928E-02 0.  1.
        1   -1    0    0  501    0  0.00000000000E+00  0.00000000000E+00 -0.14657250207E+04  0.14657250207E+04  0.50400001928E-02 0. -1.
    10030    2    1    2    0    0  0.00000000000E+00  0.00000000000E+00 -0.36455432699E+02  0.28949946087E+04  0.28947650658E+04 0.  0.
        1    1    3    3  502    0 -0.36742196176E+03  0.54880843916E+03  0.12697900112E+04  0.14312778463E+04  0.50400001928E-02 0.  1.
       -1    1    3    3    0  502  0.36742196176E+03 -0.54880843916E+03 -0.13062454439E+04  0.14637167624E+04  0.50400001928E-02 0. -1.
</event>
<event>
 5   0  0.2336512E-06  0.2825392E+04  0.7818609E-02  0.8295428E-01
        1   -1    0    0  501    0  0.00000000000E+00  0.00000000000E+00  0.18529304577E+04  0.18529304577E+04  0.50400001928E-02 0.  1.
       -1   -1    0    0    0  501  0.00000000000E+00  0.00000000000E+00 -0.10770561946E+04  0.10770561946E+04  0.50400001928E-02 0. -1.
    10030    2    1    2    0    0  0.00000000000E+00  0.00000000000E+00  0.77587426317E+03  0.29299866523E+04  0.28253921693E+04 0.  0.
        4    1    3    3  502    0  0.37657610084E+03 -0.68127195434E+03 -0.83458855483E+03  0.11412627674E+04  0.12699999809E+01 0. -1.
       -4    1    3    3    0  502 -0.37657610084E+03  0.68127195434E+03  0.16104628180E+04  0.17887238849E+04  0.12699999809E+01 0.  1.
</event>
<event>
 5   0  0.2348684E-06  0.2807175E+04  0.7818609E-02  0.8301044E-01
        1   -1    0    0  501    0  0.00000000000E+00  0.00000000000E+00  0.26511393601E+04  0.26511393602E+04  0.50400001928E-02 0.  1.
       -1   -1    0    0    0  501  0.00000000000E+00  0.00000000000E+00 -0.74309840740E+03  0.74309840742E+03  0.50400001928E-02 0. -1.
    10030    2    1    2    0    0  0.00000000000E+00  0.00000000000E+00  0.19080409527E+04  0.33942377676E+04  0.28071746909E+04 0.  0.
        5    1    3    3  502    0  0.51648405997E+03 -0.75813214191E+03  0.22384980666E+04  0.24191766808E+04  0.46999998093E+01 0.  1.
       -5    1    3    3    0  502 -0.51648405997E+03  0.75813214191E+03 -0.33045711386E+03  0.97506108675E+03  0.46999998093E+01 0. -1.
</event>
<event>
 5   0  0.6393633E-06  0.2650213E+04  0.7818609E-02  0.8351342E-01
       -2   -1    0    0    0  501  0.00000000000E+00  0.00000000000E+00  0.13821381805E+04  0.13821381805E+04  0.25500000920E-02 0.  1.
        2   -1    0    0  501    0  0.00000000000E+00  0.00000000000E+00 -0.12704281887E+04  0.12704281887E+04  0.25500000920E-02 0. -1.
    10030    2    1    2    0    0  0.00000000000E+00  0.00000000000E+00  0.11170999182E+03  0.26525663692E+04  0.26502130520E+04 0.  0.
        4    1    3    3  502    0 -0.11426775622E+04  0.65317619505E+03  0.20946615907E+03  0.13327523542E+04  0.12699999809E+01 0.  1.
       -4    1    3    3    0  502  0.11426775622E+04 -0.65317619505E+03 -0.97756167248E+02  0.13198140150E+04  0.12699999809E+01 0. -1.
</event>
<event>
 5   0  0.2474769E-06  0.2868000E+04  0.7818609E-02  0.8282463E-01
       -1   -1    0    0    0  501  0.00000000000E+00  0.00000000000E+00  0.16689485146E+04  0.16689485146E+04  0.50400001928E-02 0. -1.
        1   -1    0    0  501    0  0.00000000000E+00  0.00000000000E+00 -0.12321263415E+04  0.12321263415E+04  0.50400001928E-02 0.  1.
    10030    2    1    2    0    0  0.00000000000E+00  0.00000000000E+00  0.43682217314E+03  0.29010748561E+04  0.28679996008E+04 0.  0.
        1    1    3    3  502    0  0.56712834892E+03 -0.31792709072E+03 -0.10744696269E+04  0.12558651115E+04  0.50400001928E-02 0.  1.
       -1    1    3    3    0  502 -0.56712834892E+03  0.31792709072E+03  0.15112918000E+04  0.16452097447E+04  0.50400001928E-02 0. -1.
</event>
<event>
 5   0  0.6615403E-06  0.2919851E+04  0.7818609E-02  0.8266995E-01
        2   -1    0    0  501    0  0.00000000000E+00  0.00000000000E+00  0.25120851257E+04  0.25120851257E+04  0.25500000920E-02 0. -1.
       -2   -1    0    0    0  501  0.00000000000E+00  0.00000000000E+00 -0.84845181875E+03  0.84845181876E+03  0.25500000920E-02 0.  1.
    10030    2    1    2    0    0  0.00000000000E+00  0.00000000000E+00  0.16636333069E+04  0.33605369445E+04  0.29198514988E+04 0.  0.
        2    1    3    3  502    0  0.10061205030E+04 -0.79467176702E+03  0.16354916017E+04  0.20781276340E+04  0.25500000920E-02 0. -1.
       -2    1    3    3    0  502 -0.10061205030E+04  0.79467176702E+03  0.28141705230E+02  0.12824093104E+04  0.25500000920E-02 0.  1.
</event>
<event>
 5   0  0.6733688E-06  0.2946088E+04  0.7818609E-02  0.8259295E-01
        2   -1    0    0  501    0  0.00000000000E+00  0.00000000000E+00  0.22120306514E+04  0.22120306514E+04  0.25500000920E-02 0. -1.
       -2   -1    0    0    0  501  0.00000000000E+00  0.00000000000E+00 -0.98093528836E+03  0.98093528837E+03  0.25500000920E-02 0.  1.
    10030    2    1    2    0    0  0.00000000000E+00  0.00000000000E+00  0.12310953630E+04  0.31929659397E+04  0.29460882029E+04 0.  0.
        5    1    3    3  502    0  0.77612046716E+02  0.54045383448E+03  0.20983023934E+04  0.21681810352E+04  0.46999998093E+01 0. -1.
       -5    1    3    3    0  502 -0.77612046716E+02 -0.54045383448E+03 -0.86720703043E+03  0.10247849046E+04  0.46999998093E+01 0.  1.
</event>
<event>
 5   0  0.2508094E-06  0.2889761E+04  0.7818609E-02  0.8275930E-01
        1   -1    0    0  501    0  0.00000000000E+00  0.00000000000E+00  0.19862547057E+04  0.19862547057E+04  0.50400001928E-02 0.  1.
       -1   -1    0    0    0  501  0.00000000000E+00  0.00000000000E+00 -0.10510636876E+04  0.10510636876E+04  0.50400001928E-02 0. -1.
    10030    2    1    2    0    0  0.00000000000E+00  0.00000000000E+00  0.93519101814E+03  0.30373183933E+04  0.28897613711E+04 0.  0.
        3    1    3    3  502    0  0.10199915932E+04 -0.93749836686E+03  0.36283216998E+02  0.13858580447E+04  0.10100000352E+00 0. -1.
       -3    1    3    3    0  502 -0.10199915932E+04  0.93749836686E+03  0.89890780114E+03  0.16514603486E+04  0.10100000352E+00 0.  1.
</event>
<event>
 5   0  0.2348684E-06  0.2874098E+04  0.7818609E-02  0.8280626E-01
        1   -1    0    0  501    0  0.00000000000E+00  0.00000000000E+00  0.20797565359E+04  0.20797565359E+04  0.50400001928E-02 0. -1.
       -1   -1    0    0    0  501  0.00000000000E+00  0.00000000000E+00 -0.99295780071E+03  0.99295780073E+03  0.50400001928E-02 0.  1.
    10030    2    1    2    0    0  0.00000000000E+00  0.00000000000E+00  0.10867987352E+04  0.30727143366E+04  0.28740984506E+04 0.  0.
        5    1    3    3  502    0  0.10764848813E+04 -0.93339942520E+03  0.74350837785E+03  0.16071344015E+04  0.46999998093E+01 0. -1.
       -5    1    3    3    0  502 -0.10764848813E+04  0.93339942520E+03  0.34329035731E+03  0.14655799351E+04  0.46999998093E+01 0.  1.
</event>
<event>
 5   0  0.6615403E-06  0.2903185E+04  0.7818609E-02  0.8271931E-01
       -2   -1    0    0    0  501  0.00000000000E+00  0.00000000000E+00  0.79568532186E+03  0.79568532186E+03  0.25500000920E-02 0. -1.
        2   -1    0    0  501    0  0.00000000000E+00  0.00000000000E+00 -0.26481826725E+04  0.26481826725E+04  0.25500000920E-02 0.  1.
    10030    2    1    2    0    0  0.00000000000E+00  0.00000000000E+00 -0.18524973506E+04  0.34438679944E+04  0.29031845151E+04 0.  0.
        2    1    3    3  502    0  0.52541325379E+03  0.11017620357E+04  0.56705607111E+01  0.12206436113E+04  0.25500000920E-02 0. -1.
       -2    1    3    3    0  502 -0.52541325379E+03 -0.11017620357E+04 -0.18581679113E+04  0.22232243830E+04  0.25500000920E-02 0.  1.
</event>
<event>
 5   0  0.2336512E-06  0.2909057E+04  0.7818609E-02  0.8270188E-01
        1   -1    0    0  501    0  0.00000000000E+00  0.00000000000E+00  0.31492140453E+04  0.31492140453E+04  0.50400001928E-02 0.  1.
       -1   -1    0    0    0  501  0.00000000000E+00  0.00000000000E+00 -0.67180357532E+03  0.67180357534E+03  0.50400001928E-02 0. -1.
    10030    2    1    2    0    0  0.00000000000E+00  0.00000000000E+00  0.24774104700E+04  0.38210176206E+04  0.29090570672E+04 0.  0.
        4    1    3    3  502    0 -0.92712475012E+03  0.66377570008E+03  0.52562479053E+02  0.11414564860E+04  0.12699999809E+01 0. -1.
       -4    1    3    3    0  502  0.92712475012E+03 -0.66377570008E+03  0.24248479909E+04  0.26795611346E+04  0.12699999809E+01 0.  1.
</event>
<event>
 5   0  0.6612533E-06  0.2909156E+04  0.7818609E-02  0.8270159E-01
       -2   -1    0    0    0  501  0.00000000000E+00  0.00000000000E+00  0.10885867760E+04  0.10885867760E+04  0.25500000920E-02 0.  1.
        2   -1    0    0  501    0  0.00000000000E+00  0.00000000000E+00 -0.19436181249E+04  0.19436181249E+04  0.25500000920E-02 0. -1.
    10030    2    1    2    0    0  0.00000000000E+00  0.00000000000E+00 -0.85503134886E+03  0.30322049009E+04  0.29091558833E+04 0.  0.
        3    1    3    3  502    0  0.13766445768E+04 -0.46729377037E+03 -0.47731980592E+03  0.15301463871E+04  0.10100000352E+00 0.  1.
       -3    1    3    3    0  502 -0.13766445768E+04  0.46729377037E+03 -0.37771154295E+03  0.15020585137E+04  0.10100000352E+00 0. -1.
</event>
<event>
 5   0  0.6733688E-06  0.2910997E+04  0.7818609E-02  0.8269613E-01
       -2   -1    0    0    0  501  0.00000000000E+00  0.00000000000E+00  0.13663305933E+04  0.13663305933E+04  0.25500000920E-02 0.  1.
        2   -1    0    0  501    0  0.00000000000E+00  0.00000000000E+00 -0.15504851903E+04  0.15504851903E+04  0.25500000920E-02 0. -1.
    10030    2    1    2    0    0  0.00000000000E+00  0.00000000000E+00 -0.18415459707E+03  0.29168157836E+04  0.29109966334E+04 0.  0.
        5    1    3    3  502    0  0.14828704182E+02  0.82802046775E+03  0.11072345303E+04  0.13826887505E+04  0.46999998093E+01 0.  1.
       -5    1    3    3    0  502 -0.14828704182E+02 -0.82802046775E+03 -0.12913891274E+04  0.15341270331E+04  0.46999998093E+01 0. -1.
</event>
<event>
 5   0  0.6513041E-06  0.2712492E+04  0.7818609E-02  0.8330963E-01
       -2   -1    0    0    0  501  0.00000000000E+00  0.00000000000E+00  0.12139174559E+04  0.12139174559E+04  0.25500000920E-02 0. -1.
        2   -1    0    0  501    0  0.00000000000E+00  0.00000000000E+00 -0.15152623992E+04  0.15152623992E+04  0.25500000920E-02 0.  1.
    10030    2    1    2    0    0  0.00000000000E+00  0.00000000000E+00 -0.30134494334E+03  0.27291798551E+04  0.27124921947E+04 0.  0.
        1    1    3    3  502    0 -0.15383942178E+03 -0.12886818853E+04  0.24549590635E+03  0.13208466260E+04  0.50400001928E-02 0. -1.
       -1    1    3    3    0  502  0.15383942178E+03  0.12886818853E+04 -0.54684084969E+03  0.14083332291E+04  0.50400001928E-02 0.  1.
</event>
<event>
 5   0  0.2336512E-06  0.2868497E+04  0.7818609E-02  0.8282313E-01
        1   -1    0    0  501    0  0.00000000000E+00  0.00000000000E+00  0.12293559615E+04  0.12293559615E+04  0.50400001928E-02 0.  1.
       -1   -1    0    0    0  501  0.00000000000E+00  0.00000000000E+00 -0.16732901066E+04  0.16732901066E+04  0.50400001928E-02 0. -1.
    10030    2    1    2    0    0  0.00000000000E+00  0.00000000000E+00 -0.44393414514E+03  0.29026460681E+04  0.28684972846E+04 0.  0.
        4    1    3    3  502    0 -0.65622130353E+02  0.11973548242E+04 -0.10181649128E+04  0.15730944796E+04  0.12699999809E+01 0. -1.
       -4    1    3    3    0  502  0.65622130353E+02 -0.11973548242E+04  0.57423076768E+03  0.13295515885E+04  0.12699999809E+01 0.  1.
</event>
<event>
 5   0  0.6513041E-06  0.2911738E+04  0.7818609E-02  0.8269394E-01
        2   -1    0    0  501    0  0.00000000000E+00  0.00000000000E+00  0.16527820765E+04  0.16527820765E+04  0.25500000920E-02 0.  1.
       -2   -1    0    0    0  501  0.00000000000E+00  0.00000000000E+00 -0.12824165666E+04  0.12824165666E+04  0.25500000920E-02 0. -1.
    10030    2    1    2    0    0  0.00000000000E+00  0.00000000000E+00  0.37036550989E+03  0.29351986432E+04  0.29117383921E+04 0.  0.
        1    1    3    3  502    0 -0.12289877767E+03 -0.12841014351E+03  0.16418032756E+04  0.16513967634E+04  0.50400001928E-02 0.  1.
       -1    1    3    3    0  502  0.12289877767E+03  0.12841014351E+03 -0.12714377657E+04  0.12838018798E+04  0.50400001928E-02 0. -1.
</event>
<event>
 5   0  0.2474769E-06  0.2870392E+04  0.7818609E-02  0.8281742E-01
        1   -1    0    0  501    0  0.00000000000E+00  0.00000000000E+00  0.26589374604E+04  0.26589374604E+04  0.50400001928E-02 0.  1.
       -1   -1    0    0    0  501  0.00000000000E+00  0.00000000000E+00 -0.77466549730E+03  0.77466549732E+03  0.50400001928E-02 0. -1.
    10030    2    1    2    0    0  0.00000000000E+00  0.00000000000E+00  0.18842719631E+04  0.34336029578E+04  0.28703916876E+04 0.  0.
        1    1    3    3  502    0  0.11998231869E+04 -0.21359605770E+02  0.42204106167E+00  0.12000133711E+04  0.50400001928E-02 0. -1.
       -1    1    3    3    0  502 -0.11998231869E+04  0.21359605770E+02  0.18838499221E+04  0.22335895867E+04  0.50400001928E-02 0.  1.
</event>
<event>
 5   0  0.6393633E-06  0.2893467E+04  0.7818609E-02  0.8274824E-01
       -2   -1    0    0    0  501  0.00000000000E+00  0.00000000000E+00  0.13138516343E+04  0.13138516343E+04  0.25500000920E-02 0.  1.
        2   -1    0    0  501    0  0.00000000000E+00  0.00000000000E+00 -0.15930545103E+04  0.15930545103E+04  0.25500000920E-02 0. -1.
    10030    2    1    2    0    0  0.00000000000E+00  0.00000000000E+00 -0.27920287592E+03  0.29069061446E+04  0.28934666211E+04 0.  0.
        4    1    3    3  502    0 -0.70997605599E+03 -0.79301022138E+03  0.84479894496E+03  0.13589032643E+04  0.12699999809E+01 0.  1.
       -4    1    3    3    0  502  0.70997605599E+03  0.79301022138E+03 -0.11240018209E+04  0.15480028803E+04  0.12699999809E+01 0. -1.
</event>
<event>
 5   0  0.2474769E-06  0.2915919E+04  0.7818609E-02  0.8268157E-01
       -1   -1    0    0    0  501  0.00000000000E+00  0.00000000000E+00  0.11765878207E+04  0.11765878207E+04  0.50400001928E-02 0.  1.
        1   -1    0    0  501    0  0.00000000000E+00  0.00000000000E+00 -0.18066189896E+04  0.18066189896E+04  0.50400001928E-02 0. -1.
    10030    2    1    2    0    0  0.00000000000E+00  0.00000000000E+00 -0.63003116890E+03  0.29832068103E+04  0.29159189974E+04 0.  0.
        1    1    3    3  502    0  0.86851858151E+03 -0.71561324063E+03 -0.12633463901E+04  0.16918838430E+04  0.50400001928E-02 0. -1.
       -1    1    3    3    0  502 -0.86851858151E+03  0.71561324063E+03  0.63331522122E+03  0.12913229674E+04  0.50400001928E-02 0.  1.
</event>
<event>
 5   0  0.6733688E-06  0.2895549E+04  0.7818609E-02  0.8274203E-01
       -2   -1    0    0    0  501  0.00000000000E+00  0.00000000000E+00  0.26529802264E+04  0.26529802264E+04  0.25500000920E-02 0. -1.
        2   -1    0    0  501    0  0.00000000000E+00  0.00000000000E+00 -0.79007411113E+03  0.79007411113E+03  0.25500000920E-02 0.  1.
    10030    2    1    2    0    0  0.00000000000E+00  0.00000000000E+00  0.18629061152E+04  0.34430543375E+04  0.28955489940E+04 0.  0.
        5    1    3    3  502    0 -0.12698758509E+02 -0.12404137439E+04  0.18190885150E+04  0.22017930488E+04  0.46999998093E+01 0. -1.
       -5    1    3    3    0  502  0.12698758509E+02  0.12404137439E+04  0.43817600236E+02  0.12412612886E+04  0.46999998093E+01 0.  1.
</event>
<event>
 5   0  0.6733688E-06  0.2937755E+04  0.7818609E-02  0.8261732E-01
       -2   -1    0    0    0  501  0.00000000000E+00  0.00000000000E+00  0.19868991059E+04  0.19868991059E+04  0.25500000920E-02 0.  1.
        2   -1    0    0  501    0  0.00000000000E+00  0.00000000000E+00 -0.10859135647E+04  0.10859135647E+04  0.25500000920E-02 0. -1.
    10030    2    1    2    0    0  0.00000000000E+00  0.00000000000E+00  0.90098554121E+03  0.30728126707E+04  0.29377547147E+04 0.  0.
        5    1    3    3  502    0  0.45156967963E+03  0.11596305667E+04  0.12667006929E+04  0.17757282906E+04  0.46999998093E+01 0.  1.
       -5    1    3    3    0  502 -0.45156967963E+03 -0.11596305667E+04 -0.36571515173E+03  0.12970843800E+04  0.46999998093E+01 0. -1.
</event>
<event>
 5   0  0.6615403E-06  0.2825587E+04  0.7818609E-02  0.8295368E-01
       -2   -1    0    0    0  501  0.00000000000E+00  0.00000000000E+00  0.28725717549E+04  0.28725717549E+04  0.25500000920E-02 0. -1.
        2   -1    0    0  501    0  0.00000000000E+00  0.00000000000E+00 -0.69484250890E+03  0.69484250890E+03  0.25500000920E-02 0.  1.
    10030    2    1    2    0    0  0.00000000000E+00  0.00000000000E+00  0.21777292460E+04  0.35674142638E+04  0.28255866401E+04 0.  0.
        2    1    3    3  502    0 -0.10653622111E+04 -0.83339568323E+03  0.16039434721E+04  0.20981371899E+04  0.25500000920E-02 0. -1.
       -2    1    3    3    0  502  0.10653622111E+04  0.83339568323E+03  0.57378577383E+03  0.14692770739E+04  0.25500000920E-02 0.  1.
</event>
<event>
 5   0  0.6615403E-06  0.2925456E+04  0.7818609E-02  0.8265344E-01
        2   -1    0    0  501    0  0.00000000000E+00  0.00000000000E+00  0.16872202632E+04  0.16872202632E+04  0.25500000920E-02 0.  1.
       -2   -1    0    0    0  501  0.00000000000E+00  0.00000000000E+00 -0.12681054587E+04  0.12681054587E+04  0.25500000920E-02 0. -1.
    10030    2    1    2    0    0  0.00000000000E+00  0.00000000000E+00  0.41911480450E+03  0.29553257219E+04  0.29254560163E+04 0.  0.
        2    1    3    3  502    0 -0.23839977848E+03 -0.18337589104E+03  0.16556451111E+04  0.16827423765E+04  0.25500000920E-02 0.  1.
       -2    1    3    3    0  502  0.23839977848E+03  0.18337589104E+03 -0.12365303066E+04  0.12725833454E+04  0.25500000920E-02 0. -1.
</event>
<event>
 5   0  0.6513041E-06  0.2829845E+04  0.7818609E-02  0.8294062E-01
       -2   -1    0    0    0  501  0.00000000000E+00  0.00000000000E+00  0.18815808576E+04  0.18815808576E+04  0.25500000920E-02 0.  1.
        2   -1    0    0  501    0  0.00000000000E+00  0.00000000000E+00 -0.10640018776E+04  0.10640018776E+04  0.25500000920E-02 0. -1.
    10030    2    1    2    0    0  0.00000000000E+00  0.00000000000E+00  0.81757897998E+03  0.29455827353E+04  0.28298449183E+04 0.  0.
        1    1    3    3  502    0 -0.62936851814E+03 -0.31009276468E+03 -0.87017988930E+03  0.11177993085E+04  0.50400001928E-02 0. -1.
       -1    1    3    3    0  502  0.62936851814E+03  0.31009276468E+03  0.16877588693E+04  0.18277834268E+04  0.50400001928E-02 0.  1.
</event>
<event>
 5   0  0.2348684E-06  0.2878311E+04  0.7818609E-02  0.8279360E-01
       -1   -1    0    0    0  501  0.00000000000E+00  0.00000000000E+00  0.13417774466E+04  0.13417774466E+04  0.50400001928E-02 0. -1.
        1   -1    0    0  501    0  0.00000000000E+00  0.00000000000E+00 -0.15436005817E+04  0.15436005817E+04  0.50400001928E-02 0.  1.
    10030    2    1    2    0    0  0.00000000000E+00  0.00000000000E+00 -0.20182313515E+03  0.28853780283E+04  0.28783109263E+04 0.  0.
        5    1    3    3  502    0  0.24896617158E+03  0.16180206844E+02  0.13199252984E+04  0.13433059357E+04  0.46999998093E+01 0. -1.
       -5    1    3    3    0  502 -0.24896617158E+03 -0.16180206844E+02 -0.15217484335E+04  0.15420720925E+04  0.46999998093E+01 0.  1.
</event>
<event>
 5   0  0.2508094E-06  0.2909131E+04  0.7818609E-02  0.8270166E-01
       -1   -1    0    0    0  501  0.00000000000E+00  0.00000000000E+00  0.12650146206E+04  0.12650146206E+04  0.50400001928E-02 0. -1.
        1   -1    0    0  501    0  0.00000000000E+00  0.00000000000E+00 -0.16725188077E+04  0.16725188077E+04  0.50400001928E-02 0.  1.
    10030    2    1    2    0    0  0.00000000000E+00  0.00000000000E+00 -0.40750418715E+03  0.29375334283E+04  0.29091309664E+04 0.  0.
        3    1    3    3  502    0 -0.57167496317E+03 -0.29290800077E+03 -0.15215427499E+04  0.16515749181E+04  0.10100000352E+00 0.  1.
       -3    1    3    3    0  502  0.57167496317E+03  0.29290800077E+03  0.11140385627E+04  0.12859585101E+04  0.10100000352E+00 0. -1.
</event>
<event>
 5   0  0.6612533E-06  0.2688943E+04  0.7818609E-02  0.8338601E-01
        2   -1    0    0  501    0  0.00000000000E+00  0.00000000000E+00  0.15906018926E+04  0.15906018926E+04  0.25500000920E-02 0. -1.
       -2   -1    0    0    0  501  0.00000000000E+00  0.00000000000E+00 -0.11364276102E+04  0.11364276102E+04  0.25500000920E-02 0.  1.
    10030    2    1    2    0    0  0.00000000000E+00  0.00000000000E+00  0.45417428245E+03  0.27270295028E+04  0.26889432181E+04 0.  0.
        3    1    3    3  502    0 -0.58462093979E+03 -0.11827053402E+04 -0.35482125568E+02  0.13197850418E+04  0.10100000352E+00 0.  1.
       -3    1    3    3    0  502  0.58462093979E+03  0.11827053402E+04  0.48965640802E+03  0.14072444611E+04  0.10100000352E+00 0. -1.
</event>
<event>
 5   0  0.2474769E-06  0.2913013E+04  0.7818609E-02  0.8269016E-01
        1   -1    0    0  501    0  0.00000000000E+00  0.00000000000E+00  0.12195476277E+04  0.12195476277E+04  0.50400001928E-02 0.  1.
       -1   -1    0    0    0  501  0.00000000000E+00  0.00000000000E+00 -0.17395069619E+04  0.17395069619E+04  0.50400001928E-02 0. -1.
    10030    2    1    2    0    0  0.00000000000E+00  0.00000000000E+00 -0.51995933424E+03  0.29590545896E+04  0.29130132775E+04 0.  0.
        1    1    3    3  502    0  0.10765565148E+04 -0.24784859110E+03 -0.12241971767E+04  0.16489577257E+04  0.50400001928E-02 0. -1.
       -1    1    3    3    0  502 -0.10765565148E+04  0.24784859110E+03  0.70423784248E+03  0.13100968638E+04  0.50400001928E-02 0.  1.
</event>
<event>
 5   0  0.6615403E-06  0.2880452E+04  0.7818609E-02  0.8278717E-01
       -2   -1    0    0    0  501  0.00000000000E+00  0.00000000000E+00  0.14096691691E+04  0.14096691691E+04  0.25500000920E-02 0.  1.
        2   -1    0    0  501    0  0.00000000000E+00  0.00000000000E+00 -0.14714454367E+04  0.14714454367E+04  0.25500000920E-02 0. -1.
    10030    2    1    2    0    0  0.00000000000E+00  0.00000000000E+00 -0.61776267639E+02  0.28811146058E+04  0.28804522326E+04 0.  0.
        2    1    3    3  502    0  0.47999381321E+02  0.79559764933E+03 -0.12307354484E+04  0.14662841826E+04  0.25500000920E-02 0. -1.
       -2    1    3    3    0  502 -0.47999381321E+02 -0.79559764933E+03  0.11689591807E+04  0.14148304232E+04  0.25500000920E-02 0.  1.
</event>
<event>
 5   0  0.2336512E-06  0.2651491E+04  0.7818609E-02  0.8350918E-01
        1   -1    0    0  501    0  0.00000000000E+00  0.00000000000E+00  0.20808656996E+04  0.20808656996E+04  0.50400001928E-02 0.  1.
       -1   -1    0    0    0  501  0.00000000000E+00  0.00000000000E+00 -0.84464922574E+03  0.84464922575E+03  0.50400001928E-02 0. -1.
    10030    2    1    2    0    0  0.00000000000E+00  0.00000000000E+00  0.12362164739E+04  0.29255149253E+04  0.26514913555E+04 0.  0.
        4    1    3    3  502    0  0.12840910951E+03 -0.11670446296E+04  0.12974671229E+04  0.17498298817E+04  0.12699999809E+01 0.  1.
       -4    1    3    3    0  502 -0.12840910951E+03  0.11670446296E+04 -0.61250649018E+02  0.11756850437E+04  0.12699999809E+01 0. -1.
</event>
<event>
 5   0  0.2474769E-06  0.2905247E+04  0.7818609E-02  0.8271318E-01
        1   -1    0    0  501    0  0.00000000000E+00  0.00000000000E+00  0.21688197195E+04  0.21688197195E+04  0.50400001928E-02 0.  1.
       -1   -1    0    0    0  501  0.00000000000E+00  0.00000000000E+00 -0.97293229578E+03  0.97293229579E+03  0.50400001928E-02 0. -1.
    10030    2    1    2    0    0  0.00000000000E+00  0.00000000000E+00  0.11958874237E+04  0.31417520153E+04  0.29052468045E+04 0.  0.
        1    1    3    3  502    0 -0.58470801955E+03  0.39447880151E+03  0.19712094623E+04  0.20936006633E+04  0.50400001928E-02 0.  1.
       -1    1    3    3    0  502  0.58470801955E+03 -0.39447880151E+03 -0.77532203865E+03  0.10481513520E+04  0.50400001928E-02 0. -1.
</event>
<event>
 5   0  0.2429358E-06  0.2936424E+04  0.7818609E-02  0.8262122E-01
       -1   -1    0    0    0  501  0.00000000000E+00  0.00000000000E+00  0.26799483257E+04  0.26799483257E+04  0.50400001928E-02 0. -1.
        1   -1    0    0  501    0  0.00000000000E+00  0.00000000000E+00 -0.80436107208E+03  0.80436107210E+03  0.50400001928E-02 0.  1.
    10030    2    1    2    0    0  0.00000000000E+00  0.00000000000E+00  0.18755872536E+04  0.34843093978E+04  0.29364237490E+04 0.  0.
        2    1    3    3  502    0 -0.12809122192E+04 -0.57326882397E+03  0.42567241469E+03  0.14664822749E+04  0.25500000920E-02 0. -1.
       -2    1    3    3    0  502  0.12809122192E+04  0.57326882397E+03  0.14499148389E+04  0.20178271229E+04  0.25500000920E-02 0.  1.
</event>
<event>
 5   0  0.2348684E-06  0.2534487E+04  0.7818609E-02  0.8390801E-01
       -1   -1    0    0    0  501  0.00000000000E+00  0.00000000000E+00  0.74471998181E+03  0.74471998183E+03  0.50400001928E-02 0. -1.
        1   -1    0    0  501    0  0.00000000000E+00  0.00000000000E+00 -0.21563892362E+04  0.21563892362E+04  0.50400001928E-02 0.  1.
    10030    2    1    2    0    0  0.00000000000E+00  0.00000000000E+00 -0.14116692544E+04  0.29011092180E+04  0.25344870509E+04 0.  0.
        5    1    3    3  502    0 -0.44038141390E+03  0.10433654448E+04 -0.54953641135E+02  0.11338382749E+04  0.46999998093E+01 0. -1.
       -5    1    3    3    0  502  0.44038141390E+03 -0.10433654448E+04 -0.13567156133E+04  0.17672709431E+04  0.46999998093E+01 0.  1.
</event>
<event>
 5   0  0.6393633E-06  0.2884833E+04  0.7818609E-02  0.8277404E-01
        2   -1    0    0  501    0  0.00000000000E+00  0.00000000000E+00  0.18152298764E+04  0.18152298764E+04  0.25500000920E-02 0.  1.
       -2   -1    0    0    0  501  0.00000000000E+00  0.00000000000E+00 -0.11461717976E+04  0.11461717976E+04  0.25500000920E-02 0. -1.
    10030    2    1    2    0    0  0.00000000000E+00  0.00000000000E+00  0.66905807877E+03  0.29614016740E+04  0.28848329522E+04 0.  0.
        4    1    3    3  502    0 -0.11637902059E+04 -0.38075289163E+02  0.12084208464E+04  0.16781358485E+04  0.12699999809E+01 0.  1.
       -4    1    3    3    0  502  0.11637902059E+04  0.38075289163E+02 -0.53936276764E+03  0.12832658255E+04  0.12699999809E+01 0. -1.
</event>
<event>
 5   0  0.6393633E-06  0.2890741E+04  0.7818609E-02  0.8275638E-01
       -2   -1    0    0    0  501  0.00000000000E+00  0.00000000000E+00  0.11299992715E+04  0.11299992715E+04  0.25500000920E-02 0.  1.
        2   -1    0    0  501    0  0.00000000000E+00  0.00000000000E+00 -0.18487589218E+04  0.18487589218E+04  0.25500000920E-02 0. -1.
    10030    2    1    2    0    0  0.00000000000E+00  0.00000000000E+00 -0.71875965030E+03  0.29787581934E+04  0.28907412440E+04 0.  0.
        4    1    3    3  502    0 -0.11692362531E+03 -0.78257797325E+03 -0.16057512463E+04  0.17901223691E+04  0.12699999809E+01 0. -1.
       -4    1    3    3    0  502  0.11692362531E+03  0.78257797325E+03  0.88699159604E+03  0.11886358243E+04  0.12699999809E+01 0.  1.
</event>
<event>
 5   0  0.2429358E-06  0.2932394E+04  0.7818609E-02  0.8263304E-01
       -1   -1    0    0    0  501  0.00000000000E+00  0.00000000000E+00  0.97365952816E+03  0.97365952817E+03  0.50400001928E-02 0. -1.
        1   -1    0    0  501    0  0.00000000000E+00  0.00000000000E+00 -0.22078910057E+04  0.22078910057E+04  0.50400001928E-02 0.  1.
    10030    2    1    2    0    0  0.00000000000E+00  0.00000000000E+00 -0.12342314775E+04  0.31815505339E+04  0.29323943220E+04 0.  0.
        2    1    3    3  502    0  0.58469979420E+03  0.11812457687E+04 -0.13139640882E+04  0.18611064023E+04  0.25500000920E-02 0. -1.
       -2    1    3    3    0  502 -0.58469979420E+03 -0.11812457687E+04  0.79732610682E+02  0.13204441316E+04  0.25500000920E-02 0.  1.
</event>
<event>
 5   0  0.6393633E-06  0.2912030E+04  0.7818609E-02  0.8269307E-01
        2   -1    0    0  501    0  0.00000000000E+00  0.00000000000E+00  0.25131285123E+04  0.25131285123E+04  0.25500000920E-02 0. -1.
       -2   -1    0    0    0  501  0.00000000000E+00  0.00000000000E+00 -0.84356175028E+03  0.84356175028E+03  0.25500000920E-02 0.  1.
    10030    2    1    2    0    0  0.00000000000E+00  0.00000000000E+00  0.16695667621E+04  0.33566902626E+04  0.29120295923E+04 0.  0.
        4    1    3    3  502    0  0.63558742171E+03 -0.13070463396E+04  0.73405599448E+03  0.16282448589E+04  0.12699999809E+01 0.  1.
       -4    1    3    3    0  502 -0.63558742171E+03  0.13070463396E+04  0.93551076758E+03  0.17284454037E+04  0.12699999809E+01 0. -1.
</event>
<event>
 5   0  0.6513041E-06  0.2897032E+04  0.7818609E-02  0.8273761E-01
       -2   -1    0    0    0  501  0.00000000000E+00  0.00000000000E+00  0.95068753126E+03  0.95068753126E+03  0.25500000920E-02 0.  1.
        2   -1    0    0  501    0  0.00000000000E+00  0.00000000000E+00 -0.22070331391E+04  0.22070331392E+04  0.25500000920E-02 0. -1.
    10030    2    1    2    0    0  0.00000000000E+00  0.00000000000E+00 -0.12563456079E+04  0.31577206704E+04  0.28970321962E+04 0.  0.
        1    1    3    3  502    0 -0.85454880654E+03 -0.11532910754E+04 -0.41607366543E+03  0.14944735737E+04  0.50400001928E-02 0. -1.
       -1    1    3    3    0  502  0.85454880654E+03  0.11532910754E+04 -0.84027194246E+03  0.16632470967E+04  0.50400001928E-02 0.  1.
</event>
<event>
 5   0  0.6393633E-06  0.2904240E+04  0.7818609E-02  0.8271617E-01
        2   -1    0    0  501    0  0.00000000000E+00  0.00000000000E+00  0.18836621514E+04  0.18836621514E+04  0.25500000920E-02 0. -1.
       -2   -1    0    0    0  501  0.00000000000E+00  0.00000000000E+00 -0.11194433070E+04  0.11194433070E+04  0.25500000920E-02 0.  1.
    10030    2    1    2    0    0  0.00000000000E+00  0.00000000000E+00  0.76421884441E+03  0.30031054584E+04  0.29042403399E+04 0.  0.
        4    1    3    3  502    0  0.98607588534E+03 -0.10172815223E+04  0.52764272448E+02  0.14177422293E+04  0.12699999809E+01 0. -1.
       -4    1    3    3    0  502 -0.98607588534E+03  0.10172815223E+04  0.71145457196E+03  0.15853632291E+04  0.12699999809E+01 0.  1.
</event>
<event>
 5   0  0.2348684E-06  0.2901074E+04  0.7818609E-02  0.8272558E-01
        1   -1    0    0  501    0  0.00000000000E+00  0.00000000000E+00  0.13999068921E+04  0.13999068921E+04  0.50400001928E-02 0. -1.
       -1   -1    0    0    0  501  0.00000000000E+00  0.00000000000E+00 -0.15029985304E+04  0.15029985304E+04  0.50400001928E-02 0.  1.
    10030    2    1    2    0    0  0.00000000000E+00  0.00000000000E+00 -0.10309163830E+03  0.29029054225E+04  0.29010742848E+04 0.  0.
        5    1    3    3  502    0 -0.14278505521E+04 -0.18288875402E+03 -0.23006923751E+03  0.14577926600E+04  0.46999998093E+01 0.  1.
       -5    1    3    3    0  502  0.14278505521E+04  0.18288875402E+03  0.12697759921E+03  0.14451127625E+04  0.46999998093E+01 0. -1.
</event>
<event>
 5   0  0.6733688E-06  0.2898559E+04  0.7818609E-02  0.8273306E-01
        2   -1    0    0  501    0  0.00000000000E+00  0.00000000000E+00  0.18702881948E+04  0.18702881948E+04  0.25500000920E-02 0.  1.
       -2   -1    0    0    0  501  0.00000000000E+00  0.00000000000E+00 -0.11230411581E+04  0.11230411581E+04  0.25500000920E-02 0. -1.
    10030    2    1    2    0    0  0.00000000000E+00  0.00000000000E+00  0.74724703675E+03  0.29933293529E+04  0.28985586903E+04 0.  0.
        5    1    3    3  502    0 -0.36369999825E+02 -0.12116409946E+04 -0.44669833662E+03  0.12918816396E+04  0.46999998093E+01 0. -1.
       -5    1    3    3    0  502  0.36369999825E+02  0.12116409946E+04  0.11939453734E+04  0.17014477134E+04  0.46999998093E+01 0.  1.
</event>
<event>
 5   0  0.2348684E-06  0.3146186E+04  0.7818609E-02  0.8203176E-01
        1   -1    0    0  501    0  0.00000000000E+00  0.00000000000E+00  0.14738848034E+04  0.14738848034E+04  0.50400001928E-02 0. -1.
       -1   -1    0    0    0  501  0.00000000000E+00  0.00000000000E+00 -0.16789792601E+04  0.16789792602E+04  0.50400001928E-02 0.  1.
    10030    2    1    2    0    0  0.00000000000E+00  0.00000000000E+00 -0.20509445671E+03  0.31528640636E+04  0.31461862735E+04 0.  0.
        5    1    3    3  502    0 -0.13490158526E+04  0.80707430570E+03 -0.44223858611E+02  0.15726380846E+04  0.46999998093E+01 0.  1.
       -5    1    3    3    0  502  0.13490158526E+04 -0.80707430570E+03 -0.16087059810E+03  0.15802259790E+04  0.46999998093E+01 0. -1.
</event>
<event>
 5   0  0.2508094E-06  0.2608393E+04  0.7818609E-02  0.8365356E-01
       -1   -1    0    0    0  501  0.00000000000E+00  0.00000000000E+00  0.99806566752E+03  0.99806566753E+03  0.50400001928E-02 0. -1.
        1   -1    0    0  501    0  0.00000000000E+00  0.00000000000E+00 -0.17042250955E+04  0.17042250955E+04  0.50400001928E-02 0.  1.
    10030    2    1    2    0    0  0.00000000000E+00  0.00000000000E+00 -0.70615942793E+03  0.27022907630E+04  0.26083930360E+04 0.  0.
        3    1    3    3  502    0 -0.14060763500E+03 -0.19930058924E+03 -0.16803861363E+04  0.16979955268E+04  0.10100000352E+00 0.  1.
       -3    1    3    3    0  502  0.14060763500E+03  0.19930058924E+03  0.97422670836E+03  0.10042952362E+04  0.10100000352E+00 0. -1.
</event>
<event>
 5   0  0.6612533E-06  0.2819334E+04  0.7818609E-02  0.8297291E-01
        2   -1    0    0  501    0  0.00000000000E+00  0.00000000000E+00  0.13021248066E+04  0.13021248066E+04  0.25500000920E-02 0.  1.
       -2   -1    0    0    0  501  0.00000000000E+00  0.00000000000E+00 -0.15260912259E+04  0.15260912259E+04  0.25500000920E-02 0. -1.
    10030    2    1    2    0    0  0.00000000000E+00  0.00000000000E+00 -0.22396641937E+03  0.28282160325E+04  0.28193341358E+04 0.  0.
        3    1    3    3  502    0 -0.93319802602E+03  0.31497040431E+03 -0.11236723118E+04  0.14942236733E+04  0.10100000352E+00 0. -1.
       -3    1    3    3    0  502  0.93319802602E+03 -0.31497040431E+03  0.89970589242E+03  0.13339923592E+04  0.10100000352E+00 0.  1.
</event>
<event>
 5   0  0.2474769E-06  0.2910156E+04  0.7818609E-02  0.8269862E-01
       -1   -1    0    0    0  501  0.00000000000E+00  0.00000000000E+00  0.13908861925E+04  0.13908861925E+04  0.50400001928E-02 0.  1.
        1   -1    0    0  501    0  0.00000000000E+00  0.00000000000E+00 -0.15222322748E+04  0.15222322748E+04  0.50400001928E-02 0. -1.
    10030    2    1    2    0    0  0.00000000000E+00  0.00000000000E+00 -0.13134608229E+03  0.29131184673E+04  0.29101559084E+04 0.  0.
        1    1    3    3  502    0 -0.13224969600E+04 -0.59610935542E+03  0.48052825018E+02  0.14514315853E+04  0.50400001928E-02 0.  1.
       -1    1    3    3    0  502  0.13224969600E+04  0.59610935542E+03 -0.17939890731E+03  0.14616868819E+04  0.50400001928E-02 0. -1.
</event>
<event>
 5   0  0.2336512E-06  0.2888827E+04  0.7818609E-02  0.8276209E-01
        1   -1    0    0  501    0  0.00000000000E+00  0.00000000000E+00  0.15547941526E+04  0.15547941526E+04  0.50400001928E-02 0. -1.
       -1   -1    0    0    0  501  0.00000000000E+00  0.00000000000E+00 -0.13418693592E+04  0.13418693592E+04  0.50400001928E-02 0.  1.
    10030    2    1    2    0    0  0.00000000000E+00  0.00000000000E+00  0.21292479340E+03  0.28966635119E+04  0.28888271899E+04 0.  0.
        4    1    3    3  502    0  0.56175993156E+03 -0.75394056365E+03  0.12059441928E+04  0.15291512689E+04  0.12699999809E+01 0. -1.
       -4    1    3    3    0  502 -0.56175993156E+03  0.75394056365E+03 -0.99301939937E+03  0.13675122430E+04  0.12699999809E+01 0.  1.
</event>
<event>
 5   0  0.2348684E-06  0.2980568E+04  0.7818609E-02  0.8249302E-01
       -1   -1    0    0    0  501  0.00000000000E+00  0.00000000000E+00  0.13122618520E+04  0.13122618520E+04  0.50400001928E-02 0.  1.
        1   -1    0    0  501    0  0.00000000000E+00  0.00000000000E+00 -0.16924568550E+04  0.16924568550E+04  0.50400001928E-02 0. -1.
    10030    2    1    2    0    0  0.00000000000E+00  0.00000000000E+00 -0.38019500302E+03  0.30047187070E+04  0.29805681116E+04 0.  0.
        5    1    3    3  502    0 -0.11495832941E+04 -0.94145118813E+03 -0.30527025381E+03  0.15169324664E+04  0.46999998093E+01 0. -1.
       -5    1    3    3    0  502  0.11495832941E+04  0.94145118813E+03 -0.74924749210E+02  0.14877862406E+04  0.46999998093E+01 0.  1.
</event>
<event>
 5   0  0.2474769E-06  0.2857009E+04  0.7818609E-02  0.8285785E-01
        1   -1    0    0  501    0  0.00000000000E+00  0.00000000000E+00  0.68111701975E+03  0.68111701977E+03  0.50400001928E-02 0. -1.
       -1   -1    0    0    0  501  0.00000000000E+00  0.00000000000E+00 -0.29959973991E+04  0.29959973991E+04  0.50400001928E-02 0.  1.
    10030    2    1    2    0    0  0.00000000000E+00  0.00000000000E+00 -0.23148803793E+04  0.36771144188E+04  0.28570087992E+04 0.  0.
        1    1    3    3  502    0  0.12164168490E+02  0.65252071776E+02  0.67913118385E+03  0.68236717738E+03  0.50400001928E-02 0. -1.
       -1    1    3    3    0  502 -0.12164168490E+02 -0.65252071776E+02 -0.29940115631E+04  0.29947472414E+04  0.50400001928E-02 0.  1.
</event>
<event>
 5   0  0.2474769E-06  0.2923381E+04  0.7818609E-02  0.8265955E-01
       -1   -1    0    0    0  501  0.00000000000E+00  0.00000000000E+00  0.13517705271E+04  0.13517705271E+04  0.50400001928E-02 0. -1.
        1   -1    0    0  501    0  0.00000000000E+00  0.00000000000E+00 -0.15805491731E+04  0.15805491731E+04  0.50400001928E-02 0.  1.
    10030    2    1    2    0    0  0.00000000000E+00  0.00000000000E+00 -0.22877864599E+03  0.29323197002E+04  0.29233814591E+04 0.  0.
        1    1    3    3  502    0 -0.12993231585E+04  0.62272358304E+03 -0.36113832384E+03  0.14854111283E+04  0.50400001928E-02 0.  1.
       -1    1    3    3    0  502  0.12993231585E+04 -0.62272358304E+03  0.13235967786E+03  0.14469085719E+04  0.50400001928E-02 0. -1.
</event>
<event>
 5   0  0.6393633E-06  0.2869189E+04  0.7818609E-02  0.8282104E-01
       -2   -1    0    0    0  501  0.00000000000E+00  0.00000000000E+00  0.12087213168E+04  0.12087213169E+04  0.25500000920E-02 0.  1.
        2   -1    0    0  501    0  0.00000000000E+00  0.00000000000E+00 -0.17026761857E+04  0.17026761857E+04  0.25500000920E-02 0. -1.
    10030    2    1    2    0    0  0.00000000000E+00  0.00000000000E+00 -0.49395486889E+03  0.29113975026E+04  0.28691887365E+04 0.  0.
        4    1    3    3  502    0 -0.64562154591E+03 -0.11411618447E+04  0.34380913253E+03  0.13554644477E+04  0.12699999809E+01 0.  1.
       -4    1    3    3    0  502  0.64562154591E+03  0.11411618447E+04 -0.83776400142E+03  0.15559330549E+04  0.12699999809E+01 0. -1.
</event>
<event>
 5   0  0.2336512E-06  0.2895632E+04  0.7818609E-02  0.8274178E-01
       -1   -1    0    0    0  501  0.00000000000E+00  0.00000000000E+00  0.11385095115E+04  0.11385095116E+04  0.50400001928E-02 0. -1.
        1   -1    0    0  501    0  0.00000000000E+00  0.00000000000E+00 -0.18411542754E+04  0.18411542754E+04  0.50400001928E-02 0.  1.
    10030    2    1    2    0    0  0.00000000000E+00  0.00000000000E+00 -0.70264476388E+03  0.29796637870E+04  0.28956323350E+04 0.  0.
        4    1    3    3  502    0 -0.13919806771E+04  0.26777387645E+03 -0.48054633449E+02  0.14183172829E+04  0.12699999809E+01 0. -1.
       -4    1    3    3    0  502  0.13919806771E+04 -0.26777387645E+03 -0.65459013043E+03  0.15613465041E+04  0.12699999809E+01 0.  1.
</event>
<event>
 5   0  0.2474769E-06  0.2892822E+04  0.7818609E-02  0.8275016E-01
        1   -1    0    0  501    0  0.00000000000E+00  0.00000000000E+00  0.23939316346E+04  0.23939316346E+04  0.50400001928E-02 0. -1.
       -1   -1    0    0    0  501  0.00000000000E+00  0.00000000000E+00 -0.87391982189E+03  0.87391982191E+03  0.50400001928E-02 0.  1.
    10030    2    1    2    0    0  0.00000000000E+00  0.00000000000E+00  0.15200118127E+04  0.32678514565E+04  0.28928216729E+04 0.  0.
        1    1    3    3  502    0  0.21029727280E+03 -0.59716310001E+03  0.22290939891E+04  0.23172588813E+04  0.50400001928E-02 0. -1.
       -1    1    3    3    0  502 -0.21029727280E+03  0.59716310001E+03 -0.70908217642E+03  0.95059257513E+03  0.50400001928E-02 0.  1.
</event>
<event>
 5   0  0.2508094E-06  0.3096175E+04  0.7818609E-02  0.8216788E-01
       -1   -1    0    0    0  501  0.00000000000E+00  0.00000000000E+00  0.12063229933E+04  0.12063229933E+04  0.50400001928E-02 0.  1.
        1   -1    0    0  501    0  0.00000000000E+00  0.00000000000E+00 -0.19866780813E+04  0.19866780813E+04  0.50400001928E-02 0. -1.
    10030    2    1    2    0    0  0.00000000000E+00  0.00000000000E+00 -0.78035508808E+03  0.31930010746E+04  0.30961753502E+04 0.  0.
        3    1    3    3  502    0 -0.14233126383E+04 -0.47375322947E+03 -0.78465040229E+03  0.16929079280E+04  0.10100000352E+00 0.  1.
       -3    1    3    3    0  502  0.14233126383E+04  0.47375322947E+03  0.42953142179E+01  0.15000931466E+04  0.10100000352E+00 0. -1.
</event>
<event>
 5   0  0.2508094E-06  0.2955320E+04  0.7818609E-02  0.8256606E-01
       -1   -1    0    0    0  501  0.00000000000E+00  0.00000000000E+00  0.12810828171E+04  0.12810828172E+04  0.50400001928E-02 0.  1.
        1   -1    0    0  501    0  0.00000000000E+00  0.00000000000E+00 -0.17044008506E+04  0.17044008506E+04  0.50400001928E-02 0. -1.
    10030    2    1    2    0    0  0.00000000000E+00  0.00000000000E+00 -0.42331803343E+03  0.29854836677E+04  0.29553197074E+04 0.  0.
        3    1    3    3  502    0  0.10818283762E+04 -0.94339897338E+03 -0.56613127208E+03  0.15430032035E+04  0.10100000352E+00 0. -1.
       -3    1    3    3    0  502 -0.10818283762E+04  0.94339897338E+03  0.14281323865E+03  0.14424804643E+04  0.10100000352E+00 0.  1.
</event>
<event>
 5   0  0.6393633E-06  0.2918854E+04  0.7818609E-02  0.8267290E-01
        2   -1    0    0  501    0  0.00000000000E+00  0.00000000000E+00  0.14944658271E+04  0.14944658271E+04  0.25500000920E-02 0.  1.
       -2   -1    0    0    0  501  0.00000000000E+00  0.00000000000E+00 -0.14252094943E+04  0.14252094943E+04  0.25500000920E-02 0. -1.
    10030    2    1    2    0    0  0.00000000000E+00  0.00000000000E+00  0.69256332827E+02  0.29196753214E+04  0.29188538064E+04 0.  0.
        4    1    3    3  502    0  0.12848542442E+04 -0.54061336612E+03 -0.39771105709E+03  0.14495823324E+04  0.12699999809E+01 0. -1.
       -4    1    3    3    0  502 -0.12848542442E+04  0.54061336612E+03  0.46696738991E+03  0.14700929891E+04  0.12699999809E+01 0.  1.
</event>
<event>
 5   0  0.2429358E-06  0.2835103E+04  0.7818609E-02  0.8292452E-01
       -1   -1    0    0    0  501  0.00000000000E+00  0.00000000000E+00  0.11662505844E+04  0.11662505844E+04  0.50400001928E-02 0. -1.
        1   -1    0    0  501    0  0.00000000000E+00  0.00000000000E+00 -0.17230023549E+04  0.17230023549E+04  0.50400001928E-02 0.  1.
    10030    2    1    2    0    0  0.00000000000E+00  0.00000000000E+00 -0.55675177055E+03  0.28892529393E+04  0.28351031751E+04 0.  0.
        2    1    3    3  502    0  0.70733074682E+02  0.89619557285E+03  0.83858851199E+03  0.12293902412E+04  0.25500000920E-02 0. -1.
       -2    1    3    3    0  502 -0.70733074682E+02 -0.89619557285E+03 -0.13953402825E+04  0.16598626982E+04  0.25500000920E-02 0.  1.
</event>
<event>
 5   0  0.2336512E-06  0.2895598E+04  0.7818609E-02  0.8274188E-01
       -1   -1    0    0    0  501  0.00000000000E+00  0.00000000000E+00  0.13991051931E+04  0.13991051931E+04  0.50400001928E-02 0.  1.
        1   -1    0    0  501    0  0.00000000000E+00  0.00000000000E+00 -0.14981873987E+04  0.14981873987E+04  0.50400001928E-02 0. -1.
    10030    2    1    2    0    0  0.00000000000E+00  0.00000000000E+00 -0.99082205558E+02  0.28972925918E+04  0.28955978794E+04 0.  0.
        4    1    3    3  502    0 -0.58989011946E+03 -0.23802049860E+03  0.12517953626E+04  0.14041429249E+04  0.12699999809E+01 0.  1.
       -4    1    3    3    0  502  0.58989011946E+03  0.23802049860E+03 -0.13508775682E+04  0.14931496669E+04  0.12699999809E+01 0. -1.
</event>
<event>
 5   0  0.6393633E-06  0.2885309E+04  0.7818609E-02  0.8277262E-01
       -2   -1    0    0    0  501  0.00000000000E+00  0.00000000000E+00  0.10484403111E+04  0.10484403111E+04  0.25500000920E-02 0. -1.
        2   -1    0    0  501    0  0.00000000000E+00  0.00000000000E+00 -0.19850929123E+04  0.19850929123E+04  0.25500000920E-02 0.  1.
    10030    2    1    2    0    0  0.00000000000E+00  0.00000000000E+00 -0.93665260122E+03  0.30335332234E+04  0.28853086008E+04 0.  0.
        4    1    3    3  502    0 -0.85323339406E+01  0.66123096240E+03  0.87970777681E+03  0.11005392187E+04  0.12699999809E+01 0. -1.
       -4    1    3    3    0  502  0.85323339406E+01 -0.66123096240E+03 -0.18163603780E+04  0.19329940047E+04  0.12699999809E+01 0.  1.
</event>
<event>
 5   0  0.6733688E-06  0.2803602E+04  0.7818609E-02  0.8302151E-01
       -2   -1    0    0    0  501  0.00000000000E+00  0.00000000000E+00  0.67378365544E+03  0.67378365544E+03  0.25500000920E-02 0.  1.
        2   -1    0    0  501    0  0.00000000000E+00  0.00000000000E+00 -0.29164338627E+04  0.29164338627E+04  0.25500000920E-02 0. -1.
    10030    2    1    2    0    0  0.00000000000E+00  0.00000000000E+00 -0.22426502073E+04  0.35902175181E+04  0.28036015900E+04 0.  0.
        5    1    3    3  502    0 -0.48857143427E+03  0.56532036333E+03  0.39750952425E+03  0.84635989475E+03  0.46999998093E+01 0.  1.
       -5    1    3    3    0  502  0.48857143427E+03 -0.56532036333E+03 -0.26401597315E+04  0.27438576234E+04  0.46999998093E+01 0. -1.
</event>
<event>
 5   0  0.2336512E-06  0.2404415E+04  0.7818609E-02  0.8437853E-01
       -1   -1    0    0    0  501  0.00000000000E+00  0.00000000000E+00  0.13194767133E+04  0.13194767133E+04  0.50400001928E-02 0. -1.
        1   -1    0    0  501    0  0.00000000000E+00  0.00000000000E+00 -0.10953604019E+04  0.10953604019E+04  0.50400001928E-02 0.  1.
    10030    2    1    2    0    0  0.00000000000E+00  0.00000000000E+00  0.22411631136E+03  0.24148371152E+04  0.24044147254E+04 0.  0.
        4    1    3    3  502    0 -0.11448476440E+04  0.36562509514E+03  0.81215236493E+02  0.12045560866E+04  0.12699999809E+01 0.  1.
       -4    1    3    3    0  502  0.11448476440E+04 -0.36562509514E+03  0.14290107487E+03  0.12102810286E+04  0.12699999809E+01 0. -1.
</event>
<event>
 5   0  0.6393633E-06  0.2914666E+04  0.7818609E-02  0.8268527E-01
        2   -1    0    0  501    0  0.00000000000E+00  0.00000000000E+00  0.21253254762E+04  0.21253254762E+04  0.25500000920E-02 0.  1.
       -2   -1    0    0    0  501  0.00000000000E+00  0.00000000000E+00 -0.99929110506E+03  0.99929110506E+03  0.25500000920E-02 0. -1.
    10030    2    1    2    0    0  0.00000000000E+00  0.00000000000E+00  0.11260343711E+04  0.31246165812E+04  0.29146655683E+04 0.  0.
        4    1    3    3  502    0  0.51388152855E+03 -0.56649630590E+03  0.18928670423E+04  0.20415532182E+04  0.12699999809E+01 0.  1.
       -4    1    3    3    0  502 -0.51388152855E+03  0.56649630590E+03 -0.76683267115E+03  0.10830633631E+04  0.12699999809E+01 0. -1.
</event>
<event>
 5   0  0.6612533E-06  0.2880189E+04  0.7818609E-02  0.8278796E-01
        2   -1    0    0  501    0  0.00000000000E+00  0.00000000000E+00  0.17772685679E+04  0.17772685679E+04  0.25500000920E-02 0.  1.
       -2   -1    0    0    0  501  0.00000000000E+00  0.00000000000E+00 -0.11668876885E+04  0.11668876885E+04  0.25500000920E-02 0. -1.
    10030    2    1    2    0    0  0.00000000000E+00  0.00000000000E+00  0.61038087940E+03  0.29441562564E+04  0.28801894459E+04 0.  0.
        3    1    3    3  502    0 -0.34602955315E+03 -0.17428499653E+03  0.17229917366E+04  0.17660159247E+04  0.10100000352E+00 0.  1.
       -3    1    3    3    0  502  0.34602955315E+03  0.17428499653E+03 -0.11126108572E+04  0.11781403318E+04  0.10100000352E+00 0. -1.
</event>
<event>
 5   0  0.2348684E-06  0.2772228E+04  0.7818609E-02  0.8311943E-01
       -1   -1    0    0    0  501  0.00000000000E+00  0.00000000000E+00  0.13880926528E+04  0.13880926528E+04  0.50400001928E-02 0. -1.
        1   -1    0    0  501    0  0.00000000000E+00  0.00000000000E+00 -0.13841380961E+04  0.13841380961E+04  0.50400001928E-02 0.  1.
    10030    2    1    2    0    0  0.00000000000E+00  0.00000000000E+00  0.39545566474E+01  0.27722307489E+04  0.27722279283E+04 0.  0.
        5    1    3    3  502    0  0.22479890809E+03  0.94730255128E+03 -0.98462048145E+03  0.13847080036E+04  0.46999998093E+01 0. -1.
       -5    1    3    3    0  502 -0.22479890809E+03 -0.94730255128E+03  0.98857503809E+03  0.13875227453E+04  0.46999998093E+01 0.  1.
</event>
<event>
 5   0  0.6615403E-06  0.2878778E+04  0.7818609E-02  0.8279220E-01
       -2   -1    0    0    0  501  0.00000000000E+00  0.00000000000E+00  0.10752473507E+04  0.10752473507E+04  0.25500000920E-02 0. -1.
        2   -1    0    0  501    0  0.00000000000E+00  0.00000000000E+00 -0.19268506575E+04  0.19268506575E+04  0.25500000920E-02 0.  1.
    10030    2    1    2    0    0  0.00000000000E+00  0.00000000000E+00 -0.85160330675E+03  0.30020980082E+04  0.28787782580E+04 0.  0.
        2    1    3    3  502    0 -0.43373103128E+02 -0.13070593838E+04  0.20125127747E+03  0.13231732825E+04  0.25500000920E-02 0. -1.
       -2    1    3    3    0  502  0.43373103128E+02  0.13070593838E+04 -0.10528545842E+04  0.16789247257E+04  0.25500000920E-02 0.  1.
</event>
<event>
 5   0  0.2159500E-06  0.2882467E+04  0.7818609E-02  0.8278113E-01
       -3   -1    0    0    0  501  0.00000000000E+00  0.00000000000E+00  0.14308456437E+04  0.14308456472E+04  0.10100000352E+00 0. -1.
        3   -1    0    0  501    0  0.00000000000E+00  0.00000000000E+00 -0.14516963394E+04  0.14516963429E+04  0.10100000352E+00 0.  1.
    10030    2    1    2    0    0  0.00000000000E+00  0.00000000000E+00 -0.20850695751E+02  0.28825419902E+04  0.28824665780E+04 0.  0.
        2    1    3    3  502    0 -0.60826741134E+03  0.11221277142E+04 -0.67976605651E+03  0.14461126312E+04  0.25500000920E-02 0.  1.
       -2    1    3    3    0  502  0.60826741134E+03 -0.11221277142E+04  0.65891536076E+03  0.14364293589E+04  0.25500000920E-02 0. -1.
</event>
<event>
 5   0  0.6615403E-06  0.2920249E+04  0.7818609E-02  0.8266878E-01
        2   -1    0    0  501    0  0.00000000000E+00  0.00000000000E+00  0.15570314113E+04  0.15570314113E+04  0.25500000920E-02 0. -1.
       -2   -1    0    0    0  501  0.00000000000E+00  0.00000000000E+00 -0.13692488281E+04  0.13692488281E+04  0.25500000920E-02 0.  1.
    10030    2    1    2    0    0  0.00000000000E+00  0.00000000000E+00  0.18778258313E+03  0.29262802394E+04  0.29202489177E+04 0.  0.
        2    1    3    3  502    0  0.33103037590E+03  0.31316341559E+03 -0.12961691178E+04  0.13739384326E+04  0.25500000920E-02 0.  1.
       -2    1    3    3    0  502 -0.33103037590E+03 -0.31316341559E+03  0.14839517009E+04  0.15523418068E+04  0.25500000920E-02 0. -1.
</event>
<event>
 5   0  0.2508094E-06  0.2894227E+04  0.7818609E-02  0.8274597E-01
        1   -1    0    0  501    0  0.00000000000E+00  0.00000000000E+00  0.13745181262E+04  0.13745181262E+04  0.50400001928E-02 0.  1.
       -1   -1    0    0    0  501  0.00000000000E+00  0.00000000000E+00 -0.15235432950E+04  0.15235432950E+04  0.50400001928E-02 0. -1.
    10030    2    1    2    0    0  0.00000000000E+00  0.00000000000E+00 -0.14902516877E+03  0.28980614212E+04  0.28942272716E+04 0.  0.
        3    1    3    3  502    0  0.13803115362E+04  0.13463993180E+03  0.33925392112E+03  0.14277538588E+04  0.10100000352E+00 0.  1.
       -3    1    3    3    0  502 -0.13803115362E+04 -0.13463993180E+03 -0.48827908988E+03  0.14703075624E+04  0.10100000352E+00 0. -1.
</event>
<event>
 5   0  0.6612533E-06  0.2537165E+04  0.7818609E-02  0.8389864E-01
       -2   -1    0    0    0  501  0.00000000000E+00  0.00000000000E+00  0.70227851033E+03  0.70227851034E+03  0.25500000920E-02 0.  1.
        2   -1    0    0  501    0  0.00000000000E+00  0.00000000000E+00 -0.22915429968E+04  0.22915429968E+04  0.25500000920E-02 0. -1.
    10030    2    1    2    0    0  0.00000000000E+00  0.00000000000E+00 -0.15892644864E+04  0.29938215071E+04  0.25371648761E+04 0.  0.
        3    1    3    3  502    0 -0.19987763518E+03  0.43556194325E+03 -0.21806203095E+04  0.22326598980E+04  0.10100000352E+00 0. -1.
       -3    1    3    3    0  502  0.19987763518E+03 -0.43556194325E+03  0.59135582312E+03  0.76116160912E+03  0.10100000352E+00 0.  1.
</event>
<event>
 5   0  0.2336512E-06  0.2973158E+04  0.7818609E-02  0.8251437E-01
        1   -1    0    0  501    0  0.00000000000E+00  0.00000000000E+00  0.13388201805E+04  0.13388201805E+04  0.50400001928E-02 0.  1.
       -1   -1    0    0    0  501  0.00000000000E+00  0.00000000000E+00 -0.16506456471E+04  0.16506456471E+04  0.50400001928E-02 0. -1.
    10030    2    1    2    0    0  0.00000000000E+00  0.00000000000E+00 -0.31182546661E+03  0.29894658275E+04  0.29731583901E+04 0.  0.
        4    1    3    3  502    0 -0.13907931898E+03  0.14409631905E+04 -0.49569837159E+03  0.15301753043E+04  0.12699999809E+01 0. -1.
       -4    1    3    3    0  502  0.13907931898E+03 -0.14409631905E+04  0.18387290498E+03  0.14592905233E+04  0.12699999809E+01 0.  1.
</event>
<event>
 5   0  0.2474769E-06  0.2885992E+04  0.7818609E-02  0.8277058E-01
       -1   -1    0    0    0  501  0.00000000000E+00  0.00000000000E+00  0.13595879400E+04  0.13595879401E+04  0.50400001928E-02 0.  1.
        1   -1    0    0  501    0  0.00000000000E+00  0.00000000000E+00 -0.15315205160E+04  0.15315205161E+04  0.50400001928E-02 0. -1.
    10030    2    1    2    0    0  0.00000000000E+00  0.00000000000E+00 -0.17193257600E+03  0.28911084561E+04  0.28859915617E+04 0.  0.
        1    1    3    3  502    0 -0.31388578199E+03  0.68666202927E+03 -0.13178651769E+04  0.15188145545E+04  0.50400001928E-02 0. -1.
       -1    1    3    3    0  502  0.31388578199E+03 -0.68666202927E+03  0.11459326009E+04  0.13722939016E+04  0.50400001928E-02 0.  1.
</event>
<event>
 5   0  0.6615403E-06  0.2930675E+04  0.7818609E-02  0.8263809E-01
        2   -1    0    0  501    0  0.00000000000E+00  0.00000000000E+00  0.21609827541E+04  0.21609827541E+04  0.25500000920E-02 0.  1.
       -2   -1    0    0    0  501  0.00000000000E+00  0.00000000000E+00 -0.99362850240E+03  0.99362850241E+03  0.25500000920E-02 0. -1.
    10030    2    1    2    0    0  0.00000000000E+00  0.00000000000E+00  0.11673542517E+04  0.31546112565E+04  0.29306750469E+04 0.  0.
        2    1    3    3  502    0 -0.65931311772E+03  0.58440425239E+03 -0.67668583838E+03  0.11109121663E+04  0.25500000920E-02 0. -1.
       -2    1    3    3    0  502  0.65931311772E+03 -0.58440425239E+03  0.18440400901E+04  0.20436990902E+04  0.25500000920E-02 0.  1.
</event>
<event>
 5   0  0.2508094E-06  0.2886903E+04  0.7818609E-02  0.8276785E-01
        1   -1    0    0  501    0  0.00000000000E+00  0.00000000000E+00  0.16829891661E+04  0.16829891662E+04  0.50400001928E-02 0.  1.
       -1   -1    0    0    0  501  0.00000000000E+00  0.00000000000E+00 -0.12380072777E+04  0.12380072777E+04  0.50400001928E-02 0. -1.
    10030    2    1    2    0    0  0.00000000000E+00  0.00000000000E+00  0.44498188846E+03  0.29209964439E+04  0.28869034178E+04 0.  0.
        3    1    3    3  502    0  0.13173796908E+03 -0.50256024922E+03 -0.11401243345E+04  0.12529186745E+04  0.10100000352E+00 0. -1.
       -3    1    3    3    0  502 -0.13173796908E+03  0.50256024922E+03  0.15851062229E+04  0.16680777694E+04  0.10100000352E+00 0.  1.
</event>
<event>
 5   0  0.6393633E-06  0.2916248E+04  0.7818609E-02  0.8268060E-01
        2   -1    0    0  501    0  0.00000000000E+00  0.00000000000E+00  0.27748003243E+04  0.27748003243E+04  0.25500000920E-02 0.  1.
       -2   -1    0    0    0  501  0.00000000000E+00  0.00000000000E+00 -0.76622663988E+03  0.76622663989E+03  0.25500000920E-02 0. -1.
    10030    2    1    2    0    0  0.00000000000E+00  0.00000000000E+00  0.20085736845E+04  0.35410269642E+04  0.29162482260E+04 0.  0.
        4    1    3    3  502    0 -0.85415352696E+03  0.50593681871E+03  0.23010673701E+04  0.25060851875E+04  0.12699999809E+01 0.  1.
       -4    1    3    3    0  502  0.85415352696E+03 -0.50593681871E+03 -0.29249368568E+03  0.10349417767E+04  0.12699999809E+01 0. -1.
</event>
<event>
 5   0  0.6612533E-06  0.2905040E+04  0.7818609E-02  0.8271380E-01
       -2   -1    0    0    0  501  0.00000000000E+00  0.00000000000E+00  0.17715333961E+04  0.17715333961E+04  0.25500000920E-02 0. -1.
        2   -1    0    0  501    0  0.00000000000E+00  0.00000000000E+00 -0.11909535316E+04  0.11909535316E+04  0.25500000920E-02 0.  1.
    10030    2    1    2    0    0  0.00000000000E+00  0.00000000000E+00  0.58057986450E+03  0.29624869277E+04  0.29050397274E+04 0.  0.
        3    1    3    3  502    0 -0.11709148543E+04  0.18401711291E+03  0.11464820357E+04  0.16490375867E+04  0.10100000352E+00 0. -1.
       -3    1    3    3    0  502  0.11709148543E+04 -0.18401711291E+03 -0.56590217119E+03  0.13134493410E+04  0.10100000352E+00 0.  1.
</event>
<event>
 5   0  0.6733688E-06  0.2894084E+04  0.7818609E-02  0.8274640E-01
       -2   -1    0    0    0  501  0.00000000000E+00  0.00000000000E+00  0.15134534524E+04  0.15134534524E+04  0.25500000920E-02 0. -1.
        2   -1    0    0  501    0  0.00000000000E+00  0.00000000000E+00 -0.13835443564E+04  0.13835443564E+04  0.25500000920E-02 0.  1.
    10030    2    1    2    0    0  0.00000000000E+00  0.00000000000E+00  0.12990909594E+03  0.28969978088E+04  0.28940836082E+04 0.  0.
        5    1    3    3  502    0  0.56942892908E+03 -0.91596047523E+03  0.10306409502E+04  0.14918028541E+04  0.46999998093E+01 0. -1.
       -5    1    3    3    0  502 -0.56942892908E+03  0.91596047523E+03 -0.90073185422E+03  0.14051949547E+04  0.46999998093E+01 0.  1.
</event>
<event>
 5   0  0.2336512E-06  0.2868388E+04  0.7818609E-02  0.8282345E-01
        1   -1    0    0  501    0  0.00000000000E+00  0.00000000000E+00  0.17776891159E+04  0.17776891159E+04  0.50400001928E-02 0. -1.
       -1   -1    0    0    0  501  0.00000000000E+00  0.00000000000E+00 -0.11570712324E+04  0.11570712324E+04  0.50400001928E-02 0.  1.
    10030    2    1    2    0    0  0.00000000000E+00  0.00000000000E+00  0.62061788353E+03  0.29347603483E+04  0.28683883532E+04 0.  0.
        4    1    3    3  502    0  0.11068075284E+04 -0.89482025171E+03  0.49098828794E+03  0.15055886887E+04  0.12699999809E+01 0.  1.
       -4    1    3    3    0  502 -0.11068075284E+04  0.89482025171E+03  0.12962959559E+03  0.14291716596E+04  0.12699999809E+01 0. -1.
</event>
<event>
 5   0  0.2508094E-06  0.2763666E+04  0.7818609E-02  0.8314638E-01
        1   -1    0    0  501    0  0.00000000000E+00  0.00000000000E+00  0.29201633706E+04  0.29201633706E+04  0.50400001928E-02 0.  1.
       -1   -1    0    0    0  501  0.00000000000E+00  0.00000000000E+00 -0.65388867768E+03  0.65388867770E+03  0.50400001928E-02 0. -1.
    10030    2    1    2    0    0  0.00000000000E+00  0.00000000000E+00  0.22662746929E+04  0.35740520483E+04  0.27636655116E+04 0.  0.
        3    1    3    3  502    0 -0.98004477000E+03  0.13260760493E+03 -0.11493855868E+03  0.99563216630E+03  0.10100000352E+00 0. -1.
       -3    1    3    3    0  502  0.98004477000E+03 -0.13260760493E+03  0.23812132516E+04  0.25784198820E+04  0.10100000352E+00 0.  1.
</event>
<event>
 5   0  0.2348684E-06  0.2858102E+04  0.7818609E-02  0.8285453E-01
       -1   -1    0    0    0  501  0.00000000000E+00  0.00000000000E+00  0.81860965910E+03  0.81860965912E+03  0.50400001928E-02 0.  1.
        1   -1    0    0  501    0  0.00000000000E+00  0.00000000000E+00 -0.24947022847E+04  0.24947022847E+04  0.50400001928E-02 0. -1.
    10030    2    1    2    0    0  0.00000000000E+00  0.00000000000E+00 -0.16760926256E+04  0.33133119438E+04  0.28581024382E+04 0.  0.
        5    1    3    3  502    0  0.14251809363E+03  0.40658860236E+03  0.74151556629E+03  0.85760895729E+03  0.46999998093E+01 0.  1.
       -5    1    3    3    0  502 -0.14251809363E+03 -0.40658860236E+03 -0.24176081919E+04  0.24557029865E+04  0.46999998093E+01 0. -1.
</event>
<event>
 5   0  0.6393633E-06  0.2824365E+04  0.7818609E-02  0.8295744E-01
       -2   -1    0    0    0  501  0.00000000000E+00  0.00000000000E+00  0.10907762779E+04  0.10907762779E+04  0.25500000920E-02 0.  1.
        2   -1    0    0  501    0  0.00000000000E+00  0.00000000000E+00 -0.18282940642E+04  0.18282940642E+04  0.25500000920E-02 0. -1.
    10030    2    1    2    0    0  0.00000000000E+00  0.00000000000E+00 -0.73751778628E+03  0.29190703422E+04  0.28243652698E+04 0.  0.
        4    1    3    3  502    0  0.12230947158E+04 -0.62913699658E+03 -0.69962480281E+03  0.15431301053E+04  0.12699999809E+01 0. -1.
       -4    1    3    3    0  502 -0.12230947158E+04  0.62913699658E+03 -0.37892983477E+02  0.13759402369E+04  0.12699999809E+01 0.  1.
</event>
<event>
 5   0  0.6513041E-06  0.2978747E+04  0.7818609E-02  0.8249826E-01
        2   -1    0    0  501    0  0.00000000000E+00  0.00000000000E+00  0.29544941831E+04  0.29544941831E+04  0.25500000920E-02 0. -1.
       -2   -1    0    0    0  501  0.00000000000E+00  0.00000000000E+00 -0.75079981272E+03  0.75079981272E+03  0.25500000920E-02 0.  1.
    10030    2    1    2    0    0  0.00000000000E+00  0.00000000000E+00  0.22036943704E+04  0.37052939958E+04  0.29787471725E+04 0.  0.
        1    1    3    3  502    0  0.52561183245E+03 -0.11128411353E+04  0.21452131460E+04  0.24731806713E+04  0.50400001928E-02 0. -1.
       -1    1    3    3    0  502 -0.52561183245E+03  0.11128411353E+04  0.58481224352E+02  0.12321133245E+04  0.50400001928E-02 0.  1.
</event>
<event>
 5   0  0.6733688E-06  0.2894678E+04  0.7818609E-02  0.8274463E-01
       -2   -1    0    0    0  501  0.00000000000E+00  0.00000000000E+00  0.16907330432E+04  0.16907330432E+04  0.25500000920E-02 0.  1.
        2   -1    0    0  501    0  0.00000000000E+00  0.00000000000E+00 -0.12389837497E+04  0.12389837497E+04  0.25500000920E-02 0. -1.
    10030    2    1    2    0    0  0.00000000000E+00  0.00000000000E+00  0.45174929351E+03  0.29297167929E+04  0.28946784040E+04 0.  0.
        5    1    3    3  502    0 -0.79527669607E+03  0.69939823401E+03 -0.77254764131E+03  0.13109061222E+04  0.46999998093E+01 0. -1.
       -5    1    3    3    0  502  0.79527669607E+03 -0.69939823401E+03  0.12242969348E+04  0.16188106707E+04  0.46999998093E+01 0.  1.
</event>
<event>
 5   0  0.6393633E-06  0.2917321E+04  0.7818609E-02  0.8267742E-01
       -2   -1    0    0    0  501  0.00000000000E+00  0.00000000000E+00  0.13767648382E+04  0.13767648382E+04  0.25500000920E-02 0.  1.
        2   -1    0    0  501    0  0.00000000000E+00  0.00000000000E+00 -0.15454279067E+04  0.15454279067E+04  0.25500000920E-02 0. -1.
    10030    2    1    2    0    0  0.00000000000E+00  0.00000000000E+00 -0.16866306851E+03  0.29221927449E+04  0.29173212384E+04 0.  0.
        4    1    3    3  502    0 -0.29036063948E+03 -0.18571535981E+03  0.13353883001E+04  0.13791530085E+04  0.12699999809E+01 0.  1.
       -4    1    3    3    0  502  0.29036063948E+03  0.18571535981E+03 -0.15040513686E+04  0.15430397364E+04  0.12699999809E+01 0. -1.
</event>
<event>
 5   0  0.6615403E-06  0.2904769E+04  0.7818609E-02  0.8271460E-01
       -2   -1    0    0    0  501  0.00000000000E+00  0.00000000000E+00  0.15586908747E+04  0.15586908747E+04  0.25500000920E-02 0. -1.
        2   -1    0    0  501    0  0.00000000000E+00  0.00000000000E+00 -0.13533282080E+04  0.13533282080E+04  0.25500000920E-02 0.  1.
    10030    2    1    2    0    0  0.00000000000E+00  0.00000000000E+00  0.20536266671E+03  0.29120190826E+04  0.29047687193E+04 0.  0.
        2    1    3    3  502    0 -0.46720869735E+01  0.87707812480E+03  0.12632117333E+04  0.15378529671E+04  0.25500000920E-02 0. -1.
       -2    1    3    3    0  502  0.46720869735E+01 -0.87707812480E+03 -0.10578490666E+04  0.13741661155E+04  0.25500000920E-02 0.  1.
</event>
<event>
 5   0  0.6733688E-06  0.2977805E+04  0.7818609E-02  0.8250097E-01
        2   -1    0    0  501    0  0.00000000000E+00  0.00000000000E+00  0.22121164014E+04  0.22121164014E+04  0.25500000920E-02 0. -1.
       -2   -1    0    0    0  501  0.00000000000E+00  0.00000000000E+00 -0.10021311792E+04  0.10021311792E+04  0.25500000920E-02 0.  1.
    10030    2    1    2    0    0  0.00000000000E+00  0.00000000000E+00  0.12099852222E+04  0.32142475806E+04  0.29778051097E+04 0.  0.
        5    1    3    3  502    0  0.79236236316E+03  0.68716628262E+03  0.17456770834E+04  0.20365279728E+04  0.46999998093E+01 0.  1.
       -5    1    3    3    0  502 -0.79236236316E+03 -0.68716628262E+03 -0.53569186116E+03  0.11777196078E+04  0.46999998093E+01 0. -1.
</event>
<event>
 5   0  0.6733688E-06  0.2895755E+04  0.7818609E-02  0.8274142E-01
       -2   -1    0    0    0  501  0.00000000000E+00  0.00000000000E+00  0.95805682189E+03  0.95805682189E+03  0.25500000920E-02 0. -1.
        2   -1    0    0  501    0  0.00000000000E+00  0.00000000000E+00 -0.21881259026E+04  0.21881259026E+04  0.25500000920E-02 0.  1.
    10030    2    1    2    0    0  0.00000000000E+00  0.00000000000E+00 -0.12300690807E+04  0.31461827245E+04  0.28957547881E+04 0.  0.
        5    1    3    3  502    0  0.13952389074E+04  0.38054449839E+03 -0.53959539349E+03  0.15435967746E+04  0.46999998093E+01 0.  1.
       -5    1    3    3    0  502 -0.13952389074E+04 -0.38054449839E+03 -0.69047368722E+03  0.16025859499E+04  0.46999998093E+01 0. -1.
</event>
<event>
 5   0  0.2429358E-06  0.2906714E+04  0.7818609E-02  0.8270883E-01
       -1   -1    0    0    0  501  0.00000000000E+00  0.00000000000E+00  0.11929602665E+04  0.11929602665E+04  0.50400001928E-02 0.  1.
        1   -1    0    0  501    0  0.00000000000E+00  0.00000000000E+00 -0.17705925466E+04  0.17705925467E+04  0.50400001928E-02 0. -1.
    10030    2    1    2    0    0  0.00000000000E+00  0.00000000000E+00 -0.57763228013E+03  0.29635528132E+04  0.29067139910E+04 0.  0.
        2    1    3    3  502    0  0.64873159846E+03  0.10179438062E+04  0.53644634533E+03  0.13209227687E+04  0.25500000920E-02 0.  1.
       -2    1    3    3    0  502 -0.64873159846E+03 -0.10179438062E+04 -0.11140786255E+04  0.16426300445E+04  0.25500000920E-02 0. -1.
</event>
<event>
 5   0  0.2429358E-06  0.2896286E+04  0.7818609E-02  0.8273983E-01
       -1   -1    0    0    0  501  0.00000000000E+00  0.00000000000E+00  0.79627335916E+03  0.79627335917E+03  0.50400001928E-02 0. -1.
        1   -1    0    0  501    0  0.00000000000E+00  0.00000000000E+00 -0.26336651967E+04  0.26336651967E+04  0.50400001928E-02 0.  1.
    10030    2    1    2    0    0  0.00000000000E+00  0.00000000000E+00 -0.18373918375E+04  0.34299385559E+04  0.28962855060E+04 0.  0.
        2    1    3    3  502    0  0.86859240996E+03 -0.16375458158E+03 -0.22771595386E+04  0.24426878438E+04  0.25500000920E-02 0.  1.
       -2    1    3    3    0  502 -0.86859240996E+03  0.16375458158E+03  0.43976770110E+03  0.98725071211E+03  0.25500000920E-02 0. -1.
</event>
<event>
 5   0  0.2429358E-06  0.2889401E+04  0.7818609E-02  0.8276038E-01
       -1   -1    0    0    0  501  0.00000000000E+00  0.00000000000E+00  0.17894106655E+04  0.17894106655E+04  0.50400001928E-02 0.  1.
        1   -1    0    0  501    0  0.00000000000E+00  0.00000000000E+00 -0.11663950175E+04  0.11663950176E+04  0.50400001928E-02 0. -1.
    10030    2    1    2    0    0  0.00000000000E+00  0.00000000000E+00  0.62301564798E+03  0.29558056831E+04  0.28894011038E+04 0.  0.
        2    1    3    3  502    0  0.65944554842E+03 -0.12270572559E+03 -0.99744350070E+03  0.12020060996E+04  0.25500000920E-02 0. -1.
       -2    1    3    3    0  502 -0.65944554842E+03  0.12270572559E+03  0.16204591487E+04  0.17537995835E+04  0.25500000920E-02 0.  1.
</event>
<event>
 5   0  0.2348684E-06  0.2950705E+04  0.7818609E-02  0.8257949E-01
       -1   -1    0    0    0  501  0.00000000000E+00  0.00000000000E+00  0.91937702542E+03  0.91937702543E+03  0.50400001928E-02 0. -1.
        1   -1    0    0  501    0  0.00000000000E+00  0.00000000000E+00 -0.23675429305E+04  0.23675429305E+04  0.50400001928E-02 0.  1.
    10030    2    1    2    0    0  0.00000000000E+00  0.00000000000E+00 -0.14481659051E+04  0.32869199560E+04  0.29507047138E+04 0.  0.
        5    1    3    3  502    0  0.13825028767E+04 -0.27674639080E+03 -0.12080268621E+04  0.18566781516E+04  0.46999998093E+01 0.  1.
       -5    1    3    3    0  502 -0.13825028767E+04  0.27674639080E+03 -0.24013904299E+03  0.14302418044E+04  0.46999998093E+01 0. -1.
</event>
<event>
 5   0  0.6612533E-06  0.2902314E+04  0.7818609E-02  0.8272189E-01
        2   -1    0    0  501    0  0.00000000000E+00  0.00000000000E+00  0.25797705943E+04  0.25797705943E+04  0.25500000920E-02 0. -1.
       -2   -1    0    0    0  501  0.00000000000E+00  0.00000000000E+00 -0.81629609896E+03  0.81629609897E+03  0.25500000920E-02 0.  1.
    10030    2    1    2    0    0  0.00000000000E+00  0.00000000000E+00  0.17634744953E+04  0.33960666933E+04  0.29023140232E+04 0.  0.
        3    1    3    3  502    0  0.84104593055E+03  0.23408086198E+03 -0.47465002158E+03  0.99370255128E+03  0.10100000352E+00 0.  1.
       -3    1    3    3    0  502 -0.84104593055E+03 -0.23408086198E+03  0.22381245169E+04  0.24023641420E+04  0.10100000352E+00 0. -1.
</event>
<event>
 5   0  0.2474769E-06  0.2885692E+04  0.7818609E-02  0.8277147E-01
        1   -1    0    0  501    0  0.00000000000E+00  0.00000000000E+00  0.18418878524E+04  0.18418878524E+04  0.50400001928E-02 0. -1.
       -1   -1    0    0    0  501  0.00000000000E+00  0.00000000000E+00 -0.11302558181E+04  0.11302558181E+04  0.50400001928E-02 0.  1.
    10030    2    1    2    0    0  0.00000000000E+00  0.00000000000E+00  0.71163203432E+03  0.29721436705E+04  0.28856919181E+04 0.  0.
        1    1    3    3  502    0 -0.11397556949E+04  0.81592358408E+03  0.70816146525E+03  0.15704352900E+04  0.50400001928E-02 0.  1.
       -1    1    3    3    0  502  0.11397556949E+04 -0.81592358408E+03  0.34705690729E+01  0.14017083805E+04  0.50400001928E-02 0. -1.
</event>
<event>
 5   0  0.2429358E-06  0.2919702E+04  0.7818609E-02  0.8267040E-01
        1   -1    0    0  501    0  0.00000000000E+00  0.00000000000E+00  0.14309094106E+04  0.14309094106E+04  0.50400001928E-02 0. -1.
       -1   -1    0    0    0  501  0.00000000000E+00  0.00000000000E+00 -0.14893776685E+04  0.14893776685E+04  0.50400001928E-02 0.  1.
    10030    2    1    2    0    0  0.00000000000E+00  0.00000000000E+00 -0.58468257973E+02  0.29202870791E+04  0.29197017120E+04 0.  0.
        2    1    3    3  502    0  0.10029289850E+04  0.73236087324E+03  0.73834759409E+03  0.14447754730E+04  0.25500000920E-02 0. -1.
       -2    1    3    3    0  502 -0.10029289850E+04 -0.73236087324E+03 -0.79681585207E+03  0.14755116061E+04  0.25500000920E-02 0.  1.
</event>
<event>
 5   0  0.2348684E-06  0.2898589E+04  0.7818609E-02  0.8273297E-01
        1   -1    0    0  501    0  0.00000000000E+00  0.00000000000E+00  0.15407730866E+04  0.15407730866E+04  0.50400001928E-02 0.  1.
       -1   -1    0    0    0  501  0.00000000000E+00  0.00000000000E+00 -0.13632468852E+04  0.13632468852E+04  0.50400001928E-02 0. -1.
    10030    2    1    2    0    0  0.00000000000E+00  0.00000000000E+00  0.17752620140E+03  0.29040199718E+04  0.28985886988E+04 0.  0.
        5    1    3    3  502    0  0.11589884769E+04  0.37662924266E+03  0.87466148214E+03  0.15000528905E+04  0.46999998093E+01 0.  1.
       -5    1    3    3    0  502 -0.11589884769E+04 -0.37662924266E+03 -0.69713528074E+03  0.14039670814E+04  0.46999998093E+01 0. -1.
</event>
<event>
 5   0  0.6615403E-06  0.2921399E+04  0.7818609E-02  0.8266539E-01
        2   -1    0    0  501    0  0.00000000000E+00  0.00000000000E+00  0.22229252553E+04  0.22229252553E+04  0.25500000920E-02 0. -1.
       -2   -1    0    0    0  501  0.00000000000E+00  0.00000000000E+00 -0.95983576532E+03  0.95983576533E+03  0.25500000920E-02 0.  1.
    10030    2    1    2    0    0  0.00000000000E+00  0.00000000000E+00  0.12630894900E+04  0.31827610206E+04  0.29213990920E+04 0.  0.
        2    1    3    3  502    0  0.56926049815E+03  0.12940341218E+04  0.23115894310E+03  0.14324860489E+04  0.25500000920E-02 0.  1.
       -2    1    3    3    0  502 -0.56926049815E+03 -0.12940341218E+04  0.10319305469E+04  0.17502749718E+04  0.25500000920E-02 0. -1.
</event>
<event>
 5   0  0.6393633E-06  0.2922637E+04  0.7818609E-02  0.8266174E-01
        2   -1    0    0  501    0  0.00000000000E+00  0.00000000000E+00  0.94281544163E+03  0.94281544163E+03  0.25500000920E-02 0.  1.
       -2   -1    0    0    0  501  0.00000000000E+00  0.00000000000E+00 -0.22649739651E+04  0.22649739651E+04  0.25500000920E-02 0. -1.
    10030    2    1    2    0    0  0.00000000000E+00  0.00000000000E+00 -0.13221585235E+04  0.32077894067E+04  0.29226374590E+04 0.  0.
        4    1    3    3  502    0 -0.19494254276E+03 -0.54853863211E+03  0.81005053142E+03  0.99753731872E+03  0.12699999809E+01 0.  1.
       -4    1    3    3    0  502  0.19494254276E+03  0.54853863211E+03 -0.21322090549E+04  0.22102520880E+04  0.12699999809E+01 0. -1.
</event>
<event>
 5   0  0.2508094E-06  0.2823911E+04  0.7818609E-02  0.8295883E-01
       -1   -1    0    0    0  501  0.00000000000E+00  0.00000000000E+00  0.10283787243E+04  0.10283787243E+04  0.50400001928E-02 0. -1.
        1   -1    0    0  501    0  0.00000000000E+00  0.00000000000E+00 -0.19386031654E+04  0.19386031655E+04  0.50400001928E-02 0.  1.
    10030    2    1    2    0    0  0.00000000000E+00  0.00000000000E+00 -0.91022444111E+03  0.29669818898E+04  0.28239109407E+04 0.  0.
        3    1    3    3  502    0 -0.10845071822E+04 -0.60260465723E+03 -0.11633019522E+04  0.17007526696E+04  0.10100000352E+00 0. -1.
       -3    1    3    3    0  502  0.10845071822E+04  0.60260465723E+03  0.25307751107E+03  0.12662292201E+04  0.10100000352E+00 0.  1.
</event>
<event>
 5   0  0.6615403E-06  0.2758990E+04  0.7818609E-02  0.8316114E-01
       -2   -1    0    0    0  501  0.00000000000E+00  0.00000000000E+00  0.10374764749E+04  0.10374764749E+04  0.25500000920E-02 0. -1.
        2   -1    0    0  501    0  0.00000000000E+00  0.00000000000E+00 -0.18342651691E+04  0.18342651691E+04  0.25500000920E-02 0.  1.
    10030    2    1    2    0    0  0.00000000000E+00  0.00000000000E+00 -0.79678869417E+03  0.28717416439E+04  0.27589903672E+04 0.  0.
        2    1    3    3  502    0 -0.48868286233E+03 -0.10597166375E+03  0.93982451177E+03  0.10645708273E+04  0.25500000920E-02 0. -1.
       -2    1    3    3    0  502  0.48868286233E+03  0.10597166375E+03 -0.17366132059E+04  0.18071708166E+04  0.25500000920E-02 0.  1.
</event>
<event>
 5   0  0.2348684E-06  0.2904662E+04  0.7818609E-02  0.8271492E-01
       -1   -1    0    0    0  501  0.00000000000E+00  0.00000000000E+00  0.12844054014E+04  0.12844054014E+04  0.50400001928E-02 0. -1.
        1   -1    0    0  501    0  0.00000000000E+00  0.00000000000E+00 -0.16422119244E+04  0.16422119244E+04  0.50400001928E-02 0.  1.
    10030    2    1    2    0    0  0.00000000000E+00  0.00000000000E+00 -0.35780652303E+03  0.29266173258E+04  0.29046623665E+04 0.  0.
        5    1    3    3  502    0  0.29231765457E+03 -0.75243703341E+03  0.10375469241E+04  0.13145861745E+04  0.46999998093E+01 0. -1.
       -5    1    3    3    0  502 -0.29231765457E+03  0.75243703341E+03 -0.13953534471E+04  0.16120311513E+04  0.46999998093E+01 0.  1.
</event>
<event>
 5   0  0.2336512E-06  0.2868531E+04  0.7818609E-02  0.8282302E-01
       -1   -1    0    0    0  501  0.00000000000E+00  0.00000000000E+00  0.83601227877E+03  0.83601227878E+03  0.50400001928E-02 0.  1.
        1   -1    0    0  501    0  0.00000000000E+00  0.00000000000E+00 -0.24606310402E+04  0.24606310403E+04  0.50400001928E-02 0. -1.
    10030    2    1    2    0    0  0.00000000000E+00  0.00000000000E+00 -0.16246187615E+04  0.32966433190E+04  0.28685311664E+04 0.  0.
        4    1    3    3  502    0  0.12761156593E+04  0.48308394847E+03 -0.13201595137E+04  0.18985952785E+04  0.12699999809E+01 0. -1.
       -4    1    3    3    0  502 -0.12761156593E+04 -0.48308394847E+03 -0.30445924783E+03  0.13980480405E+04  0.12699999809E+01 0.  1.
</event>
<event>
 5   0  0.2429358E-06  0.2871326E+04  0.7818609E-02  0.8281460E-01
        1   -1    0    0  501    0  0.00000000000E+00  0.00000000000E+00  0.15712723776E+04  0.15712723777E+04  0.50400001928E-02 0.  1.
       -1   -1    0    0    0  501  0.00000000000E+00  0.00000000000E+00 -0.13117573426E+04  0.13117573427E+04  0.50400001928E-02 0. -1.
    10030    2    1    2    0    0  0.00000000000E+00  0.00000000000E+00  0.25951503500E+03  0.28830297203E+04  0.28713258810E+04 0.  0.
        2    1    3    3  502    0 -0.52446438680E+03  0.10354279138E+04  0.97815977735E+03  0.15178835291E+04  0.25500000920E-02 0.  1.
       -2    1    3    3    0  502  0.52446438680E+03 -0.10354279138E+04 -0.71864474234E+03  0.13651461912E+04  0.25500000920E-02 0. -1.
</event>
<event>
 5   0  0.2348684E-06  0.2895852E+04  0.7818609E-02  0.8274113E-01
        1   -1    0    0  501    0  0.00000000000E+00  0.00000000000E+00  0.14372235145E+04  0.14372235145E+04  0.50400001928E-02 0.  1.
       -1   -1    0    0    0  501  0.00000000000E+00  0.00000000000E+00 -0.14587082997E+04  0.14587082997E+04  0.50400001928E-02 0. -1.
    10030    2    1    2    0    0  0.00000000000E+00  0.00000000000E+00 -0.21484785165E+02  0.28959318143E+04  0.28958521158E+04 0.  0.
        5    1    3    3  502    0 -0.31680335118E+03  0.13850808793E+04  0.26793062031E+03  0.14458984448E+04  0.46999998093E+01 0.  1.
       -5    1    3    3    0  502  0.31680335118E+03 -0.13850808793E+04 -0.28941540548E+03  0.14500333694E+04  0.46999998093E+01 0. -1.
</event>
<event>
 5   0  0.2474769E-06  0.2892432E+04  0.7818609E-02  0.8275133E-01
       -1   -1    0    0    0  501  0.00000000000E+00  0.00000000000E+00  0.12497092234E+04  0.12497092234E+04  0.50400001928E-02 0. -1.
        1   -1    0    0  501    0  0.00000000000E+00  0.00000000000E+00 -0.16736215906E+04  0.16736215906E+04  0.50400001928E-02 0.  1.
    10030    2    1    2    0    0  0.00000000000E+00  0.00000000000E+00 -0.42391236724E+03  0.29233308140E+04  0.28924317370E+04 0.  0.
        1    1    3    3  502    0 -0.71089274249E+03  0.62262247567E+03  0.89450514274E+03  0.13012173873E+04  0.50400001928E-02 0. -1.
       -1    1    3    3    0  502  0.71089274249E+03 -0.62262247567E+03 -0.13184175100E+04  0.16221134267E+04  0.50400001928E-02 0.  1.
</event>
<event>
 5   0  0.6612533E-06  0.2868457E+04  0.7818609E-02  0.8282325E-01
       -2   -1    0    0    0  501  0.00000000000E+00  0.00000000000E+00  0.82902395078E+03  0.82902395079E+03  0.25500000920E-02 0. -1.
        2   -1    0    0  501    0  0.00000000000E+00  0.00000000000E+00 -0.24812446741E+04  0.24812446741E+04  0.25500000920E-02 0.  1.
    10030    2    1    2    0    0  0.00000000000E+00  0.00000000000E+00 -0.16522207233E+04  0.33102686249E+04  0.28684569110E+04 0.  0.
        3    1    3    3  502    0  0.20033437367E+01  0.25174460883E+03  0.80332596184E+03  0.84185032674E+03  0.10100000352E+00 0. -1.
       -3    1    3    3    0  502 -0.20033437367E+01 -0.25174460883E+03 -0.24555466852E+04  0.24684182981E+04  0.10100000352E+00 0.  1.
</event>
<event>
 5   0  0.6612533E-06  0.2780254E+04  0.7818609E-02  0.8309425E-01
        2   -1    0    0  501    0  0.00000000000E+00  0.00000000000E+00  0.17186043196E+04  0.17186043196E+04  0.25500000920E-02 0. -1.
       -2   -1    0    0    0  501  0.00000000000E+00  0.00000000000E+00 -0.11244317789E+04  0.11244317789E+04  0.25500000920E-02 0.  1.
    10030    2    1    2    0    0  0.00000000000E+00  0.00000000000E+00  0.59417254071E+03  0.28430360984E+04  0.27802541698E+04 0.  0.
        3    1    3    3  502    0 -0.85167312971E+01  0.13870967288E+04  0.39049129616E+03  0.14410389767E+04  0.10100000352E+00 0. -1.
       -3    1    3    3    0  502  0.85167312971E+01 -0.13870967288E+04  0.20368124455E+03  0.14019971217E+04  0.10100000352E+00 0.  1.
</event>
<event>
 5   0  0.2348684E-06  0.2920511E+04  0.7818609E-02  0.8266801E-01
        1   -1    0    0  501    0  0.00000000000E+00  0.00000000000E+00  0.18217817439E+04  0.18217817439E+04  0.50400001928E-02 0. -1.
       -1   -1    0    0    0  501  0.00000000000E+00  0.00000000000E+00 -0.11704729696E+04  0.11704729696E+04  0.50400001928E-02 0.  1.
    10030    2    1    2    0    0  0.00000000000E+00  0.00000000000E+00  0.65130877435E+03  0.29922547135E+04  0.29205111113E+04 0.  0.
        5    1    3    3  502    0  0.19125542177E+03 -0.71097547605E+03 -0.96637885385E+03  0.12148970916E+04  0.46999998093E+01 0.  1.
       -5    1    3    3    0  502 -0.19125542177E+03  0.71097547605E+03  0.16176876282E+04  0.17773576220E+04  0.46999998093E+01 0. -1.
</event>
<event>
 5   0  0.2508094E-06  0.2956592E+04  0.7818609E-02  0.8256236E-01
       -1   -1    0    0    0  501  0.00000000000E+00  0.00000000000E+00  0.12832061418E+04  0.12832061418E+04  0.50400001928E-02 0. -1.
        1   -1    0    0  501    0  0.00000000000E+00  0.00000000000E+00 -0.17030455380E+04  0.17030455380E+04  0.50400001928E-02 0.  1.
    10030    2    1    2    0    0  0.00000000000E+00  0.00000000000E+00 -0.41983939613E+03  0.29862516798E+04  0.29565916148E+04 0.  0.
        3    1    3    3  502    0  0.10247350451E+04  0.73382290530E+03  0.57034576413E+03  0.13834277248E+04  0.10100000352E+00 0. -1.
       -3    1    3    3    0  502 -0.10247350451E+04 -0.73382290530E+03 -0.99018516027E+03  0.16028239550E+04  0.10100000352E+00 0.  1.
</event>
<event>
 5   0  0.2508094E-06  0.2616460E+04  0.7818609E-02  0.8362632E-01
        1   -1    0    0  501    0  0.00000000000E+00  0.00000000000E+00  0.13568500481E+04  0.13568500482E+04  0.50400001928E-02 0.  1.
       -1   -1    0    0    0  501  0.00000000000E+00  0.00000000000E+00 -0.12613522069E+04  0.12613522069E+04  0.50400001928E-02 0. -1.
    10030    2    1    2    0    0  0.00000000000E+00  0.00000000000E+00  0.95497841241E+02  0.26182022551E+04  0.26164600534E+04 0.  0.
        3    1    3    3  502    0 -0.41265563664E+03 -0.82329434688E+03  0.97754335315E+03  0.13430149938E+04  0.10100000352E+00 0. -1.
       -3    1    3    3    0  502  0.41265563664E+03  0.82329434688E+03 -0.88204551191E+03  0.12751872613E+04  0.10100000352E+00 0.  1.
</event>
<event>
 5   0  0.6615403E-06  0.2714613E+04  0.7818609E-02  0.8330279E-01
        2   -1    0    0  501    0  0.00000000000E+00  0.00000000000E+00  0.11119582074E+04  0.11119582074E+04  0.25500000920E-02 0.  1.
       -2   -1    0    0    0  501  0.00000000000E+00  0.00000000000E+00 -0.16567896604E+04  0.16567896604E+04  0.25500000920E-02 0. -1.
    10030    2    1    2    0    0  0.00000000000E+00  0.00000000000E+00 -0.54483145300E+03  0.27687478679E+04  0.27146129455E+04 0.  0.
        2    1    3    3  502    0 -0.51768651069E+03  0.12084966479E+04  0.71680415933E+02  0.13166630371E+04  0.25500000920E-02 0.  1.
       -2    1    3    3    0  502  0.51768651069E+03 -0.12084966479E+04 -0.61651186894E+03  0.14520848308E+04  0.25500000920E-02 0. -1.
</event>
<event>
 5   0  0.6615403E-06  0.2908613E+04  0.7818609E-02  0.8270319E-01
       -2   -1    0    0    0  501  0.00000000000E+00  0.00000000000E+00  0.97228918816E+03  0.97228918816E+03  0.25500000920E-02 0. -1.
        2   -1    0    0  501    0  0.00000000000E+00  0.00000000000E+00 -0.21752869165E+04  0.21752869165E+04  0.25500000920E-02 0.  1.
    10030    2    1    2    0    0  0.00000000000E+00  0.00000000000E+00 -0.12029977283E+04  0.31475761047E+04  0.29086133810E+04 0.  0.
        2    1    3    3  502    0  0.72847173172E+02  0.13409618458E+04 -0.12054961663E+04  0.18046346969E+04  0.25500000920E-02 0.  1.
       -2    1    3    3    0  502 -0.72847173172E+02 -0.13409618458E+04  0.24984379168E+01  0.13429414077E+04  0.25500000920E-02 0. -1.
</event>
<event>
 5   0  0.2336512E-06  0.2857964E+04  0.7818609E-02  0.8285495E-01
       -1   -1    0    0    0  501  0.00000000000E+00  0.00000000000E+00  0.12433896414E+04  0.12433896414E+04  0.50400001928E-02 0.  1.
        1   -1    0    0  501    0  0.00000000000E+00  0.00000000000E+00 -0.16422765765E+04  0.16422765765E+04  0.50400001928E-02 0. -1.
    10030    2    1    2    0    0  0.00000000000E+00  0.00000000000E+00 -0.39888693505E+03  0.28856662179E+04  0.28579640891E+04 0.  0.
        4    1    3    3  502    0 -0.77111245295E+03 -0.88967774634E+03  0.61825022926E+03  0.13298029427E+04  0.12699999809E+01 0.  1.
       -4    1    3    3    0  502  0.77111245295E+03  0.88967774634E+03 -0.10171371643E+04  0.15558632753E+04  0.12699999809E+01 0. -1.
</event>
<event>
 5   0  0.6513041E-06  0.2871927E+04  0.7818609E-02  0.8281279E-01
       -2   -1    0    0    0  501  0.00000000000E+00  0.00000000000E+00  0.84755757293E+03  0.84755757293E+03  0.25500000920E-02 0. -1.
        2   -1    0    0  501    0  0.00000000000E+00  0.00000000000E+00 -0.24328622756E+04  0.24328622756E+04  0.25500000920E-02 0.  1.
    10030    2    1    2    0    0  0.00000000000E+00  0.00000000000E+00 -0.15853047027E+04  0.32804198486E+04  0.28719267718E+04 0.  0.
        1    1    3    3  502    0  0.81067273436E+03  0.71613180854E+03  0.28611485277E+03  0.11188819234E+04  0.50400001928E-02 0. -1.
       -1    1    3    3    0  502 -0.81067273436E+03 -0.71613180854E+03 -0.18714195555E+04  0.21615379252E+04  0.50400001928E-02 0.  1.
</event>
<event>
 5   0  0.6733688E-06  0.2915842E+04  0.7818609E-02  0.8268180E-01
       -2   -1    0    0    0  501  0.00000000000E+00  0.00000000000E+00  0.14736011002E+04  0.14736011002E+04  0.25500000920E-02 0. -1.
        2   -1    0    0  501    0  0.00000000000E+00  0.00000000000E+00 -0.14424079498E+04  0.14424079498E+04  0.25500000920E-02 0.  1.
    10030    2    1    2    0    0  0.00000000000E+00  0.00000000000E+00  0.31193150321E+02  0.29160090500E+04  0.29158422055E+04 0.  0.
        5    1    3    3  502    0 -0.57827755084E+02 -0.44137490953E+03  0.14039684867E+04  0.14728562257E+04  0.46999998093E+01 0. -1.
       -5    1    3    3    0  502  0.57827755084E+02  0.44137490953E+03 -0.13727753364E+04  0.14431528243E+04  0.46999998093E+01 0.  1.
</event>
<event>
 5   0  0.6733688E-06  0.2913166E+04  0.7818609E-02  0.8268971E-01
        2   -1    0    0  501    0  0.00000000000E+00  0.00000000000E+00  0.16513937328E+04  0.16513937328E+04  0.25500000920E-02 0. -1.
       -2   -1    0    0    0  501  0.00000000000E+00  0.00000000000E+00 -0.12847533552E+04  0.12847533552E+04  0.25500000920E-02 0.  1.
    10030    2    1    2    0    0  0.00000000000E+00  0.00000000000E+00  0.36664037757E+03  0.29361470880E+04  0.29131657275E+04 0.  0.
        5    1    3    3  502    0  0.68884033496E+03 -0.31271302058E+03 -0.10712164084E+04  0.13114179822E+04  0.46999998093E+01 0.  1.
       -5    1    3    3    0  502 -0.68884033496E+03  0.31271302058E+03  0.14378567860E+04  0.16247291058E+04  0.46999998093E+01 0. -1.
</event>
<event>
 5   0  0.6615403E-06  0.2951104E+04  0.7818609E-02  0.8257833E-01
       -2   -1    0    0    0  501  0.00000000000E+00  0.00000000000E+00  0.93998176874E+03  0.93998176874E+03  0.25500000920E-02 0. -1.
        2   -1    0    0  501    0  0.00000000000E+00  0.00000000000E+00 -0.23162715896E+04  0.23162715896E+04  0.25500000920E-02 0.  1.
    10030    2    1    2    0    0  0.00000000000E+00  0.00000000000E+00 -0.13762898209E+04  0.32562533584E+04  0.29511035669E+04 0.  0.
        2    1    3    3  502    0  0.90218653579E+03  0.11400377069E+04 -0.40981946304E+03  0.15104894937E+04  0.25500000920E-02 0. -1.
       -2    1    3    3    0  502 -0.90218653579E+03 -0.11400377069E+04 -0.96647035784E+03  0.17457638646E+04  0.25500000920E-02 0.  1.
</event>
<event>
 5   0  0.2348684E-06  0.2405744E+04  0.7818609E-02  0.8437356E-01
       -1   -1    0    0    0  501  0.00000000000E+00  0.00000000000E+00  0.17120338230E+04  0.17120338230E+04  0.50400001928E-02 0. -1.
        1   -1    0    0  501    0  0.00000000000E+00  0.00000000000E+00 -0.84513588624E+03  0.84513588625E+03  0.50400001928E-02 0.  1.
    10030    2    1    2    0    0  0.00000000000E+00  0.00000000000E+00  0.86689793673E+03  0.25571697092E+04  0.24057441446E+04 0.  0.
        5    1    3    3  502    0 -0.97740347214E+03  0.51110291132E+03  0.94359023678E+03  0.14515262169E+04  0.46999998093E+01 0. -1.
       -5    1    3    3    0  502  0.97740347214E+03 -0.51110291132E+03 -0.76692300050E+02  0.11056434924E+04  0.46999998093E+01 0.  1.
</event>
<event>
 5   0  0.6612533E-06  0.2841315E+04  0.7818609E-02  0.8290555E-01
        2   -1    0    0  501    0  0.00000000000E+00  0.00000000000E+00  0.17619334992E+04  0.17619334992E+04  0.25500000920E-02 0. -1.
       -2   -1    0    0    0  501  0.00000000000E+00  0.00000000000E+00 -0.11454848025E+04  0.11454848025E+04  0.25500000920E-02 0.  1.
    10030    2    1    2    0    0  0.00000000000E+00  0.00000000000E+00  0.61644869678E+03  0.29074183017E+04  0.28413152210E+04 0.  0.
        3    1    3    3  502    0 -0.76634619843E+03 -0.13829093151E+03  0.15240840995E+04  0.17115032077E+04  0.10100000352E+00 0. -1.
       -3    1    3    3    0  502  0.76634619843E+03  0.13829093151E+03 -0.90763540269E+03  0.11959150940E+04  0.10100000352E+00 0.  1.
</event>
<event>
 5   0  0.2508094E-06  0.2932059E+04  0.7818609E-02  0.8263403E-01
        1   -1    0    0  501    0  0.00000000000E+00  0.00000000000E+00  0.13410777342E+04  0.13410777342E+04  0.50400001928E-02 0.  1.
       -1   -1    0    0    0  501  0.00000000000E+00  0.00000000000E+00 -0.16026228371E+04  0.16026228371E+04  0.50400001928E-02 0. -1.
    10030    2    1    2    0    0  0.00000000000E+00  0.00000000000E+00 -0.26154510284E+03  0.29437005713E+04  0.29320585282E+04 0.  0.
        3    1    3    3  502    0 -0.71146600001E+03 -0.27263852254E+03  0.11266885702E+04  0.13601260153E+04  0.10100000352E+00 0.  1.
       -3    1    3    3    0  502  0.71146600001E+03  0.27263852254E+03 -0.13882336731E+04  0.15835745560E+04  0.10100000352E+00 0. -1.
</event>
<event>
 5   0  0.6393633E-06  0.2914489E+04  0.7818609E-02  0.8268580E-01
        2   -1    0    0  501    0  0.00000000000E+00  0.00000000000E+00  0.19974727330E+04  0.19974727330E+04  0.25500000920E-02 0.  1.
       -2   -1    0    0    0  501  0.00000000000E+00  0.00000000000E+00 -0.10631240626E+04  0.10631240626E+04  0.25500000920E-02 0. -1.
    10030    2    1    2    0    0  0.00000000000E+00  0.00000000000E+00  0.93434867036E+03  0.30605967956E+04  0.29144888587E+04 0.  0.
        4    1    3    3  502    0 -0.77454916178E+03  0.10508647073E+04 -0.21283486327E+03  0.13227030389E+04  0.12699999809E+01 0. -1.
       -4    1    3    3    0  502  0.77454916178E+03 -0.10508647073E+04  0.11471835336E+04  0.17378937568E+04  0.12699999809E+01 0.  1.
</event>
<event>
 5   0  0.2429358E-06  0.2907222E+04  0.7818609E-02  0.8270732E-01
       -1   -1    0    0    0  501  0.00000000000E+00  0.00000000000E+00  0.10747655354E+04  0.10747655354E+04  0.50400001928E-02 0.  1.
        1   -1    0    0  501    0  0.00000000000E+00  0.00000000000E+00 -0.19659965597E+04  0.19659965597E+04  0.50400001928E-02 0. -1.
    10030    2    1    2    0    0  0.00000000000E+00  0.00000000000E+00 -0.89123102431E+03  0.30407620951E+04  0.29072222792E+04 0.  0.
        2    1    3    3  502    0  0.12248034267E+04 -0.62607243080E+03  0.45945811290E+02  0.13763070661E+04  0.25500000920E-02 0.  1.
       -2    1    3    3    0  502 -0.12248034267E+04  0.62607243080E+03 -0.93717683560E+03  0.16644550291E+04  0.25500000920E-02 0. -1.
</event>
<event>
 5   0  0.2474769E-06  0.2916904E+04  0.7818609E-02  0.8267866E-01
        1   -1    0    0  501    0  0.00000000000E+00  0.00000000000E+00  0.21421424527E+04  0.21421424527E+04  0.50400001928E-02 0. -1.
       -1   -1    0    0    0  501  0.00000000000E+00  0.00000000000E+00 -0.99296935606E+03  0.99296935608E+03  0.50400001928E-02 0.  1.
    10030    2    1    2    0    0  0.00000000000E+00  0.00000000000E+00  0.11491730966E+04  0.31351118088E+04  0.29169037090E+04 0.  0.
        1    1    3    3  502    0  0.50874700482E+03 -0.46414715440E+03 -0.80721117194E+03  0.10610588919E+04  0.50400001928E-02 0.  1.
       -1    1    3    3    0  502 -0.50874700482E+03  0.46414715440E+03  0.19563842686E+04  0.20740529169E+04  0.50400001928E-02 0. -1.
</event>
<event>
 5   0  0.6733688E-06  0.2902458E+04  0.7818609E-02  0.8272146E-01
        2   -1    0    0  501    0  0.00000000000E+00  0.00000000000E+00  0.11097830555E+04  0.11097830555E+04  0.25500000920E-02 0. -1.
       -2   -1    0    0    0  501  0.00000000000E+00  0.00000000000E+00 -0.18977276291E+04  0.18977276291E+04  0.25500000920E-02 0.  1.
    10030    2    1    2    0    0  0.00000000000E+00  0.00000000000E+00 -0.78794457361E+03  0.30075106845E+04  0.29024582454E+04 0.  0.
        5    1    3    3  502    0 -0.10554852712E+04 -0.92259293148E+03 -0.51342473006E+01  0.14018827787E+04  0.46999998093E+01 0. -1.
       -5    1    3    3    0  502  0.10554852712E+04  0.92259293148E+03 -0.78281032631E+03  0.16056279058E+04  0.46999998093E+01 0.  1.
</event>
<event>
 5   0  0.2348684E-06  0.2909734E+04  0.7818609E-02  0.8269987E-01
       -1   -1    0    0    0  501  0.00000000000E+00  0.00000000000E+00  0.98045999986E+03  0.98045999988E+03  0.50400001928E-02 0. -1.
        1   -1    0    0  501    0  0.00000000000E+00  0.00000000000E+00 -0.21588219614E+04  0.21588219614E+04  0.50400001928E-02 0.  1.
    10030    2    1    2    0    0  0.00000000000E+00  0.00000000000E+00 -0.11783619615E+04  0.31392819613E+04  0.29097344071E+04 0.  0.
        5    1    3    3  502    0 -0.45295627738E+03 -0.63365628147E+03 -0.19149104931E+04  0.20672672684E+04  0.46999998093E+01 0.  1.
       -5    1    3    3    0  502  0.45295627738E+03  0.63365628147E+03  0.73654853163E+03  0.10720146929E+04  0.46999998093E+01 0. -1.
</event>
<event>
 5   0  0.6612533E-06  0.2852420E+04  0.7818609E-02  0.8287176E-01
       -2   -1    0    0    0  501  0.00000000000E+00  0.00000000000E+00  0.14511119230E+04  0.14511119231E+04  0.25500000920E-02 0. -1.
        2   -1    0    0  501    0  0.00000000000E+00  0.00000000000E+00 -0.14017356366E+04  0.14017356366E+04  0.25500000920E-02 0.  1.
    10030    2    1    2    0    0  0.00000000000E+00  0.00000000000E+00  0.49376286480E+02  0.28528475596E+04  0.28524202321E+04 0.  0.
        3    1    3    3  502    0 -0.53333406915E+02  0.71744910053E+03  0.12563342104E+04  0.14477407650E+04  0.10100000352E+00 0. -1.
       -3    1    3    3    0  502  0.53333406915E+02 -0.71744910053E+03 -0.12069579239E+04  0.14051067947E+04  0.10100000352E+00 0.  1.
</event>
<event>
 5   0  0.6513041E-06  0.2891935E+04  0.7818609E-02  0.8275281E-01
        2   -1    0    0  501    0  0.00000000000E+00  0.00000000000E+00  0.16637704953E+04  0.16637704953E+04  0.25500000920E-02 0.  1.
       -2   -1    0    0    0  501  0.00000000000E+00  0.00000000000E+00 -0.12566766888E+04  0.12566766888E+04  0.25500000920E-02 0. -1.
    10030    2    1    2    0    0  0.00000000000E+00  0.00000000000E+00  0.40709380651E+03  0.29204471841E+04  0.28919347136E+04 0.  0.
        1    1    3    3  502    0  0.42545848728E+03 -0.81901128773E+03 -0.92054362745E+03  0.13035317349E+04  0.50400001928E-02 0. -1.
       -1    1    3    3    0  502 -0.42545848728E+03  0.81901128773E+03  0.13276374340E+04  0.16169154492E+04  0.50400001928E-02 0.  1.
</event>
<event>
 5   0  0.2429358E-06  0.2923659E+04  0.7818609E-02  0.8265873E-01
       -1   -1    0    0    0  501  0.00000000000E+00  0.00000000000E+00  0.19155927033E+04  0.19155927033E+04  0.50400001928E-02 0.  1.
        1   -1    0    0  501    0  0.00000000000E+00  0.00000000000E+00 -0.11155528079E+04  0.11155528079E+04  0.50400001928E-02 0. -1.
    10030    2    1    2    0    0  0.00000000000E+00  0.00000000000E+00  0.80003989547E+03  0.30311455112E+04  0.29236585430E+04 0.  0.
        2    1    3    3  502    0 -0.37879073574E+03  0.11710892793E+04 -0.41765298421E+03  0.12997563375E+04  0.25500000920E-02 0. -1.
       -2    1    3    3    0  502  0.37879073574E+03 -0.11710892793E+04  0.12176928797E+04  0.17313891737E+04  0.25500000920E-02 0.  1.
</event>
<event>
 5   0  0.2429358E-06  0.2907085E+04  0.7818609E-02  0.8270773E-01
       -1   -1    0    0    0  501  0.00000000000E+00  0.00000000000E+00  0.79675578911E+03  0.79675578913E+03  0.50400001928E-02 0.  1.
        1   -1    0    0  501    0  0.00000000000E+00  0.00000000000E+00 -0.26517363559E+04  0.26517363559E+04  0.50400001928E-02 0. -1.
    10030    2    1    2    0    0  0.00000000000E+00  0.00000000000E+00 -0.18549805668E+04  0.34484921450E+04  0.29070853395E+04 0.  0.
        2    1    3    3  502    0 -0.65420806726E+03 -0.53953421087E+03 -0.23279036762E+04  0.24775433166E+04  0.25500000920E-02 0. -1.
       -2    1    3    3    0  502  0.65420806726E+03  0.53953421087E+03  0.47292310943E+03  0.97094882842E+03  0.25500000920E-02 0.  1.
</event>
<event>
 5   0  0.6612533E-06  0.2895342E+04  0.7818609E-02  0.8274265E-01
       -2   -1    0    0    0  501  0.00000000000E+00  0.00000000000E+00  0.11660732926E+04  0.11660732926E+04  0.25500000920E-02 0.  1.
        2   -1    0    0  501    0  0.00000000000E+00  0.00000000000E+00 -0.17972726159E+04  0.17972726159E+04  0.25500000920E-02 0. -1.
    10030    2    1    2    0    0  0.00000000000E+00  0.00000000000E+00 -0.63119932333E+03  0.29633459086E+04  0.28953421884E+04 0.  0.
        3    1    3    3  502    0  0.32734002360E+03  0.73349055819E+03  0.91709366332E+03  0.12191065120E+04  0.10100000352E+00 0.  1.
       -3    1    3    3    0  502 -0.32734002360E+03 -0.73349055819E+03 -0.15482929866E+04  0.17442393966E+04  0.10100000352E+00 0. -1.
</event>
<event>
 5   0  0.6612533E-06  0.2892203E+04  0.7818609E-02  0.8275201E-01
       -2   -1    0    0    0  501  0.00000000000E+00  0.00000000000E+00  0.90914011238E+03  0.90914011238E+03  0.25500000920E-02 0.  1.
        2   -1    0    0  501    0  0.00000000000E+00  0.00000000000E+00 -0.23002056438E+04  0.23002056438E+04  0.25500000920E-02 0. -1.
    10030    2    1    2    0    0  0.00000000000E+00  0.00000000000E+00 -0.13910655314E+04  0.32093457562E+04  0.28922027713E+04 0.  0.
        3    1    3    3  502    0  0.63021834074E+03 -0.61029896916E+03 -0.19711862729E+04  0.21575948001E+04  0.10100000352E+00 0. -1.
       -3    1    3    3    0  502 -0.63021834074E+03  0.61029896916E+03  0.58012074147E+03  0.10517509561E+04  0.10100000352E+00 0.  1.
</event>
<event>
 5   0  0.2336512E-06  0.2906810E+04  0.7818609E-02  0.8270854E-01
       -1   -1    0    0    0  501  0.00000000000E+00  0.00000000000E+00  0.12147224452E+04  0.12147224452E+04  0.50400001928E-02 0. -1.
        1   -1    0    0  501    0  0.00000000000E+00  0.00000000000E+00 -0.17389866514E+04  0.17389866515E+04  0.50400001928E-02 0.  1.
    10030    2    1    2    0    0  0.00000000000E+00  0.00000000000E+00 -0.52426420626E+03  0.29537090967E+04  0.29068100161E+04 0.  0.
        4    1    3    3  502    0 -0.48962788736E+03  0.13674106783E+04 -0.20800854394E+03  0.14672479676E+04  0.12699999809E+01 0. -1.
       -4    1    3    3    0  502  0.48962788736E+03 -0.13674106783E+04 -0.31625566232E+03  0.14864611290E+04  0.12699999809E+01 0.  1.
</event>
<event>
 5   0  0.2336512E-06  0.2913293E+04  0.7818609E-02  0.8268933E-01
        1   -1    0    0  501    0  0.00000000000E+00  0.00000000000E+00  0.11423155594E+04  0.11423155594E+04  0.50400001928E-02 0.  1.
       -1   -1    0    0    0  501  0.00000000000E+00  0.00000000000E+00 -0.18574723848E+04  0.18574723848E+04  0.50400001928E-02 0. -1.
    10030    2    1    2    0    0  0.00000000000E+00  0.00000000000E+00 -0.71515682534E+03  0.29997879442E+04  0.29132933985E+04 0.  0.
        4    1    3    3  502    0  0.40834210254E+03  0.86859720342E+03 -0.14858352223E+04  0.17688731710E+04  0.12699999809E+01 0. -1.
       -4    1    3    3    0  502 -0.40834210254E+03 -0.86859720342E+03  0.77067839694E+03  0.12309147732E+04  0.12699999809E+01 0.  1.
</event>
<event>
 5   0  0.2474769E-06  0.2869062E+04  0.7818609E-02  0.8282142E-01
        1   -1    0    0  501    0  0.00000000000E+00  0.00000000000E+00  0.22042010853E+04  0.22042010853E+04  0.50400001928E-02 0. -1.
       -1   -1    0    0    0  501  0.00000000000E+00  0.00000000000E+00 -0.93361706623E+03  0.93361706624E+03  0.50400001928E-02 0.  1.
    10030    2    1    2    0    0  0.00000000000E+00  0.00000000000E+00  0.12705840191E+04  0.31378181515E+04  0.28690623909E+04 0.  0.
        1    1    3    3  502    0  0.14022574593E+04 -0.14236413819E+03  0.34328681741E+03  0.14506685938E+04  0.50400001928E-02 0. -1.
       -1    1    3    3    0  502 -0.14022574593E+04  0.14236413819E+03  0.92729720167E+03  0.16871495578E+04  0.50400001928E-02 0.  1.
</event>
<event>
 5   0  0.2474769E-06  0.2887764E+04  0.7818609E-02  0.8276527E-01
        1   -1    0    0  501    0  0.00000000000E+00  0.00000000000E+00  0.15328001328E+04  0.15328001328E+04  0.50400001928E-02 0. -1.
       -1   -1    0    0    0  501  0.00000000000E+00  0.00000000000E+00 -0.13601217148E+04  0.13601217148E+04  0.50400001928E-02 0.  1.
    10030    2    1    2    0    0  0.00000000000E+00  0.00000000000E+00  0.17267841799E+03  0.28929218476E+04  0.28877636642E+04 0.  0.
        1    1    3    3  502    0 -0.12532209408E+04 -0.34561515732E+03 -0.54310004739E+03  0.14088897135E+04  0.50400001928E-02 0.  1.
       -1    1    3    3    0  502  0.12532209408E+04  0.34561515732E+03  0.71577846537E+03  0.14840321341E+04  0.50400001928E-02 0. -1.
</event>
<event>
 5   0  0.2429358E-06  0.2909420E+04  0.7818609E-02  0.8270080E-01
       -1   -1    0    0    0  501  0.00000000000E+00  0.00000000000E+00  0.14016050221E+04  0.14016050221E+04  0.50400001928E-02 0.  1.
        1   -1    0    0  501    0  0.00000000000E+00  0.00000000000E+00 -0.15098274340E+04  0.15098274340E+04  0.50400001928E-02 0. -1.
    10030    2    1    2    0    0  0.00000000000E+00  0.00000000000E+00 -0.10822241192E+03  0.29114324561E+04  0.29094203643E+04 0.  0.
        2    1    3    3  502    0  0.14139844524E+04 -0.11480195420E+03 -0.37628135948E+03  0.14676917870E+04  0.25500000920E-02 0. -1.
       -2    1    3    3    0  502 -0.14139844524E+04  0.11480195420E+03  0.26805894756E+03  0.14437406691E+04  0.25500000920E-02 0.  1.
</event>
<event>
 5   0  0.2348684E-06  0.2885679E+04  0.7818609E-02  0.8277151E-01
        1   -1    0    0  501    0  0.00000000000E+00  0.00000000000E+00  0.18879534735E+04  0.18879534735E+04  0.50400001928E-02 0.  1.
       -1   -1    0    0    0  501  0.00000000000E+00  0.00000000000E+00 -0.11026678242E+04  0.11026678242E+04  0.50400001928E-02 0. -1.
    10030    2    1    2    0    0  0.00000000000E+00  0.00000000000E+00  0.78528564930E+03  0.29906212976E+04  0.28856788101E+04 0.  0.
        5    1    3    3  502    0 -0.11963963214E+04  0.75900573784E+03  0.67515415259E+03  0.15694932582E+04  0.46999998093E+01 0. -1.
       -5    1    3    3    0  502  0.11963963214E+04 -0.75900573784E+03  0.11013149670E+03  0.14211280394E+04  0.46999998093E+01 0.  1.
</event>
<event>
 5   0  0.2429358E-06  0.3226325E+04  0.7818609E-02  0.8181899E-01
       -1   -1    0    0    0  501  0.00000000000E+00  0.00000000000E+00  0.14297423108E+04  0.14297423108E+04  0.50400001928E-02 0.  1.
        1   -1    0    0  501    0  0.00000000000E+00  0.00000000000E+00 -0.18201135039E+04  0.18201135039E+04  0.50400001928E-02 0. -1.
    10030    2    1    2    0    0  0.00000000000E+00  0.00000000000E+00 -0.39037119316E+03  0.32498558147E+04  0.32263250220E+04 0.  0.
        2    1    3    3  502    0 -0.53884474141E+03  0.62641094005E+03 -0.15907682875E+04  0.17925646615E+04  0.25500000920E-02 0. -1.
       -2    1    3    3    0  502  0.53884474141E+03 -0.62641094005E+03  0.12003970943E+04  0.14572911532E+04  0.25500000920E-02 0.  1.
</event>
<event>
 5   0  0.6513041E-06  0.2917496E+04  0.7818609E-02  0.8267691E-01
       -2   -1    0    0    0  501  0.00000000000E+00  0.00000000000E+00  0.74747785609E+03  0.74747785610E+03  0.25500000920E-02 0. -1.
        2   -1    0    0  501    0  0.00000000000E+00  0.00000000000E+00 -0.28468351570E+04  0.28468351570E+04  0.25500000920E-02 0.  1.
    10030    2    1    2    0    0  0.00000000000E+00  0.00000000000E+00 -0.20993573009E+04  0.35943130131E+04  0.29174963512E+04 0.  0.
        1    1    3    3  502    0  0.10317506359E+04  0.18479717758E+03 -0.22995743957E+04  0.25271924685E+04  0.50400001928E-02 0.  1.
       -1    1    3    3    0  502 -0.10317506359E+04 -0.18479717758E+03  0.20021709478E+03  0.10671205446E+04  0.50400001928E-02 0. -1.
</event>
<event>
 5   0  0.6513041E-06  0.2890875E+04  0.7818609E-02  0.8275598E-01
        2   -1    0    0  501    0  0.00000000000E+00  0.00000000000E+00  0.17705303367E+04  0.17705303367E+04  0.25500000920E-02 0.  1.
       -2   -1    0    0    0  501  0.00000000000E+00  0.00000000000E+00 -0.11800358602E+04  0.11800358602E+04  0.25500000920E-02 0. -1.
    10030    2    1    2    0    0  0.00000000000E+00  0.00000000000E+00  0.59049447651E+03  0.29505661969E+04  0.28908748080E+04 0.  0.
        1    1    3    3  502    0 -0.10185859999E+04  0.59797808063E+03 -0.55513959273E+03  0.13050958554E+04  0.50400001928E-02 0. -1.
       -1    1    3    3    0  502  0.10185859999E+04 -0.59797808063E+03  0.11456340692E+04  0.16454703415E+04  0.50400001928E-02 0.  1.
</event>
<event>
 5   0  0.6615403E-06  0.2860396E+04  0.7818609E-02  0.8284759E-01
       -2   -1    0    0    0  501  0.00000000000E+00  0.00000000000E+00  0.26356996219E+04  0.26356996219E+04  0.25500000920E-02 0. -1.
        2   -1    0    0  501    0  0.00000000000E+00  0.00000000000E+00 -0.77606177822E+03  0.77606177823E+03  0.25500000920E-02 0.  1.
    10030    2    1    2    0    0  0.00000000000E+00  0.00000000000E+00  0.18596378436E+04  0.34117614001E+04  0.28603955918E+04 0.  0.
        2    1    3    3  502    0 -0.11726374228E+04 -0.73952502488E+03  0.51066999872E+03  0.14774165409E+04  0.25500000920E-02 0. -1.
       -2    1    3    3    0  502  0.11726374228E+04  0.73952502488E+03  0.13489678449E+04  0.19343448592E+04  0.25500000920E-02 0.  1.
</event>
<event>
 5   0  0.2336512E-06  0.2891479E+04  0.7818609E-02  0.8275417E-01
        1   -1    0    0  501    0  0.00000000000E+00  0.00000000000E+00  0.14507813397E+04  0.14507813397E+04  0.50400001928E-02 0. -1.
       -1   -1    0    0    0  501  0.00000000000E+00  0.00000000000E+00 -0.14407153202E+04  0.14407153203E+04  0.50400001928E-02 0.  1.
    10030    2    1    2    0    0  0.00000000000E+00  0.00000000000E+00  0.10066019440E+02  0.28914966600E+04  0.28914791387E+04 0.  0.
        4    1    3    3  502    0 -0.89018555291E+03  0.84250565954E+03  0.77179393052E+03  0.14484176156E+04  0.12699999809E+01 0. -1.
       -4    1    3    3    0  502  0.89018555291E+03 -0.84250565954E+03 -0.76172791108E+03  0.14430790444E+04  0.12699999809E+01 0.  1.
</event>
<event>
 5   0  0.2336512E-06  0.2899067E+04  0.7818609E-02  0.8273155E-01
        1   -1    0    0  501    0  0.00000000000E+00  0.00000000000E+00  0.15921960005E+04  0.15921960005E+04  0.50400001928E-02 0.  1.
       -1   -1    0    0    0  501  0.00000000000E+00  0.00000000000E+00 -0.13196534657E+04  0.13196534657E+04  0.50400001928E-02 0. -1.
    10030    2    1    2    0    0  0.00000000000E+00  0.00000000000E+00  0.27254253478E+03  0.29118494662E+04  0.28990667258E+04 0.  0.
        4    1    3    3  502    0 -0.94429791950E+03  0.98128168308E+03  0.63498150870E+03  0.15026028855E+04  0.12699999809E+01 0.  1.
       -4    1    3    3    0  502  0.94429791950E+03 -0.98128168308E+03 -0.36243897392E+03  0.14092465806E+04  0.12699999809E+01 0. -1.
</event>
<event>
 5   0  0.2474769E-06  0.2920701E+04  0.7818609E-02  0.8266745E-01
       -1   -1    0    0    0  501  0.00000000000E+00  0.00000000000E+00  0.15046945769E+04  0.15046945769E+04  0.50400001928E-02 0.  1.
        1   -1    0    0  501    0  0.00000000000E+00  0.00000000000E+00 -0.14173136584E+04  0.14173136584E+04  0.50400001928E-02 0. -1.
    10030    2    1    2    0    0  0.00000000000E+00  0.00000000000E+00  0.87380918540E+02  0.29220082354E+04  0.29207014059E+04 0.  0.
        1    1    3    3  502    0  0.27074086664E+03 -0.14136015152E+04 -0.20351181209E+03  0.14536116808E+04  0.50400001928E-02 0. -1.
       -1    1    3    3    0  502 -0.27074086664E+03  0.14136015152E+04  0.29089273063E+03  0.14683965546E+04  0.50400001928E-02 0.  1.
</event>
<event>
 5   0  0.2429358E-06  0.2842359E+04  0.7818609E-02  0.8290237E-01
       -1   -1    0    0    0  501  0.00000000000E+00  0.00000000000E+00  0.10153765121E+04  0.10153765121E+04  0.50400001928E-02 0. -1.
        1   -1    0    0  501    0  0.00000000000E+00  0.00000000000E+00 -0.19891648306E+04  0.19891648306E+04  0.50400001928E-02 0.  1.
    10030    2    1    2    0    0  0.00000000000E+00  0.00000000000E+00 -0.97378831853E+03  0.30045413426E+04  0.28423590537E+04 0.  0.
        2    1    3    3  502    0  0.46906722499E+03  0.10521156313E+04 -0.13667203391E+04  0.17874271590E+04  0.25500000920E-02 0.  1.
       -2    1    3    3    0  502 -0.46906722499E+03 -0.10521156313E+04  0.39293202060E+03  0.12171141837E+04  0.25500000920E-02 0. -1.
</event>
<event>
 5   0  0.2429358E-06  0.2958064E+04  0.7818609E-02  0.8255808E-01
       -1   -1    0    0    0  501  0.00000000000E+00  0.00000000000E+00  0.13264022589E+04  0.13264022589E+04  0.50400001928E-02 0. -1.
        1   -1    0    0  501    0  0.00000000000E+00  0.00000000000E+00 -0.16492252826E+04  0.16492252826E+04  0.50400001928E-02 0.  1.
    10030    2    1    2    0    0  0.00000000000E+00  0.00000000000E+00 -0.32282302363E+03  0.29756275415E+04  0.29580643267E+04 0.  0.
        2    1    3    3  502    0 -0.38157499590E+03  0.38968470704E+03 -0.15443769773E+04  0.16378503889E+04  0.25500000920E-02 0.  1.
       -2    1    3    3    0  502  0.38157499590E+03 -0.38968470704E+03  0.12215539536E+04  0.13377771526E+04  0.25500000920E-02 0. -1.
</event>
<event>
 5   0  0.6612533E-06  0.2933029E+04  0.7818609E-02  0.8263118E-01
       -2   -1    0    0    0  501  0.00000000000E+00  0.00000000000E+00  0.10205751794E+04  0.10205751794E+04  0.25500000920E-02 0. -1.
        2   -1    0    0  501    0  0.00000000000E+00  0.00000000000E+00 -0.21073058964E+04  0.21073058964E+04  0.25500000920E-02 0.  1.
    10030    2    1    2    0    0  0.00000000000E+00  0.00000000000E+00 -0.10867307170E+04  0.31278810758E+04  0.29330285326E+04 0.  0.
        3    1    3    3  502    0  0.21330487600E+03 -0.66307428963E+03 -0.19196426693E+04  0.20421054018E+04  0.10100000352E+00 0.  1.
       -3    1    3    3    0  502 -0.21330487600E+03  0.66307428963E+03  0.83291195237E+03  0.10857756740E+04  0.10100000352E+00 0. -1.
</event>
<event>
 5   0  0.6513041E-06  0.2902114E+04  0.7818609E-02  0.8272249E-01
        2   -1    0    0  501    0  0.00000000000E+00  0.00000000000E+00  0.16612954378E+04  0.16612954378E+04  0.25500000920E-02 0.  1.
       -2   -1    0    0    0  501  0.00000000000E+00  0.00000000000E+00 -0.12674241408E+04  0.12674241408E+04  0.25500000920E-02 0. -1.
    10030    2    1    2    0    0  0.00000000000E+00  0.00000000000E+00  0.39387129695E+03  0.29287195786E+04  0.29021136731E+04 0.  0.
        1    1    3    3  502    0  0.40665176024E+03 -0.96526654433E+03 -0.81649230445E+03  0.13280680852E+04  0.50400001928E-02 0. -1.
       -1    1    3    3    0  502 -0.40665176024E+03  0.96526654433E+03  0.12103636014E+04  0.16006514934E+04  0.50400001928E-02 0.  1.
</event>
<event>
 5   0  0.6612533E-06  0.2893555E+04  0.7818609E-02  0.8274798E-01
        2   -1    0    0  501    0  0.00000000000E+00  0.00000000000E+00  0.25234253372E+04  0.25234253372E+04  0.25500000920E-02 0. -1.
       -2   -1    0    0    0  501  0.00000000000E+00  0.00000000000E+00 -0.82949381523E+03  0.82949381523E+03  0.25500000920E-02 0.  1.
    10030    2    1    2    0    0  0.00000000000E+00  0.00000000000E+00  0.16939315220E+04  0.33529191525E+04  0.28935553981E+04 0.  0.
        3    1    3    3  502    0  0.64190469175E+03  0.87536043665E+03 -0.26136794196E+03  0.11165172361E+04  0.10100000352E+00 0.  1.
       -3    1    3    3    0  502 -0.64190469175E+03 -0.87536043665E+03  0.19552994640E+04  0.22364019163E+04  0.10100000352E+00 0. -1.
</event>
<event>
 5   0  0.2474769E-06  0.2866664E+04  0.7818609E-02  0.8282865E-01
       -1   -1    0    0    0  501  0.00000000000E+00  0.00000000000E+00  0.11580754243E+04  0.11580754243E+04  0.50400001928E-02 0. -1.
        1   -1    0    0  501    0  0.00000000000E+00  0.00000000000E+00 -0.17740133719E+04  0.17740133719E+04  0.50400001928E-02 0.  1.
    10030    2    1    2    0    0  0.00000000000E+00  0.00000000000E+00 -0.61593794757E+03  0.29320887962E+04  0.28666644648E+04 0.  0.
        1    1    3    3  502    0 -0.48106461903E+01 -0.50235415939E+03 -0.16810137225E+04  0.17544771241E+04  0.50400001928E-02 0.  1.
       -1    1    3    3    0  502  0.48106461903E+01  0.50235415939E+03  0.10650757750E+04  0.11776116721E+04  0.50400001928E-02 0. -1.
</event>
<event>
 5   0  0.6615403E-06  0.2899653E+04  0.7818609E-02  0.8272981E-01
       -2   -1    0    0    0  501  0.00000000000E+00  0.00000000000E+00  0.12561749680E+04  0.12561749680E+04  0.25500000920E-02 0. -1.
        2   -1    0    0  501    0  0.00000000000E+00  0.00000000000E+00 -0.16733318499E+04  0.16733318499E+04  0.25500000920E-02 0.  1.
    10030    2    1    2    0    0  0.00000000000E+00  0.00000000000E+00 -0.41715688194E+03  0.29295068180E+04  0.28996534849E+04 0.  0.
        2    1    3    3  502    0  0.10864667652E+04  0.94238409622E+03 -0.23664650578E+02  0.14384219938E+04  0.25500000920E-02 0. -1.
       -2    1    3    3    0  502 -0.10864667652E+04 -0.94238409622E+03 -0.39349223136E+03  0.14910848241E+04  0.25500000920E-02 0.  1.
</event>
<event>
 5   0  0.6615403E-06  0.2790995E+04  0.7818609E-02  0.8306070E-01
       -2   -1    0    0    0  501  0.00000000000E+00  0.00000000000E+00  0.15525062430E+04  0.15525062430E+04  0.25500000920E-02 0.  1.
        2   -1    0    0  501    0  0.00000000000E+00  0.00000000000E+00 -0.12543674271E+04  0.12543674271E+04  0.25500000920E-02 0. -1.
    10030    2    1    2    0    0  0.00000000000E+00  0.00000000000E+00  0.29813881593E+03  0.28068736701E+04  0.27909949922E+04 0.  0.
        2    1    3    3  502    0 -0.78356723653E+03  0.10806052680E+04 -0.26034358947E+03  0.13599500520E+04  0.25500000920E-02 0. -1.
       -2    1    3    3    0  502  0.78356723653E+03 -0.10806052680E+04  0.55848240540E+03  0.14469236181E+04  0.25500000920E-02 0.  1.
</event>
<event>
 5   0  0.2474769E-06  0.3307916E+04  0.7818609E-02  0.8160884E-01
       -1   -1    0    0    0  501  0.00000000000E+00  0.00000000000E+00  0.16435192349E+04  0.16435192349E+04  0.50400001928E-02 0.  1.
        1   -1    0    0  501    0  0.00000000000E+00  0.00000000000E+00 -0.16644627577E+04  0.16644627577E+04  0.50400001928E-02 0. -1.
    10030    2    1    2    0    0  0.00000000000E+00  0.00000000000E+00 -0.20943522823E+02  0.33079819926E+04  0.33079156930E+04 0.  0.
        1    1    3    3  502    0  0.21855346897E+03  0.76476272996E+03 -0.14606556134E+04  0.16631724122E+04  0.50400001928E-02 0. -1.
       -1    1    3    3    0  502 -0.21855346897E+03 -0.76476272996E+03  0.14397120905E+04  0.16448095803E+04  0.50400001928E-02 0.  1.
</event>
<event>
 5   0  0.2336512E-06  0.3041805E+04  0.7818609E-02  0.8231893E-01
       -1   -1    0    0    0  501  0.00000000000E+00  0.00000000000E+00  0.16034075580E+04  0.16034075580E+04  0.50400001928E-02 0.  1.
        1   -1    0    0  501    0  0.00000000000E+00  0.00000000000E+00 -0.14426431137E+04  0.14426431137E+04  0.50400001928E-02 0. -1.
    10030    2    1    2    0    0  0.00000000000E+00  0.00000000000E+00  0.16076444430E+03  0.30460506717E+04  0.30418053008E+04 0.  0.
        4    1    3    3  502    0 -0.87587379903E+03  0.13937365752E+02  0.13254171453E+04  0.15887357816E+04  0.12699999809E+01 0.  1.
       -4    1    3    3    0  502  0.87587379903E+03 -0.13937365752E+02 -0.11646527010E+04  0.14573148901E+04  0.12699999809E+01 0. -1.
</event>
<event>
 5   0  0.2348684E-06  0.2908102E+04  0.7818609E-02  0.8270471E-01
        1   -1    0    0  501    0  0.00000000000E+00  0.00000000000E+00  0.14748325026E+04  0.14748325026E+04  0.50400001928E-02 0.  1.
       -1   -1    0    0    0  501  0.00000000000E+00  0.00000000000E+00 -0.14335626868E+04  0.14335626868E+04  0.50400001928E-02 0. -1.
    10030    2    1    2    0    0  0.00000000000E+00  0.00000000000E+00  0.41269815718E+02  0.29083951894E+04  0.29081023675E+04 0.  0.
        5    1    3    3  502    0 -0.12714547244E+04  0.48235026543E+03  0.53545257094E+03  0.14615028021E+04  0.46999998093E+01 0.  1.
       -5    1    3    3    0  502  0.12714547244E+04 -0.48235026543E+03 -0.49418275522E+03  0.14468923873E+04  0.46999998093E+01 0. -1.
</event>
<event>
 5   0  0.6393633E-06  0.2879168E+04  0.7818609E-02  0.8279103E-01
       -2   -1    0    0    0  501  0.00000000000E+00  0.00000000000E+00  0.12349552686E+04  0.12349552686E+04  0.25500000920E-02 0.  1.
        2   -1    0    0  501    0  0.00000000000E+00  0.00000000000E+00 -0.16781189038E+04  0.16781189038E+04  0.25500000920E-02 0. -1.
    10030    2    1    2    0    0  0.00000000000E+00  0.00000000000E+00 -0.44316363520E+03  0.29130741724E+04  0.28791677836E+04 0.  0.
        4    1    3    3  502    0  0.70413131210E+03 -0.11292114371E+03  0.10436842150E+04  0.12640531804E+04  0.12699999809E+01 0.  1.
       -4    1    3    3    0  502 -0.70413131210E+03  0.11292114371E+03 -0.14868478502E+04  0.16490209920E+04  0.12699999809E+01 0. -1.
</event>
<event>
 5   0  0.2348684E-06  0.2921119E+04  0.7818609E-02  0.8266621E-01
        1   -1    0    0  501    0  0.00000000000E+00  0.00000000000E+00  0.19953450103E+04  0.19953450103E+04  0.50400001928E-02 0.  1.
       -1   -1    0    0    0  501  0.00000000000E+00  0.00000000000E+00 -0.10691057160E+04  0.10691057160E+04  0.50400001928E-02 0. -1.
    10030    2    1    2    0    0  0.00000000000E+00  0.00000000000E+00  0.92623929436E+03  0.30644507263E+04  0.29211194812E+04 0.  0.
        5    1    3    3  502    0 -0.13825280376E+03  0.45692478229E+03 -0.98494223594E+03  0.10945443767E+04  0.46999998093E+01 0. -1.
       -5    1    3    3    0  502  0.13825280376E+03 -0.45692478229E+03  0.19111815303E+04  0.19699063496E+04  0.46999998093E+01 0.  1.
</event>
<event>
 5   0  0.6513041E-06  0.2885234E+04  0.7818609E-02  0.8277285E-01
        2   -1    0    0  501    0  0.00000000000E+00  0.00000000000E+00  0.12886386254E+04  0.12886386254E+04  0.25500000920E-02 0.  1.
       -2   -1    0    0    0  501  0.00000000000E+00  0.00000000000E+00 -0.16149936007E+04  0.16149936007E+04  0.25500000920E-02 0. -1.
    10030    2    1    2    0    0  0.00000000000E+00  0.00000000000E+00 -0.32635497529E+03  0.29036322261E+04  0.28852335320E+04 0.  0.
        1    1    3    3  502    0 -0.11882309868E+04 -0.11266936297E+03  0.65227090540E+03  0.13601634451E+04  0.50400001928E-02 0. -1.
       -1    1    3    3    0  502  0.11882309868E+04  0.11266936297E+03 -0.97862588068E+03  0.15434687809E+04  0.50400001928E-02 0.  1.
</event>
<event>
 5   0  0.2348684E-06  0.2887765E+04  0.7818609E-02  0.8276527E-01
        1   -1    0    0  501    0  0.00000000000E+00  0.00000000000E+00  0.93305502008E+03  0.93305502010E+03  0.50400001928E-02 0. -1.
       -1   -1    0    0    0  501  0.00000000000E+00  0.00000000000E+00 -0.22343772970E+04  0.22343772970E+04  0.50400001928E-02 0.  1.
    10030    2    1    2    0    0  0.00000000000E+00  0.00000000000E+00 -0.13013222769E+04  0.31674323171E+04  0.28877651939E+04 0.  0.
        5    1    3    3  502    0 -0.13808068268E+04 -0.49997257147E+02 -0.19096947090E+03  0.13948543463E+04  0.46999998093E+01 0. -1.
       -5    1    3    3    0  502  0.13808068268E+04  0.49997257147E+02 -0.11103528060E+04  0.17725779708E+04  0.46999998093E+01 0.  1.
</event>
<event>
 5   0  0.2508094E-06  0.2941337E+04  0.7818609E-02  0.8260684E-01
        1   -1    0    0  501    0  0.00000000000E+00  0.00000000000E+00  0.20313410779E+04  0.20313410779E+04  0.50400001928E-02 0. -1.
       -1   -1    0    0    0  501  0.00000000000E+00  0.00000000000E+00 -0.10647479798E+04  0.10647479798E+04  0.50400001928E-02 0.  1.
    10030    2    1    2    0    0  0.00000000000E+00  0.00000000000E+00  0.96659309812E+03  0.30960890577E+04  0.29413373210E+04 0.  0.
        3    1    3    3  502    0 -0.89758222675E+03 -0.39376715365E+03  0.16374132480E+04  0.19083575608E+04  0.10100000352E+00 0. -1.
       -3    1    3    3    0  502  0.89758222675E+03  0.39376715365E+03 -0.67082014988E+03  0.11877314969E+04  0.10100000352E+00 0.  1.
</event>
<event>
 5   0  0.2508094E-06  0.2906747E+04  0.7818609E-02  0.8270873E-01
       -1   -1    0    0    0  501  0.00000000000E+00  0.00000000000E+00  0.10189462663E+04  0.10189462663E+04  0.50400001928E-02 0.  1.
        1   -1    0    0  501    0  0.00000000000E+00  0.00000000000E+00 -0.20730188878E+04  0.20730188878E+04  0.50400001928E-02 0. -1.
    10030    2    1    2    0    0  0.00000000000E+00  0.00000000000E+00 -0.10540726215E+04  0.30919651541E+04  0.29067472238E+04 0.  0.
        3    1    3    3  502    0  0.71165762289E+03  0.62760951984E+03 -0.16980681466E+04  0.19451955486E+04  0.10100000352E+00 0. -1.
       -3    1    3    3    0  502 -0.71165762289E+03 -0.62760951984E+03  0.64399552512E+03  0.11467696055E+04  0.10100000352E+00 0.  1.
</event>
<event>
 5   0  0.2348684E-06  0.2890417E+04  0.7818609E-02  0.8275734E-01
       -1   -1    0    0    0  501  0.00000000000E+00  0.00000000000E+00  0.12792008547E+04  0.12792008547E+04  0.50400001928E-02 0. -1.
        1   -1    0    0  501    0  0.00000000000E+00  0.00000000000E+00 -0.16327599160E+04  0.16327599160E+04  0.50400001928E-02 0.  1.
    10030    2    1    2    0    0  0.00000000000E+00  0.00000000000E+00 -0.35355906132E+03  0.29119607708E+04  0.28904171880E+04 0.  0.
        5    1    3    3  502    0 -0.54056515321E+03 -0.92254202681E+02  0.11703045079E+04  0.12924226297E+04  0.46999998093E+01 0. -1.
       -5    1    3    3    0  502  0.54056515321E+03  0.92254202681E+02 -0.15238635692E+04  0.16195381410E+04  0.46999998093E+01 0.  1.
</event>
<event>
 5   0  0.6393633E-06  0.2874137E+04  0.7818609E-02  0.8280614E-01
        2   -1    0    0  501    0  0.00000000000E+00  0.00000000000E+00  0.22105986913E+04  0.22105986913E+04  0.25500000920E-02 0.  1.
       -2   -1    0    0    0  501  0.00000000000E+00  0.00000000000E+00 -0.93421086037E+03  0.93421086038E+03  0.25500000920E-02 0. -1.
    10030    2    1    2    0    0  0.00000000000E+00  0.00000000000E+00  0.12763878309E+04  0.31448095517E+04  0.28741366045E+04 0.  0.
        4    1    3    3  502    0 -0.81760198770E+03 -0.87208965352E+03 -0.23450978706E+03  0.12181994201E+04  0.12699999809E+01 0. -1.
       -4    1    3    3    0  502  0.81760198770E+03  0.87208965352E+03  0.15108976180E+04  0.19266101316E+04  0.12699999809E+01 0.  1.
</event>
<event>
 5   0  0.6612533E-06  0.2777726E+04  0.7818609E-02  0.8310217E-01
       -2   -1    0    0    0  501  0.00000000000E+00  0.00000000000E+00  0.99359420590E+03  0.99359420591E+03  0.25500000920E-02 0.  1.
        2   -1    0    0  501    0  0.00000000000E+00  0.00000000000E+00 -0.19413770817E+04  0.19413770817E+04  0.25500000920E-02 0. -1.
    10030    2    1    2    0    0  0.00000000000E+00  0.00000000000E+00 -0.94778287580E+03  0.29349712876E+04  0.27777264227E+04 0.  0.
        3    1    3    3  502    0 -0.13347340115E+03  0.96847215770E+03  0.56845636917E+03  0.11308828953E+04  0.10100000352E+00 0.  1.
       -3    1    3    3    0  502  0.13347340115E+03 -0.96847215770E+03 -0.15162392450E+04  0.18040883923E+04  0.10100000352E+00 0. -1.
</event>
<event>
 5   0  0.6615403E-06  0.2850222E+04  0.7818609E-02  0.8287844E-01
        2   -1    0    0  501    0  0.00000000000E+00  0.00000000000E+00  0.11391817973E+04  0.11391817973E+04  0.25500000920E-02 0. -1.
       -2   -1    0    0    0  501  0.00000000000E+00  0.00000000000E+00 -0.17828073091E+04  0.17828073091E+04  0.25500000920E-02 0.  1.
    10030    2    1    2    0    0  0.00000000000E+00  0.00000000000E+00 -0.64362551184E+03  0.29219891064E+04  0.28502221910E+04 0.  0.
        2    1    3    3  502    0  0.88481193414E+03 -0.51202711511E+03 -0.13397274861E+04  0.16852102725E+04  0.25500000920E-02 0.  1.
       -2    1    3    3    0  502 -0.88481193414E+03  0.51202711511E+03  0.69610197426E+03  0.12367788339E+04  0.25500000920E-02 0. -1.
</event>
<event>
 5   0  0.6513041E-06  0.2896772E+04  0.7818609E-02  0.8273839E-01
        2   -1    0    0  501    0  0.00000000000E+00  0.00000000000E+00  0.90249322064E+03  0.90249322064E+03  0.25500000920E-02 0. -1.
       -2   -1    0    0    0  501  0.00000000000E+00  0.00000000000E+00 -0.23244734853E+04  0.23244734853E+04  0.25500000920E-02 0.  1.
    10030    2    1    2    0    0  0.00000000000E+00  0.00000000000E+00 -0.14219802647E+04  0.32269667060E+04  0.28967716942E+04 0.  0.
        1    1    3    3  502    0 -0.30842190576E+02 -0.10586479931E+04 -0.18116043100E+04  0.20984749201E+04  0.50400001928E-02 0.  1.
       -1    1    3    3    0  502  0.30842190576E+02  0.10586479931E+04  0.38962404533E+03  0.11284917859E+04  0.50400001928E-02 0. -1.
</event>
<event>
 5   0  0.6733688E-06  0.2775914E+04  0.7818609E-02  0.8310785E-01
        2   -1    0    0  501    0  0.00000000000E+00  0.00000000000E+00  0.12044397841E+04  0.12044397841E+04  0.25500000920E-02 0. -1.
       -2   -1    0    0    0  501  0.00000000000E+00  0.00000000000E+00 -0.15994364778E+04  0.15994364778E+04  0.25500000920E-02 0.  1.
    10030    2    1    2    0    0  0.00000000000E+00  0.00000000000E+00 -0.39499669367E+03  0.28038762620E+04  0.27759142106E+04 0.  0.
        5    1    3    3  502    0 -0.12272082543E+04 -0.52366229194E+03  0.18863575499E+03  0.13475414033E+04  0.46999998093E+01 0. -1.
       -5    1    3    3    0  502  0.12272082543E+04  0.52366229194E+03 -0.58363244866E+03  0.14563348587E+04  0.46999998093E+01 0.  1.
</event>
<event>
 5   0  0.6612533E-06  0.2921979E+04  0.7818609E-02  0.8266368E-01
        2   -1    0    0  501    0  0.00000000000E+00  0.00000000000E+00  0.25090293497E+04  0.25090293497E+04  0.25500000920E-02 0.  1.
       -2   -1    0    0    0  501  0.00000000000E+00  0.00000000000E+00 -0.85072334004E+03  0.85072334004E+03  0.25500000920E-02 0. -1.
    10030    2    1    2    0    0  0.00000000000E+00  0.00000000000E+00  0.16583060097E+04  0.33597526898E+04  0.29219786643E+04 0.  0.
        3    1    3    3  502    0  0.67249997009E+03  0.70270526286E+03 -0.42433073083E+03  0.10611821123E+04  0.10100000352E+00 0. -1.
       -3    1    3    3    0  502 -0.67249997009E+03 -0.70270526286E+03  0.20826367405E+04  0.22985705774E+04  0.10100000352E+00 0.  1.
</event>
<event>
 5   0  0.2474769E-06  0.2870351E+04  0.7818609E-02  0.8281754E-01
       -1   -1    0    0    0  501  0.00000000000E+00  0.00000000000E+00  0.13557054695E+04  0.13557054695E+04  0.50400001928E-02 0. -1.
        1   -1    0    0  501    0  0.00000000000E+00  0.00000000000E+00 -0.15193043577E+04  0.15193043578E+04  0.50400001928E-02 0.  1.
    10030    2    1    2    0    0  0.00000000000E+00  0.00000000000E+00 -0.16359888825E+03  0.28750098273E+04  0.28703513566E+04 0.  0.
        1    1    3    3  502    0  0.42700472639E+03  0.13554820851E+04 -0.28228550395E+03  0.14489133256E+04  0.50400001928E-02 0.  1.
       -1    1    3    3    0  502 -0.42700472639E+03 -0.13554820851E+04  0.11868661570E+03  0.14260965017E+04  0.50400001928E-02 0. -1.
</event>
<event>
 5   0  0.2508094E-06  0.2903211E+04  0.7818609E-02  0.8271923E-01
        1   -1    0    0  501    0  0.00000000000E+00  0.00000000000E+00  0.19176290682E+04  0.19176290682E+04  0.50400001928E-02 0. -1.
       -1   -1    0    0    0  501  0.00000000000E+00  0.00000000000E+00 -0.10988355865E+04  0.10988355865E+04  0.50400001928E-02 0.  1.
    10030    2    1    2    0    0  0.00000000000E+00  0.00000000000E+00  0.81879348169E+03  0.30164646547E+04  0.29032113680E+04 0.  0.
        3    1    3    3  502    0  0.17007075087E+02  0.12612385381E+04 -0.33706294309E+03  0.13056122427E+04  0.10100000352E+00 0.  1.
       -3    1    3    3    0  502 -0.17007075087E+02 -0.12612385381E+04  0.11558564248E+04  0.17108524119E+04  0.10100000352E+00 0. -1.
</event>
<event>
 5   0  0.2348684E-06  0.2896521E+04  0.7818609E-02  0.8273913E-01
       -1   -1    0    0    0  501  0.00000000000E+00  0.00000000000E+00  0.10030315584E+04  0.10030315584E+04  0.50400001928E-02 0. -1.
        1   -1    0    0  501    0  0.00000000000E+00  0.00000000000E+00 -0.20911193110E+04  0.20911193110E+04  0.50400001928E-02 0.  1.
    10030    2    1    2    0    0  0.00000000000E+00  0.00000000000E+00 -0.10880877526E+04  0.30941508695E+04  0.28965211281E+04 0.  0.
        5    1    3    3  502    0 -0.13872384612E+04 -0.36903033386E+03 -0.74902894229E+03  0.16191603941E+04  0.46999998093E+01 0.  1.
       -5    1    3    3    0  502  0.13872384612E+04  0.36903033386E+03 -0.33905881033E+03  0.14749904753E+04  0.46999998093E+01 0. -1.
</event>
<event>
 5   0  0.2508094E-06  0.2759336E+04  0.7818609E-02  0.8316005E-01
        1   -1    0    0  501    0  0.00000000000E+00  0.00000000000E+00  0.96720630106E+03  0.96720630108E+03  0.50400001928E-02 0.  1.
       -1   -1    0    0    0  501  0.00000000000E+00  0.00000000000E+00 -0.19680221281E+04  0.19680221281E+04  0.50400001928E-02 0. -1.
    10030    2    1    2    0    0  0.00000000000E+00  0.00000000000E+00 -0.10008158271E+04  0.29352284292E+04  0.27593357193E+04 0.  0.
        3    1    3    3  502    0  0.10476664981E+04  0.85600554769E+03 -0.78807718558E+03  0.15656999232E+04  0.10100000352E+00 0.  1.
       -3    1    3    3    0  502 -0.10476664981E+04 -0.85600554769E+03 -0.21273864147E+03  0.13695285060E+04  0.10100000352E+00 0. -1.
</event>
<event>
 5   0  0.6615403E-06  0.2884607E+04  0.7818609E-02  0.8277472E-01
       -2   -1    0    0    0  501  0.00000000000E+00  0.00000000000E+00  0.84367263145E+03  0.84367263146E+03  0.25500000920E-02 0. -1.
        2   -1    0    0  501    0  0.00000000000E+00  0.00000000000E+00 -0.24656944882E+04  0.24656944882E+04  0.25500000920E-02 0.  1.
    10030    2    1    2    0    0  0.00000000000E+00  0.00000000000E+00 -0.16220218567E+04  0.33093671196E+04  0.28846067026E+04 0.  0.
        2    1    3    3  502    0  0.44688902461E+03  0.11261206617E+03  0.75692772971E+03  0.88618895603E+03  0.25500000920E-02 0. -1.
       -2    1    3    3    0  502 -0.44688902461E+03 -0.11261206617E+03 -0.23789495864E+04  0.24231781636E+04  0.25500000920E-02 0.  1.
</event>
<event>
 5   0  0.6612533E-06  0.2899972E+04  0.7818609E-02  0.8272886E-01
       -2   -1    0    0    0  501  0.00000000000E+00  0.00000000000E+00  0.13203094058E+04  0.13203094058E+04  0.25500000920E-02 0. -1.
        2   -1    0    0  501    0  0.00000000000E+00  0.00000000000E+00 -0.15923988708E+04  0.15923988708E+04  0.25500000920E-02 0.  1.
    10030    2    1    2    0    0  0.00000000000E+00  0.00000000000E+00 -0.27208946495E+03  0.29127082766E+04  0.28999718667E+04 0.  0.
        3    1    3    3  502    0  0.91407119355E+03  0.11147967312E+04 -0.29216645502E+03  0.14709381858E+04  0.10100000352E+00 0. -1.
       -3    1    3    3    0  502 -0.91407119355E+03 -0.11147967312E+04  0.20076990075E+02  0.14417700908E+04  0.10100000352E+00 0.  1.
</event>
<event>
 5   0  0.2508094E-06  0.2918824E+04  0.7818609E-02  0.8267299E-01
        1   -1    0    0  501    0  0.00000000000E+00  0.00000000000E+00  0.16418199668E+04  0.16418199668E+04  0.50400001928E-02 0.  1.
       -1   -1    0    0    0  501  0.00000000000E+00  0.00000000000E+00 -0.12972699119E+04  0.12972699119E+04  0.50400001928E-02 0. -1.
    10030    2    1    2    0    0  0.00000000000E+00  0.00000000000E+00  0.34455005487E+03  0.29390898787E+04  0.29188241768E+04 0.  0.
        3    1    3    3  502    0  0.51474435349E+03  0.12918904854E+03 -0.11966610955E+04  0.13090643023E+04  0.10100000352E+00 0. -1.
       -3    1    3    3    0  502 -0.51474435349E+03 -0.12918904854E+03  0.15412111504E+04  0.16300255765E+04  0.10100000352E+00 0.  1.
</event>
<event>
 5   0  0.2429358E-06  0.2864024E+04  0.7818609E-02  0.8283663E-01
        1   -1    0    0  501    0  0.00000000000E+00  0.00000000000E+00  0.21621506646E+04  0.21621506646E+04  0.50400001928E-02 0.  1.
       -1   -1    0    0    0  501  0.00000000000E+00  0.00000000000E+00 -0.94843422427E+03  0.94843422429E+03  0.50400001928E-02 0. -1.
    10030    2    1    2    0    0  0.00000000000E+00  0.00000000000E+00  0.12137164403E+04  0.31105848889E+04  0.28640235253E+04 0.  0.
        2    1    3    3  502    0 -0.42781299302E+03  0.58286140479E+03  0.19493568147E+04  0.20791208155E+04  0.25500000920E-02 0.  1.
       -2    1    3    3    0  502  0.42781299302E+03 -0.58286140479E+03 -0.73564037443E+03  0.10314640734E+04  0.25500000920E-02 0. -1.
</event>
<event>
 5   0  0.6615403E-06  0.2889805E+04  0.7818609E-02  0.8275917E-01
        2   -1    0    0  501    0  0.00000000000E+00  0.00000000000E+00  0.17125615992E+04  0.17125615992E+04  0.25500000920E-02 0.  1.
       -2   -1    0    0    0  501  0.00000000000E+00  0.00000000000E+00 -0.12190764876E+04  0.12190764876E+04  0.25500000920E-02 0. -1.
    10030    2    1    2    0    0  0.00000000000E+00  0.00000000000E+00  0.49348511157E+03  0.29316380869E+04  0.28898052386E+04 0.  0.
        2    1    3    3  502    0  0.30600828125E+03  0.10475577341E+04  0.12074065064E+04  0.16275284164E+04  0.25500000920E-02 0.  1.
       -2    1    3    3    0  502 -0.30600828125E+03 -0.10475577341E+04 -0.71392139488E+03  0.13041096704E+04  0.25500000920E-02 0. -1.
</event>
<event>
 5   0  0.2336512E-06  0.2921678E+04  0.7818609E-02  0.8266457E-01
        1   -1    0    0  501    0  0.00000000000E+00  0.00000000000E+00  0.22695164172E+04  0.22695164172E+04  0.50400001928E-02 0. -1.
       -1   -1    0    0    0  501  0.00000000000E+00  0.00000000000E+00 -0.94031070661E+03  0.94031070662E+03  0.50400001928E-02 0.  1.
    10030    2    1    2    0    0  0.00000000000E+00  0.00000000000E+00  0.13292057106E+04  0.32098271238E+04  0.29216780014E+04 0.  0.
        4    1    3    3  502    0  0.28229136443E+03  0.31987803104E+03  0.21995502396E+04  0.22405430678E+04  0.12699999809E+01 0. -1.
       -4    1    3    3    0  502 -0.28229136443E+03 -0.31987803104E+03 -0.87034452902E+03  0.96928405603E+03  0.12699999809E+01 0.  1.
</event>
<event>
 5   0  0.6513041E-06  0.2918869E+04  0.7818609E-02  0.8267285E-01
       -2   -1    0    0    0  501  0.00000000000E+00  0.00000000000E+00  0.14339482560E+04  0.14339482560E+04  0.25500000920E-02 0.  1.
        2   -1    0    0  501    0  0.00000000000E+00  0.00000000000E+00 -0.14853739853E+04  0.14853739853E+04  0.25500000920E-02 0. -1.
    10030    2    1    2    0    0  0.00000000000E+00  0.00000000000E+00 -0.51425729322E+02  0.29193222414E+04  0.29188692577E+04 0.  0.
        1    1    3    3  502    0  0.14553156218E+03  0.13999345266E+04  0.36029174365E+03  0.14528614025E+04  0.50400001928E-02 0. -1.
       -1    1    3    3    0  502 -0.14553156218E+03 -0.13999345266E+04 -0.41171747297E+03  0.14664608389E+04  0.50400001928E-02 0.  1.
</event>
<event>
 5   0  0.2336512E-06  0.2886996E+04  0.7818609E-02  0.8276757E-01
        1   -1    0    0  501    0  0.00000000000E+00  0.00000000000E+00  0.12346007234E+04  0.12346007234E+04  0.50400001928E-02 0.  1.
       -1   -1    0    0    0  501  0.00000000000E+00  0.00000000000E+00 -0.16877409730E+04  0.16877409730E+04  0.50400001928E-02 0. -1.
    10030    2    1    2    0    0  0.00000000000E+00  0.00000000000E+00 -0.45314024960E+03  0.29223416964E+04  0.28869958270E+04 0.  0.
        4    1    3    3  502    0  0.15357023421E+03  0.22260281076E+03 -0.16618683451E+04  0.16837291461E+04  0.12699999809E+01 0. -1.
       -4    1    3    3    0  502 -0.15357023421E+03 -0.22260281076E+03  0.12087280955E+04  0.12386125503E+04  0.12699999809E+01 0.  1.
</event>
<event>
 5   0  0.2508094E-06  0.2895075E+04  0.7818609E-02  0.8274344E-01
       -1   -1    0    0    0  501  0.00000000000E+00  0.00000000000E+00  0.31037145947E+04  0.31037145947E+04  0.50400001928E-02 0.  1.
        1   -1    0    0  501    0  0.00000000000E+00  0.00000000000E+00 -0.67511529089E+03  0.67511529091E+03  0.50400001928E-02 0. -1.
    10030    2    1    2    0    0  0.00000000000E+00  0.00000000000E+00  0.24285993038E+04  0.37788298856E+04  0.28950752539E+04 0.  0.
        3    1    3    3  502    0  0.53656410476E+03  0.78970918629E+03  0.26344717271E+04  0.28021389916E+04  0.10100000352E+00 0.  1.
       -3    1    3    3    0  502 -0.53656410476E+03 -0.78970918629E+03 -0.20587242331E+03  0.97669089394E+03  0.10100000352E+00 0. -1.
</event>
<event>
 5   0  0.2429358E-06  0.2900738E+04  0.7818609E-02  0.8272658E-01
        1   -1    0    0  501    0  0.00000000000E+00  0.00000000000E+00  0.25105355608E+04  0.25105355608E+04  0.50400001928E-02 0.  1.
       -1   -1    0    0    0  501  0.00000000000E+00  0.00000000000E+00 -0.83789688934E+03  0.83789688936E+03  0.50400001928E-02 0. -1.
    10030    2    1    2    0    0  0.00000000000E+00  0.00000000000E+00  0.16726386714E+04  0.33484324502E+04  0.29007377937E+04 0.  0.
        2    1    3    3  502    0  0.57193466165E+03  0.46371600561E+03 -0.60610841941E+03  0.95368192136E+03  0.25500000920E-02 0. -1.
       -2    1    3    3    0  502 -0.57193466165E+03 -0.46371600561E+03  0.22787470909E+04  0.23947505288E+04  0.25500000920E-02 0.  1.
</event>
<event>
 5   0  0.6513041E-06  0.2944062E+04  0.7818609E-02  0.8259887E-01
       -2   -1    0    0    0  501  0.00000000000E+00  0.00000000000E+00  0.21680457954E+04  0.21680457954E+04  0.25500000920E-02 0. -1.
        2   -1    0    0  501    0  0.00000000000E+00  0.00000000000E+00 -0.99946035753E+03  0.99946035754E+03  0.25500000920E-02 0.  1.
    10030    2    1    2    0    0  0.00000000000E+00  0.00000000000E+00  0.11685854379E+04  0.31675061530E+04  0.29440623810E+04 0.  0.
        1    1    3    3  502    0  0.37798844011E+03  0.13660966289E+04  0.10116560081E+04  0.17414198630E+04  0.50400001928E-02 0. -1.
       -1    1    3    3    0  502 -0.37798844011E+03 -0.13660966289E+04  0.15692942979E+03  0.14260862900E+04  0.50400001928E-02 0.  1.
</event>
<event>
 5   0  0.6733688E-06  0.2912437E+04  0.7818609E-02  0.8269187E-01
       -2   -1    0    0    0  501  0.00000000000E+00  0.00000000000E+00  0.16366776416E+04  0.16366776416E+04  0.25500000920E-02 0. -1.
        2   -1    0    0  501    0  0.00000000000E+00  0.00000000000E+00 -0.12956562713E+04  0.12956562713E+04  0.25500000920E-02 0.  1.
    10030    2    1    2    0    0  0.00000000000E+00  0.00000000000E+00  0.34102137027E+03  0.29323339129E+04  0.29124365404E+04 0.  0.
        5    1    3    3  502    0  0.35105393457E+03 -0.35687161905E+03 -0.12062940064E+04  0.13060488265E+04  0.46999998093E+01 0.  1.
       -5    1    3    3    0  502 -0.35105393457E+03  0.35687161905E+03  0.15473153766E+04  0.16262850864E+04  0.46999998093E+01 0. -1.
</event>
<event>
 5   0  0.2348684E-06  0.2890321E+04  0.7818609E-02  0.8275763E-01
        1   -1    0    0  501    0  0.00000000000E+00  0.00000000000E+00  0.21728838376E+04  0.21728838376E+04  0.50400001928E-02 0. -1.
       -1   -1    0    0    0  501  0.00000000000E+00  0.00000000000E+00 -0.96115978768E+03  0.96115978770E+03  0.50400001928E-02 0.  1.
    10030    2    1    2    0    0  0.00000000000E+00  0.00000000000E+00  0.12117240499E+04  0.31340436253E+04  0.28903207905E+04 0.  0.
        5    1    3    3  502    0  0.19773766886E+03  0.74212467100E+03 -0.72154574805E+03  0.10538024338E+04  0.46999998093E+01 0.  1.
       -5    1    3    3    0  502 -0.19773766886E+03 -0.74212467100E+03  0.19332697979E+04  0.20802411915E+04  0.46999998093E+01 0. -1.
</event>
<event>
 5   0  0.6393633E-06  0.2907004E+04  0.7818609E-02  0.8270797E-01
        2   -1    0    0  501    0  0.00000000000E+00  0.00000000000E+00  0.99179807337E+03  0.99179807337E+03  0.25500000920E-02 0.  1.
       -2   -1    0    0    0  501  0.00000000000E+00  0.00000000000E+00 -0.21301394908E+04  0.21301394908E+04  0.25500000920E-02 0. -1.
    10030    2    1    2    0    0  0.00000000000E+00  0.00000000000E+00 -0.11383414175E+04  0.31219375642E+04  0.29070041231E+04 0.  0.
        4    1    3    3  502    0 -0.90102482570E+01  0.28906717320E+03 -0.20989272905E+04  0.21187586930E+04  0.12699999809E+01 0. -1.
       -4    1    3    3    0  502  0.90102482570E+01 -0.28906717320E+03  0.96058587308E+03  0.10031788712E+04  0.12699999809E+01 0.  1.
</event>
<event>
 5   0  0.2474769E-06  0.2941953E+04  0.7818609E-02  0.8260504E-01
       -1   -1    0    0    0  501  0.00000000000E+00  0.00000000000E+00  0.13570940572E+04  0.13570940572E+04  0.50400001928E-02 0. -1.
        1   -1    0    0  501    0  0.00000000000E+00  0.00000000000E+00 -0.15944155182E+04  0.15944155182E+04  0.50400001928E-02 0.  1.
    10030    2    1    2    0    0  0.00000000000E+00  0.00000000000E+00 -0.23732146095E+03  0.29515095754E+04  0.29419529734E+04 0.  0.
        1    1    3    3  502    0  0.13442448764E+04  0.58761753750E+03 -0.11153098173E+02  0.14671104423E+04  0.50400001928E-02 0. -1.
       -1    1    3    3    0  502 -0.13442448764E+04 -0.58761753750E+03 -0.22616836277E+03  0.14843991332E+04  0.50400001928E-02 0.  1.
</event>
<event>
 5   0  0.2348684E-06  0.2837333E+04  0.7818609E-02  0.8291771E-01
        1   -1    0    0  501    0  0.00000000000E+00  0.00000000000E+00  0.13400200232E+04  0.13400200232E+04  0.50400001928E-02 0.  1.
       -1   -1    0    0    0  501  0.00000000000E+00  0.00000000000E+00 -0.15019283418E+04  0.15019283418E+04  0.50400001928E-02 0. -1.
    10030    2    1    2    0    0  0.00000000000E+00  0.00000000000E+00 -0.16190831860E+03  0.28419483650E+04  0.28373325864E+04 0.  0.
        5    1    3    3  502    0 -0.53496431359E+03 -0.12966766633E+04 -0.29351337464E+03  0.14330838695E+04  0.46999998093E+01 0.  1.
       -5    1    3    3    0  502  0.53496431359E+03  0.12966766633E+04  0.13160505603E+03  0.14088644955E+04  0.46999998093E+01 0. -1.
</event>
<event>
 5   0  0.2429358E-06  0.2894555E+04  0.7818609E-02  0.8274499E-01
       -1   -1    0    0    0  501  0.00000000000E+00  0.00000000000E+00  0.12767304793E+04  0.12767304793E+04  0.50400001928E-02 0. -1.
        1   -1    0    0  501    0  0.00000000000E+00  0.00000000000E+00 -0.16406066208E+04  0.16406066208E+04  0.50400001928E-02 0.  1.
    10030    2    1    2    0    0  0.00000000000E+00  0.00000000000E+00 -0.36387614151E+03  0.29173371000E+04  0.28945552178E+04 0.  0.
        2    1    3    3  502    0 -0.10387582143E+04 -0.21845719085E+03 -0.11734851944E+04  0.15823430961E+04  0.25500000920E-02 0.  1.
       -2    1    3    3    0  502  0.10387582143E+04  0.21845719085E+03  0.80960905291E+03  0.13349940040E+04  0.25500000920E-02 0. -1.
</event>
<event>
 5   0  0.2429358E-06  0.2924141E+04  0.7818609E-02  0.8265731E-01
        1   -1    0    0  501    0  0.00000000000E+00  0.00000000000E+00  0.26716772776E+04  0.26716772776E+04  0.50400001928E-02 0.  1.
       -1   -1    0    0    0  501  0.00000000000E+00  0.00000000000E+00 -0.80011560313E+03  0.80011560315E+03  0.50400001928E-02 0. -1.
    10030    2    1    2    0    0  0.00000000000E+00  0.00000000000E+00  0.18715616744E+04  0.34717928807E+04  0.29241413621E+04 0.  0.
        2    1    3    3  502    0  0.81225603677E+03 -0.11513994283E+04  0.13989292693E+04  0.19855688387E+04  0.25500000920E-02 0. -1.
       -2    1    3    3    0  502 -0.81225603677E+03  0.11513994283E+04  0.47263240514E+03  0.14862240420E+04  0.25500000920E-02 0.  1.
</event>
<event>
 5   0  0.2348684E-06  0.2884339E+04  0.7818609E-02  0.8277553E-01
        1   -1    0    0  501    0  0.00000000000E+00  0.00000000000E+00  0.24898210596E+04  0.24898210596E+04  0.50400001928E-02 0. -1.
       -1   -1    0    0    0  501  0.00000000000E+00  0.00000000000E+00 -0.83534203176E+03  0.83534203178E+03  0.50400001928E-02 0.  1.
    10030    2    1    2    0    0  0.00000000000E+00  0.00000000000E+00  0.16544790278E+04  0.33251630914E+04  0.28843385257E+04 0.  0.
        5    1    3    3  502    0 -0.59799986960E+03  0.16925218440E+02 -0.68554023026E+03  0.90987790629E+03  0.46999998093E+01 0.  1.
       -5    1    3    3    0  502  0.59799986960E+03 -0.16925218440E+02  0.23400192581E+04  0.24152851851E+04  0.46999998093E+01 0. -1.
</event>
<event>
 5   0  0.2348684E-06  0.2839066E+04  0.7818609E-02  0.8291242E-01
       -1   -1    0    0    0  501  0.00000000000E+00  0.00000000000E+00  0.18987654388E+04  0.18987654388E+04  0.50400001928E-02 0. -1.
        1   -1    0    0  501    0  0.00000000000E+00  0.00000000000E+00 -0.10612545555E+04  0.10612545555E+04  0.50400001928E-02 0.  1.
    10030    2    1    2    0    0  0.00000000000E+00  0.00000000000E+00  0.83751088330E+03  0.29600199943E+04  0.28390656715E+04 0.  0.
        5    1    3    3  502    0  0.84929516785E+03  0.88779162248E+03  0.11600862675E+04  0.16897628488E+04  0.46999998093E+01 0. -1.
       -5    1    3    3    0  502 -0.84929516785E+03 -0.88779162248E+03 -0.32257538425E+03  0.12702571455E+04  0.46999998093E+01 0.  1.
</event>
<event>
 5   0  0.2429358E-06  0.3220053E+04  0.7818609E-02  0.8183541E-01
       -1   -1    0    0    0  501  0.00000000000E+00  0.00000000000E+00  0.17469539980E+04  0.17469539980E+04  0.50400001928E-02 0.  1.
        1   -1    0    0  501    0  0.00000000000E+00  0.00000000000E+00 -0.14838311651E+04  0.14838311651E+04  0.50400001928E-02 0. -1.
    10030    2    1    2    0    0  0.00000000000E+00  0.00000000000E+00  0.26312283285E+03  0.32307851631E+04  0.32200526618E+04 0.  0.
        2    1    3    3  502    0 -0.67939684750E+03  0.41777755622E+03 -0.12716946448E+04  0.15011080682E+04  0.25500000920E-02 0. -1.
       -2    1    3    3    0  502  0.67939684750E+03 -0.41777755622E+03  0.15348174777E+04  0.17296770949E+04  0.25500000920E-02 0.  1.
</event>
<event>
 5   0  0.2429358E-06  0.2906584E+04  0.7818609E-02  0.8270921E-01
        1   -1    0    0  501    0  0.00000000000E+00  0.00000000000E+00  0.20284861994E+04  0.20284861994E+04  0.50400001928E-02 0. -1.
       -1   -1    0    0    0  501  0.00000000000E+00  0.00000000000E+00 -0.10411988235E+04  0.10411988235E+04  0.50400001928E-02 0.  1.
    10030    2    1    2    0    0  0.00000000000E+00  0.00000000000E+00  0.98728737592E+03  0.30696850229E+04  0.29065838672E+04 0.  0.
        2    1    3    3  502    0 -0.66453250945E+03 -0.11678000126E+04  0.10785223866E+04  0.17229541096E+04  0.25500000920E-02 0. -1.
       -2    1    3    3    0  502  0.66453250945E+03  0.11678000126E+04 -0.91235010695E+02  0.13467309132E+04  0.25500000920E-02 0.  1.
</event>
<event>
 5   0  0.2429358E-06  0.2937069E+04  0.7818609E-02  0.8261933E-01
        1   -1    0    0  501    0  0.00000000000E+00  0.00000000000E+00  0.14484073140E+04  0.14484073140E+04  0.50400001928E-02 0. -1.
       -1   -1    0    0    0  501  0.00000000000E+00  0.00000000000E+00 -0.14889411183E+04  0.14889411183E+04  0.50400001928E-02 0.  1.
    10030    2    1    2    0    0  0.00000000000E+00  0.00000000000E+00 -0.40533804321E+02  0.29373484323E+04  0.29370687468E+04 0.  0.
        2    1    3    3  502    0  0.92075601093E+03  0.94707643991E+03  0.62154789367E+03  0.14598175224E+04  0.25500000920E-02 0. -1.
       -2    1    3    3    0  502 -0.92075601093E+03 -0.94707643991E+03 -0.66208169799E+03  0.14775309098E+04  0.25500000920E-02 0.  1.
</event>
<event>
 5   0  0.6513041E-06  0.2880980E+04  0.7818609E-02  0.8278559E-01
       -2   -1    0    0    0  501  0.00000000000E+00  0.00000000000E+00  0.67684612019E+03  0.67684612020E+03  0.25500000920E-02 0.  1.
        2   -1    0    0  501    0  0.00000000000E+00  0.00000000000E+00 -0.30657060313E+04  0.30657060313E+04  0.25500000920E-02 0. -1.
    10030    2    1    2    0    0  0.00000000000E+00  0.00000000000E+00 -0.23888599111E+04  0.37425521515E+04  0.28809798562E+04 0.  0.
        1    1    3    3  502    0  0.71396703826E+03 -0.90720528956E+03 -0.23136102875E+04  0.25856455541E+04  0.50400001928E-02 0. -1.
       -1    1    3    3    0  502 -0.71396703826E+03  0.90720528956E+03 -0.75249623582E+02  0.11569065974E+04  0.50400001928E-02 0.  1.
</event>
<event>
 5   0  0.2348684E-06  0.2885284E+04  0.7818609E-02  0.8277269E-01
       -1   -1    0    0    0  501  0.00000000000E+00  0.00000000000E+00  0.17845719238E+04  0.17845719238E+04  0.50400001928E-02 0. -1.
        1   -1    0    0  501    0  0.00000000000E+00  0.00000000000E+00 -0.11662269613E+04  0.11662269613E+04  0.50400001928E-02 0.  1.
    10030    2    1    2    0    0  0.00000000000E+00  0.00000000000E+00  0.61834496249E+03  0.29507988851E+04  0.28852839665E+04 0.  0.
        5    1    3    3  502    0 -0.25463211907E+03  0.69281856181E+03  0.15768166531E+04  0.17410364508E+04  0.46999998093E+01 0. -1.
       -5    1    3    3    0  502  0.25463211907E+03 -0.69281856181E+03 -0.95847169058E+03  0.12097624342E+04  0.46999998093E+01 0.  1.
</event>
<event>
 5   0  0.2429358E-06  0.2892029E+04  0.7818609E-02  0.8275253E-01
       -1   -1    0    0    0  501  0.00000000000E+00  0.00000000000E+00  0.13320054502E+04  0.13320054503E+04  0.50400001928E-02 0.  1.
        1   -1    0    0  501    0  0.00000000000E+00  0.00000000000E+00 -0.15697819042E+04  0.15697819042E+04  0.50400001928E-02 0. -1.
    10030    2    1    2    0    0  0.00000000000E+00  0.00000000000E+00 -0.23777645392E+03  0.29017873544E+04  0.28920290815E+04 0.  0.
        2    1    3    3  502    0  0.17240089153E+03  0.13868310260E+04  0.25376188294E+03  0.14203582138E+04  0.25500000920E-02 0.  1.
       -2    1    3    3    0  502 -0.17240089153E+03 -0.13868310260E+04 -0.49153833686E+03  0.14814291407E+04  0.25500000920E-02 0. -1.
</event>
<event>
 5   0  0.2474769E-06  0.2913732E+04  0.7818609E-02  0.8268803E-01
       -1   -1    0    0    0  501  0.00000000000E+00  0.00000000000E+00  0.97280885967E+03  0.97280885968E+03  0.50400001928E-02 0. -1.
        1   -1    0    0  501    0  0.00000000000E+00  0.00000000000E+00 -0.21817842195E+04  0.21817842195E+04  0.50400001928E-02 0.  1.
    10030    2    1    2    0    0  0.00000000000E+00  0.00000000000E+00 -0.12089753598E+04  0.31545930792E+04  0.29137323272E+04 0.  0.
        1    1    3    3  502    0 -0.33872668499E+03 -0.12849816619E+04 -0.12509617358E+04  0.18250531233E+04  0.50400001928E-02 0.  1.
       -1    1    3    3    0  502  0.33872668499E+03  0.12849816619E+04  0.41986375991E+02  0.13295399559E+04  0.50400001928E-02 0. -1.
</event>
<event>
 5   0  0.6733688E-06  0.2901401E+04  0.7818609E-02  0.8272461E-01
       -2   -1    0    0    0  501  0.00000000000E+00  0.00000000000E+00  0.10193243070E+04  0.10193243070E+04  0.25500000920E-02 0. -1.
        2   -1    0    0  501    0  0.00000000000E+00  0.00000000000E+00 -0.20646340043E+04  0.20646340043E+04  0.25500000920E-02 0.  1.
    10030    2    1    2    0    0  0.00000000000E+00  0.00000000000E+00 -0.10453096973E+04  0.30839583113E+04  0.29014007829E+04 0.  0.
        5    1    3    3  502    0 -0.20234759319E+03 -0.10215181087E+04  0.55087680837E+03  0.11781048947E+04  0.46999998093E+01 0. -1.
       -5    1    3    3    0  502  0.20234759319E+03  0.10215181087E+04 -0.15961865056E+04  0.19058534166E+04  0.46999998093E+01 0.  1.
</event>
<event>
 5   0  0.6733688E-06  0.2902747E+04  0.7818609E-02  0.8272061E-01
       -2   -1    0    0    0  501  0.00000000000E+00  0.00000000000E+00  0.87624753697E+03  0.87624753697E+03  0.25500000920E-02 0.  1.
        2   -1    0    0  501    0  0.00000000000E+00  0.00000000000E+00 -0.24039833074E+04  0.24039833074E+04  0.25500000920E-02 0. -1.
    10030    2    1    2    0    0  0.00000000000E+00  0.00000000000E+00 -0.15277357705E+04  0.32802308444E+04  0.29027465973E+04 0.  0.
        5    1    3    3  502    0  0.49708644698E+03  0.16902816468E+03  0.76515986779E+03  0.92798554380E+03  0.46999998093E+01 0.  1.
       -5    1    3    3    0  502 -0.49708644698E+03 -0.16902816468E+03 -0.22928956383E+04  0.23522453006E+04  0.46999998093E+01 0. -1.
</event>
<event>
 5   0  0.6393633E-06  0.2905308E+04  0.7818609E-02  0.8271300E-01
        2   -1    0    0  501    0  0.00000000000E+00  0.00000000000E+00  0.17190607634E+04  0.17190607634E+04  0.25500000920E-02 0. -1.
       -2   -1    0    0    0  501  0.00000000000E+00  0.00000000000E+00 -0.12275331846E+04  0.12275331846E+04  0.25500000920E-02 0.  1.
    10030    2    1    2    0    0  0.00000000000E+00  0.00000000000E+00  0.49152757879E+03  0.29465939480E+04  0.29053083371E+04 0.  0.
        4    1    3    3  502    0 -0.90556388567E+03 -0.40701518932E+03 -0.82972742282E+03  0.12938920065E+04  0.12699999809E+01 0.  1.
       -4    1    3    3    0  502  0.90556388567E+03  0.40701518932E+03  0.13212550016E+04  0.16527019415E+04  0.12699999809E+01 0. -1.
</event>
<event>
 5   0  0.2348684E-06  0.3103532E+04  0.7818609E-02  0.8214769E-01
        1   -1    0    0  501    0  0.00000000000E+00  0.00000000000E+00  0.12716355995E+04  0.12716355995E+04  0.50400001928E-02 0. -1.
       -1   -1    0    0    0  501  0.00000000000E+00  0.00000000000E+00 -0.18936071188E+04  0.18936071188E+04  0.50400001928E-02 0.  1.
    10030    2    1    2    0    0  0.00000000000E+00  0.00000000000E+00 -0.62197151937E+03  0.31652427183E+04  0.31035323254E+04 0.  0.
        5    1    3    3  502    0  0.43822924015E+02  0.15386617050E+04 -0.11072500705E+03  0.15432700374E+04  0.46999998093E+01 0. -1.
       -5    1    3    3    0  502 -0.43822924015E+02 -0.15386617050E+04 -0.51124651232E+03  0.16219726809E+04  0.46999998093E+01 0.  1.
</event>
<event>
 5   0  0.6615403E-06  0.2569663E+04  0.7818609E-02  0.8378580E-01
       -2   -1    0    0    0  501  0.00000000000E+00  0.00000000000E+00  0.16401819975E+04  0.16401819975E+04  0.25500000920E-02 0. -1.
        2   -1    0    0  501    0  0.00000000000E+00  0.00000000000E+00 -0.10064685111E+04  0.10064685111E+04  0.25500000920E-02 0.  1.
    10030    2    1    2    0    0  0.00000000000E+00  0.00000000000E+00  0.63371348644E+03  0.26466505086E+04  0.25696626494E+04 0.  0.
        2    1    3    3  502    0  0.10353074913E+04  0.75999413194E+03  0.27917017605E+03  0.13143015900E+04  0.25500000920E-02 0. -1.
       -2    1    3    3    0  502 -0.10353074913E+04 -0.75999413194E+03  0.35454331039E+03  0.13323489187E+04  0.25500000920E-02 0.  1.
</event>
<event>
 5   0  0.2429358E-06  0.2904634E+04  0.7818609E-02  0.8271500E-01
        1   -1    0    0  501    0  0.00000000000E+00  0.00000000000E+00  0.17565095900E+04  0.17565095900E+04  0.50400001928E-02 0. -1.
       -1   -1    0    0    0  501  0.00000000000E+00  0.00000000000E+00 -0.12008041984E+04  0.12008041984E+04  0.50400001928E-02 0.  1.
    10030    2    1    2    0    0  0.00000000000E+00  0.00000000000E+00  0.55570539157E+03  0.29573137884E+04  0.29046336019E+04 0.  0.
        2    1    3    3  502    0  0.34743213111E+03 -0.51635127129E+03  0.16138622262E+04  0.17297048899E+04  0.25500000920E-02 0. -1.
       -2    1    3    3    0  502 -0.34743213111E+03  0.51635127129E+03 -0.10581568346E+04  0.12276088985E+04  0.25500000920E-02 0.  1.
</event>
<event>
 5   0  0.6615403E-06  0.2984631E+04  0.7818609E-02  0.8248133E-01
        2   -1    0    0  501    0  0.00000000000E+00  0.00000000000E+00  0.20957615676E+04  0.20957615676E+04  0.25500000920E-02 0.  1.
       -2   -1    0    0    0  501  0.00000000000E+00  0.00000000000E+00 -0.10626233467E+04  0.10626233467E+04  0.25500000920E-02 0. -1.
    10030    2    1    2    0    0  0.00000000000E+00  0.00000000000E+00  0.10331382209E+04  0.31583849143E+04  0.29846307449E+04 0.  0.
        2    1    3    3  502    0 -0.63456335133E+03 -0.27627865679E+03  0.19156593837E+04  0.20368484031E+04  0.25500000920E-02 0.  1.
       -2    1    3    3    0  502  0.63456335133E+03  0.27627865679E+03 -0.88252116279E+03  0.11215365111E+04  0.25500000920E-02 0. -1.
</event>
<event>
 5   0  0.2348684E-06  0.2902458E+04  0.7818609E-02  0.8272146E-01
       -1   -1    0    0    0  501  0.00000000000E+00  0.00000000000E+00  0.11257143653E+04  0.11257143653E+04  0.50400001928E-02 0.  1.
        1   -1    0    0  501    0  0.00000000000E+00  0.00000000000E+00 -0.18708706368E+04  0.18708706368E+04  0.50400001928E-02 0. -1.
    10030    2    1    2    0    0  0.00000000000E+00  0.00000000000E+00 -0.74515627152E+03  0.29965850021E+04  0.29024582350E+04 0.  0.
        5    1    3    3  502    0 -0.30186926464E+03  0.11308561571E+04 -0.12583544511E+04  0.17185571610E+04  0.46999998093E+01 0.  1.
       -5    1    3    3    0  502  0.30186926464E+03 -0.11308561571E+04  0.51319817962E+03  0.12780278411E+04  0.46999998093E+01 0. -1.
</event>
<event>
 5   0  0.6393633E-06  0.2842982E+04  0.7818609E-02  0.8290047E-01
        2   -1    0    0  501    0  0.00000000000E+00  0.00000000000E+00  0.13974732279E+04  0.13974732279E+04  0.25500000920E-02 0.  1.
       -2   -1    0    0    0  501  0.00000000000E+00  0.00000000000E+00 -0.14459215242E+04  0.14459215242E+04  0.25500000920E-02 0. -1.
    10030    2    1    2    0    0  0.00000000000E+00  0.00000000000E+00 -0.48448296279E+02  0.28433947521E+04  0.28429819695E+04 0.  0.
        4    1    3    3  502    0 -0.12580180010E+04 -0.32631983391E+03  0.55165549560E+03  0.14118850250E+04  0.12699999809E+01 0.  1.
       -4    1    3    3    0  502  0.12580180010E+04  0.32631983391E+03 -0.60010379188E+03  0.14315097271E+04  0.12699999809E+01 0. -1.
</event>
<event>
 5   0  0.2474769E-06  0.2872413E+04  0.7818609E-02  0.8281133E-01
        1   -1    0    0  501    0  0.00000000000E+00  0.00000000000E+00  0.16004256189E+04  0.16004256189E+04  0.50400001928E-02 0.  1.
       -1   -1    0    0    0  501  0.00000000000E+00  0.00000000000E+00 -0.12888376802E+04  0.12888376802E+04  0.50400001928E-02 0. -1.
    10030    2    1    2    0    0  0.00000000000E+00  0.00000000000E+00  0.31158793875E+03  0.28892632991E+04  0.28724128129E+04 0.  0.
        1    1    3    3  502    0  0.13374292375E+04  0.40928180170E+03 -0.17240262824E+03  0.14092378170E+04  0.50400001928E-02 0. -1.
       -1    1    3    3    0  502 -0.13374292375E+04 -0.40928180170E+03  0.48399056699E+03  0.14800254821E+04  0.50400001928E-02 0.  1.
</event>
<event>
 5   0  0.2348684E-06  0.2815067E+04  0.7818609E-02  0.8298606E-01
        1   -1    0    0  501    0  0.00000000000E+00  0.00000000000E+00  0.15541639419E+04  0.15541639419E+04  0.50400001928E-02 0. -1.
       -1   -1    0    0    0  501  0.00000000000E+00  0.00000000000E+00 -0.12747372735E+04  0.12747372736E+04  0.50400001928E-02 0.  1.
    10030    2    1    2    0    0  0.00000000000E+00  0.00000000000E+00  0.27942666839E+03  0.28289012155E+04  0.28150671083E+04 0.  0.
        5    1    3    3  502    0  0.55368833883E+03 -0.15865265904E+03  0.14303093981E+04  0.15419301240E+04  0.46999998093E+01 0. -1.
       -5    1    3    3    0  502 -0.55368833883E+03  0.15865265904E+03 -0.11508827298E+04  0.12869710915E+04  0.46999998093E+01 0.  1.
</event>
<event>
 5   0  0.2474769E-06  0.2938059E+04  0.7818609E-02  0.8261643E-01
       -1   -1    0    0    0  501  0.00000000000E+00  0.00000000000E+00  0.13700655975E+04  0.13700655975E+04  0.50400001928E-02 0.  1.
        1   -1    0    0  501    0  0.00000000000E+00  0.00000000000E+00 -0.15751415129E+04  0.15751415130E+04  0.50400001928E-02 0. -1.
    10030    2    1    2    0    0  0.00000000000E+00  0.00000000000E+00 -0.20507591545E+03  0.29452071105E+04  0.29380586775E+04 0.  0.
        1    1    3    3  502    0  0.54845968460E+03  0.57104719682E+03 -0.13429427406E+04  0.15589734222E+04  0.50400001928E-02 0. -1.
       -1    1    3    3    0  502 -0.54845968460E+03 -0.57104719682E+03  0.11378668251E+04  0.13862336882E+04  0.50400001928E-02 0.  1.
</event>
<event>
 5   0  0.6615403E-06  0.2890820E+04  0.7818609E-02  0.8275614E-01
       -2   -1    0    0    0  501  0.00000000000E+00  0.00000000000E+00  0.98850606195E+03  0.98850606196E+03  0.25500000920E-02 0.  1.
        2   -1    0    0  501    0  0.00000000000E+00  0.00000000000E+00 -0.21135022088E+04  0.21135022088E+04  0.25500000920E-02 0. -1.
    10030    2    1    2    0    0  0.00000000000E+00  0.00000000000E+00 -0.11249961468E+04  0.31020082708E+04  0.28908197767E+04 0.  0.
        2    1    3    3  502    0 -0.16222912340E+01  0.13107118135E+04  0.91310008280E+02  0.13138894959E+04  0.25500000920E-02 0. -1.
       -2    1    3    3    0  502  0.16222912340E+01 -0.13107118135E+04 -0.12163061551E+04  0.17881187748E+04  0.25500000920E-02 0.  1.
</event>
<event>
 5   0  0.6612533E-06  0.2959240E+04  0.7818609E-02  0.8255467E-01
        2   -1    0    0  501    0  0.00000000000E+00  0.00000000000E+00  0.84664363763E+03  0.84664363764E+03  0.25500000920E-02 0. -1.
       -2   -1    0    0    0  501  0.00000000000E+00  0.00000000000E+00 -0.25858288268E+04  0.25858288268E+04  0.25500000920E-02 0.  1.
    10030    2    1    2    0    0  0.00000000000E+00  0.00000000000E+00 -0.17391851892E+04  0.34324724645E+04  0.29592401215E+04 0.  0.
        3    1    3    3  502    0 -0.14258109241E+04 -0.38314540126E+03 -0.75631007584E+03  0.16588375842E+04  0.10100000352E+00 0. -1.
       -3    1    3    3    0  502  0.14258109241E+04  0.38314540126E+03 -0.98287511335E+03  0.17736348802E+04  0.10100000352E+00 0.  1.
</event>
<event>
 5   0  0.2348684E-06  0.2774050E+04  0.7818609E-02  0.8311370E-01
        1   -1    0    0  501    0  0.00000000000E+00  0.00000000000E+00  0.12684269947E+04  0.12684269948E+04  0.50400001928E-02 0.  1.
       -1   -1    0    0    0  501  0.00000000000E+00  0.00000000000E+00 -0.15167123992E+04  0.15167123993E+04  0.50400001928E-02 0. -1.
    10030    2    1    2    0    0  0.00000000000E+00  0.00000000000E+00 -0.24828540449E+03  0.27851393940E+04  0.27740504325E+04 0.  0.
        5    1    3    3  502    0 -0.62719835434E+03 -0.58473916337E+03 -0.12186929006E+04  0.14901450066E+04  0.46999998093E+01 0. -1.
       -5    1    3    3    0  502  0.62719835434E+03  0.58473916337E+03  0.97040749609E+03  0.12949943874E+04  0.46999998093E+01 0.  1.
</event>
<event>
 5   0  0.6733688E-06  0.2974032E+04  0.7818609E-02  0.8251185E-01
        2   -1    0    0  501    0  0.00000000000E+00  0.00000000000E+00  0.19572563840E+04  0.19572563840E+04  0.25500000920E-02 0. -1.
       -2   -1    0    0    0  501  0.00000000000E+00  0.00000000000E+00 -0.11297532358E+04  0.11297532358E+04  0.25500000920E-02 0.  1.
    10030    2    1    2    0    0  0.00000000000E+00  0.00000000000E+00  0.82750314824E+03  0.30870096198E+04  0.29740321001E+04 0.  0.
        5    1    3    3  502    0  0.12540815535E+03 -0.27230530279E+03  0.19255543689E+04  0.19487583485E+04  0.46999998093E+01 0. -1.
       -5    1    3    3    0  502 -0.12540815535E+03  0.27230530279E+03 -0.10980512207E+04  0.11382512713E+04  0.46999998093E+01 0.  1.
</event>
<event>
 5   0  0.6733688E-06  0.2793001E+04  0.7818609E-02  0.8305444E-01
       -2   -1    0    0    0  501  0.00000000000E+00  0.00000000000E+00  0.15723573452E+04  0.15723573452E+04  0.25500000920E-02 0.  1.
        2   -1    0    0  501    0  0.00000000000E+00  0.00000000000E+00 -0.12403123945E+04  0.12403123945E+04  0.25500000920E-02 0. -1.
    10030    2    1    2    0    0  0.00000000000E+00  0.00000000000E+00  0.33204495076E+03  0.28126697397E+04  0.27930014707E+04 0.  0.
        5    1    3    3  502    0 -0.10439344480E+02 -0.13964384500E+04  0.17261757455E+03  0.14071134431E+04  0.46999998093E+01 0. -1.
       -5    1    3    3    0  502  0.10439344480E+02  0.13964384500E+04  0.15942737621E+03  0.14055562966E+04  0.46999998093E+01 0.  1.
</event>
<event>
 5   0  0.6733688E-06  0.2626924E+04  0.7818609E-02  0.8359113E-01
       -2   -1    0    0    0  501  0.00000000000E+00  0.00000000000E+00  0.10241689246E+04  0.10241689246E+04  0.25500000920E-02 0.  1.
        2   -1    0    0  501    0  0.00000000000E+00  0.00000000000E+00 -0.16844708930E+04  0.16844708930E+04  0.25500000920E-02 0. -1.
    10030    2    1    2    0    0  0.00000000000E+00  0.00000000000E+00 -0.66030196835E+03  0.27086398176E+04  0.26269242418E+04 0.  0.
        5    1    3    3  502    0  0.12327590175E+04 -0.14109648794E+03  0.11401278418E+03  0.12460433456E+04  0.46999998093E+01 0.  1.
       -5    1    3    3    0  502 -0.12327590175E+04  0.14109648794E+03 -0.77431475253E+03  0.14625964720E+04  0.46999998093E+01 0. -1.
</event>
<event>
 5   0  0.2474769E-06  0.2833112E+04  0.7818609E-02  0.8293062E-01
        1   -1    0    0  501    0  0.00000000000E+00  0.00000000000E+00  0.19564719401E+04  0.19564719401E+04  0.50400001928E-02 0. -1.
       -1   -1    0    0    0  501  0.00000000000E+00  0.00000000000E+00 -0.10256371247E+04  0.10256371247E+04  0.50400001928E-02 0.  1.
    10030    2    1    2    0    0  0.00000000000E+00  0.00000000000E+00  0.93083481540E+03  0.29821090648E+04  0.28331115440E+04 0.  0.
        1    1    3    3  502    0 -0.10190943735E+04  0.44339033299E+03  0.13899510670E+04  0.17796382493E+04  0.50400001928E-02 0. -1.
       -1    1    3    3    0  502  0.10190943735E+04 -0.44339033299E+03 -0.45911625165E+03  0.12024708155E+04  0.50400001928E-02 0.  1.
</event>
<event>
 5   0  0.6393633E-06  0.2903508E+04  0.7818609E-02  0.8271835E-01
       -2   -1    0    0    0  501  0.00000000000E+00  0.00000000000E+00  0.90800228129E+03  0.90800228129E+03  0.25500000920E-02 0. -1.
        2   -1    0    0  501    0  0.00000000000E+00  0.00000000000E+00 -0.23211281584E+04  0.23211281584E+04  0.25500000920E-02 0.  1.
    10030    2    1    2    0    0  0.00000000000E+00  0.00000000000E+00 -0.14131258771E+04  0.32291304397E+04  0.29035079907E+04 0.  0.
        4    1    3    3  502    0  0.13345178190E+04  0.41742866174E+03 -0.27239264114E+03  0.14245644460E+04  0.12699999809E+01 0. -1.
       -4    1    3    3    0  502 -0.13345178190E+04 -0.41742866174E+03 -0.11407332360E+04  0.18045659937E+04  0.12699999809E+01 0.  1.
</event>
<event>
 5   0  0.2474769E-06  0.2943424E+04  0.7818609E-02  0.8260073E-01
       -1   -1    0    0    0  501  0.00000000000E+00  0.00000000000E+00  0.14800537886E+04  0.14800537886E+04  0.50400001928E-02 0.  1.
        1   -1    0    0  501    0  0.00000000000E+00  0.00000000000E+00 -0.14634175347E+04  0.14634175347E+04  0.50400001928E-02 0. -1.
    10030    2    1    2    0    0  0.00000000000E+00  0.00000000000E+00  0.16636253916E+02  0.29434713233E+04  0.29434243096E+04 0.  0.
        1    1    3    3  502    0  0.11918479568E+04 -0.83425947983E+03 -0.21405051791E+03  0.14704788527E+04  0.50400001928E-02 0. -1.
       -1    1    3    3    0  502 -0.11918479568E+04  0.83425947983E+03  0.23068677182E+03  0.14729924706E+04  0.50400001928E-02 0.  1.
</event>
<event>
 5   0  0.2508094E-06  0.2881084E+04  0.7818609E-02  0.8278528E-01
       -1   -1    0    0    0  501  0.00000000000E+00  0.00000000000E+00  0.66833502288E+03  0.66833502290E+03  0.50400001928E-02 0. -1.
        1   -1    0    0  501    0  0.00000000000E+00  0.00000000000E+00 -0.31049706873E+04  0.31049706873E+04  0.50400001928E-02 0.  1.
    10030    2    1    2    0    0  0.00000000000E+00  0.00000000000E+00 -0.24366356645E+04  0.37733057102E+04  0.28810835846E+04 0.  0.
        3    1    3    3  502    0  0.17787526262E+03 -0.71906820561E+03 -0.28364318740E+04  0.29315600760E+04  0.10100000352E+00 0.  1.
       -3    1    3    3    0  502 -0.17787526262E+03  0.71906820561E+03  0.39979620953E+03  0.84174563422E+03  0.10100000352E+00 0. -1.
</event>
<event>
 5   0  0.2429358E-06  0.2907662E+04  0.7818609E-02  0.8270602E-01
       -1   -1    0    0    0  501  0.00000000000E+00  0.00000000000E+00  0.79794955293E+03  0.79794955295E+03  0.50400001928E-02 0.  1.
        1   -1    0    0  501    0  0.00000000000E+00  0.00000000000E+00 -0.26488191899E+04  0.26488191899E+04  0.50400001928E-02 0. -1.
    10030    2    1    2    0    0  0.00000000000E+00  0.00000000000E+00 -0.18508696370E+04  0.34467687429E+04  0.29076616642E+04 0.  0.
        2    1    3    3  502    0 -0.12130074636E+02  0.45895400904E+03  0.70975887037E+03  0.84530679354E+03  0.25500000920E-02 0.  1.
       -2    1    3    3    0  502  0.12130074636E+02 -0.45895400904E+03 -0.25606285073E+04  0.26014619493E+04  0.25500000920E-02 0. -1.
</event>
<event>
 5   0  0.6393633E-06  0.2871072E+04  0.7818609E-02  0.8281537E-01
       -2   -1    0    0    0  501  0.00000000000E+00  0.00000000000E+00  0.92558320793E+03  0.92558320793E+03  0.25500000920E-02 0. -1.
        2   -1    0    0  501    0  0.00000000000E+00  0.00000000000E+00 -0.22264482648E+04  0.22264482648E+04  0.25500000920E-02 0.  1.
    10030    2    1    2    0    0  0.00000000000E+00  0.00000000000E+00 -0.13008650569E+04  0.31520314727E+04  0.28710716656E+04 0.  0.
        4    1    3    3  502    0  0.47854691596E+03 -0.48407047572E+03 -0.20380106673E+04  0.21486787730E+04  0.12699999809E+01 0.  1.
       -4    1    3    3    0  502 -0.47854691596E+03  0.48407047572E+03  0.73714561047E+03  0.10033526998E+04  0.12699999809E+01 0. -1.
</event>
<event>
 5   0  0.2336512E-06  0.2926979E+04  0.7818609E-02  0.8264895E-01
       -1   -1    0    0    0  501  0.00000000000E+00  0.00000000000E+00  0.17976514580E+04  0.17976514580E+04  0.50400001928E-02 0. -1.
        1   -1    0    0  501    0  0.00000000000E+00  0.00000000000E+00 -0.11914444966E+04  0.11914444966E+04  0.50400001928E-02 0.  1.
    10030    2    1    2    0    0  0.00000000000E+00  0.00000000000E+00  0.60620696134E+03  0.29890959546E+04  0.29269792869E+04 0.  0.
        4    1    3    3  502    0  0.83992348755E+03  0.10782353088E+04  0.83740614287E+03  0.16029078286E+04  0.12699999809E+01 0. -1.
       -4    1    3    3    0  502 -0.83992348755E+03 -0.10782353088E+04 -0.23119918153E+03  0.13861881260E+04  0.12699999809E+01 0.  1.
</event>
<event>
 5   0  0.2508094E-06  0.2978114E+04  0.7818609E-02  0.8250008E-01
       -1   -1    0    0    0  501  0.00000000000E+00  0.00000000000E+00  0.72691675132E+03  0.72691675134E+03  0.50400001928E-02 0. -1.
        1   -1    0    0  501    0  0.00000000000E+00  0.00000000000E+00 -0.30502687553E+04  0.30502687553E+04  0.50400001928E-02 0.  1.
    10030    2    1    2    0    0  0.00000000000E+00  0.00000000000E+00 -0.23233520040E+04  0.37771855066E+04  0.29781144735E+04 0.  0.
        3    1    3    3  502    0  0.10819633074E+04 -0.88080392068E+03 -0.18217252698E+04  0.22945899664E+04  0.10100000352E+00 0. -1.
       -3    1    3    3    0  502 -0.10819633074E+04  0.88080392068E+03 -0.50162673419E+03  0.14825955402E+04  0.10100000352E+00 0.  1.
</event>
<event>
 5   0  0.6513041E-06  0.2542684E+04  0.7818609E-02  0.8387935E-01
       -2   -1    0    0    0  501  0.00000000000E+00  0.00000000000E+00  0.18269453295E+04  0.18269453295E+04  0.25500000920E-02 0.  1.
        2   -1    0    0  501    0  0.00000000000E+00  0.00000000000E+00 -0.88470625640E+03  0.88470625641E+03  0.25500000920E-02 0. -1.
    10030    2    1    2    0    0  0.00000000000E+00  0.00000000000E+00  0.94223907310E+03  0.27116515859E+04  0.25426835927E+04 0.  0.
        1    1    3    3  502    0  0.22524714520E+02 -0.81763772827E+03  0.15090750041E+04  0.17164924076E+04  0.50400001928E-02 0.  1.
       -1    1    3    3    0  502 -0.22524714520E+02  0.81763772827E+03 -0.56683593098E+03  0.99515917829E+03  0.50400001928E-02 0. -1.
</event>
<event>
 5   0  0.6733688E-06  0.2896594E+04  0.7818609E-02  0.8273891E-01
        2   -1    0    0  501    0  0.00000000000E+00  0.00000000000E+00  0.96660279036E+03  0.96660279037E+03  0.25500000920E-02 0. -1.
       -2   -1    0    0    0  501  0.00000000000E+00  0.00000000000E+00 -0.21700380576E+04  0.21700380576E+04  0.25500000920E-02 0.  1.
    10030    2    1    2    0    0  0.00000000000E+00  0.00000000000E+00 -0.12034352672E+04  0.31366408479E+04  0.28965944429E+04 0.  0.
        5    1    3    3  502    0  0.57710476405E+03  0.55137462221E+03 -0.19103713402E+04  0.20704117055E+04  0.46999998093E+01 0.  1.
       -5    1    3    3    0  502 -0.57710476405E+03 -0.55137462221E+03  0.70693607306E+03  0.10662291424E+04  0.46999998093E+01 0. -1.
</event>
<event>
 5   0  0.2336512E-06  0.2897561E+04  0.7818609E-02  0.8273604E-01
        1   -1    0    0  501    0  0.00000000000E+00  0.00000000000E+00  0.12924243443E+04  0.12924243443E+04  0.50400001928E-02 0. -1.
       -1   -1    0    0    0  501  0.00000000000E+00  0.00000000000E+00 -0.16240520738E+04  0.16240520738E+04  0.50400001928E-02 0.  1.
    10030    2    1    2    0    0  0.00000000000E+00  0.00000000000E+00 -0.33162772951E+03  0.29164764182E+04  0.28975606546E+04 0.  0.
        4    1    3    3  502    0  0.16008484656E+03  0.14160614366E+04  0.96860432887E+02  0.14283699474E+04  0.12699999809E+01 0. -1.
       -4    1    3    3    0  502 -0.16008484656E+03 -0.14160614366E+04 -0.42848816239E+03  0.14881064708E+04  0.12699999809E+01 0.  1.
</event>
<event>
 5   0  0.6393633E-06  0.2882310E+04  0.7818609E-02  0.8278160E-01
       -2   -1    0    0    0  501  0.00000000000E+00  0.00000000000E+00  0.23039064995E+04  0.23039064995E+04  0.25500000920E-02 0.  1.
        2   -1    0    0  501    0  0.00000000000E+00  0.00000000000E+00 -0.90148079995E+03  0.90148079996E+03  0.25500000920E-02 0. -1.
    10030    2    1    2    0    0  0.00000000000E+00  0.00000000000E+00  0.14024256995E+04  0.32053872995E+04  0.28823098197E+04 0.  0.
        4    1    3    3  502    0 -0.50533830614E+03  0.24916331542E+03  0.21763473165E+04  0.22480966208E+04  0.12699999809E+01 0.  1.
       -4    1    3    3    0  502  0.50533830614E+03 -0.24916331542E+03 -0.77392161695E+03  0.95729067868E+03  0.12699999809E+01 0. -1.
</event>
<event>
 5   0  0.6615403E-06  0.2902478E+04  0.7818609E-02  0.8272141E-01
        2   -1    0    0  501    0  0.00000000000E+00  0.00000000000E+00  0.14878535191E+04  0.14878535191E+04  0.25500000920E-02 0. -1.
       -2   -1    0    0    0  501  0.00000000000E+00  0.00000000000E+00 -0.14155257257E+04  0.14155257257E+04  0.25500000920E-02 0.  1.
    10030    2    1    2    0    0  0.00000000000E+00  0.00000000000E+00  0.72327793422E+02  0.29033792448E+04  0.29024782048E+04 0.  0.
        2    1    3    3  502    0  0.10858390344E+04  0.72893414643E+03 -0.59308109124E+03  0.14360141292E+04  0.25500000920E-02 0.  1.
       -2    1    3    3    0  502 -0.10858390344E+04 -0.72893414643E+03  0.66540888466E+03  0.14673651156E+04  0.25500000920E-02 0. -1.
</event>
<event>
 5   0  0.2474769E-06  0.2696760E+04  0.7818609E-02  0.8336057E-01
       -1   -1    0    0    0  501  0.00000000000E+00  0.00000000000E+00  0.13299247682E+04  0.13299247682E+04  0.50400001928E-02 0. -1.
        1   -1    0    0  501    0  0.00000000000E+00  0.00000000000E+00 -0.13670914630E+04  0.13670914630E+04  0.50400001928E-02 0.  1.
    10030    2    1    2    0    0  0.00000000000E+00  0.00000000000E+00 -0.37166694849E+02  0.26970162312E+04  0.26967601281E+04 0.  0.
        1    1    3    3  502    0 -0.10189554971E+04  0.64753436229E+03 -0.61910497663E+03  0.13567837069E+04  0.50400001928E-02 0.  1.
       -1    1    3    3    0  502  0.10189554971E+04 -0.64753436229E+03  0.58193828178E+03  0.13402325243E+04  0.50400001928E-02 0. -1.
</event>
<event>
 5   0  0.6615403E-06  0.2932712E+04  0.7818609E-02  0.8263211E-01
       -2   -1    0    0    0  501  0.00000000000E+00  0.00000000000E+00  0.11651962186E+04  0.11651962186E+04  0.25500000920E-02 0.  1.
        2   -1    0    0  501    0  0.00000000000E+00  0.00000000000E+00 -0.18453537565E+04  0.18453537565E+04  0.25500000920E-02 0. -1.
    10030    2    1    2    0    0  0.00000000000E+00  0.00000000000E+00 -0.68015753792E+03  0.30105499751E+04  0.29327115228E+04 0.  0.
        2    1    3    3  502    0 -0.22238220677E+03  0.64672006697E+03  0.99146007965E+03  0.12044475001E+04  0.25500000920E-02 0.  1.
       -2    1    3    3    0  502  0.22238220677E+03 -0.64672006697E+03 -0.16716176176E+04  0.18061024750E+04  0.25500000920E-02 0. -1.
</event>
<event>
 5   0  0.2429358E-06  0.2956387E+04  0.7818609E-02  0.8256296E-01
       -1   -1    0    0    0  501  0.00000000000E+00  0.00000000000E+00  0.11353077331E+04  0.11353077331E+04  0.50400001928E-02 0.  1.
        1   -1    0    0  501    0  0.00000000000E+00  0.00000000000E+00 -0.19246379990E+04  0.19246379990E+04  0.50400001928E-02 0. -1.
    10030    2    1    2    0    0  0.00000000000E+00  0.00000000000E+00 -0.78933026590E+03  0.30599457321E+04  0.29563872572E+04 0.  0.
        2    1    3    3  502    0  0.78599722984E+03 -0.10351070024E+04 -0.11234740163E+04  0.17179732295E+04  0.25500000920E-02 0. -1.
       -2    1    3    3    0  502 -0.78599722984E+03  0.10351070024E+04  0.33414375044E+03  0.13419725026E+04  0.25500000920E-02 0.  1.
</event>
<event>
 5   0  0.2336512E-06  0.2972860E+04  0.7818609E-02  0.8251524E-01
        1   -1    0    0  501    0  0.00000000000E+00  0.00000000000E+00  0.19635897357E+04  0.19635897357E+04  0.50400001928E-02 0. -1.
       -1   -1    0    0    0  501  0.00000000000E+00  0.00000000000E+00 -0.11252219395E+04  0.11252219395E+04  0.50400001928E-02 0.  1.
    10030    2    1    2    0    0  0.00000000000E+00  0.00000000000E+00  0.83836779617E+03  0.30888116753E+04  0.29728600713E+04 0.  0.
        4    1    3    3  502    0  0.36530210563E+03 -0.94877679371E+03 -0.70747603782E+03  0.12386068745E+04  0.12699999809E+01 0.  1.
       -4    1    3    3    0  502 -0.36530210563E+03  0.94877679371E+03  0.15458438340E+04  0.18502048007E+04  0.12699999809E+01 0. -1.
</event>
<event>
 5   0  0.6513041E-06  0.2697996E+04  0.7818609E-02  0.8335655E-01
       -2   -1    0    0    0  501  0.00000000000E+00  0.00000000000E+00  0.97170604278E+03  0.97170604278E+03  0.25500000920E-02 0.  1.
        2   -1    0    0  501    0  0.00000000000E+00  0.00000000000E+00 -0.18727845182E+04  0.18727845182E+04  0.25500000920E-02 0. -1.
    10030    2    1    2    0    0  0.00000000000E+00  0.00000000000E+00 -0.90107847546E+03  0.28444905610E+04  0.26979963182E+04 0.  0.
        1    1    3    3  502    0  0.13542047499E+03  0.11488352822E+04  0.28114227832E+03  0.11904630155E+04  0.50400001928E-02 0.  1.
       -1    1    3    3    0  502 -0.13542047499E+03 -0.11488352822E+04 -0.11822207538E+04  0.16540275455E+04  0.50400001928E-02 0. -1.
</event>
<event>
 5   0  0.6615403E-06  0.2898703E+04  0.7818609E-02  0.8273263E-01
        2   -1    0    0  501    0  0.00000000000E+00  0.00000000000E+00  0.16560353594E+04  0.16560353594E+04  0.25500000920E-02 0.  1.
       -2   -1    0    0    0  501  0.00000000000E+00  0.00000000000E+00 -0.12684633754E+04  0.12684633754E+04  0.25500000920E-02 0. -1.
    10030    2    1    2    0    0  0.00000000000E+00  0.00000000000E+00  0.38757198403E+03  0.29244987349E+04  0.28987032976E+04 0.  0.
        2    1    3    3  502    0  0.40574477262E+03  0.10591875511E+04  0.11040975319E+04  0.15828892724E+04  0.25500000920E-02 0.  1.
       -2    1    3    3    0  502 -0.40574477262E+03 -0.10591875511E+04 -0.71652554789E+03  0.13416094624E+04  0.25500000920E-02 0. -1.
</event>
<event>
 5   0  0.2474769E-06  0.2825071E+04  0.7818609E-02  0.8295527E-01
        1   -1    0    0  501    0  0.00000000000E+00  0.00000000000E+00  0.14245103595E+04  0.14245103595E+04  0.50400001928E-02 0.  1.
       -1   -1    0    0    0  501  0.00000000000E+00  0.00000000000E+00 -0.14006617011E+04  0.14006617011E+04  0.50400001928E-02 0. -1.
    10030    2    1    2    0    0  0.00000000000E+00  0.00000000000E+00  0.23848658397E+02  0.28251720606E+04  0.28250713997E+04 0.  0.
        1    1    3    3  502    0  0.42844052863E+03  0.57262214315E+03 -0.12062322449E+04  0.14023029752E+04  0.50400001928E-02 0. -1.
       -1    1    3    3    0  502 -0.42844052863E+03 -0.57262214315E+03  0.12300809033E+04  0.14228690854E+04  0.50400001928E-02 0.  1.
</event>
<event>
 5   0  0.2429358E-06  0.3221519E+04  0.7818609E-02  0.8183157E-01
       -1   -1    0    0    0  501  0.00000000000E+00  0.00000000000E+00  0.21415144648E+04  0.21415144648E+04  0.50400001928E-02 0.  1.
        1   -1    0    0  501    0  0.00000000000E+00  0.00000000000E+00 -0.12115475002E+04  0.12115475002E+04  0.50400001928E-02 0. -1.
    10030    2    1    2    0    0  0.00000000000E+00  0.00000000000E+00  0.92996696462E+03  0.33530619651E+04  0.32215192047E+04 0.  0.
        2    1    3    3  502    0 -0.11226438047E+04  0.11532270880E+04  0.39685331778E+03  0.16576351783E+04  0.25500000920E-02 0. -1.
       -2    1    3    3    0  502  0.11226438047E+04 -0.11532270880E+04  0.53311364684E+03  0.16954267867E+04  0.25500000920E-02 0.  1.
</event>
<event>
 5   0  0.6513041E-06  0.2873982E+04  0.7818609E-02  0.8280661E-01
       -2   -1    0    0    0  501  0.00000000000E+00  0.00000000000E+00  0.13976811864E+04  0.13976811864E+04  0.25500000920E-02 0. -1.
        2   -1    0    0  501    0  0.00000000000E+00  0.00000000000E+00 -0.14774061760E+04  0.14774061760E+04  0.25500000920E-02 0.  1.
    10030    2    1    2    0    0  0.00000000000E+00  0.00000000000E+00 -0.79724989627E+02  0.28750873624E+04  0.28739817792E+04 0.  0.
        1    1    3    3  502    0 -0.65548346826E+03  0.24703734711E+02  0.12391730334E+04  0.14020765522E+04  0.50400001928E-02 0. -1.
       -1    1    3    3    0  502  0.65548346826E+03 -0.24703734711E+02 -0.13188980230E+04  0.14730108101E+04  0.50400001928E-02 0.  1.
</event>
<event>
 5   0  0.2429358E-06  0.2879981E+04  0.7818609E-02  0.8278859E-01
       -1   -1    0    0    0  501  0.00000000000E+00  0.00000000000E+00  0.13904899364E+04  0.13904899364E+04  0.50400001928E-02 0.  1.
        1   -1    0    0  501    0  0.00000000000E+00  0.00000000000E+00 -0.14912528458E+04  0.14912528458E+04  0.50400001928E-02 0. -1.
    10030    2    1    2    0    0  0.00000000000E+00  0.00000000000E+00 -0.10076290941E+03  0.28817427822E+04  0.28799806074E+04 0.  0.
        2    1    3    3  502    0 -0.45589873742E+03 -0.10186214614E+04 -0.96095955213E+03  0.14727106305E+04  0.25500000920E-02 0. -1.
       -2    1    3    3    0  502  0.45589873742E+03  0.10186214614E+04  0.86019664272E+03  0.14090321517E+04  0.25500000920E-02 0.  1.
</event>
<event>
 5   0  0.2508094E-06  0.2901895E+04  0.7818609E-02  0.8272314E-01
       -1   -1    0    0    0  501  0.00000000000E+00  0.00000000000E+00  0.12355817329E+04  0.12355817329E+04  0.50400001928E-02 0.  1.
        1   -1    0    0  501    0  0.00000000000E+00  0.00000000000E+00 -0.17038527015E+04  0.17038527015E+04  0.50400001928E-02 0. -1.
    10030    2    1    2    0    0  0.00000000000E+00  0.00000000000E+00 -0.46827096862E+03  0.29394344345E+04  0.29018954313E+04 0.  0.
        3    1    3    3  502    0 -0.52891253639E+03 -0.58597554734E+03 -0.14673132144E+04  0.16661704272E+04  0.10100000352E+00 0. -1.
       -3    1    3    3    0  502  0.52891253639E+03  0.58597554734E+03  0.99904224574E+03  0.12732640073E+04  0.10100000352E+00 0.  1.
</event>
<event>
 5   0  0.6393633E-06  0.2888248E+04  0.7818609E-02  0.8276383E-01
        2   -1    0    0  501    0  0.00000000000E+00  0.00000000000E+00  0.16897916863E+04  0.16897916863E+04  0.25500000920E-02 0. -1.
       -2   -1    0    0    0  501  0.00000000000E+00  0.00000000000E+00 -0.12341726142E+04  0.12341726142E+04  0.25500000920E-02 0.  1.
    10030    2    1    2    0    0  0.00000000000E+00  0.00000000000E+00  0.45561907211E+03  0.29239643006E+04  0.28882483432E+04 0.  0.
        4    1    3    3  502    0  0.68342213702E+03 -0.79273564393E+03  0.12350996189E+04  0.16189404869E+04  0.12699999809E+01 0. -1.
       -4    1    3    3    0  502 -0.68342213702E+03  0.79273564393E+03 -0.77948054681E+03  0.13050238137E+04  0.12699999809E+01 0.  1.
</event>
<event>
 5   0  0.6393633E-06  0.2916089E+04  0.7818609E-02  0.8268107E-01
       -2   -1    0    0    0  501  0.00000000000E+00  0.00000000000E+00  0.91242285728E+03  0.91242285728E+03  0.25500000920E-02 0.  1.
        2   -1    0    0  501    0  0.00000000000E+00  0.00000000000E+00 -0.23299438167E+04  0.23299438167E+04  0.25500000920E-02 0. -1.
    10030    2    1    2    0    0  0.00000000000E+00  0.00000000000E+00 -0.14175209595E+04  0.32423666740E+04  0.29160891582E+04 0.  0.
        4    1    3    3  502    0 -0.12206257615E+03  0.49107463310E+03  0.81165896095E+03  0.95647553527E+03  0.12699999809E+01 0.  1.
       -4    1    3    3    0  502  0.12206257615E+03 -0.49107463310E+03 -0.22291799204E+04  0.22858911388E+04  0.12699999809E+01 0. -1.
</event>
<event>
 5   0  0.6393633E-06  0.2867447E+04  0.7818609E-02  0.8282629E-01
       -2   -1    0    0    0  501  0.00000000000E+00  0.00000000000E+00  0.97445449158E+03  0.97445449159E+03  0.25500000920E-02 0. -1.
        2   -1    0    0  501    0  0.00000000000E+00  0.00000000000E+00 -0.21094498618E+04  0.21094498618E+04  0.25500000920E-02 0.  1.
    10030    2    1    2    0    0  0.00000000000E+00  0.00000000000E+00 -0.11349953702E+04  0.30839043533E+04  0.28674468731E+04 0.  0.
        4    1    3    3  502    0  0.96131905914E+03 -0.13783524100E+03 -0.17018332591E+04  0.19594312802E+04  0.12699999809E+01 0.  1.
       -4    1    3    3    0  502 -0.96131905914E+03  0.13783524100E+03  0.56683788889E+03  0.11244730732E+04  0.12699999809E+01 0. -1.
</event>
<event>
 5   0  0.6612533E-06  0.2912929E+04  0.7818609E-02  0.8269041E-01
        2   -1    0    0  501    0  0.00000000000E+00  0.00000000000E+00  0.27565426850E+04  0.27565426850E+04  0.25500000920E-02 0. -1.
       -2   -1    0    0    0  501  0.00000000000E+00  0.00000000000E+00 -0.76954664600E+03  0.76954664600E+03  0.25500000920E-02 0.  1.
    10030    2    1    2    0    0  0.00000000000E+00  0.00000000000E+00  0.19869960390E+04  0.35260893310E+04  0.29129285455E+04 0.  0.
        3    1    3    3  502    0  0.31702180253E+03  0.73755066230E+03 -0.47754360893E+03  0.93409405917E+03  0.10100000352E+00 0.  1.
       -3    1    3    3    0  502 -0.31702180253E+03 -0.73755066230E+03  0.24645396480E+04  0.25919952718E+04  0.10100000352E+00 0. -1.
</event>
<event>
 5   0  0.2474769E-06  0.2907057E+04  0.7818609E-02  0.8270781E-01
        1   -1    0    0  501    0  0.00000000000E+00  0.00000000000E+00  0.13927745390E+04  0.13927745390E+04  0.50400001928E-02 0.  1.
       -1   -1    0    0    0  501  0.00000000000E+00  0.00000000000E+00 -0.15169329431E+04  0.15169329431E+04  0.50400001928E-02 0. -1.
    10030    2    1    2    0    0  0.00000000000E+00  0.00000000000E+00 -0.12415840410E+03  0.29097074821E+04  0.29070573303E+04 0.  0.
        1    1    3    3  502    0 -0.27860544914E+03  0.40826663513E+03 -0.14302353106E+04  0.15132335198E+04  0.50400001928E-02 0. -1.
       -1    1    3    3    0  502  0.27860544914E+03 -0.40826663513E+03  0.13060769065E+04  0.13964739623E+04  0.50400001928E-02 0.  1.
</event>
<event>
 5   0  0.6615403E-06  0.2872257E+04  0.7818609E-02  0.8281180E-01
       -2   -1    0    0    0  501  0.00000000000E+00  0.00000000000E+00  0.17621896157E+04  0.17621896157E+04  0.25500000920E-02 0. -1.
        2   -1    0    0  501    0  0.00000000000E+00  0.00000000000E+00 -0.11703990653E+04  0.11703990653E+04  0.25500000920E-02 0.  1.
    10030    2    1    2    0    0  0.00000000000E+00  0.00000000000E+00  0.59179055046E+03  0.29325886810E+04  0.28722570073E+04 0.  0.
        2    1    3    3  502    0 -0.72388850220E+03 -0.10596649480E+04  0.95407590651E+03  0.15991138800E+04  0.25500000920E-02 0. -1.
       -2    1    3    3    0  502  0.72388850220E+03  0.10596649480E+04 -0.36228535605E+03  0.13334748010E+04  0.25500000920E-02 0.  1.
</event>
<event>
 5   0  0.6513041E-06  0.2915580E+04  0.7818609E-02  0.8268257E-01
        2   -1    0    0  501    0  0.00000000000E+00  0.00000000000E+00  0.96908007028E+03  0.96908007028E+03  0.25500000920E-02 0.  1.
       -2   -1    0    0    0  501  0.00000000000E+00  0.00000000000E+00 -0.21929572125E+04  0.21929572125E+04  0.25500000920E-02 0. -1.
    10030    2    1    2    0    0  0.00000000000E+00  0.00000000000E+00 -0.12238771422E+04  0.31620372827E+04  0.29155796196E+04 0.  0.
        1    1    3    3  502    0 -0.69982218068E+03 -0.40510968489E+02  0.77429389054E+03  0.10444727149E+04  0.50400001928E-02 0.  1.
       -1    1    3    3    0  502  0.69982218068E+03  0.40510968489E+02 -0.19981710327E+04  0.21175645679E+04  0.50400001928E-02 0. -1.
</event>
<event>
 5   0  0.2429358E-06  0.2876332E+04  0.7818609E-02  0.8279954E-01
       -1   -1    0    0    0  501  0.00000000000E+00  0.00000000000E+00  0.97072936161E+03  0.97072936162E+03  0.50400001928E-02 0. -1.
        1   -1    0    0  501    0  0.00000000000E+00  0.00000000000E+00 -0.21306876851E+04  0.21306876851E+04  0.50400001928E-02 0.  1.
    10030    2    1    2    0    0  0.00000000000E+00  0.00000000000E+00 -0.11599583234E+04  0.31014170467E+04  0.28763317586E+04 0.  0.
        2    1    3    3  502    0 -0.11077062241E+04 -0.82887605993E+03 -0.10034908926E+04  0.17091057817E+04  0.25500000920E-02 0.  1.
       -2    1    3    3    0  502  0.11077062241E+04  0.82887605993E+03 -0.15646743082E+03  0.13923112649E+04  0.25500000920E-02 0. -1.
</event>
<event>
 5   0  0.2429358E-06  0.2915910E+04  0.7818609E-02  0.8268160E-01
       -1   -1    0    0    0  501  0.00000000000E+00  0.00000000000E+00  0.10366508831E+04  0.10366508831E+04  0.50400001928E-02 0.  1.
        1   -1    0    0  501    0  0.00000000000E+00  0.00000000000E+00 -0.20504806200E+04  0.20504806200E+04  0.50400001928E-02 0. -1.
    10030    2    1    2    0    0  0.00000000000E+00  0.00000000000E+00 -0.10138297370E+04  0.30871315031E+04  0.29159098378E+04 0.  0.
        2    1    3    3  502    0 -0.95835312430E+03  0.10303976631E+04 -0.10311007009E+03  0.14109541954E+04  0.25500000920E-02 0.  1.
       -2    1    3    3    0  502  0.95835312430E+03 -0.10303976631E+04 -0.91071966689E+03  0.16761773077E+04  0.25500000920E-02 0. -1.
</event>
<event>
 5   0  0.6393633E-06  0.2906792E+04  0.7818609E-02  0.8270859E-01
       -2   -1    0    0    0  501  0.00000000000E+00  0.00000000000E+00  0.18542733931E+04  0.18542733931E+04  0.25500000920E-02 0.  1.
        2   -1    0    0  501    0  0.00000000000E+00  0.00000000000E+00 -0.11391850747E+04  0.11391850747E+04  0.25500000920E-02 0. -1.
    10030    2    1    2    0    0  0.00000000000E+00  0.00000000000E+00  0.71508831847E+03  0.29934584678E+04  0.29067924410E+04 0.  0.
        4    1    3    3  502    0  0.84205906389E+03  0.11506406461E+04  0.67506133391E+02  0.14274438884E+04  0.12699999809E+01 0. -1.
       -4    1    3    3    0  502 -0.84205906389E+03 -0.11506406461E+04  0.64758218508E+03  0.15660145794E+04  0.12699999809E+01 0.  1.
</event>
<event>
 5   0  0.6393633E-06  0.2898696E+04  0.7818609E-02  0.8273266E-01
       -2   -1    0    0    0  501  0.00000000000E+00  0.00000000000E+00  0.16461894043E+04  0.16461894043E+04  0.25500000920E-02 0. -1.
        2   -1    0    0  501    0  0.00000000000E+00  0.00000000000E+00 -0.12760436902E+04  0.12760436902E+04  0.25500000920E-02 0.  1.
    10030    2    1    2    0    0  0.00000000000E+00  0.00000000000E+00  0.37014571406E+03  0.29222330945E+04  0.28986959843E+04 0.  0.
        4    1    3    3  502    0  0.79996483887E+03 -0.12079798685E+04  0.14669958158E+03  0.14562559824E+04  0.12699999809E+01 0.  1.
       -4    1    3    3    0  502 -0.79996483887E+03  0.12079798685E+04  0.22344613247E+03  0.14659771121E+04  0.12699999809E+01 0. -1.
</event>
<event>
 5   0  0.6393633E-06  0.2914130E+04  0.7818609E-02  0.8268686E-01
        2   -1    0    0  501    0  0.00000000000E+00  0.00000000000E+00  0.20687429430E+04  0.20687429430E+04  0.25500000920E-02 0.  1.
       -2   -1    0    0    0  501  0.00000000000E+00  0.00000000000E+00 -0.10262455958E+04  0.10262455959E+04  0.25500000920E-02 0. -1.
    10030    2    1    2    0    0  0.00000000000E+00  0.00000000000E+00  0.10424973472E+04  0.30949885389E+04  0.29141299451E+04 0.  0.
        4    1    3    3  502    0 -0.90145081785E+03  0.10745165061E+04  0.94051116395E+03  0.16887161281E+04  0.12699999809E+01 0.  1.
       -4    1    3    3    0  502  0.90145081785E+03 -0.10745165061E+04  0.10198618321E+03  0.14062724108E+04  0.12699999809E+01 0. -1.
</event>
<event>
 5   0  0.2508094E-06  0.2886100E+04  0.7818609E-02  0.8277025E-01
       -1   -1    0    0    0  501  0.00000000000E+00  0.00000000000E+00  0.14041869758E+04  0.14041869758E+04  0.50400001928E-02 0. -1.
        1   -1    0    0  501    0  0.00000000000E+00  0.00000000000E+00 -0.14829882788E+04  0.14829882788E+04  0.50400001928E-02 0.  1.
    10030    2    1    2    0    0  0.00000000000E+00  0.00000000000E+00 -0.78801302994E+02  0.28871752546E+04  0.28860996701E+04 0.  0.
        3    1    3    3  502    0 -0.13457472779E+04 -0.48786212086E+03 -0.22208204582E+03  0.14485736537E+04  0.10100000352E+00 0.  1.
       -3    1    3    3    0  502  0.13457472779E+04  0.48786212086E+03  0.14328074283E+03  0.14386016010E+04  0.10100000352E+00 0. -1.
</event>
<event>
 5   0  0.2348684E-06  0.2880014E+04  0.7818609E-02  0.8278849E-01
       -1   -1    0    0    0  501  0.00000000000E+00  0.00000000000E+00  0.10907608565E+04  0.10907608565E+04  0.50400001928E-02 0.  1.
        1   -1    0    0  501    0  0.00000000000E+00  0.00000000000E+00 -0.19010761908E+04  0.19010761908E+04  0.50400001928E-02 0. -1.
    10030    2    1    2    0    0  0.00000000000E+00  0.00000000000E+00 -0.81031533435E+03  0.29918370473E+04  0.28800135376E+04 0.  0.
        5    1    3    3  502    0  0.96452116316E+03  0.10465816046E+03  0.70027528439E+03  0.11965207765E+04  0.46999998093E+01 0.  1.
       -5    1    3    3    0  502 -0.96452116316E+03 -0.10465816046E+03 -0.15105906187E+04  0.17953162708E+04  0.46999998093E+01 0. -1.
</event>
<event>
 5   0  0.6615403E-06  0.2902470E+04  0.7818609E-02  0.8272143E-01
       -2   -1    0    0    0  501  0.00000000000E+00  0.00000000000E+00  0.13418741790E+04  0.13418741790E+04  0.25500000920E-02 0.  1.
        2   -1    0    0  501    0  0.00000000000E+00  0.00000000000E+00 -0.15695082511E+04  0.15695082511E+04  0.25500000920E-02 0. -1.
    10030    2    1    2    0    0  0.00000000000E+00  0.00000000000E+00 -0.22763407210E+03  0.29113824300E+04  0.29024697041E+04 0.  0.
        2    1    3    3  502    0 -0.64313935789E+03  0.87255561382E+03 -0.10817158834E+04  0.15313689253E+04  0.25500000920E-02 0. -1.
       -2    1    3    3    0  502  0.64313935789E+03 -0.87255561382E+03  0.85408181130E+03  0.13800135047E+04  0.25500000920E-02 0.  1.
</event>
<event>
 5   0  0.2429358E-06  0.2770383E+04  0.7818609E-02  0.8312523E-01
       -1   -1    0    0    0  501  0.00000000000E+00  0.00000000000E+00  0.12070035556E+04  0.12070035556E+04  0.50400001928E-02 0. -1.
        1   -1    0    0  501    0  0.00000000000E+00  0.00000000000E+00 -0.15896856017E+04  0.15896856017E+04  0.50400001928E-02 0.  1.
    10030    2    1    2    0    0  0.00000000000E+00  0.00000000000E+00 -0.38268204612E+03  0.27966891573E+04  0.27703834922E+04 0.  0.
        2    1    3    3  502    0 -0.20822916943E+03  0.13568359561E+03  0.11843113771E+04  0.12101086162E+04  0.25500000920E-02 0. -1.
       -2    1    3    3    0  502  0.20822916943E+03 -0.13568359561E+03 -0.15669934232E+04  0.15865805411E+04  0.25500000920E-02 0.  1.
</event>
<event>
 5   0  0.2429358E-06  0.2893798E+04  0.7818609E-02  0.8274725E-01
        1   -1    0    0  501    0  0.00000000000E+00  0.00000000000E+00  0.13012666513E+04  0.13012666513E+04  0.50400001928E-02 0.  1.
       -1   -1    0    0    0  501  0.00000000000E+00  0.00000000000E+00 -0.16088296455E+04  0.16088296455E+04  0.50400001928E-02 0. -1.
    10030    2    1    2    0    0  0.00000000000E+00  0.00000000000E+00 -0.30756299423E+03  0.29100962969E+04  0.28937977575E+04 0.  0.
        2    1    3    3  502    0 -0.75016404843E+03  0.10823999862E+04 -0.75647371180E+03  0.15187456358E+04  0.25500000920E-02 0. -1.
       -2    1    3    3    0  502  0.75016404843E+03 -0.10823999862E+04  0.44891071757E+03  0.13913506610E+04  0.25500000920E-02 0.  1.
</event>
<event>
 5   0  0.2474769E-06  0.2920613E+04  0.7818609E-02  0.8266771E-01
       -1   -1    0    0    0  501  0.00000000000E+00  0.00000000000E+00  0.16369529768E+04  0.16369529768E+04  0.50400001928E-02 0.  1.
        1   -1    0    0  501    0  0.00000000000E+00  0.00000000000E+00 -0.13027220106E+04  0.13027220106E+04  0.50400001928E-02 0. -1.
    10030    2    1    2    0    0  0.00000000000E+00  0.00000000000E+00  0.33423096619E+03  0.29396749874E+04  0.29206127256E+04 0.  0.
        1    1    3    3  502    0 -0.14361380342E+04  0.40350713066E+02 -0.96075474598E+02  0.14399135843E+04  0.50400001928E-02 0. -1.
       -1    1    3    3    0  502  0.14361380342E+04 -0.40350713066E+02  0.43030644079E+03  0.14997614031E+04  0.50400001928E-02 0.  1.
</event>
<event>
 5   0  0.6615403E-06  0.2895511E+04  0.7818609E-02  0.8274214E-01
       -2   -1    0    0    0  501  0.00000000000E+00  0.00000000000E+00  0.97756060189E+03  0.97756060189E+03  0.25500000920E-02 0.  1.
        2   -1    0    0  501    0  0.00000000000E+00  0.00000000000E+00 -0.21441088057E+04  0.21441088057E+04  0.25500000920E-02 0. -1.
    10030    2    1    2    0    0  0.00000000000E+00  0.00000000000E+00 -0.11665482038E+04  0.31216694076E+04  0.28955112120E+04 0.  0.
        2    1    3    3  502    0  0.10331711531E+02 -0.86025871586E+03  0.67208101747E+03  0.10917163993E+04  0.25500000920E-02 0. -1.
       -2    1    3    3    0  502 -0.10331711531E+02  0.86025871586E+03 -0.18386292213E+04  0.20299530083E+04  0.25500000920E-02 0.  1.
</event>
<event>
 5   0  0.6393633E-06  0.2898111E+04  0.7818609E-02  0.8273440E-01
       -2   -1    0    0    0  501  0.00000000000E+00  0.00000000000E+00  0.13723994717E+04  0.13723994717E+04  0.25500000920E-02 0.  1.
        2   -1    0    0  501    0  0.00000000000E+00  0.00000000000E+00 -0.15299929839E+04  0.15299929839E+04  0.25500000920E-02 0. -1.
    10030    2    1    2    0    0  0.00000000000E+00  0.00000000000E+00 -0.15759351220E+03  0.29023924556E+04  0.28981108073E+04 0.  0.
        4    1    3    3  502    0 -0.11617953936E+04  0.84344578371E+03 -0.27553194495E+03  0.14618785149E+04  0.12699999809E+01 0.  1.
       -4    1    3    3    0  502  0.11617953936E+04 -0.84344578371E+03  0.11793843276E+03  0.14405139407E+04  0.12699999809E+01 0. -1.
</event>
<event>
 5   0  0.2474769E-06  0.3045572E+04  0.7818609E-02  0.8230836E-01
       -1   -1    0    0    0  501  0.00000000000E+00  0.00000000000E+00  0.14167438853E+04  0.14167438853E+04  0.50400001928E-02 0. -1.
        1   -1    0    0  501    0  0.00000000000E+00  0.00000000000E+00 -0.16367647458E+04  0.16367647458E+04  0.50400001928E-02 0.  1.
    10030    2    1    2    0    0  0.00000000000E+00  0.00000000000E+00 -0.22002086051E+03  0.30535086312E+04  0.30455715033E+04 0.  0.
        1    1    3    3  502    0 -0.11513016710E+04 -0.46094799717E+03 -0.99600333999E+03  0.15905946206E+04  0.50400001928E-02 0.  1.
       -1    1    3    3    0  502  0.11513016710E+04  0.46094799717E+03  0.77598247947E+03  0.14629140106E+04  0.50400001928E-02 0. -1.
</event>
<event>
 5   0  0.6513041E-06  0.2916158E+04  0.7818609E-02  0.8268086E-01
       -2   -1    0    0    0  501  0.00000000000E+00  0.00000000000E+00  0.12222939800E+04  0.12222939800E+04  0.25500000920E-02 0. -1.
        2   -1    0    0  501    0  0.00000000000E+00  0.00000000000E+00 -0.17393474825E+04  0.17393474825E+04  0.25500000920E-02 0.  1.
    10030    2    1    2    0    0  0.00000000000E+00  0.00000000000E+00 -0.51705350241E+03  0.29616414625E+04  0.29161577166E+04 0.  0.
        1    1    3    3  502    0  0.38039998496E+03  0.12021552567E+03 -0.16828408464E+04  0.17294823605E+04  0.50400001928E-02 0.  1.
       -1    1    3    3    0  502 -0.38039998496E+03 -0.12021552567E+03  0.11657873440E+04  0.12321591020E+04  0.50400001928E-02 0. -1.
</event>
<event>
 5   0  0.2429358E-06  0.2904433E+04  0.7818609E-02  0.8271560E-01
        1   -1    0    0  501    0  0.00000000000E+00  0.00000000000E+00  0.19776984534E+04  0.19776984535E+04  0.50400001928E-02 0.  1.
       -1   -1    0    0    0  501  0.00000000000E+00  0.00000000000E+00 -0.10663569252E+04  0.10663569252E+04  0.50400001928E-02 0. -1.
    10030    2    1    2    0    0  0.00000000000E+00  0.00000000000E+00  0.91134152829E+03  0.30440553786E+04  0.29044327789E+04 0.  0.
        2    1    3    3  502    0  0.33383074474E+03 -0.18012767491E+03  0.19248585309E+04  0.19618790252E+04  0.25500000920E-02 0.  1.
       -2    1    3    3    0  502 -0.33383074474E+03  0.18012767491E+03 -0.10135170026E+04  0.10821763535E+04  0.25500000920E-02 0. -1.
</event>
<event>
 5   0  0.2474769E-06  0.2886858E+04  0.7818609E-02  0.8276798E-01
        1   -1    0    0  501    0  0.00000000000E+00  0.00000000000E+00  0.26719214469E+04  0.26719214469E+04  0.50400001928E-02 0.  1.
       -1   -1    0    0    0  501  0.00000000000E+00  0.00000000000E+00 -0.77977128969E+03  0.77977128970E+03  0.50400001928E-02 0. -1.
    10030    2    1    2    0    0  0.00000000000E+00  0.00000000000E+00  0.18921501573E+04  0.34516927367E+04  0.28868582457E+04 0.  0.
        1    1    3    3  502    0  0.50185328773E+03  0.10157557302E+03  0.25596866539E+04  0.26103965380E+04  0.50400001928E-02 0.  1.
       -1    1    3    3    0  502 -0.50185328773E+03 -0.10157557302E+03 -0.66753649666E+03  0.84129619863E+03  0.50400001928E-02 0. -1.
</event>
<event>
 5   0  0.2508094E-06  0.2912842E+04  0.7818609E-02  0.8269067E-01
        1   -1    0    0  501    0  0.00000000000E+00  0.00000000000E+00  0.15123553085E+04  0.15123553085E+04  0.50400001928E-02 0.  1.
       -1   -1    0    0    0  501  0.00000000000E+00  0.00000000000E+00 -0.14025553001E+04  0.14025553001E+04  0.50400001928E-02 0. -1.
    10030    2    1    2    0    0  0.00000000000E+00  0.00000000000E+00  0.10980000839E+03  0.29149106087E+04  0.29128418794E+04 0.  0.
        3    1    3    3  502    0  0.13866538727E+04  0.74163855854E+02  0.49436187096E+03  0.14740091281E+04  0.10100000352E+00 0.  1.
       -3    1    3    3    0  502 -0.13866538727E+04 -0.74163855854E+02 -0.38456186257E+03  0.14409014805E+04  0.10100000352E+00 0. -1.
</event>
<event>
 5   0  0.2474769E-06  0.2896891E+04  0.7818609E-02  0.8273803E-01
        1   -1    0    0  501    0  0.00000000000E+00  0.00000000000E+00  0.20372557226E+04  0.20372557226E+04  0.50400001928E-02 0.  1.
       -1   -1    0    0    0  501  0.00000000000E+00  0.00000000000E+00 -0.10298139987E+04  0.10298139988E+04  0.50400001928E-02 0. -1.
    10030    2    1    2    0    0  0.00000000000E+00  0.00000000000E+00  0.10074417239E+04  0.30670697214E+04  0.28968910661E+04 0.  0.
        1    1    3    3  502    0  0.11193892904E+04  0.66010942149E+03 -0.17355976358E+03  0.13110681994E+04  0.50400001928E-02 0.  1.
       -1    1    3    3    0  502 -0.11193892904E+04 -0.66010942149E+03  0.11810014875E+04  0.17560015220E+04  0.50400001928E-02 0. -1.
</event>
<event>
 5   0  0.2474769E-06  0.2936427E+04  0.7818609E-02  0.8262121E-01
        1   -1    0    0  501    0  0.00000000000E+00  0.00000000000E+00  0.88565003086E+03  0.88565003088E+03  0.50400001928E-02 0.  1.
       -1   -1    0    0    0  501  0.00000000000E+00  0.00000000000E+00 -0.24339766754E+04  0.24339766754E+04  0.50400001928E-02 0. -1.
    10030    2    1    2    0    0  0.00000000000E+00  0.00000000000E+00 -0.15483266445E+04  0.33196267063E+04  0.29364274333E+04 0.  0.
        1    1    3    3  502    0  0.11317172861E+04  0.52445428937E+03 -0.16497088030E+04  0.20681816777E+04  0.50400001928E-02 0. -1.
       -1    1    3    3    0  502 -0.11317172861E+04 -0.52445428937E+03  0.10138215847E+03  0.12514450285E+04  0.50400001928E-02 0.  1.
</event>
<event>
 5   0  0.2429358E-06  0.2931372E+04  0.7818609E-02  0.8263604E-01
        1   -1    0    0  501    0  0.00000000000E+00  0.00000000000E+00  0.20670702953E+04  0.20670702953E+04  0.50400001928E-02 0.  1.
       -1   -1    0    0    0  501  0.00000000000E+00  0.00000000000E+00 -0.10392654825E+04  0.10392654825E+04  0.50400001928E-02 0. -1.
    10030    2    1    2    0    0  0.00000000000E+00  0.00000000000E+00  0.10278048127E+04  0.31063357778E+04  0.29313715615E+04 0.  0.
        2    1    3    3  502    0 -0.11105864196E+04  0.72431565363E+02  0.15245493784E+04  0.18875643921E+04  0.25500000920E-02 0.  1.
       -2    1    3    3    0  502  0.11105864196E+04 -0.72431565363E+02 -0.49674456568E+03  0.12187713857E+04  0.25500000920E-02 0. -1.
</event>
<event>
 5   0  0.2474769E-06  0.2923431E+04  0.7818609E-02  0.8265940E-01
       -1   -1    0    0    0  501  0.00000000000E+00  0.00000000000E+00  0.14860365394E+04  0.14860365394E+04  0.50400001928E-02 0. -1.
        1   -1    0    0  501    0  0.00000000000E+00  0.00000000000E+00 -0.14377922230E+04  0.14377922230E+04  0.50400001928E-02 0.  1.
    10030    2    1    2    0    0  0.00000000000E+00  0.00000000000E+00  0.48244316394E+02  0.29238287623E+04  0.29234307102E+04 0.  0.
        1    1    3    3  502    0  0.14718342007E+03  0.14295154815E+04  0.29143052424E+03  0.14663250736E+04  0.50400001928E-02 0. -1.
       -1    1    3    3    0  502 -0.14718342007E+03 -0.14295154815E+04 -0.24318620785E+03  0.14575036887E+04  0.50400001928E-02 0.  1.
</event>
<event>
 5   0  0.6615403E-06  0.2860863E+04  0.7818609E-02  0.8284618E-01
        2   -1    0    0  501    0  0.00000000000E+00  0.00000000000E+00  0.17074950629E+04  0.17074950629E+04  0.25500000920E-02 0.  1.
       -2   -1    0    0    0  501  0.00000000000E+00  0.00000000000E+00 -0.11983250757E+04  0.11983250757E+04  0.25500000920E-02 0. -1.
    10030    2    1    2    0    0  0.00000000000E+00  0.00000000000E+00  0.50916998720E+03  0.29058201387E+04  0.28608629122E+04 0.  0.
        2    1    3    3  502    0  0.31689634464E+03 -0.35220299636E+03 -0.11163151075E+04  0.12126952062E+04  0.25500000920E-02 0. -1.
       -2    1    3    3    0  502 -0.31689634464E+03  0.35220299636E+03  0.16254850947E+04  0.16931249325E+04  0.25500000920E-02 0.  1.
</event>
<event>
 5   0  0.2429358E-06  0.2746251E+04  0.7818609E-02  0.8320152E-01
       -1   -1    0    0    0  501  0.00000000000E+00  0.00000000000E+00  0.11571941432E+04  0.11571941432E+04  0.50400001928E-02 0. -1.
        1   -1    0    0  501    0  0.00000000000E+00  0.00000000000E+00 -0.16293492863E+04  0.16293492863E+04  0.50400001928E-02 0.  1.
    10030    2    1    2    0    0  0.00000000000E+00  0.00000000000E+00 -0.47215514305E+03  0.27865434295E+04  0.27462508636E+04 0.  0.
        2    1    3    3  502    0 -0.30000009653E+03  0.12505616490E+04 -0.72435402113E+03  0.14760058414E+04  0.25500000920E-02 0. -1.
       -2    1    3    3    0  502  0.30000009653E+03 -0.12505616490E+04  0.25219887808E+03  0.13105375882E+04  0.25500000920E-02 0.  1.
</event>
<event>
 5   0  0.2348684E-06  0.2913722E+04  0.7818609E-02  0.8268806E-01
       -1   -1    0    0    0  501  0.00000000000E+00  0.00000000000E+00  0.89182869962E+03  0.89182869963E+03  0.50400001928E-02 0.  1.
        1   -1    0    0  501    0  0.00000000000E+00  0.00000000000E+00 -0.23798788987E+04  0.23798788987E+04  0.50400001928E-02 0. -1.
    10030    2    1    2    0    0  0.00000000000E+00  0.00000000000E+00 -0.14880501991E+04  0.32717075983E+04  0.29137222266E+04 0.  0.
        5    1    3    3  502    0  0.33759134181E+03 -0.78579209850E+03  0.58027853559E+03  0.10335291022E+04  0.46999998093E+01 0.  1.
       -5    1    3    3    0  502 -0.33759134181E+03  0.78579209850E+03 -0.20683287347E+04  0.22381784962E+04  0.46999998093E+01 0. -1.
</event>
<event>
 5   0  0.6513041E-06  0.2886023E+04  0.7818609E-02  0.8277048E-01
        2   -1    0    0  501    0  0.00000000000E+00  0.00000000000E+00  0.14760759649E+04  0.14760759649E+04  0.25500000920E-02 0.  1.
       -2   -1    0    0    0  501  0.00000000000E+00  0.00000000000E+00 -0.14106874717E+04  0.14106874717E+04  0.25500000920E-02 0. -1.
    10030    2    1    2    0    0  0.00000000000E+00  0.00000000000E+00  0.65388493256E+02  0.28867634366E+04  0.28860227795E+04 0.  0.
        1    1    3    3  502    0  0.58613937251E+03  0.96141711220E+03  0.93536678153E+03  0.14638282835E+04  0.50400001928E-02 0.  1.
       -1    1    3    3    0  502 -0.58613937251E+03 -0.96141711220E+03 -0.86997828828E+03  0.14229351530E+04  0.50400001928E-02 0. -1.
</event>
<event>
 5   0  0.6513041E-06  0.2882285E+04  0.7818609E-02  0.8278168E-01
        2   -1    0    0  501    0  0.00000000000E+00  0.00000000000E+00  0.11947215432E+04  0.11947215432E+04  0.25500000920E-02 0. -1.
       -2   -1    0    0    0  501  0.00000000000E+00  0.00000000000E+00 -0.17383900792E+04  0.17383900792E+04  0.25500000920E-02 0.  1.
    10030    2    1    2    0    0  0.00000000000E+00  0.00000000000E+00 -0.54366853593E+03  0.29331116224E+04  0.28822852587E+04 0.  0.
        1    1    3    3  502    0  0.92312999169E+03  0.48096364163E+03  0.74243453600E+03  0.12785554530E+04  0.50400001928E-02 0. -1.
       -1    1    3    3    0  502 -0.92312999169E+03 -0.48096364163E+03 -0.12861030719E+04  0.16545561694E+04  0.50400001928E-02 0.  1.
</event>
<event>
 5   0  0.6615403E-06  0.2899940E+04  0.7818609E-02  0.8272895E-01
       -2   -1    0    0    0  501  0.00000000000E+00  0.00000000000E+00  0.97459095589E+03  0.97459095589E+03  0.25500000920E-02 0.  1.
        2   -1    0    0  501    0  0.00000000000E+00  0.00000000000E+00 -0.21572261629E+04  0.21572261629E+04  0.25500000920E-02 0. -1.
    10030    2    1    2    0    0  0.00000000000E+00  0.00000000000E+00 -0.11826352070E+04  0.31318171188E+04  0.28999400740E+04 0.  0.
        2    1    3    3  502    0  0.33822836456E+03  0.25440382127E+03  0.90640070332E+03  0.10003409248E+04  0.25500000920E-02 0.  1.
       -2    1    3    3    0  502 -0.33822836456E+03 -0.25440382127E+03 -0.20890359103E+04  0.21314761940E+04  0.25500000920E-02 0. -1.
</event>
<event>
 5   0  0.6733688E-06  0.2372243E+04  0.7818609E-02  0.8449969E-01
       -2   -1    0    0    0  501  0.00000000000E+00  0.00000000000E+00  0.11101166626E+04  0.11101166626E+04  0.25500000920E-02 0. -1.
        2   -1    0    0  501    0  0.00000000000E+00  0.00000000000E+00 -0.12673300785E+04  0.12673300785E+04  0.25500000920E-02 0.  1.
    10030    2    1    2    0    0  0.00000000000E+00  0.00000000000E+00 -0.15721341588E+03  0.23774467410E+04  0.23722430205E+04 0.  0.
        5    1    3    3  502    0  0.11376738926E+04 -0.33048376077E+03 -0.20680742108E+02  0.11848929003E+04  0.46999998093E+01 0.  1.
       -5    1    3    3    0  502 -0.11376738926E+04  0.33048376077E+03 -0.13653267377E+03  0.11925538407E+04  0.46999998093E+01 0. -1.
</event>
<event>
 5   0  0.2336512E-06  0.2865130E+04  0.7818609E-02  0.8283329E-01
        1   -1    0    0  501    0  0.00000000000E+00  0.00000000000E+00  0.10396094646E+04  0.10396094646E+04  0.50400001928E-02 0.  1.
       -1   -1    0    0    0  501  0.00000000000E+00  0.00000000000E+00 -0.19740507781E+04  0.19740507781E+04  0.50400001928E-02 0. -1.
    10030    2    1    2    0    0  0.00000000000E+00  0.00000000000E+00 -0.93444131348E+03  0.30136602427E+04  0.28651295765E+04 0.  0.
        4    1    3    3  502    0 -0.63058450332E+03 -0.30651878292E+03  0.84680164041E+03  0.10993931104E+04  0.12699999809E+01 0.  1.
       -4    1    3    3    0  502  0.63058450332E+03  0.30651878292E+03 -0.17812429539E+04  0.19142671323E+04  0.12699999809E+01 0. -1.
</event>
<event>
 5   0  0.6513041E-06  0.2882996E+04  0.7818609E-02  0.8277955E-01
        2   -1    0    0  501    0  0.00000000000E+00  0.00000000000E+00  0.22808577696E+04  0.22808577696E+04  0.25500000920E-02 0.  1.
       -2   -1    0    0    0  501  0.00000000000E+00  0.00000000000E+00 -0.91102431527E+03  0.91102431527E+03  0.25500000920E-02 0. -1.
    10030    2    1    2    0    0  0.00000000000E+00  0.00000000000E+00  0.13698334543E+04  0.31918820848E+04  0.28829962801E+04 0.  0.
        1    1    3    3  502    0 -0.95722297933E+03 -0.10756999352E+04  0.61055919570E+03  0.15640296399E+04  0.50400001928E-02 0.  1.
       -1    1    3    3    0  502  0.95722297933E+03  0.10756999352E+04  0.75927425859E+03  0.16278524450E+04  0.50400001928E-02 0. -1.
</event>
<event>
 5   0  0.2474769E-06  0.3044917E+04  0.7818609E-02  0.8231020E-01
       -1   -1    0    0    0  501  0.00000000000E+00  0.00000000000E+00  0.14724633843E+04  0.14724633843E+04  0.50400001928E-02 0. -1.
        1   -1    0    0  501    0  0.00000000000E+00  0.00000000000E+00 -0.15741511354E+04  0.15741511354E+04  0.50400001928E-02 0.  1.
    10030    2    1    2    0    0  0.00000000000E+00  0.00000000000E+00 -0.10168775102E+03  0.30466145197E+04  0.30449170158E+04 0.  0.
        1    1    3    3  502    0 -0.47357571835E+03  0.52863436364E+03 -0.13984992303E+04  0.15682883499E+04  0.50400001928E-02 0.  1.
       -1    1    3    3    0  502  0.47357571835E+03 -0.52863436364E+03  0.12968114793E+04  0.14783261698E+04  0.50400001928E-02 0. -1.
</event>
<event>
 5   0  0.2429358E-06  0.2894332E+04  0.7818609E-02  0.8274566E-01
        1   -1    0    0  501    0  0.00000000000E+00  0.00000000000E+00  0.19097792765E+04  0.19097792765E+04  0.50400001928E-02 0. -1.
       -1   -1    0    0    0  501  0.00000000000E+00  0.00000000000E+00 -0.10966135577E+04  0.10966135577E+04  0.50400001928E-02 0.  1.
    10030    2    1    2    0    0  0.00000000000E+00  0.00000000000E+00  0.81316571885E+03  0.30063928342E+04  0.28943322869E+04 0.  0.
        2    1    3    3  502    0 -0.41902316488E+03 -0.35972257502E+03 -0.98285786547E+03  0.11273820681E+04  0.25500000920E-02 0.  1.
       -2    1    3    3    0  502  0.41902316488E+03  0.35972257502E+03  0.17960235843E+04  0.18790107661E+04  0.25500000920E-02 0. -1.
</event>
<event>
 5   0  0.2474769E-06  0.2898629E+04  0.7818609E-02  0.8273285E-01
       -1   -1    0    0    0  501  0.00000000000E+00  0.00000000000E+00  0.13396357682E+04  0.13396357682E+04  0.50400001928E-02 0. -1.
        1   -1    0    0  501    0  0.00000000000E+00  0.00000000000E+00 -0.15679729161E+04  0.15679729161E+04  0.50400001928E-02 0.  1.
    10030    2    1    2    0    0  0.00000000000E+00  0.00000000000E+00 -0.22833714790E+03  0.29076086844E+04  0.28986290567E+04 0.  0.
        1    1    3    3  502    0  0.10175664906E+03  0.13722328986E+04 -0.57069941489E+03  0.14896561233E+04  0.50400001928E-02 0.  1.
       -1    1    3    3    0  502 -0.10175664906E+03 -0.13722328986E+04  0.34236226699E+03  0.14179525611E+04  0.50400001928E-02 0. -1.
</event>
<event>
 5   0  0.2348684E-06  0.2881607E+04  0.7818609E-02  0.8278371E-01
       -1   -1    0    0    0  501  0.00000000000E+00  0.00000000000E+00  0.73001205811E+03  0.73001205813E+03  0.50400001928E-02 0. -1.
        1   -1    0    0  501    0  0.00000000000E+00  0.00000000000E+00 -0.28436722849E+04  0.28436722849E+04  0.50400001928E-02 0.  1.
    10030    2    1    2    0    0  0.00000000000E+00  0.00000000000E+00 -0.21136602268E+04  0.35736843430E+04  0.28816072302E+04 0.  0.
        5    1    3    3  502    0  0.14244519774E+04 -0.17769185155E+03 -0.90365455824E+03  0.16962462913E+04  0.46999998093E+01 0. -1.
       -5    1    3    3    0  502 -0.14244519774E+04  0.17769185155E+03 -0.12100056686E+04  0.18774380517E+04  0.46999998093E+01 0.  1.
</event>
<event>
 5   0  0.2429358E-06  0.2882154E+04  0.7818609E-02  0.8278207E-01
        1   -1    0    0  501    0  0.00000000000E+00  0.00000000000E+00  0.10912543088E+04  0.10912543088E+04  0.50400001928E-02 0. -1.
       -1   -1    0    0    0  501  0.00000000000E+00  0.00000000000E+00 -0.19030418957E+04  0.19030418957E+04  0.50400001928E-02 0.  1.
    10030    2    1    2    0    0  0.00000000000E+00  0.00000000000E+00 -0.81178758685E+03  0.29942962045E+04  0.28821538256E+04 0.  0.
        2    1    3    3  502    0  0.19265312891E+03 -0.72950762012E+03 -0.16814298331E+04  0.18429603576E+04  0.25500000920E-02 0.  1.
       -2    1    3    3    0  502 -0.19265312891E+03  0.72950762012E+03  0.86964224629E+03  0.11513358469E+04  0.25500000920E-02 0. -1.
</event>
<event>
 5   0  0.6513041E-06  0.2887623E+04  0.7818609E-02  0.8276569E-01
        2   -1    0    0  501    0  0.00000000000E+00  0.00000000000E+00  0.78050492901E+03  0.78050492901E+03  0.25500000920E-02 0. -1.
       -2   -1    0    0    0  501  0.00000000000E+00  0.00000000000E+00 -0.26708251163E+04  0.26708251163E+04  0.25500000920E-02 0.  1.
    10030    2    1    2    0    0  0.00000000000E+00  0.00000000000E+00 -0.18903201873E+04  0.34513300453E+04  0.28876233604E+04 0.  0.
        1    1    3    3  502    0  0.58207647044E+03 -0.15579066819E+02 -0.25242629018E+04  0.25905518567E+04  0.50400001928E-02 0.  1.
       -1    1    3    3    0  502 -0.58207647044E+03  0.15579066819E+02  0.63394271449E+03  0.86077818864E+03  0.50400001928E-02 0. -1.
</event>
<event>
 5   0  0.6612533E-06  0.2888565E+04  0.7818609E-02  0.8276288E-01
       -2   -1    0    0    0  501  0.00000000000E+00  0.00000000000E+00  0.79193147875E+03  0.79193147876E+03  0.25500000920E-02 0. -1.
        2   -1    0    0  501    0  0.00000000000E+00  0.00000000000E+00 -0.26340061416E+04  0.26340061416E+04  0.25500000920E-02 0.  1.
    10030    2    1    2    0    0  0.00000000000E+00  0.00000000000E+00 -0.18420746629E+04  0.34259376204E+04  0.28885653039E+04 0.  0.
        3    1    3    3  502    0  0.36644500757E+03  0.10182740668E+04  0.21334008858E+03  0.11030312879E+04  0.10100000352E+00 0. -1.
       -3    1    3    3    0  502 -0.36644500757E+03 -0.10182740668E+04 -0.20554147515E+04  0.23229063324E+04  0.10100000352E+00 0.  1.
</event>
<event>
 5   0  0.2474769E-06  0.2855320E+04  0.7818609E-02  0.8286297E-01
       -1   -1    0    0    0  501  0.00000000000E+00  0.00000000000E+00  0.88857904966E+03  0.88857904967E+03  0.50400001928E-02 0.  1.
        1   -1    0    0  501    0  0.00000000000E+00  0.00000000000E+00 -0.22937892906E+04  0.22937892906E+04  0.50400001928E-02 0. -1.
    10030    2    1    2    0    0  0.00000000000E+00  0.00000000000E+00 -0.14052102409E+04  0.31823683403E+04  0.28553200227E+04 0.  0.
        1    1    3    3  502    0  0.71683765054E+02  0.11728977880E+04  0.20105612373E+03  0.11921624671E+04  0.50400001928E-02 0.  1.
       -1    1    3    3    0  502 -0.71683765054E+02 -0.11728977880E+04 -0.16062663647E+04  0.19902058731E+04  0.50400001928E-02 0. -1.
</event>
<event>
 5   0  0.2429358E-06  0.2929584E+04  0.7818609E-02  0.8264129E-01
        1   -1    0    0  501    0  0.00000000000E+00  0.00000000000E+00  0.18514757336E+04  0.18514757336E+04  0.50400001928E-02 0. -1.
       -1   -1    0    0    0  501  0.00000000000E+00  0.00000000000E+00 -0.11588676166E+04  0.11588676166E+04  0.50400001928E-02 0.  1.
    10030    2    1    2    0    0  0.00000000000E+00  0.00000000000E+00  0.69260811702E+03  0.30103433502E+04  0.29295837729E+04 0.  0.
        2    1    3    3  502    0  0.64355223179E+03  0.95057507295E+03  0.12812560310E+04  0.17202817971E+04  0.25500000920E-02 0. -1.
       -2    1    3    3    0  502 -0.64355223179E+03 -0.95057507295E+03 -0.58864791397E+03  0.12900615532E+04  0.25500000920E-02 0.  1.
</event>
<event>
 5   0  0.2474769E-06  0.2823888E+04  0.7818609E-02  0.8295890E-01
       -1   -1    0    0    0  501  0.00000000000E+00  0.00000000000E+00  0.13124512661E+04  0.13124512662E+04  0.50400001928E-02 0.  1.
        1   -1    0    0  501    0  0.00000000000E+00  0.00000000000E+00 -0.15189785540E+04  0.15189785540E+04  0.50400001928E-02 0. -1.
    10030    2    1    2    0    0  0.00000000000E+00  0.00000000000E+00 -0.20652728781E+03  0.28314298201E+04  0.28238876227E+04 0.  0.
        1    1    3    3  502    0 -0.77178438191E+03  0.96719227105E+03  0.57860658082E+03  0.13659786224E+04  0.50400001928E-02 0.  1.
       -1    1    3    3    0  502  0.77178438191E+03 -0.96719227105E+03 -0.78513386863E+03  0.14654511978E+04  0.50400001928E-02 0. -1.
</event>
<event>
 5   0  0.2336512E-06  0.2883107E+04  0.7818609E-02  0.8277921E-01
        1   -1    0    0  501    0  0.00000000000E+00  0.00000000000E+00  0.19059857399E+04  0.19059857400E+04  0.50400001928E-02 0. -1.
       -1   -1    0    0    0  501  0.00000000000E+00  0.00000000000E+00 -0.10902899305E+04  0.10902899305E+04  0.50400001928E-02 0.  1.
    10030    2    1    2    0    0  0.00000000000E+00  0.00000000000E+00  0.81569580946E+03  0.29962756704E+04  0.28831073930E+04 0.  0.
        4    1    3    3  502    0  0.99697721057E+03  0.12294440485E+03 -0.66665873216E+03  0.12056178346E+04  0.12699999809E+01 0.  1.
       -4    1    3    3    0  502 -0.99697721057E+03 -0.12294440485E+03  0.14823545416E+04  0.17906578358E+04  0.12699999809E+01 0. -1.
</event>
<event>
 5   0  0.2508094E-06  0.2888478E+04  0.7818609E-02  0.8276314E-01
       -1   -1    0    0    0  501  0.00000000000E+00  0.00000000000E+00  0.92573835303E+03  0.92573835304E+03  0.50400001928E-02 0.  1.
        1   -1    0    0  501    0  0.00000000000E+00  0.00000000000E+00 -0.22531481625E+04  0.22531481625E+04  0.50400001928E-02 0. -1.
    10030    2    1    2    0    0  0.00000000000E+00  0.00000000000E+00 -0.13274098094E+04  0.31788865155E+04  0.28884775707E+04 0.  0.
        3    1    3    3  502    0  0.51628405520E+03 -0.11131806676E+04 -0.15019276026E+04  0.19394604811E+04  0.10100000352E+00 0. -1.
       -3    1    3    3    0  502 -0.51628405520E+03  0.11131806676E+04  0.17451779315E+03  0.12394260344E+04  0.10100000352E+00 0.  1.
</event>
<event>
 5   0  0.6513041E-06  0.2892749E+04  0.7818609E-02  0.8275038E-01
        2   -1    0    0  501    0  0.00000000000E+00  0.00000000000E+00  0.30032119490E+04  0.30032119490E+04  0.25500000920E-02 0. -1.
       -2   -1    0    0    0  501  0.00000000000E+00  0.00000000000E+00 -0.69658734291E+03  0.69658734292E+03  0.25500000920E-02 0.  1.
    10030    2    1    2    0    0  0.00000000000E+00  0.00000000000E+00  0.23066246061E+04  0.36997992919E+04  0.28927491642E+04 0.  0.
        1    1    3    3  502    0 -0.37556455355E+03  0.43047012173E+02 -0.63228773857E+03  0.73667466599E+03  0.50400001928E-02 0.  1.
       -1    1    3    3    0  502  0.37556455355E+03 -0.43047012173E+02  0.29389123446E+04  0.29631246259E+04  0.50400001928E-02 0. -1.
</event>
<event>
 5   0  0.2348684E-06  0.2800381E+04  0.7818609E-02  0.8303150E-01
       -1   -1    0    0    0  501  0.00000000000E+00  0.00000000000E+00  0.10678849337E+04  0.10678849337E+04  0.50400001928E-02 0. -1.
        1   -1    0    0  501    0  0.00000000000E+00  0.00000000000E+00 -0.18359032687E+04  0.18359032687E+04  0.50400001928E-02 0.  1.
    10030    2    1    2    0    0  0.00000000000E+00  0.00000000000E+00 -0.76801833496E+03  0.29037882024E+04  0.28003810030E+04 0.  0.
        5    1    3    3  502    0  0.47703614396E+03 -0.94371623159E+03  0.56767637124E+03  0.12001843029E+04  0.46999998093E+01 0. -1.
       -5    1    3    3    0  502 -0.47703614396E+03  0.94371623159E+03 -0.13356947062E+04  0.17036038996E+04  0.46999998093E+01 0.  1.
</event>
<event>
 5   0  0.6615403E-06  0.2968053E+04  0.7818609E-02  0.8252913E-01
        2   -1    0    0  501    0  0.00000000000E+00  0.00000000000E+00  0.85741166284E+03  0.85741166284E+03  0.25500000920E-02 0.  1.
       -2   -1    0    0    0  501  0.00000000000E+00  0.00000000000E+00 -0.25685853477E+04  0.25685853477E+04  0.25500000920E-02 0. -1.
    10030    2    1    2    0    0  0.00000000000E+00  0.00000000000E+00 -0.17111736848E+04  0.34259970105E+04  0.29680532570E+04 0.  0.
        2    1    3    3  502    0 -0.48683834240E+03  0.11898282900E+03 -0.24679484970E+04  0.25183205255E+04  0.25500000920E-02 0. -1.
       -2    1    3    3    0  502  0.48683834240E+03 -0.11898282900E+03  0.75677481214E+03  0.90767648505E+03  0.25500000920E-02 0.  1.
</event>
<event>
 5   0  0.2336512E-06  0.2900830E+04  0.7818609E-02  0.8272631E-01
       -1   -1    0    0    0  501  0.00000000000E+00  0.00000000000E+00  0.14230508813E+04  0.14230508813E+04  0.50400001928E-02 0. -1.
        1   -1    0    0  501    0  0.00000000000E+00  0.00000000000E+00 -0.14783053518E+04  0.14783053518E+04  0.50400001928E-02 0.  1.
    10030    2    1    2    0    0  0.00000000000E+00  0.00000000000E+00 -0.55254470576E+02  0.29013562331E+04  0.29008300424E+04 0.  0.
        4    1    3    3  502    0  0.11654664443E+04  0.54341305237E+03 -0.69863814772E+03  0.14634570895E+04  0.12699999809E+01 0.  1.
       -4    1    3    3    0  502 -0.11654664443E+04 -0.54341305237E+03  0.64338367714E+03  0.14378991436E+04  0.12699999809E+01 0. -1.
</event>
<event>
 5   0  0.6612533E-06  0.2872418E+04  0.7818609E-02  0.8281131E-01
       -2   -1    0    0    0  501  0.00000000000E+00  0.00000000000E+00  0.14918917564E+04  0.14918917564E+04  0.25500000920E-02 0.  1.
        2   -1    0    0  501    0  0.00000000000E+00  0.00000000000E+00 -0.13826049651E+04  0.13826049651E+04  0.25500000920E-02 0. -1.
    10030    2    1    2    0    0  0.00000000000E+00  0.00000000000E+00  0.10928679127E+03  0.28744967214E+04  0.28724184582E+04 0.  0.
        3    1    3    3  502    0  0.63692214703E+03 -0.94417793624E+03  0.93023653084E+03  0.14705379322E+04  0.10100000352E+00 0.  1.
       -3    1    3    3    0  502 -0.63692214703E+03  0.94417793624E+03 -0.82094973957E+03  0.14039587892E+04  0.10100000352E+00 0. -1.
</event>
<event>
 5   0  0.2474769E-06  0.2802699E+04  0.7818609E-02  0.8302431E-01
        1   -1    0    0  501    0  0.00000000000E+00  0.00000000000E+00  0.22118695157E+04  0.22118695157E+04  0.50400001928E-02 0. -1.
       -1   -1    0    0    0  501  0.00000000000E+00  0.00000000000E+00 -0.88783709035E+03  0.88783709036E+03  0.50400001928E-02 0.  1.
    10030    2    1    2    0    0  0.00000000000E+00  0.00000000000E+00  0.13240324254E+04  0.30997066061E+04  0.28026985533E+04 0.  0.
        1    1    3    3  502    0  0.12283197821E+04  0.72533994982E+02 -0.79685640803E+02  0.12330370915E+04  0.50400001928E-02 0.  1.
       -1    1    3    3    0  502 -0.12283197821E+04 -0.72533994982E+02  0.14037180662E+04  0.18666695146E+04  0.50400001928E-02 0. -1.
</event>
<event>
 5   0  0.6612533E-06  0.2861490E+04  0.7818609E-02  0.8284429E-01
        2   -1    0    0  501    0  0.00000000000E+00  0.00000000000E+00  0.23955845180E+04  0.23955845180E+04  0.25500000920E-02 0. -1.
       -2   -1    0    0    0  501  0.00000000000E+00  0.00000000000E+00 -0.85450154050E+03  0.85450154050E+03  0.25500000920E-02 0.  1.
    10030    2    1    2    0    0  0.00000000000E+00  0.00000000000E+00  0.15410829775E+04  0.32500860585E+04  0.28614895849E+04 0.  0.
        3    1    3    3  502    0  0.79908172847E+03  0.41698424713E+03 -0.49148916717E+03  0.10266299639E+04  0.10100000352E+00 0.  1.
       -3    1    3    3    0  502 -0.79908172847E+03 -0.41698424713E+03  0.20325721447E+04  0.22234560946E+04  0.10100000352E+00 0. -1.
</event>
<event>
 5   0  0.2508094E-06  0.2914977E+04  0.7818609E-02  0.8268435E-01
       -1   -1    0    0    0  501  0.00000000000E+00  0.00000000000E+00  0.91192070166E+03  0.91192070168E+03  0.50400001928E-02 0.  1.
        1   -1    0    0  501    0  0.00000000000E+00  0.00000000000E+00 -0.23294494261E+04  0.23294494261E+04  0.50400001928E-02 0. -1.
    10030    2    1    2    0    0  0.00000000000E+00  0.00000000000E+00 -0.14175287244E+04  0.32413701278E+04  0.29149772933E+04 0.  0.
        3    1    3    3  502    0 -0.10038504361E+04 -0.41385097420E+03 -0.17898865756E+04  0.20934856796E+04  0.10100000352E+00 0. -1.
       -3    1    3    3    0  502  0.10038504361E+04  0.41385097420E+03  0.37235785119E+03  0.11478844482E+04  0.10100000352E+00 0.  1.
</event>
<event>
 5   0  0.2348684E-06  0.2901279E+04  0.7818609E-02  0.8272497E-01
       -1   -1    0    0    0  501  0.00000000000E+00  0.00000000000E+00  0.10701132003E+04  0.10701132003E+04  0.50400001928E-02 0.  1.
        1   -1    0    0  501    0  0.00000000000E+00  0.00000000000E+00 -0.19664783388E+04  0.19664783388E+04  0.50400001928E-02 0. -1.
    10030    2    1    2    0    0  0.00000000000E+00  0.00000000000E+00 -0.89636513847E+03  0.30365915391E+04  0.29012786344E+04 0.  0.
        5    1    3    3  502    0 -0.30645006296E+03  0.13561079594E+04 -0.88148595669E+03  0.16462016950E+04  0.46999998093E+01 0. -1.
       -5    1    3    3    0  502  0.30645006296E+03 -0.13561079594E+04 -0.14879181781E+02  0.13903898442E+04  0.46999998093E+01 0.  1.
</event>
<event>
 5   0  0.2508094E-06  0.2896204E+04  0.7818609E-02  0.8274008E-01
       -1   -1    0    0    0  501  0.00000000000E+00  0.00000000000E+00  0.12559707458E+04  0.12559707458E+04  0.50400001928E-02 0.  1.
        1   -1    0    0  501    0  0.00000000000E+00  0.00000000000E+00 -0.16696244706E+04  0.16696244706E+04  0.50400001928E-02 0. -1.
    10030    2    1    2    0    0  0.00000000000E+00  0.00000000000E+00 -0.41365372483E+03  0.29255952164E+04  0.28962040616E+04 0.  0.
        3    1    3    3  502    0  0.74331547349E+03  0.11594472460E+04  0.24510994028E+03  0.13988976740E+04  0.10100000352E+00 0.  1.
       -3    1    3    3    0  502 -0.74331547349E+03 -0.11594472460E+04 -0.65876366511E+03  0.15266975424E+04  0.10100000352E+00 0. -1.
</event>
<event>
 5   0  0.6733688E-06  0.2954586E+04  0.7818609E-02  0.8256819E-01
        2   -1    0    0  501    0  0.00000000000E+00  0.00000000000E+00  0.17261720669E+04  0.17261720669E+04  0.25500000920E-02 0. -1.
       -2   -1    0    0    0  501  0.00000000000E+00  0.00000000000E+00 -0.12642974351E+04  0.12642974351E+04  0.25500000920E-02 0.  1.
    10030    2    1    2    0    0  0.00000000000E+00  0.00000000000E+00  0.46187463180E+03  0.29904695021E+04  0.29545862092E+04 0.  0.
        5    1    3    3  502    0  0.14191178166E+03  0.38541901158E+03 -0.12053409641E+04  0.12734031954E+04  0.46999998093E+01 0.  1.
       -5    1    3    3    0  502 -0.14191178166E+03 -0.38541901158E+03  0.16672155959E+04  0.17170663067E+04  0.46999998093E+01 0. -1.
</event>
<event>
 5   0  0.6513041E-06  0.2888320E+04  0.7818609E-02  0.8276361E-01
       -2   -1    0    0    0  501  0.00000000000E+00  0.00000000000E+00  0.97043479995E+03  0.97043479995E+03  0.25500000920E-02 0. -1.
        2   -1    0    0  501    0  0.00000000000E+00  0.00000000000E+00 -0.21491380607E+04  0.21491380607E+04  0.25500000920E-02 0.  1.
    10030    2    1    2    0    0  0.00000000000E+00  0.00000000000E+00 -0.11787032608E+04  0.31195728607E+04  0.28883201790E+04 0.  0.
        1    1    3    3  502    0 -0.61361319412E+01 -0.29295157536E+02 -0.21488030255E+04  0.21490114706E+04  0.50400001928E-02 0.  1.
       -1    1    3    3    0  502  0.61361319412E+01  0.29295157536E+02  0.97009976472E+03  0.97056139008E+03  0.50400001928E-02 0. -1.
</event>
<event>
 5   0  0.6513041E-06  0.2900083E+04  0.7818609E-02  0.8272853E-01
       -2   -1    0    0    0  501  0.00000000000E+00  0.00000000000E+00  0.13675085213E+04  0.13675085213E+04  0.25500000920E-02 0. -1.
        2   -1    0    0  501    0  0.00000000000E+00  0.00000000000E+00 -0.15375553933E+04  0.15375553933E+04  0.25500000920E-02 0.  1.
    10030    2    1    2    0    0  0.00000000000E+00  0.00000000000E+00 -0.17004687200E+03  0.29050639146E+04  0.29000828280E+04 0.  0.
        1    1    3    3  502    0  0.16299067222E+03  0.14406471478E+04 -0.10935380848E+03  0.14539561269E+04  0.50400001928E-02 0. -1.
       -1    1    3    3    0  502 -0.16299067222E+03 -0.14406471478E+04 -0.60693063516E+02  0.14511077877E+04  0.50400001928E-02 0.  1.
</event>
<event>
 5   0  0.2429358E-06  0.2901795E+04  0.7818609E-02  0.8272344E-01
       -1   -1    0    0    0  501  0.00000000000E+00  0.00000000000E+00  0.11735822376E+04  0.11735822377E+04  0.50400001928E-02 0. -1.
        1   -1    0    0  501    0  0.00000000000E+00  0.00000000000E+00 -0.17937413160E+04  0.17937413161E+04  0.50400001928E-02 0.  1.
    10030    2    1    2    0    0  0.00000000000E+00  0.00000000000E+00 -0.62015907840E+03  0.29673235537E+04  0.29017945809E+04 0.  0.
        2    1    3    3  502    0 -0.12016764413E+04  0.37439855253E+03 -0.10481136225E+04  0.16379080290E+04  0.25500000920E-02 0.  1.
       -2    1    3    3    0  502  0.12016764413E+04 -0.37439855253E+03  0.42795454411E+03  0.13294155248E+04  0.25500000920E-02 0. -1.
</event>
<event>
 5   0  0.2429358E-06  0.2921191E+04  0.7818609E-02  0.8266600E-01
       -1   -1    0    0    0  501  0.00000000000E+00  0.00000000000E+00  0.23413795084E+04  0.23413795084E+04  0.50400001928E-02 0.  1.
        1   -1    0    0  501    0  0.00000000000E+00  0.00000000000E+00 -0.91114649359E+03  0.91114649360E+03  0.50400001928E-02 0. -1.
    10030    2    1    2    0    0  0.00000000000E+00  0.00000000000E+00  0.14302330148E+04  0.32525260020E+04  0.29211913524E+04 0.  0.
        2    1    3    3  502    0 -0.74833081336E+03 -0.26307236155E+03 -0.65042210625E+03  0.10257948089E+04  0.25500000920E-02 0. -1.
       -2    1    3    3    0  502  0.74833081336E+03  0.26307236155E+03  0.20806551211E+04  0.22267311932E+04  0.25500000920E-02 0.  1.
</event>
<event>
 5   0  0.6615403E-06  0.2897591E+04  0.7818609E-02  0.8273595E-01
        2   -1    0    0  501    0  0.00000000000E+00  0.00000000000E+00  0.18385263470E+04  0.18385263470E+04  0.25500000920E-02 0. -1.
       -2   -1    0    0    0  501  0.00000000000E+00  0.00000000000E+00 -0.11416798336E+04  0.11416798336E+04  0.25500000920E-02 0.  1.
    10030    2    1    2    0    0  0.00000000000E+00  0.00000000000E+00  0.69684651342E+03  0.29802061806E+04  0.28975910367E+04 0.  0.
        2    1    3    3  502    0  0.20384708096E+03 -0.13856658152E+04 -0.32799652430E+02  0.14009636688E+04  0.25500000920E-02 0.  1.
       -2    1    3    3    0  502 -0.20384708096E+03  0.13856658152E+04  0.72964616585E+03  0.15792425119E+04  0.25500000920E-02 0. -1.
</event>
<event>
 5   0  0.2348684E-06  0.2859907E+04  0.7818609E-02  0.8284907E-01
       -1   -1    0    0    0  501  0.00000000000E+00  0.00000000000E+00  0.15329225778E+04  0.15329225778E+04  0.50400001928E-02 0.  1.
        1   -1    0    0  501    0  0.00000000000E+00  0.00000000000E+00 -0.13339009859E+04  0.13339009859E+04  0.50400001928E-02 0. -1.
    10030    2    1    2    0    0  0.00000000000E+00  0.00000000000E+00  0.19902159186E+03  0.28668235637E+04  0.28599069480E+04 0.  0.
        5    1    3    3  502    0  0.25188583805E+03  0.10984688782E+04 -0.78276809516E+03  0.13721619193E+04  0.46999998093E+01 0. -1.
       -5    1    3    3    0  502 -0.25188583805E+03 -0.10984688782E+04  0.98178968701E+03  0.14946616444E+04  0.46999998093E+01 0.  1.
</event>
<event>
 5   0  0.2336512E-06  0.2897098E+04  0.7818609E-02  0.8273742E-01
       -1   -1    0    0    0  501  0.00000000000E+00  0.00000000000E+00  0.10052895739E+04  0.10052895739E+04  0.50400001928E-02 0. -1.
        1   -1    0    0  501    0  0.00000000000E+00  0.00000000000E+00 -0.20872529542E+04  0.20872529542E+04  0.50400001928E-02 0.  1.
    10030    2    1    2    0    0  0.00000000000E+00  0.00000000000E+00 -0.10819633803E+04  0.30925425282E+04  0.28970976049E+04 0.  0.
        4    1    3    3  502    0 -0.52196066359E+03  0.75344782207E+03 -0.17383325592E+04  0.19651789370E+04  0.12699999809E+01 0.  1.
       -4    1    3    3    0  502  0.52196066359E+03 -0.75344782207E+03  0.65636917887E+03  0.11273635912E+04  0.12699999809E+01 0. -1.
</event>
<event>
 5   0  0.2508094E-06  0.3349674E+04  0.7818609E-02  0.8150370E-01
       -1   -1    0    0    0  501  0.00000000000E+00  0.00000000000E+00  0.17708661841E+04  0.17708661841E+04  0.50400001928E-02 0. -1.
        1   -1    0    0  501    0  0.00000000000E+00  0.00000000000E+00 -0.15840153109E+04  0.15840153109E+04  0.50400001928E-02 0.  1.
    10030    2    1    2    0    0  0.00000000000E+00  0.00000000000E+00  0.18685087323E+03  0.33548814950E+04  0.33496741031E+04 0.  0.
        3    1    3    3  502    0 -0.11700187796E+04 -0.11731242001E+04  0.33858097302E+03  0.16910947398E+04  0.10100000352E+00 0.  1.
       -3    1    3    3    0  502  0.11700187796E+04  0.11731242001E+04 -0.15173009979E+03  0.16637867552E+04  0.10100000352E+00 0. -1.
</event>
<event>
 5   0  0.2348684E-06  0.2896693E+04  0.7818609E-02  0.8273862E-01
        1   -1    0    0  501    0  0.00000000000E+00  0.00000000000E+00  0.23056104277E+04  0.23056104277E+04  0.50400001928E-02 0. -1.
       -1   -1    0    0    0  501  0.00000000000E+00  0.00000000000E+00 -0.90982771619E+03  0.90982771620E+03  0.50400001928E-02 0.  1.
    10030    2    1    2    0    0  0.00000000000E+00  0.00000000000E+00  0.13957827115E+04  0.32154381439E+04  0.28966934735E+04 0.  0.
        5    1    3    3  502    0 -0.24446309906E+03 -0.13047055774E+04  0.54771149091E+02  0.13285483880E+04  0.46999998093E+01 0.  1.
       -5    1    3    3    0  502  0.24446309906E+03  0.13047055774E+04  0.13410115624E+04  0.18868897559E+04  0.46999998093E+01 0. -1.
</event>
<event>
 5   0  0.6615403E-06  0.2912824E+04  0.7818609E-02  0.8269072E-01
        2   -1    0    0  501    0  0.00000000000E+00  0.00000000000E+00  0.13284273431E+04  0.13284273431E+04  0.25500000920E-02 0.  1.
       -2   -1    0    0    0  501  0.00000000000E+00  0.00000000000E+00 -0.15967267762E+04  0.15967267762E+04  0.25500000920E-02 0. -1.
    10030    2    1    2    0    0  0.00000000000E+00  0.00000000000E+00 -0.26829943310E+03  0.29251541193E+04  0.29128237221E+04 0.  0.
        2    1    3    3  502    0  0.24819133548E+03 -0.67128318003E+03  0.11396500437E+04  0.13457422743E+04  0.25500000920E-02 0.  1.
       -2    1    3    3    0  502 -0.24819133548E+03  0.67128318003E+03 -0.14079494768E+04  0.15794118450E+04  0.25500000920E-02 0. -1.
</event>
<event>
 5   0  0.6615403E-06  0.2516100E+04  0.7818609E-02  0.8397272E-01
        2   -1    0    0  501    0  0.00000000000E+00  0.00000000000E+00  0.22060419110E+04  0.22060419110E+04  0.25500000920E-02 0.  1.
       -2   -1    0    0    0  501  0.00000000000E+00  0.00000000000E+00 -0.71743438076E+03  0.71743438077E+03  0.25500000920E-02 0. -1.
    10030    2    1    2    0    0  0.00000000000E+00  0.00000000000E+00  0.14886075302E+04  0.29234762917E+04  0.25161004053E+04 0.  0.
        2    1    3    3  502    0 -0.32780635263E+02  0.99385639484E+03  0.16397005901E+04  0.19176660629E+04  0.25500000920E-02 0.  1.
       -2    1    3    3    0  502  0.32780635263E+02 -0.99385639484E+03 -0.15109305992E+03  0.10058102288E+04  0.25500000920E-02 0. -1.
</event>
<event>
 5   0  0.2336512E-06  0.2834475E+04  0.7818609E-02  0.8292644E-01
       -1   -1    0    0    0  501  0.00000000000E+00  0.00000000000E+00  0.10994195699E+04  0.10994195699E+04  0.50400001928E-02 0.  1.
        1   -1    0    0  501    0  0.00000000000E+00  0.00000000000E+00 -0.18269301219E+04  0.18269301219E+04  0.50400001928E-02 0. -1.
    10030    2    1    2    0    0  0.00000000000E+00  0.00000000000E+00 -0.72751055199E+03  0.29263496918E+04  0.28344754216E+04 0.  0.
        4    1    3    3  502    0  0.52214537479E+03  0.41821160999E+03 -0.16536621838E+04  0.17838545272E+04  0.12699999809E+01 0. -1.
       -4    1    3    3    0  502 -0.52214537479E+03 -0.41821160999E+03  0.92615163183E+03  0.11424951646E+04  0.12699999809E+01 0.  1.
</event>
<event>
 5   0  0.2474769E-06  0.2885860E+04  0.7818609E-02  0.8277097E-01
        1   -1    0    0  501    0  0.00000000000E+00  0.00000000000E+00  0.16214025610E+04  0.16214025610E+04  0.50400001928E-02 0.  1.
       -1   -1    0    0    0  501  0.00000000000E+00  0.00000000000E+00 -0.12841023981E+04  0.12841023981E+04  0.50400001928E-02 0. -1.
    10030    2    1    2    0    0  0.00000000000E+00  0.00000000000E+00  0.33730016291E+03  0.29055049591E+04  0.28858599529E+04 0.  0.
        1    1    3    3  502    0 -0.10327768024E+04  0.43771475547E+03 -0.74517652098E+03  0.13466663203E+04  0.50400001928E-02 0. -1.
       -1    1    3    3    0  502  0.10327768024E+04 -0.43771475547E+03  0.10824766839E+04  0.15588386388E+04  0.50400001928E-02 0.  1.
</event>
<event>
 5   0  0.2474769E-06  0.2919637E+04  0.7818609E-02  0.8267059E-01
       -1   -1    0    0    0  501  0.00000000000E+00  0.00000000000E+00  0.10856819758E+04  0.10856819758E+04  0.50400001928E-02 0.  1.
        1   -1    0    0  501    0  0.00000000000E+00  0.00000000000E+00 -0.19628860085E+04  0.19628860085E+04  0.50400001928E-02 0. -1.
    10030    2    1    2    0    0  0.00000000000E+00  0.00000000000E+00 -0.87720403274E+03  0.30485679844E+04  0.29196369364E+04 0.  0.
        1    1    3    3  502    0 -0.88638954671E+03 -0.83620331364E+03 -0.12779322864E+04  0.17657953842E+04  0.50400001928E-02 0. -1.
       -1    1    3    3    0  502  0.88638954671E+03  0.83620331364E+03  0.40072825371E+03  0.12827726001E+04  0.50400001928E-02 0.  1.
</event>
<event>
 5   0  0.2348684E-06  0.2915759E+04  0.7818609E-02  0.8268204E-01
       -1   -1    0    0    0  501  0.00000000000E+00  0.00000000000E+00  0.10797446652E+04  0.10797446652E+04  0.50400001928E-02 0. -1.
        1   -1    0    0  501    0  0.00000000000E+00  0.00000000000E+00 -0.19684395067E+04  0.19684395067E+04  0.50400001928E-02 0.  1.
    10030    2    1    2    0    0  0.00000000000E+00  0.00000000000E+00 -0.88869484153E+03  0.30481841719E+04  0.29157586019E+04 0.  0.
        5    1    3    3  502    0  0.25818823219E+03  0.14032460354E+04 -0.75732613573E+03  0.16153406962E+04  0.46999998093E+01 0.  1.
       -5    1    3    3    0  502 -0.25818823219E+03 -0.14032460354E+04 -0.13136870580E+03  0.14328434757E+04  0.46999998093E+01 0. -1.
</event>
<event>
 5   0  0.6393633E-06  0.2881636E+04  0.7818609E-02  0.8278362E-01
       -2   -1    0    0    0  501  0.00000000000E+00  0.00000000000E+00  0.16219369571E+04  0.16219369571E+04  0.25500000920E-02 0. -1.
        2   -1    0    0  501    0  0.00000000000E+00  0.00000000000E+00 -0.12799238718E+04  0.12799238718E+04  0.25500000920E-02 0.  1.
    10030    2    1    2    0    0  0.00000000000E+00  0.00000000000E+00  0.34201308528E+03  0.29018608289E+04  0.28816355286E+04 0.  0.
        4    1    3    3  502    0 -0.18181623548E+03  0.39487681938E+03  0.15543179410E+04  0.16139673853E+04  0.12699999809E+01 0. -1.
       -4    1    3    3    0  502  0.18181623548E+03 -0.39487681938E+03 -0.12123048558E+04  0.12878934436E+04  0.12699999809E+01 0.  1.
</event>
<event>
 5   0  0.6612533E-06  0.2887034E+04  0.7818609E-02  0.8276746E-01
       -2   -1    0    0    0  501  0.00000000000E+00  0.00000000000E+00  0.82755246230E+03  0.82755246231E+03  0.25500000920E-02 0.  1.
        2   -1    0    0  501    0  0.00000000000E+00  0.00000000000E+00 -0.25179567923E+04  0.25179567923E+04  0.25500000920E-02 0. -1.
    10030    2    1    2    0    0  0.00000000000E+00  0.00000000000E+00 -0.16904043300E+04  0.33455092546E+04  0.28870340098E+04 0.  0.
        3    1    3    3  502    0  0.99748033417E+03 -0.98363116127E+03 -0.12486993987E+04  0.18766319503E+04  0.10100000352E+00 0. -1.
       -3    1    3    3    0  502 -0.99748033417E+03  0.98363116127E+03 -0.44170493128E+03  0.14688773043E+04  0.10100000352E+00 0.  1.
</event>
<event>
 5   0  0.6513041E-06  0.2994561E+04  0.7818609E-02  0.8245286E-01
        2   -1    0    0  501    0  0.00000000000E+00  0.00000000000E+00  0.17218621194E+04  0.17218621194E+04  0.25500000920E-02 0.  1.
       -2   -1    0    0    0  501  0.00000000000E+00  0.00000000000E+00 -0.13019909032E+04  0.13019909032E+04  0.25500000920E-02 0. -1.
    10030    2    1    2    0    0  0.00000000000E+00  0.00000000000E+00  0.41987121620E+03  0.30238530225E+04  0.29945609467E+04 0.  0.
        1    1    3    3  502    0 -0.95850312251E+03 -0.11415065617E+04  0.66833643760E+02  0.14920563670E+04  0.50400001928E-02 0. -1.
       -1    1    3    3    0  502  0.95850312251E+03  0.11415065617E+04  0.35303757244E+03  0.15317966555E+04  0.50400001928E-02 0.  1.
</event>
<event>
 5   0  0.6612533E-06  0.2874720E+04  0.7818609E-02  0.8280439E-01
       -2   -1    0    0    0  501  0.00000000000E+00  0.00000000000E+00  0.18533427006E+04  0.18533427006E+04  0.25500000920E-02 0.  1.
        2   -1    0    0  501    0  0.00000000000E+00  0.00000000000E+00 -0.11147446459E+04  0.11147446459E+04  0.25500000920E-02 0. -1.
    10030    2    1    2    0    0  0.00000000000E+00  0.00000000000E+00  0.73859805472E+03  0.29680873466E+04  0.28747200577E+04 0.  0.
        3    1    3    3  502    0  0.64362190126E+03  0.39275964520E+02 -0.95702916317E+03  0.11539915869E+04  0.10100000352E+00 0. -1.
       -3    1    3    3    0  502 -0.64362190126E+03 -0.39275964520E+02  0.16956272179E+04  0.18140957597E+04  0.10100000352E+00 0.  1.
</event>
<event>
 5   0  0.6733688E-06  0.2863746E+04  0.7818609E-02  0.8283747E-01
        2   -1    0    0  501    0  0.00000000000E+00  0.00000000000E+00  0.24547309067E+04  0.24547309067E+04  0.25500000920E-02 0. -1.
       -2   -1    0    0    0  501  0.00000000000E+00  0.00000000000E+00 -0.83522784666E+03  0.83522784667E+03  0.25500000920E-02 0.  1.
    10030    2    1    2    0    0  0.00000000000E+00  0.00000000000E+00  0.16195030600E+04  0.32899587533E+04  0.28637455259E+04 0.  0.
        5    1    3    3  502    0  0.10143509824E+04  0.46254131406E+03  0.18420288949E+04  0.21531244559E+04  0.46999998093E+01 0. -1.
       -5    1    3    3    0  502 -0.10143509824E+04 -0.46254131406E+03 -0.22252583492E+03  0.11368342975E+04  0.46999998093E+01 0.  1.
</event>
<event>
 5   0  0.2429358E-06  0.2875344E+04  0.7818609E-02  0.8280251E-01
        1   -1    0    0  501    0  0.00000000000E+00  0.00000000000E+00  0.30546589562E+04  0.30546589562E+04  0.50400001928E-02 0. -1.
       -1   -1    0    0    0  501  0.00000000000E+00  0.00000000000E+00 -0.67663860238E+03  0.67663860240E+03  0.50400001928E-02 0.  1.
    10030    2    1    2    0    0  0.00000000000E+00  0.00000000000E+00  0.23780203538E+04  0.37312975586E+04  0.28753435738E+04 0.  0.
        2    1    3    3  502    0  0.59396434193E+03 -0.10737177083E+04  0.21683794548E+03  0.12460666320E+04  0.25500000920E-02 0.  1.
       -2    1    3    3    0  502 -0.59396434193E+03  0.10737177083E+04  0.21611824083E+04  0.24852309266E+04  0.25500000920E-02 0. -1.
</event>
<event>
 5   0  0.2508094E-06  0.2920433E+04  0.7818609E-02  0.8266824E-01
        1   -1    0    0  501    0  0.00000000000E+00  0.00000000000E+00  0.13397135093E+04  0.13397135093E+04  0.50400001928E-02 0.  1.
       -1   -1    0    0    0  501  0.00000000000E+00  0.00000000000E+00 -0.15915579565E+04  0.15915579565E+04  0.50400001928E-02 0. -1.
    10030    2    1    2    0    0  0.00000000000E+00  0.00000000000E+00 -0.25184444726E+03  0.29312714658E+04  0.29204326358E+04 0.  0.
        3    1    3    3  502    0  0.63349163972E+03 -0.10122189369E+04 -0.96947750753E+03  0.15381110108E+04  0.10100000352E+00 0. -1.
       -3    1    3    3    0  502 -0.63349163972E+03  0.10122189369E+04  0.71763306027E+03  0.13931604549E+04  0.10100000352E+00 0.  1.
</event>
<event>
 5   0  0.6513041E-06  0.2884036E+04  0.7818609E-02  0.8277643E-01
       -2   -1    0    0    0  501  0.00000000000E+00  0.00000000000E+00  0.11798738634E+04  0.11798738634E+04  0.25500000920E-02 0.  1.
        2   -1    0    0  501    0  0.00000000000E+00  0.00000000000E+00 -0.17624054654E+04  0.17624054654E+04  0.25500000920E-02 0. -1.
    10030    2    1    2    0    0  0.00000000000E+00  0.00000000000E+00 -0.58253160195E+03  0.29422793288E+04  0.28840361616E+04 0.  0.
        1    1    3    3  502    0 -0.62735679496E+03 -0.68521872079E+03  0.83387328781E+03  0.12483773082E+04  0.50400001928E-02 0.  1.
       -1    1    3    3    0  502  0.62735679496E+03  0.68521872079E+03 -0.14164048898E+04  0.16939020206E+04  0.50400001928E-02 0. -1.
</event>
<event>
 5   0  0.2508094E-06  0.2882519E+04  0.7818609E-02  0.8278098E-01
       -1   -1    0    0    0  501  0.00000000000E+00  0.00000000000E+00  0.16658965834E+04  0.16658965835E+04  0.50400001928E-02 0.  1.
        1   -1    0    0  501    0  0.00000000000E+00  0.00000000000E+00 -0.12469138907E+04  0.12469138907E+04  0.50400001928E-02 0. -1.
    10030    2    1    2    0    0  0.00000000000E+00  0.00000000000E+00  0.41898269272E+03  0.29128104742E+04  0.28825194469E+04 0.  0.
        3    1    3    3  502    0  0.71244557474E+02 -0.46100787613E+03  0.15875024967E+04  0.16546202694E+04  0.10100000352E+00 0.  1.
       -3    1    3    3    0  502 -0.71244557474E+02  0.46100787613E+03 -0.11685198040E+04  0.12581902047E+04  0.10100000352E+00 0. -1.
</event>
<event>
 5   0  0.2429358E-06  0.2901063E+04  0.7818609E-02  0.8272561E-01
        1   -1    0    0  501    0  0.00000000000E+00  0.00000000000E+00  0.17829905116E+04  0.17829905116E+04  0.50400001928E-02 0.  1.
       -1   -1    0    0    0  501  0.00000000000E+00  0.00000000000E+00 -0.11800629728E+04  0.11800629728E+04  0.50400001928E-02 0. -1.
    10030    2    1    2    0    0  0.00000000000E+00  0.00000000000E+00  0.60292753882E+03  0.29630534844E+04  0.29010626216E+04 0.  0.
        2    1    3    3  502    0 -0.53598126999E+03 -0.10009041010E+04 -0.62057568696E+03  0.12939084684E+04  0.25500000920E-02 0.  1.
       -2    1    3    3    0  502  0.53598126999E+03  0.10009041010E+04  0.12235032258E+04  0.16691450161E+04  0.25500000920E-02 0. -1.
</event>
<event>
 5   0  0.2336512E-06  0.2793787E+04  0.7818609E-02  0.8305200E-01
       -1   -1    0    0    0  501  0.00000000000E+00  0.00000000000E+00  0.11419774302E+04  0.11419774302E+04  0.50400001928E-02 0. -1.
        1   -1    0    0  501    0  0.00000000000E+00  0.00000000000E+00 -0.17087131898E+04  0.17087131898E+04  0.50400001928E-02 0.  1.
    10030    2    1    2    0    0  0.00000000000E+00  0.00000000000E+00 -0.56673575960E+03  0.28506906199E+04  0.27937873200E+04 0.  0.
        4    1    3    3  502    0  0.11297307902E+04 -0.82016667444E+03 -0.33278205318E+03  0.14351691677E+04  0.12699999809E+01 0. -1.
       -4    1    3    3    0  502 -0.11297307902E+04  0.82016667444E+03 -0.23395370642E+03  0.14155214522E+04  0.12699999809E+01 0.  1.
</event>
<event>
 5   0  0.6393633E-06  0.2902841E+04  0.7818609E-02  0.8272033E-01
       -2   -1    0    0    0  501  0.00000000000E+00  0.00000000000E+00  0.15026979264E+04  0.15026979264E+04  0.25500000920E-02 0.  1.
        2   -1    0    0  501    0  0.00000000000E+00  0.00000000000E+00 -0.14018924188E+04  0.14018924188E+04  0.25500000920E-02 0. -1.
    10030    2    1    2    0    0  0.00000000000E+00  0.00000000000E+00  0.10080550757E+03  0.29045903452E+04  0.29028405611E+04 0.  0.
        4    1    3    3  502    0  0.96131942768E+03 -0.10275343306E+04  0.40650683305E+03  0.14646539730E+04  0.12699999809E+01 0.  1.
       -4    1    3    3    0  502 -0.96131942768E+03  0.10275343306E+04 -0.30570132548E+03  0.14399363722E+04  0.12699999809E+01 0. -1.
</event>
<event>
 5   0  0.2348684E-06  0.2891668E+04  0.7818609E-02  0.8275361E-01
        1   -1    0    0  501    0  0.00000000000E+00  0.00000000000E+00  0.20017595280E+04  0.20017595280E+04  0.50400001928E-02 0. -1.
       -1   -1    0    0    0  501  0.00000000000E+00  0.00000000000E+00 -0.10442990131E+04  0.10442990132E+04  0.50400001928E-02 0.  1.
    10030    2    1    2    0    0  0.00000000000E+00  0.00000000000E+00  0.95746051485E+03  0.30460585412E+04  0.28916676847E+04 0.  0.
        5    1    3    3  502    0  0.13925928501E+04 -0.16408844674E+03  0.10753330310E+03  0.14063517930E+04  0.46999998093E+01 0.  1.
       -5    1    3    3    0  502 -0.13925928501E+04  0.16408844674E+03  0.84992721175E+03  0.16397067481E+04  0.46999998093E+01 0. -1.
</event>
<event>
 5   0  0.2348684E-06  0.2814367E+04  0.7818609E-02  0.8298822E-01
       -1   -1    0    0    0  501  0.00000000000E+00  0.00000000000E+00  0.10865930751E+04  0.10865930751E+04  0.50400001928E-02 0. -1.
        1   -1    0    0  501    0  0.00000000000E+00  0.00000000000E+00 -0.18223616440E+04  0.18223616440E+04  0.50400001928E-02 0.  1.
    10030    2    1    2    0    0  0.00000000000E+00  0.00000000000E+00 -0.73576856887E+03  0.29089547191E+04  0.28143670995E+04 0.  0.
        5    1    3    3  502    0 -0.11965891897E+03  0.91303764567E+03  0.73191994330E+03  0.11763013613E+04  0.46999998093E+01 0. -1.
       -5    1    3    3    0  502  0.11965891897E+03 -0.91303764567E+03 -0.14676885122E+04  0.17326533577E+04  0.46999998093E+01 0.  1.
</event>
<event>
 5   0  0.2348684E-06  0.2871528E+04  0.7818609E-02  0.8281399E-01
       -1   -1    0    0    0  501  0.00000000000E+00  0.00000000000E+00  0.91592553534E+03  0.91592553535E+03  0.50400001928E-02 0. -1.
        1   -1    0    0  501    0  0.00000000000E+00  0.00000000000E+00 -0.22506403068E+04  0.22506403068E+04  0.50400001928E-02 0.  1.
    10030    2    1    2    0    0  0.00000000000E+00  0.00000000000E+00 -0.13347147714E+04  0.31665658421E+04  0.28715284626E+04 0.  0.
        5    1    3    3  502    0 -0.13538220245E+04  0.22935500683E+03 -0.20478341087E+03  0.13883069288E+04  0.46999998093E+01 0.  1.
       -5    1    3    3    0  502  0.13538220245E+04 -0.22935500683E+03 -0.11299313606E+04  0.17782589133E+04  0.46999998093E+01 0. -1.
</event>
<event>
 5   0  0.6733688E-06  0.2936983E+04  0.7818609E-02  0.8261958E-01
       -2   -1    0    0    0  501  0.00000000000E+00  0.00000000000E+00  0.11125853138E+04  0.11125853138E+04  0.25500000920E-02 0.  1.
        2   -1    0    0  501    0  0.00000000000E+00  0.00000000000E+00 -0.19382485234E+04  0.19382485234E+04  0.25500000920E-02 0. -1.
    10030    2    1    2    0    0  0.00000000000E+00  0.00000000000E+00 -0.82566320958E+03  0.30508338372E+04  0.29369826977E+04 0.  0.
        5    1    3    3  502    0  0.11351788647E+04 -0.24590989321E+03 -0.13461846426E+04  0.17780151609E+04  0.46999998093E+01 0. -1.
       -5    1    3    3    0  502 -0.11351788647E+04  0.24590989321E+03  0.52052143306E+03  0.12728186763E+04  0.46999998093E+01 0.  1.
</event>
<event>
 5   0  0.6513041E-06  0.2886068E+04  0.7818609E-02  0.8277035E-01
        2   -1    0    0  501    0  0.00000000000E+00  0.00000000000E+00  0.26646964779E+04  0.26646964779E+04  0.25500000920E-02 0.  1.
       -2   -1    0    0    0  501  0.00000000000E+00  0.00000000000E+00 -0.78145759672E+03  0.78145759673E+03  0.25500000920E-02 0. -1.
    10030    2    1    2    0    0  0.00000000000E+00  0.00000000000E+00  0.18832388811E+04  0.34461540746E+04  0.28860681250E+04 0.  0.
        1    1    3    3  502    0 -0.55516217203E+03  0.60247308293E+03  0.23600809048E+04  0.24982315205E+04  0.50400001928E-02 0.  1.
       -1    1    3    3    0  502  0.55516217203E+03 -0.60247308293E+03 -0.47684202368E+03  0.94792255405E+03  0.50400001928E-02 0. -1.
</event>
<event>
 5   0  0.2429358E-06  0.2992996E+04  0.7818609E-02  0.8245734E-01
       -1   -1    0    0    0  501  0.00000000000E+00  0.00000000000E+00  0.30933373627E+04  0.30933373627E+04  0.50400001928E-02 0. -1.
        1   -1    0    0  501    0  0.00000000000E+00  0.00000000000E+00 -0.72397739881E+03  0.72397739883E+03  0.50400001928E-02 0.  1.
    10030    2    1    2    0    0  0.00000000000E+00  0.00000000000E+00  0.23693599639E+04  0.38173147615E+04  0.29929960491E+04 0.  0.
        2    1    3    3  502    0  0.32876901743E+03 -0.14598619059E+04  0.12036183559E+04  0.19204121947E+04  0.25500000920E-02 0.  1.
       -2    1    3    3    0  502 -0.32876901743E+03  0.14598619059E+04  0.11657416080E+04  0.18969025668E+04  0.25500000920E-02 0. -1.
</event>
<event>
 5   0  0.2159500E-06  0.2879448E+04  0.7818609E-02  0.8279019E-01
       -4   -1    0    0    0  501  0.00000000000E+00  0.00000000000E+00  0.11011431332E+04  0.11011438655E+04  0.12699999809E+01 0. -1.
        4   -1    0    0  501    0  0.00000000000E+00  0.00000000000E+00 -0.18824112120E+04  0.18824116405E+04  0.12699999809E+01 0.  1.
    10030    2    1    2    0    0  0.00000000000E+00  0.00000000000E+00 -0.78126807888E+03  0.29835555060E+04  0.28794484969E+04 0.  0.
        5    1    3    3  502    0  0.76785067897E+03  0.21044480550E+03  0.85227811838E+03  0.11663111774E+04  0.46999998093E+01 0. -1.
       -5    1    3    3    0  502 -0.76785067897E+03 -0.21044480550E+03 -0.16335461973E+04  0.18172443286E+04  0.46999998093E+01 0.  1.
</event>
<event>
 5   0  0.6513041E-06  0.2679227E+04  0.7818609E-02  0.8341777E-01
       -2   -1    0    0    0  501  0.00000000000E+00  0.00000000000E+00  0.80618888570E+03  0.80618888571E+03  0.25500000920E-02 0. -1.
        2   -1    0    0  501    0  0.00000000000E+00  0.00000000000E+00 -0.22259843667E+04  0.22259843667E+04  0.25500000920E-02 0.  1.
    10030    2    1    2    0    0  0.00000000000E+00  0.00000000000E+00 -0.14197954810E+04  0.30321732524E+04  0.26792266468E+04 0.  0.
        1    1    3    3  502    0 -0.11065096967E+04  0.46939402015E+03 -0.40479504208E+02  0.12026358740E+04  0.50400001928E-02 0.  1.
       -1    1    3    3    0  502  0.11065096967E+04 -0.46939402015E+03 -0.13793159768E+04  0.18295373784E+04  0.50400001928E-02 0. -1.
</event>
<event>
 5   0  0.6513041E-06  0.2887443E+04  0.7818609E-02  0.8276623E-01
       -2   -1    0    0    0  501  0.00000000000E+00  0.00000000000E+00  0.14028958060E+04  0.14028958060E+04  0.25500000920E-02 0. -1.
        2   -1    0    0  501    0  0.00000000000E+00  0.00000000000E+00 -0.14857352780E+04  0.14857352780E+04  0.25500000920E-02 0.  1.
    10030    2    1    2    0    0  0.00000000000E+00  0.00000000000E+00 -0.82839471929E+02  0.28886310840E+04  0.28874430144E+04 0.  0.
        1    1    3    3  502    0 -0.13291621923E+04  0.54040967901E+03  0.11869934703E+03  0.14397236852E+04  0.50400001928E-02 0. -1.
       -1    1    3    3    0  502  0.13291621923E+04 -0.54040967901E+03 -0.20153881895E+03  0.14489073988E+04  0.50400001928E-02 0.  1.
</event>
<event>
 5   0  0.6612533E-06  0.2957367E+04  0.7818609E-02  0.8256011E-01
       -2   -1    0    0    0  501  0.00000000000E+00  0.00000000000E+00  0.10124963101E+04  0.10124963101E+04  0.25500000920E-02 0.  1.
        2   -1    0    0  501    0  0.00000000000E+00  0.00000000000E+00 -0.21595182563E+04  0.21595182563E+04  0.25500000920E-02 0. -1.
    10030    2    1    2    0    0  0.00000000000E+00  0.00000000000E+00 -0.11470219462E+04  0.31720145663E+04  0.29573665758E+04 0.  0.
        3    1    3    3  502    0 -0.98592574212E+03  0.15882939551E+03  0.59615689439E+03  0.11630474620E+04  0.10100000352E+00 0.  1.
       -3    1    3    3    0  502  0.98592574212E+03 -0.15882939551E+03 -0.17431788406E+04  0.20089671044E+04  0.10100000352E+00 0. -1.
</event>
<event>
 5   0  0.2336512E-06  0.2899935E+04  0.7818609E-02  0.8272897E-01
        1   -1    0    0  501    0  0.00000000000E+00  0.00000000000E+00  0.18084577419E+04  0.18084577419E+04  0.50400001928E-02 0.  1.
       -1   -1    0    0    0  501  0.00000000000E+00  0.00000000000E+00 -0.11625408791E+04  0.11625408791E+04  0.50400001928E-02 0. -1.
    10030    2    1    2    0    0  0.00000000000E+00  0.00000000000E+00  0.64591686277E+03  0.29709986210E+04  0.28999352083E+04 0.  0.
        4    1    3    3  502    0 -0.19003163932E+02 -0.10916925029E+04  0.13004087440E+04  0.16980041683E+04  0.12699999809E+01 0.  1.
       -4    1    3    3    0  502  0.19003163932E+02  0.10916925029E+04 -0.65449188124E+03  0.12729944527E+04  0.12699999809E+01 0. -1.
</event>
<event>
 5   0  0.2336512E-06  0.2896892E+04  0.7818609E-02  0.8273803E-01
       -1   -1    0    0    0  501  0.00000000000E+00  0.00000000000E+00  0.17568038512E+04  0.17568038512E+04  0.50400001928E-02 0.  1.
        1   -1    0    0  501    0  0.00000000000E+00  0.00000000000E+00 -0.11942113748E+04  0.11942113748E+04  0.50400001928E-02 0. -1.
    10030    2    1    2    0    0  0.00000000000E+00  0.00000000000E+00  0.56259247641E+03  0.29510152261E+04  0.28968915358E+04 0.  0.
        4    1    3    3  502    0 -0.96226230787E+03  0.78531812146E+03  0.10404171623E+04  0.16202292386E+04  0.12699999809E+01 0.  1.
       -4    1    3    3    0  502  0.96226230787E+03 -0.78531812146E+03 -0.47782468592E+03  0.13307859875E+04  0.12699999809E+01 0. -1.
</event>
<event>
 5   0  0.2474769E-06  0.2913853E+04  0.7818609E-02  0.8268768E-01
       -1   -1    0    0    0  501  0.00000000000E+00  0.00000000000E+00  0.12406433924E+04  0.12406433925E+04  0.50400001928E-02 0. -1.
        1   -1    0    0  501    0  0.00000000000E+00  0.00000000000E+00 -0.17109143646E+04  0.17109143646E+04  0.50400001928E-02 0.  1.
    10030    2    1    2    0    0  0.00000000000E+00  0.00000000000E+00 -0.47027097215E+03  0.29515577571E+04  0.29138528456E+04 0.  0.
        1    1    3    3  502    0  0.14265856270E+04  0.24571384711E+03 -0.40192567480E+03  0.15023535183E+04  0.50400001928E-02 0.  1.
       -1    1    3    3    0  502 -0.14265856270E+04 -0.24571384711E+03 -0.68345297356E+02  0.14492042387E+04  0.50400001928E-02 0. -1.
</event>
<event>
 5   0  0.6733688E-06  0.2898551E+04  0.7818609E-02  0.8273309E-01
       -2   -1    0    0    0  501  0.00000000000E+00  0.00000000000E+00  0.76766748728E+03  0.76766748729E+03  0.25500000920E-02 0.  1.
        2   -1    0    0  501    0  0.00000000000E+00  0.00000000000E+00 -0.27360788501E+04  0.27360788501E+04  0.25500000920E-02 0. -1.
    10030    2    1    2    0    0  0.00000000000E+00  0.00000000000E+00 -0.19684113628E+04  0.35037463374E+04  0.28985505177E+04 0.  0.
        5    1    3    3  502    0  0.48747995298E+03  0.17935468068E+03 -0.26196854503E+04  0.26706888165E+04  0.46999998093E+01 0. -1.
       -5    1    3    3    0  502 -0.48747995298E+03 -0.17935468068E+03  0.65127408750E+03  0.83305752088E+03  0.46999998093E+01 0.  1.
</event>
<event>
 5   0  0.2508094E-06  0.2893044E+04  0.7818609E-02  0.8274950E-01
        1   -1    0    0  501    0  0.00000000000E+00  0.00000000000E+00  0.21785746406E+04  0.21785746406E+04  0.50400001928E-02 0.  1.
       -1   -1    0    0    0  501  0.00000000000E+00  0.00000000000E+00 -0.96045669604E+03  0.96045669606E+03  0.50400001928E-02 0. -1.
    10030    2    1    2    0    0  0.00000000000E+00  0.00000000000E+00  0.12181179445E+04  0.31390313366E+04  0.28930444873E+04 0.  0.
        3    1    3    3  502    0  0.33617820542E+03  0.71999875979E+03 -0.70243868348E+03  0.10605819696E+04  0.10100000352E+00 0. -1.
       -3    1    3    3    0  502 -0.33617820542E+03 -0.71999875979E+03  0.19205566280E+04  0.20784493671E+04  0.10100000352E+00 0.  1.
</event>
<event>
 5   0  0.6733688E-06  0.2903069E+04  0.7818609E-02  0.8271965E-01
       -2   -1    0    0    0  501  0.00000000000E+00  0.00000000000E+00  0.84191106576E+03  0.84191106577E+03  0.25500000920E-02 0. -1.
        2   -1    0    0  501    0  0.00000000000E+00  0.00000000000E+00 -0.25025831888E+04  0.25025831888E+04  0.25500000920E-02 0.  1.
    10030    2    1    2    0    0  0.00000000000E+00  0.00000000000E+00 -0.16606721230E+04  0.33444942546E+04  0.29030690516E+04 0.  0.
        5    1    3    3  502    0 -0.12420992737E+04 -0.71712791877E+03 -0.10875497325E+04  0.17999637686E+04  0.46999998093E+01 0. -1.
       -5    1    3    3    0  502  0.12420992737E+04  0.71712791877E+03 -0.57312239058E+03  0.15445304860E+04  0.46999998093E+01 0.  1.
</event>
<event>
 5   0  0.6513041E-06  0.2901412E+04  0.7818609E-02  0.8272457E-01
       -2   -1    0    0    0  501  0.00000000000E+00  0.00000000000E+00  0.20354069288E+04  0.20354069288E+04  0.25500000920E-02 0. -1.
        2   -1    0    0  501    0  0.00000000000E+00  0.00000000000E+00 -0.10339692270E+04  0.10339692270E+04  0.25500000920E-02 0.  1.
    10030    2    1    2    0    0  0.00000000000E+00  0.00000000000E+00  0.10014377018E+04  0.30693761558E+04  0.29014121588E+04 0.  0.
        1    1    3    3  502    0  0.56118657343E+03  0.43175538992E+03  0.18401957353E+04  0.19717158597E+04  0.50400001928E-02 0. -1.
       -1    1    3    3    0  502 -0.56118657343E+03 -0.43175538992E+03 -0.83875803355E+03  0.10976602962E+04  0.50400001928E-02 0.  1.
</event>
<event>
 5   0  0.6393633E-06  0.2879707E+04  0.7818609E-02  0.8278941E-01
       -2   -1    0    0    0  501  0.00000000000E+00  0.00000000000E+00  0.10603921267E+04  0.10603921267E+04  0.25500000920E-02 0.  1.
        2   -1    0    0  501    0  0.00000000000E+00  0.00000000000E+00 -0.19551057188E+04  0.19551057188E+04  0.25500000920E-02 0. -1.
    10030    2    1    2    0    0  0.00000000000E+00  0.00000000000E+00 -0.89471359206E+03  0.30154978455E+04  0.28797074234E+04 0.  0.
        4    1    3    3  502    0 -0.68824102920E+03 -0.12234013487E+04 -0.78308451220E+03  0.16073610486E+04  0.12699999809E+01 0. -1.
       -4    1    3    3    0  502  0.68824102920E+03  0.12234013487E+04 -0.11162907986E+03  0.14081367969E+04  0.12699999809E+01 0.  1.
</event>
<event>
 5   0  0.6733688E-06  0.2889754E+04  0.7818609E-02  0.8275932E-01
       -2   -1    0    0    0  501  0.00000000000E+00  0.00000000000E+00  0.14610642436E+04  0.14610642436E+04  0.25500000920E-02 0. -1.
        2   -1    0    0  501    0  0.00000000000E+00  0.00000000000E+00 -0.14288691049E+04  0.14288691049E+04  0.25500000920E-02 0.  1.
    10030    2    1    2    0    0  0.00000000000E+00  0.00000000000E+00  0.32195138675E+02  0.28899333485E+04  0.28897540089E+04 0.  0.
        5    1    3    3  502    0 -0.20684221149E+02 -0.10649428014E+04  0.99243499370E+03  0.14558435060E+04  0.46999998093E+01 0. -1.
       -5    1    3    3    0  502  0.20684221149E+02  0.10649428014E+04 -0.96023985502E+03  0.14340898425E+04  0.46999998093E+01 0.  1.
</event>
<event>
 5   0  0.2336512E-06  0.2799400E+04  0.7818609E-02  0.8303455E-01
        1   -1    0    0  501    0  0.00000000000E+00  0.00000000000E+00  0.13346960938E+04  0.13346960938E+04  0.50400001928E-02 0. -1.
       -1   -1    0    0    0  501  0.00000000000E+00  0.00000000000E+00 -0.14678692864E+04  0.14678692864E+04  0.50400001928E-02 0.  1.
    10030    2    1    2    0    0  0.00000000000E+00  0.00000000000E+00 -0.13317319260E+03  0.28025653802E+04  0.27993995090E+04 0.  0.
        4    1    3    3  502    0 -0.12549743447E+04  0.36349239713E+03 -0.56922058051E+03  0.14251670115E+04  0.12699999809E+01 0.  1.
       -4    1    3    3    0  502  0.12549743447E+04 -0.36349239713E+03  0.43604738791E+03  0.13773983686E+04  0.12699999809E+01 0. -1.
</event>
<event>
 5   0  0.6513041E-06  0.2865868E+04  0.7818609E-02  0.8283106E-01
        2   -1    0    0  501    0  0.00000000000E+00  0.00000000000E+00  0.13666390107E+04  0.13666390107E+04  0.25500000920E-02 0.  1.
       -2   -1    0    0    0  501  0.00000000000E+00  0.00000000000E+00 -0.15024452786E+04  0.15024452786E+04  0.25500000920E-02 0. -1.
    10030    2    1    2    0    0  0.00000000000E+00  0.00000000000E+00 -0.13580626790E+03  0.28690842893E+04  0.28658683356E+04 0.  0.
        1    1    3    3  502    0 -0.20442783910E+03  0.12683542221E+04  0.56746419530E+03  0.14044674389E+04  0.50400001928E-02 0.  1.
       -1    1    3    3    0  502  0.20442783910E+03 -0.12683542221E+04 -0.70327046320E+03  0.14646168504E+04  0.50400001928E-02 0. -1.
</event>
<event>
 5   0  0.2336512E-06  0.2763871E+04  0.7818609E-02  0.8314573E-01
       -1   -1    0    0    0  501  0.00000000000E+00  0.00000000000E+00  0.12131925959E+04  0.12131925959E+04  0.50400001928E-02 0.  1.
        1   -1    0    0  501    0  0.00000000000E+00  0.00000000000E+00 -0.15741490198E+04  0.15741490198E+04  0.50400001928E-02 0. -1.
    10030    2    1    2    0    0  0.00000000000E+00  0.00000000000E+00 -0.36095642395E+03  0.27873416157E+04  0.27638711516E+04 0.  0.
        4    1    3    3  502    0  0.12265179588E+04 -0.66630410799E+02  0.45811172190E+03  0.13109744001E+04  0.12699999809E+01 0.  1.
       -4    1    3    3    0  502 -0.12265179588E+04  0.66630410799E+02 -0.81906814585E+03  0.14763672156E+04  0.12699999809E+01 0. -1.
</event>
<event>
 5   0  0.2429358E-06  0.2928411E+04  0.7818609E-02  0.8264474E-01
       -1   -1    0    0    0  501  0.00000000000E+00  0.00000000000E+00  0.13341555518E+04  0.13341555518E+04  0.50400001928E-02 0.  1.
        1   -1    0    0  501    0  0.00000000000E+00  0.00000000000E+00 -0.16069328187E+04  0.16069328187E+04  0.50400001928E-02 0. -1.
    10030    2    1    2    0    0  0.00000000000E+00  0.00000000000E+00 -0.27277726695E+03  0.29410883705E+04  0.29284114065E+04 0.  0.
        2    1    3    3  502    0  0.61087060263E+01 -0.36540917678E+03 -0.15603900921E+04  0.16026161182E+04  0.25500000920E-02 0. -1.
       -2    1    3    3    0  502 -0.61087060263E+01  0.36540917678E+03  0.12876128251E+04  0.13384722523E+04  0.25500000920E-02 0.  1.
</event>
<event>
 5   0  0.2429358E-06  0.3018369E+04  0.7818609E-02  0.8238505E-01
        1   -1    0    0  501    0  0.00000000000E+00  0.00000000000E+00  0.15983076077E+04  0.15983076078E+04  0.50400001928E-02 0. -1.
       -1   -1    0    0    0  501  0.00000000000E+00  0.00000000000E+00 -0.14250308945E+04  0.14250308945E+04  0.50400001928E-02 0.  1.
    10030    2    1    2    0    0  0.00000000000E+00  0.00000000000E+00  0.17327671321E+03  0.30233385023E+04  0.30183689105E+04 0.  0.
        2    1    3    3  502    0  0.12333259915E+03  0.35623754265E+03  0.15503867806E+04  0.15955611196E+04  0.25500000920E-02 0. -1.
       -2    1    3    3    0  502 -0.12333259915E+03 -0.35623754265E+03 -0.13771100674E+04  0.14277773827E+04  0.25500000920E-02 0.  1.
</event>
<event>
 5   0  0.2474769E-06  0.2976365E+04  0.7818609E-02  0.8250512E-01
        1   -1    0    0  501    0  0.00000000000E+00  0.00000000000E+00  0.14406209950E+04  0.14406209950E+04  0.50400001928E-02 0.  1.
       -1   -1    0    0    0  501  0.00000000000E+00  0.00000000000E+00 -0.15373142652E+04  0.15373142652E+04  0.50400001928E-02 0. -1.
    10030    2    1    2    0    0  0.00000000000E+00  0.00000000000E+00 -0.96693270206E+02  0.29779352602E+04  0.29763650357E+04 0.  0.
        1    1    3    3  502    0 -0.36939742212E+03 -0.14171591753E+04  0.21616496752E+03  0.14803789639E+04  0.50400001928E-02 0.  1.
       -1    1    3    3    0  502  0.36939742212E+03  0.14171591753E+04 -0.31285823773E+03  0.14975562963E+04  0.50400001928E-02 0. -1.
</event>
<event>
 5   0  0.2336512E-06  0.2893932E+04  0.7818609E-02  0.8274685E-01
       -1   -1    0    0    0  501  0.00000000000E+00  0.00000000000E+00  0.74038378915E+03  0.74038378917E+03  0.50400001928E-02 0. -1.
        1   -1    0    0  501    0  0.00000000000E+00  0.00000000000E+00 -0.28278712528E+04  0.28278712528E+04  0.50400001928E-02 0.  1.
    10030    2    1    2    0    0  0.00000000000E+00  0.00000000000E+00 -0.20874874637E+04  0.35682550420E+04  0.28939316049E+04 0.  0.
        4    1    3    3  502    0  0.20887044212E+03  0.85015041204E+03 -0.24642933223E+04  0.26151722268E+04  0.12699999809E+01 0.  1.
       -4    1    3    3    0  502 -0.20887044212E+03 -0.85015041204E+03  0.37680585860E+03  0.95308281521E+03  0.12699999809E+01 0. -1.
</event>
<event>
 5   0  0.6393633E-06  0.2977167E+04  0.7818609E-02  0.8250281E-01
        2   -1    0    0  501    0  0.00000000000E+00  0.00000000000E+00  0.12587952036E+04  0.12587952037E+04  0.25500000920E-02 0.  1.
       -2   -1    0    0    0  501  0.00000000000E+00  0.00000000000E+00 -0.17603189956E+04  0.17603189956E+04  0.25500000920E-02 0. -1.
    10030    2    1    2    0    0  0.00000000000E+00  0.00000000000E+00 -0.50152379199E+03  0.30191141993E+04  0.29771671828E+04 0.  0.
        4    1    3    3  502    0  0.77979920391E+03 -0.12303633878E+04  0.60149815992E+02  0.14579096261E+04  0.12699999809E+01 0. -1.
       -4    1    3    3    0  502 -0.77979920391E+03  0.12303633878E+04 -0.56167360798E+03  0.15612045732E+04  0.12699999809E+01 0.  1.
</event>
<event>
 5   0  0.6393633E-06  0.2910258E+04  0.7818609E-02  0.8269832E-01
       -2   -1    0    0    0  501  0.00000000000E+00  0.00000000000E+00  0.87739841976E+03  0.87739841976E+03  0.25500000920E-02 0.  1.
        2   -1    0    0  501    0  0.00000000000E+00  0.00000000000E+00 -0.24132705040E+04  0.24132705040E+04  0.25500000920E-02 0. -1.
    10030    2    1    2    0    0  0.00000000000E+00  0.00000000000E+00 -0.15358720843E+04  0.32906689238E+04  0.29102575327E+04 0.  0.
        4    1    3    3  502    0  0.14114691326E+04  0.28229719852E+03 -0.10090229685E+04  0.17578582948E+04  0.12699999809E+01 0. -1.
       -4    1    3    3    0  502 -0.14114691326E+04 -0.28229719852E+03 -0.52684911577E+03  0.15328106290E+04  0.12699999809E+01 0.  1.
</event>
<event>
 5   0  0.2348684E-06  0.2927369E+04  0.7818609E-02  0.8264781E-01
       -1   -1    0    0    0  501  0.00000000000E+00  0.00000000000E+00  0.15567769977E+04  0.15567769977E+04  0.50400001928E-02 0.  1.
        1   -1    0    0  501    0  0.00000000000E+00  0.00000000000E+00 -0.13761585711E+04  0.13761585711E+04  0.50400001928E-02 0. -1.
    10030    2    1    2    0    0  0.00000000000E+00  0.00000000000E+00  0.18061842661E+03  0.29329355688E+04  0.29273687903E+04 0.  0.
        5    1    3    3  502    0 -0.16082186746E+03 -0.11566588682E+04  0.97438536741E+03  0.15209116820E+04  0.46999998093E+01 0.  1.
       -5    1    3    3    0  502  0.16082186746E+03  0.11566588682E+04 -0.79376694080E+03  0.14120238867E+04  0.46999998093E+01 0. -1.
</event>
<event>
 5   0  0.6615403E-06  0.2621983E+04  0.7818609E-02  0.8360772E-01
        2   -1    0    0  501    0  0.00000000000E+00  0.00000000000E+00  0.20581971366E+04  0.20581971366E+04  0.25500000920E-02 0.  1.
       -2   -1    0    0    0  501  0.00000000000E+00  0.00000000000E+00 -0.83505089369E+03  0.83505089370E+03  0.25500000920E-02 0. -1.
    10030    2    1    2    0    0  0.00000000000E+00  0.00000000000E+00  0.12231462429E+04  0.28932480303E+04  0.26219834922E+04 0.  0.
        2    1    3    3  502    0  0.83704485225E+03  0.23510284230E+03 -0.47115565060E+03  0.98889083232E+03  0.25500000920E-02 0. -1.
       -2    1    3    3    0  502 -0.83704485225E+03 -0.23510284230E+03  0.16943018935E+04  0.19043571979E+04  0.25500000920E-02 0.  1.
</event>
<event>
 5   0  0.2348684E-06  0.2885554E+04  0.7818609E-02  0.8277189E-01
        1   -1    0    0  501    0  0.00000000000E+00  0.00000000000E+00  0.74378837669E+03  0.74378837671E+03  0.50400001928E-02 0. -1.
       -1   -1    0    0    0  501  0.00000000000E+00  0.00000000000E+00 -0.27986533975E+04  0.27986533975E+04  0.50400001928E-02 0.  1.
    10030    2    1    2    0    0  0.00000000000E+00  0.00000000000E+00 -0.20548650208E+04  0.35424417742E+04  0.28855542743E+04 0.  0.
        5    1    3    3  502    0 -0.14055779376E+04 -0.24890122402E+03 -0.12848950320E+04  0.19205672317E+04  0.46999998093E+01 0.  1.
       -5    1    3    3    0  502  0.14055779376E+04  0.24890122402E+03 -0.76996998875E+03  0.16218745425E+04  0.46999998093E+01 0. -1.
</event>
<event>
 5   0  0.6513041E-06  0.2957234E+04  0.7818609E-02  0.8256049E-01
       -2   -1    0    0    0  501  0.00000000000E+00  0.00000000000E+00  0.10490667042E+04  0.10490667042E+04  0.25500000920E-02 0.  1.
        2   -1    0    0  501    0  0.00000000000E+00  0.00000000000E+00 -0.20840511665E+04  0.20840511665E+04  0.25500000920E-02 0. -1.
    10030    2    1    2    0    0  0.00000000000E+00  0.00000000000E+00 -0.10349844623E+04  0.31331178707E+04  0.29572343084E+04 0.  0.
        1    1    3    3  502    0  0.11895483919E+04  0.89134198563E+02 -0.14431480908E+04  0.18723372277E+04  0.50400001928E-02 0. -1.
       -1    1    3    3    0  502 -0.11895483919E+04 -0.89134198563E+02  0.40816362857E+03  0.12607806430E+04  0.50400001928E-02 0.  1.
</event>
<event>
 5   0  0.6393633E-06  0.2890061E+04  0.7818609E-02  0.8275841E-01
        2   -1    0    0  501    0  0.00000000000E+00  0.00000000000E+00  0.17985609563E+04  0.17985609563E+04  0.25500000920E-02 0. -1.
       -2   -1    0    0    0  501  0.00000000000E+00  0.00000000000E+00 -0.11609911607E+04  0.11609911607E+04  0.25500000920E-02 0.  1.
    10030    2    1    2    0    0  0.00000000000E+00  0.00000000000E+00  0.63756979560E+03  0.29595521169E+04  0.28900611565E+04 0.  0.
        4    1    3    3  502    0 -0.48233874496E+03  0.81458903451E+03  0.14367800636E+04  0.17206232952E+04  0.12699999809E+01 0. -1.
       -4    1    3    3    0  502  0.48233874496E+03 -0.81458903451E+03 -0.79921026795E+03  0.12389288217E+04  0.12699999809E+01 0.  1.
</event>
<event>
 5   0  0.2348684E-06  0.2867689E+04  0.7818609E-02  0.8282556E-01
        1   -1    0    0  501    0  0.00000000000E+00  0.00000000000E+00  0.17791426010E+04  0.17791426010E+04  0.50400001928E-02 0. -1.
       -1   -1    0    0    0  501  0.00000000000E+00  0.00000000000E+00 -0.11555620906E+04  0.11555620906E+04  0.50400001928E-02 0.  1.
    10030    2    1    2    0    0  0.00000000000E+00  0.00000000000E+00  0.62358051040E+03  0.29347046917E+04  0.28676887862E+04 0.  0.
        5    1    3    3  502    0 -0.58630239412E+03 -0.11000950576E+04  0.10368154670E+04  0.16214092746E+04  0.46999998093E+01 0. -1.
       -5    1    3    3    0  502  0.58630239412E+03  0.11000950576E+04 -0.41323495657E+03  0.13132954171E+04  0.46999998093E+01 0.  1.
</event>
<event>
 5   0  0.6393633E-06  0.2925512E+04  0.7818609E-02  0.8265327E-01
       -2   -1    0    0    0  501  0.00000000000E+00  0.00000000000E+00  0.13470732432E+04  0.13470732432E+04  0.25500000920E-02 0.  1.
        2   -1    0    0  501    0  0.00000000000E+00  0.00000000000E+00 -0.15883727214E+04  0.15883727214E+04  0.25500000920E-02 0. -1.
    10030    2    1    2    0    0  0.00000000000E+00  0.00000000000E+00 -0.24129947825E+03  0.29354459646E+04  0.29255115062E+04 0.  0.
        4    1    3    3  502    0  0.59848510917E+03  0.11681776711E+04 -0.76846532194E+03  0.15209747076E+04  0.12699999809E+01 0. -1.
       -4    1    3    3    0  502 -0.59848510917E+03 -0.11681776711E+04  0.52716584368E+03  0.14144712570E+04  0.12699999809E+01 0.  1.
</event>
<event>
 5   0  0.6733688E-06  0.2918079E+04  0.7818609E-02  0.8267519E-01
        2   -1    0    0  501    0  0.00000000000E+00  0.00000000000E+00  0.10393076657E+04  0.10393076657E+04  0.25500000920E-02 0.  1.
       -2   -1    0    0    0  501  0.00000000000E+00  0.00000000000E+00 -0.20482836940E+04  0.20482836941E+04  0.25500000920E-02 0. -1.
    10030    2    1    2    0    0  0.00000000000E+00  0.00000000000E+00 -0.10089760283E+04  0.30875913598E+04  0.29180794676E+04 0.  0.
        5    1    3    3  502    0  0.11106097707E+03 -0.13258026244E+04 -0.11381839963E+04  0.17508775054E+04  0.46999998093E+01 0.  1.
       -5    1    3    3    0  502 -0.11106097707E+03  0.13258026244E+04  0.12920796798E+03  0.13367138544E+04  0.46999998093E+01 0. -1.
</event>
<event>
 5   0  0.6513041E-06  0.2899369E+04  0.7818609E-02  0.8273065E-01
        2   -1    0    0  501    0  0.00000000000E+00  0.00000000000E+00  0.21895498891E+04  0.21895498891E+04  0.25500000920E-02 0.  1.
       -2   -1    0    0    0  501  0.00000000000E+00  0.00000000000E+00 -0.95982542880E+03  0.95982542881E+03  0.25500000920E-02 0. -1.
    10030    2    1    2    0    0  0.00000000000E+00  0.00000000000E+00  0.12297244602E+04  0.31493753179E+04  0.28993693529E+04 0.  0.
        1    1    3    3  502    0 -0.71886800281E+03  0.26464013365E+03 -0.72202773882E+03  0.10526773777E+04  0.50400001928E-02 0. -1.
       -1    1    3    3    0  502  0.71886800281E+03 -0.26464013365E+03  0.19517521991E+04  0.20966979402E+04  0.50400001928E-02 0.  1.
</event>
<event>
 5   0  0.2336512E-06  0.2844954E+04  0.7818609E-02  0.8289446E-01
       -1   -1    0    0    0  501  0.00000000000E+00  0.00000000000E+00  0.15016307337E+04  0.15016307337E+04  0.50400001928E-02 0.  1.
        1   -1    0    0  501    0  0.00000000000E+00  0.00000000000E+00 -0.13474952221E+04  0.13474952221E+04  0.50400001928E-02 0. -1.
    10030    2    1    2    0    0  0.00000000000E+00  0.00000000000E+00  0.15413551160E+03  0.28491259557E+04  0.28449535947E+04 0.  0.
        4    1    3    3  502    0 -0.12188812812E+04 -0.45983175380E+03  0.64915137250E+03  0.14555122593E+04  0.12699999809E+01 0. -1.
       -4    1    3    3    0  502  0.12188812812E+04  0.45983175380E+03 -0.49501586090E+03  0.13936136965E+04  0.12699999809E+01 0.  1.
</event>
<event>
 5   0  0.6513041E-06  0.2894906E+04  0.7818609E-02  0.8274395E-01
       -2   -1    0    0    0  501  0.00000000000E+00  0.00000000000E+00  0.98596504001E+03  0.98596504001E+03  0.25500000920E-02 0.  1.
        2   -1    0    0  501    0  0.00000000000E+00  0.00000000000E+00 -0.21249431784E+04  0.21249431784E+04  0.25500000920E-02 0. -1.
    10030    2    1    2    0    0  0.00000000000E+00  0.00000000000E+00 -0.11389781384E+04  0.31109082184E+04  0.28949056537E+04 0.  0.
        1    1    3    3  502    0 -0.13949412955E+04 -0.17292716094E+03 -0.94074421600E+03  0.16913795259E+04  0.50400001928E-02 0.  1.
       -1    1    3    3    0  502  0.13949412955E+04  0.17292716094E+03 -0.19823392242E+03  0.14195286925E+04  0.50400001928E-02 0. -1.
</event>
<event>
 5   0  0.2429358E-06  0.2852041E+04  0.7818609E-02  0.8287291E-01
       -1   -1    0    0    0  501  0.00000000000E+00  0.00000000000E+00  0.13344378049E+04  0.13344378049E+04  0.50400001928E-02 0.  1.
        1   -1    0    0  501    0  0.00000000000E+00  0.00000000000E+00 -0.15238882748E+04  0.15238882748E+04  0.50400001928E-02 0. -1.
    10030    2    1    2    0    0  0.00000000000E+00  0.00000000000E+00 -0.18945046995E+03  0.28583260797E+04  0.28520407601E+04 0.  0.
        2    1    3    3  502    0 -0.81859417497E+03 -0.52610807279E+03  0.94999615281E+03  0.13599186806E+04  0.25500000920E-02 0.  1.
       -2    1    3    3    0  502  0.81859417497E+03  0.52610807279E+03 -0.11394466228E+04  0.14984073991E+04  0.25500000920E-02 0. -1.
</event>
<event>
 5   0  0.6612533E-06  0.2897825E+04  0.7818609E-02  0.8273525E-01
       -2   -1    0    0    0  501  0.00000000000E+00  0.00000000000E+00  0.20839794107E+04  0.20839794108E+04  0.25500000920E-02 0.  1.
        2   -1    0    0  501    0  0.00000000000E+00  0.00000000000E+00 -0.10073742068E+04  0.10073742068E+04  0.25500000920E-02 0. -1.
    10030    2    1    2    0    0  0.00000000000E+00  0.00000000000E+00  0.10766052040E+04  0.30913536175E+04  0.28978247744E+04 0.  0.
        3    1    3    3  502    0  0.33500715730E+03  0.25509174751E+03 -0.94066410509E+03  0.10306068911E+04  0.10100000352E+00 0. -1.
       -3    1    3    3    0  502 -0.33500715730E+03 -0.25509174751E+03  0.20172693091E+04  0.20607467265E+04  0.10100000352E+00 0.  1.
</event>
<event>
 5   0  0.2336512E-06  0.2886192E+04  0.7818609E-02  0.8276998E-01
        1   -1    0    0  501    0  0.00000000000E+00  0.00000000000E+00  0.24765069032E+04  0.24765069032E+04  0.50400001928E-02 0.  1.
       -1   -1    0    0    0  501  0.00000000000E+00  0.00000000000E+00 -0.84091253166E+03  0.84091253167E+03  0.50400001928E-02 0. -1.
    10030    2    1    2    0    0  0.00000000000E+00  0.00000000000E+00  0.16355943715E+04  0.33174194349E+04  0.28861917398E+04 0.  0.
        4    1    3    3  502    0 -0.41888715751E+03 -0.50982221287E+03 -0.65736687127E+03  0.93140643964E+03  0.12699999809E+01 0. -1.
       -4    1    3    3    0  502  0.41888715751E+03  0.50982221287E+03  0.22929612428E+04  0.23860129952E+04  0.12699999809E+01 0.  1.
</event>
<event>
 5   0  0.2474769E-06  0.2935142E+04  0.7818609E-02  0.8262498E-01
        1   -1    0    0  501    0  0.00000000000E+00  0.00000000000E+00  0.28248490255E+04  0.28248490255E+04  0.50400001928E-02 0. -1.
       -1   -1    0    0    0  501  0.00000000000E+00  0.00000000000E+00 -0.76243513562E+03  0.76243513564E+03  0.50400001928E-02 0.  1.
    10030    2    1    2    0    0  0.00000000000E+00  0.00000000000E+00  0.20624138899E+04  0.35872841611E+04  0.29351416660E+04 0.  0.
        1    1    3    3  502    0 -0.10750676284E+04 -0.96322230581E+03  0.13550201435E+04  0.19798098912E+04  0.50400001928E-02 0. -1.
       -1    1    3    3    0  502  0.10750676284E+04  0.96322230581E+03  0.70739374636E+03  0.16074742699E+04  0.50400001928E-02 0.  1.
</event>
<event>
 5   0  0.6513041E-06  0.2900013E+04  0.7818609E-02  0.8272874E-01
       -2   -1    0    0    0  501  0.00000000000E+00  0.00000000000E+00  0.16440578022E+04  0.16440578022E+04  0.25500000920E-02 0.  1.
        2   -1    0    0  501    0  0.00000000000E+00  0.00000000000E+00 -0.12788592261E+04  0.12788592261E+04  0.25500000920E-02 0. -1.
    10030    2    1    2    0    0  0.00000000000E+00  0.00000000000E+00  0.36519857603E+03  0.29229170283E+04  0.29000127507E+04 0.  0.
        1    1    3    3  502    0  0.61803913573E+03  0.12770908680E+04  0.48427080137E+03  0.14991503152E+04  0.50400001928E-02 0.  1.
       -1    1    3    3    0  502 -0.61803913573E+03 -0.12770908680E+04 -0.11907222534E+03  0.14237667131E+04  0.50400001928E-02 0. -1.
</event>
<event>
 5   0  0.6393633E-06  0.2837638E+04  0.7818609E-02  0.8291678E-01
        2   -1    0    0  501    0  0.00000000000E+00  0.00000000000E+00  0.10631224181E+04  0.10631224181E+04  0.25500000920E-02 0.  1.
       -2   -1    0    0    0  501  0.00000000000E+00  0.00000000000E+00 -0.18935234724E+04  0.18935234724E+04  0.25500000920E-02 0. -1.
    10030    2    1    2    0    0  0.00000000000E+00  0.00000000000E+00 -0.83040105427E+03  0.29566458905E+04  0.28376379280E+04 0.  0.
        4    1    3    3  502    0 -0.14127088761E+04 -0.10629359245E+03 -0.49591512700E+03  0.15009923792E+04  0.12699999809E+01 0. -1.
       -4    1    3    3    0  502  0.14127088761E+04  0.10629359245E+03 -0.33448592727E+03  0.14556535112E+04  0.12699999809E+01 0.  1.
</event>
<event>
 5   0  0.2348684E-06  0.2917714E+04  0.7818609E-02  0.8267626E-01
       -1   -1    0    0    0  501  0.00000000000E+00  0.00000000000E+00  0.11363112691E+04  0.11363112691E+04  0.50400001928E-02 0.  1.
        1   -1    0    0  501    0  0.00000000000E+00  0.00000000000E+00 -0.18729584126E+04  0.18729584126E+04  0.50400001928E-02 0. -1.
    10030    2    1    2    0    0  0.00000000000E+00  0.00000000000E+00 -0.73664714350E+03  0.30092696817E+04  0.29177140030E+04 0.  0.
        5    1    3    3  502    0  0.17350915140E+03  0.98285973086E+03 -0.14657241729E+04  0.17732704580E+04  0.46999998093E+01 0. -1.
       -5    1    3    3    0  502 -0.17350915140E+03 -0.98285973086E+03  0.72907702941E+03  0.12359992237E+04  0.46999998093E+01 0.  1.
</event>
<event>
 5   0  0.6513041E-06  0.2944681E+04  0.7818609E-02  0.8259706E-01
        2   -1    0    0  501    0  0.00000000000E+00  0.00000000000E+00  0.17486310083E+04  0.17486310083E+04  0.25500000920E-02 0.  1.
       -2   -1    0    0    0  501  0.00000000000E+00  0.00000000000E+00 -0.12397046204E+04  0.12397046204E+04  0.25500000920E-02 0. -1.
    10030    2    1    2    0    0  0.00000000000E+00  0.00000000000E+00  0.50892638795E+03  0.29883356287E+04  0.29446805873E+04 0.  0.
        1    1    3    3  502    0 -0.83551624462E+03 -0.67971602301E+03 -0.76425369445E+03  0.13206759544E+04  0.50400001928E-02 0. -1.
       -1    1    3    3    0  502  0.83551624462E+03  0.67971602301E+03  0.12731800824E+04  0.16676596743E+04  0.50400001928E-02 0.  1.
</event>
<event>
 5   0  0.6612533E-06  0.2912779E+04  0.7818609E-02  0.8269086E-01
       -2   -1    0    0    0  501  0.00000000000E+00  0.00000000000E+00  0.11664880680E+04  0.11664880680E+04  0.25500000920E-02 0.  1.
        2   -1    0    0  501    0  0.00000000000E+00  0.00000000000E+00 -0.18183381253E+04  0.18183381253E+04  0.25500000920E-02 0. -1.
    10030    2    1    2    0    0  0.00000000000E+00  0.00000000000E+00 -0.65185005737E+03  0.29848261933E+04  0.29127785544E+04 0.  0.
        3    1    3    3  502    0 -0.12348764451E+04  0.16629860793E+03  0.44671067227E+03  0.13236787740E+04  0.10100000352E+00 0.  1.
       -3    1    3    3    0  502  0.12348764451E+04 -0.16629860793E+03 -0.10985607296E+04  0.16611474193E+04  0.10100000352E+00 0. -1.
</event>
<event>
 5   0  0.2474769E-06  0.2795106E+04  0.7818609E-02  0.8304789E-01
        1   -1    0    0  501    0  0.00000000000E+00  0.00000000000E+00  0.11496971659E+04  0.11496971659E+04  0.50400001928E-02 0.  1.
       -1   -1    0    0    0  501  0.00000000000E+00  0.00000000000E+00 -0.16988422131E+04  0.16988422131E+04  0.50400001928E-02 0. -1.
    10030    2    1    2    0    0  0.00000000000E+00  0.00000000000E+00 -0.54914504721E+03  0.28485393790E+04  0.27951057781E+04 0.  0.
        1    1    3    3  502    0 -0.12666466771E+04 -0.12198581207E+02  0.32714798541E+03  0.13082692439E+04  0.50400001928E-02 0.  1.
       -1    1    3    3    0  502  0.12666466771E+04  0.12198581207E+02 -0.87629303262E+03  0.15402701351E+04  0.50400001928E-02 0. -1.
</event>
<event>
 5   0  0.2474769E-06  0.2914543E+04  0.7818609E-02  0.8268564E-01
        1   -1    0    0  501    0  0.00000000000E+00  0.00000000000E+00  0.13639019881E+04  0.13639019881E+04  0.50400001928E-02 0.  1.
       -1   -1    0    0    0  501  0.00000000000E+00  0.00000000000E+00 -0.15570329127E+04  0.15570329127E+04  0.50400001928E-02 0. -1.
    10030    2    1    2    0    0  0.00000000000E+00  0.00000000000E+00 -0.19313092458E+03  0.29209349008E+04  0.29145430415E+04 0.  0.
        1    1    3    3  502    0  0.28466977493E+02 -0.86612116639E+03  0.10776114404E+04  0.13828313926E+04  0.50400001928E-02 0.  1.
       -1    1    3    3    0  502 -0.28466977493E+02  0.86612116639E+03 -0.12707423650E+04  0.15381035082E+04  0.50400001928E-02 0. -1.
</event>
<event>
 5   0  0.2508094E-06  0.2863764E+04  0.7818609E-02  0.8283741E-01
        1   -1    0    0  501    0  0.00000000000E+00  0.00000000000E+00  0.25456053462E+04  0.25456053462E+04  0.50400001928E-02 0.  1.
       -1   -1    0    0    0  501  0.00000000000E+00  0.00000000000E+00 -0.80542205732E+03  0.80542205734E+03  0.50400001928E-02 0. -1.
    10030    2    1    2    0    0  0.00000000000E+00  0.00000000000E+00  0.17401832889E+04  0.33510274035E+04  0.28637644422E+04 0.  0.
        3    1    3    3  502    0 -0.11115415838E+04 -0.52464267709E+03  0.17295825051E+04  0.21218459613E+04  0.10100000352E+00 0.  1.
       -3    1    3    3    0  502  0.11115415838E+04  0.52464267709E+03  0.10600783741E+02  0.12291814423E+04  0.10100000352E+00 0. -1.
</event>
<event>
 5   0  0.2348684E-06  0.2881434E+04  0.7818609E-02  0.8278423E-01
        1   -1    0    0  501    0  0.00000000000E+00  0.00000000000E+00  0.25144139777E+04  0.25144139777E+04  0.50400001928E-02 0.  1.
       -1   -1    0    0    0  501  0.00000000000E+00  0.00000000000E+00 -0.82550665625E+03  0.82550665627E+03  0.50400001928E-02 0. -1.
    10030    2    1    2    0    0  0.00000000000E+00  0.00000000000E+00  0.16889073215E+04  0.33399206340E+04  0.28814340008E+04 0.  0.
        5    1    3    3  502    0  0.45091078781E+03 -0.66467517264E+03 -0.54190601915E+03  0.96891581021E+03  0.46999998093E+01 0. -1.
       -5    1    3    3    0  502 -0.45091078781E+03  0.66467517264E+03  0.22308133406E+04  0.23710048238E+04  0.46999998093E+01 0.  1.
</event>
<event>
 5   0  0.2348684E-06  0.2929529E+04  0.7818609E-02  0.8264146E-01
       -1   -1    0    0    0  501  0.00000000000E+00  0.00000000000E+00  0.29681942925E+04  0.29681942926E+04  0.50400001928E-02 0. -1.
        1   -1    0    0  501    0  0.00000000000E+00  0.00000000000E+00 -0.72284196481E+03  0.72284196482E+03  0.50400001928E-02 0.  1.
    10030    2    1    2    0    0  0.00000000000E+00  0.00000000000E+00  0.22453523277E+04  0.36910362574E+04  0.29295292416E+04 0.  0.
        5    1    3    3  502    0  0.11791829874E+03 -0.30087982892E+03  0.29227092081E+04  0.29405245453E+04  0.46999998093E+01 0. -1.
       -5    1    3    3    0  502 -0.11791829874E+03  0.30087982892E+03 -0.67735688033E+03  0.75051171207E+03  0.46999998093E+01 0.  1.
</event>
<event>
 5   0  0.6393633E-06  0.2921295E+04  0.7818609E-02  0.8266570E-01
        2   -1    0    0  501    0  0.00000000000E+00  0.00000000000E+00  0.18791583435E+04  0.18791583435E+04  0.25500000920E-02 0.  1.
       -2   -1    0    0    0  501  0.00000000000E+00  0.00000000000E+00 -0.11353442334E+04  0.11353442334E+04  0.25500000920E-02 0. -1.
    10030    2    1    2    0    0  0.00000000000E+00  0.00000000000E+00  0.74381411015E+03  0.30145025769E+04  0.29212953215E+04 0.  0.
        4    1    3    3  502    0 -0.74839699716E+03 -0.49662722205E+03 -0.81669174267E+03  0.12139702132E+04  0.12699999809E+01 0. -1.
       -4    1    3    3    0  502  0.74839699716E+03  0.49662722205E+03  0.15605058528E+04  0.18005323637E+04  0.12699999809E+01 0.  1.
</event>
<event>
 5   0  0.6513041E-06  0.2911188E+04  0.7818609E-02  0.8269557E-01
        2   -1    0    0  501    0  0.00000000000E+00  0.00000000000E+00  0.21902599363E+04  0.21902599363E+04  0.25500000920E-02 0. -1.
       -2   -1    0    0    0  501  0.00000000000E+00  0.00000000000E+00 -0.96735244054E+03  0.96735244054E+03  0.25500000920E-02 0.  1.
    10030    2    1    2    0    0  0.00000000000E+00  0.00000000000E+00  0.12229074957E+04  0.31576123768E+04  0.29111875891E+04 0.  0.
        1    1    3    3  502    0 -0.92793640940E+03  0.84709791595E+03  0.14085866090E+04  0.18875267135E+04  0.50400001928E-02 0. -1.
       -1    1    3    3    0  502  0.92793640940E+03 -0.84709791595E+03 -0.18567911325E+03  0.12700856633E+04  0.50400001928E-02 0.  1.
</event>
<event>
 5   0  0.2429358E-06  0.2898521E+04  0.7818609E-02  0.8273318E-01
        1   -1    0    0  501    0  0.00000000000E+00  0.00000000000E+00  0.13152974426E+04  0.13152974426E+04  0.50400001928E-02 0.  1.
       -1   -1    0    0    0  501  0.00000000000E+00  0.00000000000E+00 -0.15968677741E+04  0.15968677741E+04  0.50400001928E-02 0. -1.
    10030    2    1    2    0    0  0.00000000000E+00  0.00000000000E+00 -0.28157033152E+03  0.29121652167E+04  0.28985210708E+04 0.  0.
        2    1    3    3  502    0 -0.89031534372E+03 -0.78568219569E+03 -0.97559847822E+03  0.15367987229E+04  0.25500000920E-02 0. -1.
       -2    1    3    3    0  502  0.89031534372E+03  0.78568219569E+03  0.69402814669E+03  0.13753664938E+04  0.25500000920E-02 0.  1.
</event>
<event>
 5   0  0.6733688E-06  0.2846201E+04  0.7818609E-02  0.8289067E-01
        2   -1    0    0  501    0  0.00000000000E+00  0.00000000000E+00  0.19686848058E+04  0.19686848058E+04  0.25500000920E-02 0.  1.
       -2   -1    0    0    0  501  0.00000000000E+00  0.00000000000E+00 -0.10287144181E+04  0.10287144181E+04  0.25500000920E-02 0. -1.
    10030    2    1    2    0    0  0.00000000000E+00  0.00000000000E+00  0.93997038778E+03  0.29973992239E+04  0.28462005863E+04 0.  0.
        5    1    3    3  502    0  0.10575180687E+03 -0.13762231055E+04  0.83482638110E+03  0.16131121031E+04  0.46999998093E+01 0. -1.
       -5    1    3    3    0  502 -0.10575180687E+03  0.13762231055E+04  0.10514400668E+03  0.13842871208E+04  0.46999998093E+01 0.  1.
</event>
<event>
 5   0  0.2429358E-06  0.2919838E+04  0.7818609E-02  0.8266999E-01
       -1   -1    0    0    0  501  0.00000000000E+00  0.00000000000E+00  0.11173088325E+04  0.11173088325E+04  0.50400001928E-02 0.  1.
        1   -1    0    0  501    0  0.00000000000E+00  0.00000000000E+00 -0.19075869989E+04  0.19075869989E+04  0.50400001928E-02 0. -1.
    10030    2    1    2    0    0  0.00000000000E+00  0.00000000000E+00 -0.79027816644E+03  0.30248958314E+04  0.29198382165E+04 0.  0.
        2    1    3    3  502    0 -0.24195405315E+03 -0.11486615585E+04  0.50407698212E+03  0.12775205453E+04  0.25500000920E-02 0.  1.
       -2    1    3    3    0  502  0.24195405315E+03  0.11486615585E+04 -0.12943551486E+04  0.17473752861E+04  0.25500000920E-02 0. -1.
</event>
<event>
 5   0  0.6615403E-06  0.2941067E+04  0.7818609E-02  0.8260763E-01
       -2   -1    0    0    0  501  0.00000000000E+00  0.00000000000E+00  0.16362327179E+04  0.16362327179E+04  0.25500000920E-02 0.  1.
        2   -1    0    0  501    0  0.00000000000E+00  0.00000000000E+00 -0.13216147273E+04  0.13216147273E+04  0.25500000920E-02 0. -1.
    10030    2    1    2    0    0  0.00000000000E+00  0.00000000000E+00  0.31461799065E+03  0.29578474452E+04  0.29410673282E+04 0.  0.
        2    1    3    3  502    0  0.13910845033E+04 -0.15063856141E+03 -0.29766706659E+03  0.14305291867E+04  0.25500000920E-02 0.  1.
       -2    1    3    3    0  502 -0.13910845033E+04  0.15063856141E+03  0.61228505724E+03  0.15273182585E+04  0.25500000920E-02 0. -1.
</event>
<event>
 5   0  0.6612533E-06  0.2917332E+04  0.7818609E-02  0.8267739E-01
        2   -1    0    0  501    0  0.00000000000E+00  0.00000000000E+00  0.16557071833E+04  0.16557071833E+04  0.25500000920E-02 0. -1.
       -2   -1    0    0    0  501  0.00000000000E+00  0.00000000000E+00 -0.12850738053E+04  0.12850738053E+04  0.25500000920E-02 0.  1.
    10030    2    1    2    0    0  0.00000000000E+00  0.00000000000E+00  0.37063337800E+03  0.29407809886E+04  0.29173316098E+04 0.  0.
        3    1    3    3  502    0  0.21016059518E+03  0.43194019022E+02  0.16397141576E+04  0.16536915455E+04  0.10100000352E+00 0. -1.
       -3    1    3    3    0  502 -0.21016059518E+03 -0.43194019022E+02 -0.12690807796E+04  0.12870894430E+04  0.10100000352E+00 0.  1.
</event>
<event>
 5   0  0.6513041E-06  0.2784502E+04  0.7818609E-02  0.8308096E-01
       -2   -1    0    0    0  501  0.00000000000E+00  0.00000000000E+00  0.11597703938E+04  0.11597703938E+04  0.25500000920E-02 0. -1.
        2   -1    0    0  501    0  0.00000000000E+00  0.00000000000E+00 -0.16713328379E+04  0.16713328379E+04  0.25500000920E-02 0.  1.
    10030    2    1    2    0    0  0.00000000000E+00  0.00000000000E+00 -0.51156244409E+03  0.28311032318E+04  0.27845016385E+04 0.  0.
        1    1    3    3  502    0  0.39870720616E+03 -0.52923677530E+03 -0.15007342976E+04  0.16405067609E+04  0.50400001928E-02 0.  1.
       -1    1    3    3    0  502 -0.39870720616E+03  0.52923677530E+03  0.98917185351E+03  0.11905964708E+04  0.50400001928E-02 0. -1.
</event>
<event>
 5   0  0.6393633E-06  0.2945321E+04  0.7818609E-02  0.8259519E-01
        2   -1    0    0  501    0  0.00000000000E+00  0.00000000000E+00  0.15156052924E+04  0.15156052924E+04  0.25500000920E-02 0. -1.
       -2   -1    0    0    0  501  0.00000000000E+00  0.00000000000E+00 -0.14309327968E+04  0.14309327968E+04  0.25500000920E-02 0.  1.
    10030    2    1    2    0    0  0.00000000000E+00  0.00000000000E+00  0.84672495577E+02  0.29465380893E+04  0.29453212524E+04 0.  0.
        4    1    3    3  502    0 -0.36690015689E+03  0.14228575079E+04  0.14029756052E+03  0.14760840868E+04  0.12699999809E+01 0. -1.
       -4    1    3    3    0  502  0.36690015689E+03 -0.14228575079E+04 -0.55625064948E+02  0.14704540025E+04  0.12699999809E+01 0.  1.
</event>
<event>
 5   0  0.2348684E-06  0.2889165E+04  0.7818609E-02  0.8276108E-01
       -1   -1    0    0    0  501  0.00000000000E+00  0.00000000000E+00  0.19060096208E+04  0.19060096208E+04  0.50400001928E-02 0.  1.
        1   -1    0    0  501    0  0.00000000000E+00  0.00000000000E+00 -0.10948626488E+04  0.10948626489E+04  0.50400001928E-02 0. -1.
    10030    2    1    2    0    0  0.00000000000E+00  0.00000000000E+00  0.81114697190E+03  0.30008722696E+04  0.28891650989E+04 0.  0.
        5    1    3    3  502    0 -0.14304136546E+04 -0.13495581723E+02  0.19646560221E+03  0.14439134936E+04  0.46999998093E+01 0. -1.
       -5    1    3    3    0  502  0.14304136546E+04  0.13495581723E+02  0.61468136969E+03  0.15569587760E+04  0.46999998093E+01 0.  1.
</event>
<event>
 5   0  0.2336512E-06  0.2894348E+04  0.7818609E-02  0.8274561E-01
       -1   -1    0    0    0  501  0.00000000000E+00  0.00000000000E+00  0.10056528485E+04  0.10056528485E+04  0.50400001928E-02 0. -1.
        1   -1    0    0  501    0  0.00000000000E+00  0.00000000000E+00 -0.20825405522E+04  0.20825405522E+04  0.50400001928E-02 0.  1.
    10030    2    1    2    0    0  0.00000000000E+00  0.00000000000E+00 -0.10768877037E+04  0.30881934006E+04  0.28943481742E+04 0.  0.
        4    1    3    3  502    0  0.10205384056E+04  0.93238554398E+02  0.55181281256E+03  0.11639119633E+04  0.12699999809E+01 0. -1.
       -4    1    3    3    0  502 -0.10205384056E+04 -0.93238554398E+02 -0.16287005162E+04  0.19242814373E+04  0.12699999809E+01 0.  1.
</event>
<event>
 5   0  0.2348684E-06  0.2828653E+04  0.7818609E-02  0.8294428E-01
       -1   -1    0    0    0  501  0.00000000000E+00  0.00000000000E+00  0.12892021464E+04  0.12892021464E+04  0.50400001928E-02 0.  1.
        1   -1    0    0  501    0  0.00000000000E+00  0.00000000000E+00 -0.15515951286E+04  0.15515951286E+04  0.50400001928E-02 0. -1.
    10030    2    1    2    0    0  0.00000000000E+00  0.00000000000E+00 -0.26239298220E+03  0.28407972751E+04  0.28286532274E+04 0.  0.
        5    1    3    3  502    0 -0.44024863669E+03 -0.82268223620E+03  0.93622725757E+03  0.13218050127E+04  0.46999998093E+01 0.  1.
       -5    1    3    3    0  502  0.44024863669E+03  0.82268223620E+03 -0.11986202398E+04  0.15189922623E+04  0.46999998093E+01 0. -1.
</event>
<event>
 5   0  0.6612533E-06  0.2544629E+04  0.7818609E-02  0.8387257E-01
       -2   -1    0    0    0  501  0.00000000000E+00  0.00000000000E+00  0.97726497652E+03  0.97726497653E+03  0.25500000920E-02 0. -1.
        2   -1    0    0  501    0  0.00000000000E+00  0.00000000000E+00 -0.16564429947E+04  0.16564429947E+04  0.25500000920E-02 0.  1.
    10030    2    1    2    0    0  0.00000000000E+00  0.00000000000E+00 -0.67917801814E+03  0.26337079712E+04  0.25446286364E+04 0.  0.
        3    1    3    3  502    0  0.90131669647E+03  0.34778971209E+03  0.51731552824E+03  0.10958762873E+04  0.10100000352E+00 0. -1.
       -3    1    3    3    0  502 -0.90131669647E+03 -0.34778971209E+03 -0.11964935464E+04  0.15378316839E+04  0.10100000352E+00 0.  1.
</event>
<event>
 5   0  0.6615403E-06  0.2889048E+04  0.7818609E-02  0.8276144E-01
       -2   -1    0    0    0  501  0.00000000000E+00  0.00000000000E+00  0.81688654510E+03  0.81688654511E+03  0.25500000920E-02 0. -1.
        2   -1    0    0  501    0  0.00000000000E+00  0.00000000000E+00 -0.25543932178E+04  0.25543932178E+04  0.25500000920E-02 0.  1.
    10030    2    1    2    0    0  0.00000000000E+00  0.00000000000E+00 -0.17375066727E+04  0.33712797630E+04  0.28890479058E+04 0.  0.
        2    1    3    3  502    0 -0.75487370087E+03 -0.54522765050E+03  0.41990688597E+03  0.10214838658E+04  0.25500000920E-02 0.  1.
       -2    1    3    3    0  502  0.75487370087E+03  0.54522765050E+03 -0.21574135587E+04  0.23497958972E+04  0.25500000920E-02 0. -1.
</event>
<event>
 5   0  0.6733688E-06  0.2894636E+04  0.7818609E-02  0.8274475E-01
        2   -1    0    0  501    0  0.00000000000E+00  0.00000000000E+00  0.22726529115E+04  0.22726529115E+04  0.25500000920E-02 0.  1.
       -2   -1    0    0    0  501  0.00000000000E+00  0.00000000000E+00 -0.92171082808E+03  0.92171082808E+03  0.25500000920E-02 0. -1.
    10030    2    1    2    0    0  0.00000000000E+00  0.00000000000E+00  0.13509420834E+04  0.31943637396E+04  0.28946355881E+04 0.  0.
        5    1    3    3  502    0 -0.14067761922E+04 -0.25286167259E+03  0.42443328507E+03  0.14910144143E+04  0.46999998093E+01 0.  1.
       -5    1    3    3    0  502  0.14067761922E+04  0.25286167259E+03  0.92650879835E+03  0.17033493252E+04  0.46999998093E+01 0. -1.
</event>
<event>
 5   0  0.2336512E-06  0.2972552E+04  0.7818609E-02  0.8251612E-01
        1   -1    0    0  501    0  0.00000000000E+00  0.00000000000E+00  0.23692152291E+04  0.23692152291E+04  0.50400001928E-02 0.  1.
       -1   -1    0    0    0  501  0.00000000000E+00  0.00000000000E+00 -0.93238331709E+03  0.93238331711E+03  0.50400001928E-02 0. -1.
    10030    2    1    2    0    0  0.00000000000E+00  0.00000000000E+00  0.14368319120E+04  0.33015985462E+04  0.29725522732E+04 0.  0.
        4    1    3    3  502    0 -0.43454105219E+03  0.14987319674E+02  0.22969961257E+04  0.23377859953E+04  0.12699999809E+01 0.  1.
       -4    1    3    3    0  502  0.43454105219E+03 -0.14987319674E+02 -0.86016421368E+03  0.96381255085E+03  0.12699999809E+01 0. -1.
</event>
<event>
 5   0  0.2474769E-06  0.2914002E+04  0.7818609E-02  0.8268724E-01
        1   -1    0    0  501    0  0.00000000000E+00  0.00000000000E+00  0.16627051494E+04  0.16627051494E+04  0.50400001928E-02 0. -1.
       -1   -1    0    0    0  501  0.00000000000E+00  0.00000000000E+00 -0.12767456320E+04  0.12767456320E+04  0.50400001928E-02 0.  1.
    10030    2    1    2    0    0  0.00000000000E+00  0.00000000000E+00  0.38595951740E+03  0.29394507814E+04  0.29140017411E+04 0.  0.
        1    1    3    3  502    0  0.14413838124E+04  0.98384640647E+02  0.38326629782E+03  0.14947106367E+04  0.50400001928E-02 0.  1.
       -1    1    3    3    0  502 -0.14413838124E+04 -0.98384640647E+02  0.26932195818E+01  0.14447401447E+04  0.50400001928E-02 0. -1.
</event>
<event>
 5   0  0.6615403E-06  0.2862751E+04  0.7818609E-02  0.8284047E-01
        2   -1    0    0  501    0  0.00000000000E+00  0.00000000000E+00  0.15466686659E+04  0.15466686659E+04  0.25500000920E-02 0. -1.
       -2   -1    0    0    0  501  0.00000000000E+00  0.00000000000E+00 -0.13246769283E+04  0.13246769283E+04  0.25500000920E-02 0.  1.
    10030    2    1    2    0    0  0.00000000000E+00  0.00000000000E+00  0.22199173758E+03  0.28713455943E+04  0.28627513322E+04 0.  0.
        2    1    3    3  502    0 -0.76350284503E+03  0.28651281873E+03  0.12908819856E+04  0.15268930841E+04  0.25500000920E-02 0. -1.
       -2    1    3    3    0  502  0.76350284503E+03 -0.28651281873E+03 -0.10688902480E+04  0.13444525101E+04  0.25500000920E-02 0.  1.
</event>
<event>
 5   0  0.2336512E-06  0.2924093E+04  0.7818609E-02  0.8265745E-01
       -1   -1    0    0    0  501  0.00000000000E+00  0.00000000000E+00  0.14098080590E+04  0.14098080590E+04  0.50400001928E-02 0.  1.
        1   -1    0    0  501    0  0.00000000000E+00  0.00000000000E+00 -0.15162200675E+04  0.15162200675E+04  0.50400001928E-02 0. -1.
    10030    2    1    2    0    0  0.00000000000E+00  0.00000000000E+00 -0.10641200846E+03  0.29260281265E+04  0.29240925227E+04 0.  0.
        4    1    3    3  502    0 -0.11085220637E+04 -0.76287931773E+03 -0.62522383145E+03  0.14838168591E+04  0.12699999809E+01 0. -1.
       -4    1    3    3    0  502  0.11085220637E+04  0.76287931773E+03  0.51881182299E+03  0.14422112674E+04  0.12699999809E+01 0.  1.
</event>
<event>
 5   0  0.6393633E-06  0.2899198E+04  0.7818609E-02  0.8273116E-01
        2   -1    0    0  501    0  0.00000000000E+00  0.00000000000E+00  0.24619985279E+04  0.24619985279E+04  0.25500000920E-02 0. -1.
       -2   -1    0    0    0  501  0.00000000000E+00  0.00000000000E+00 -0.85350846435E+03  0.85350846435E+03  0.25500000920E-02 0.  1.
    10030    2    1    2    0    0  0.00000000000E+00  0.00000000000E+00  0.16084900636E+04  0.33155069923E+04  0.28991975323E+04 0.  0.
        4    1    3    3  502    0 -0.10675052301E+04 -0.47980550892E+03  0.17823723846E+04  0.21322836755E+04  0.12699999809E+01 0. -1.
       -4    1    3    3    0  502  0.10675052301E+04  0.47980550892E+03 -0.17388232102E+03  0.11832233167E+04  0.12699999809E+01 0.  1.
</event>
<event>
 5   0  0.2348684E-06  0.2893639E+04  0.7818609E-02  0.8274773E-01
        1   -1    0    0  501    0  0.00000000000E+00  0.00000000000E+00  0.16378446548E+04  0.16378446548E+04  0.50400001928E-02 0. -1.
       -1   -1    0    0    0  501  0.00000000000E+00  0.00000000000E+00 -0.12780736015E+04  0.12780736015E+04  0.50400001928E-02 0.  1.
    10030    2    1    2    0    0  0.00000000000E+00  0.00000000000E+00  0.35977105330E+03  0.29159182564E+04  0.28936385515E+04 0.  0.
        5    1    3    3  502    0  0.45498732347E+03  0.13180770824E+04  0.56876260113E+03  0.15059394563E+04  0.46999998093E+01 0. -1.
       -5    1    3    3    0  502 -0.45498732347E+03 -0.13180770824E+04 -0.20899154782E+03  0.14099788001E+04  0.46999998093E+01 0.  1.
</event>
<event>
 5   0  0.6612533E-06  0.2783225E+04  0.7818609E-02  0.8308495E-01
        2   -1    0    0  501    0  0.00000000000E+00  0.00000000000E+00  0.11455105810E+04  0.11455105810E+04  0.25500000920E-02 0.  1.
       -2   -1    0    0    0  501  0.00000000000E+00  0.00000000000E+00 -0.16905874927E+04  0.16905874927E+04  0.25500000920E-02 0. -1.
    10030    2    1    2    0    0  0.00000000000E+00  0.00000000000E+00 -0.54507691172E+03  0.28360980736E+04  0.27832253670E+04 0.  0.
        3    1    3    3  502    0 -0.11094039514E+04 -0.74891489075E+03  0.11539731114E+03  0.13434906738E+04  0.10100000352E+00 0.  1.
       -3    1    3    3    0  502  0.11094039514E+04  0.74891489075E+03 -0.66047422286E+03  0.14926073999E+04  0.10100000352E+00 0. -1.
</event>
<event>
 5   0  0.6513041E-06  0.2931378E+04  0.7818609E-02  0.8263602E-01
       -2   -1    0    0    0  501  0.00000000000E+00  0.00000000000E+00  0.10325098386E+04  0.10325098386E+04  0.25500000920E-02 0. -1.
        2   -1    0    0  501    0  0.00000000000E+00  0.00000000000E+00 -0.20806040426E+04  0.20806040426E+04  0.25500000920E-02 0.  1.
    10030    2    1    2    0    0  0.00000000000E+00  0.00000000000E+00 -0.10480942040E+04  0.31131138813E+04  0.29313779315E+04 0.  0.
        1    1    3    3  502    0  0.10332966281E+04  0.44893875271E+03  0.47162582243E+03  0.12213430484E+04  0.50400001928E-02 0. -1.
       -1    1    3    3    0  502 -0.10332966281E+04 -0.44893875271E+03 -0.15197200264E+04  0.18917708329E+04  0.50400001928E-02 0.  1.
</event>
<event>
 5   0  0.2508094E-06  0.2894705E+04  0.7818609E-02  0.8274455E-01
        1   -1    0    0  501    0  0.00000000000E+00  0.00000000000E+00  0.16272844000E+04  0.16272844000E+04  0.50400001928E-02 0. -1.
       -1   -1    0    0    0  501  0.00000000000E+00  0.00000000000E+00 -0.12873162129E+04  0.12873162129E+04  0.50400001928E-02 0.  1.
    10030    2    1    2    0    0  0.00000000000E+00  0.00000000000E+00  0.33996818711E+03  0.29146006130E+04  0.28947052294E+04 0.  0.
        3    1    3    3  502    0 -0.41751386084E+02 -0.49105156381E+03 -0.12002346166E+04  0.12974736844E+04  0.10100000352E+00 0.  1.
       -3    1    3    3    0  502  0.41751386084E+02  0.49105156381E+03  0.15402028037E+04  0.16171269286E+04  0.10100000352E+00 0. -1.
</event>
<event>
 5   0  0.2336512E-06  0.2769697E+04  0.7818609E-02  0.8312738E-01
       -1   -1    0    0    0  501  0.00000000000E+00  0.00000000000E+00  0.14499991449E+04  0.14499991450E+04  0.50400001928E-02 0.  1.
        1   -1    0    0  501    0  0.00000000000E+00  0.00000000000E+00 -0.13226251043E+04  0.13226251044E+04  0.50400001928E-02 0. -1.
    10030    2    1    2    0    0  0.00000000000E+00  0.00000000000E+00  0.12737404060E+03  0.27726242493E+04  0.27696969296E+04 0.  0.
        4    1    3    3  502    0 -0.97727267940E+03 -0.81399530134E+03  0.61212865114E+03  0.14115074704E+04  0.12699999809E+01 0.  1.
       -4    1    3    3    0  502  0.97727267940E+03  0.81399530134E+03 -0.48475461054E+03  0.13611167789E+04  0.12699999809E+01 0. -1.
</event>
<event>
 5   0  0.2336512E-06  0.2962626E+04  0.7818609E-02  0.8254484E-01
       -1   -1    0    0    0  501  0.00000000000E+00  0.00000000000E+00  0.11026387415E+04  0.11026387415E+04  0.50400001928E-02 0.  1.
        1   -1    0    0  501    0  0.00000000000E+00  0.00000000000E+00 -0.19900342228E+04  0.19900342228E+04  0.50400001928E-02 0. -1.
    10030    2    1    2    0    0  0.00000000000E+00  0.00000000000E+00 -0.88739548134E+03  0.30926729643E+04  0.29626264232E+04 0.  0.
        4    1    3    3  502    0 -0.17229010051E+03 -0.24346045105E+03 -0.19583649769E+04  0.19809472142E+04  0.12699999809E+01 0. -1.
       -4    1    3    3    0  502  0.17229010051E+03  0.24346045105E+03  0.10709694956E+04  0.11117257500E+04  0.12699999809E+01 0.  1.
</event>
<event>
 5   0  0.2336512E-06  0.2926499E+04  0.7818609E-02  0.8265037E-01
        1   -1    0    0  501    0  0.00000000000E+00  0.00000000000E+00  0.98410379427E+03  0.98410379428E+03  0.50400001928E-02 0.  1.
       -1   -1    0    0    0  501  0.00000000000E+00  0.00000000000E+00 -0.21756848449E+04  0.21756848449E+04  0.50400001928E-02 0. -1.
    10030    2    1    2    0    0  0.00000000000E+00  0.00000000000E+00 -0.11915810507E+04  0.31597886392E+04  0.29264994181E+04 0.  0.
        4    1    3    3  502    0  0.13376415782E+04 -0.57930257815E+03 -0.45827338635E+03  0.15280355291E+04  0.12699999809E+01 0.  1.
       -4    1    3    3    0  502 -0.13376415782E+04  0.57930257815E+03 -0.73330766432E+03  0.16317531101E+04  0.12699999809E+01 0. -1.
</event>
<event>
 5   0  0.2508094E-06  0.2906438E+04  0.7818609E-02  0.8270965E-01
       -1   -1    0    0    0  501  0.00000000000E+00  0.00000000000E+00  0.10341467518E+04  0.10341467518E+04  0.50400001928E-02 0.  1.
        1   -1    0    0  501    0  0.00000000000E+00  0.00000000000E+00 -0.20421141775E+04  0.20421141775E+04  0.50400001928E-02 0. -1.
    10030    2    1    2    0    0  0.00000000000E+00  0.00000000000E+00 -0.10079674257E+04  0.30762609294E+04  0.29064381938E+04 0.  0.
        3    1    3    3  502    0  0.11047539169E+04  0.84884785505E+03 -0.66528325248E+02  0.13947938651E+04  0.10100000352E+00 0.  1.
       -3    1    3    3    0  502 -0.11047539169E+04 -0.84884785505E+03 -0.94143910045E+03  0.16814670642E+04  0.10100000352E+00 0. -1.
</event>
<event>
 5   0  0.6733688E-06  0.2952244E+04  0.7818609E-02  0.8257501E-01
        2   -1    0    0  501    0  0.00000000000E+00  0.00000000000E+00  0.23131730404E+04  0.23131730404E+04  0.25500000920E-02 0.  1.
       -2   -1    0    0    0  501  0.00000000000E+00  0.00000000000E+00 -0.94196863098E+03  0.94196863099E+03  0.25500000920E-02 0. -1.
    10030    2    1    2    0    0  0.00000000000E+00  0.00000000000E+00  0.13712044095E+04  0.32551416714E+04  0.29522441919E+04 0.  0.
        5    1    3    3  502    0  0.12424853969E+02 -0.27256586853E+03  0.22851188461E+04  0.23013554181E+04  0.46999998093E+01 0.  1.
       -5    1    3    3    0  502 -0.12424853969E+02  0.27256586853E+03 -0.91391443660E+03  0.95378625336E+03  0.46999998093E+01 0. -1.
</event>
<event>
 5   0  0.6615403E-06  0.2871639E+04  0.7818609E-02  0.8281366E-01
        2   -1    0    0  501    0  0.00000000000E+00  0.00000000000E+00  0.18735705049E+04  0.18735705049E+04  0.25500000920E-02 0.  1.
       -2   -1    0    0    0  501  0.00000000000E+00  0.00000000000E+00 -0.11003473359E+04  0.11003473359E+04  0.25500000920E-02 0. -1.
    10030    2    1    2    0    0  0.00000000000E+00  0.00000000000E+00  0.77322316897E+03  0.29739178408E+04  0.28716394716E+04 0.  0.
        2    1    3    3  502    0  0.16392556622E+03  0.14259184775E+04  0.34699714118E+03  0.14766591048E+04  0.25500000920E-02 0.  1.
       -2    1    3    3    0  502 -0.16392556622E+03 -0.14259184775E+04  0.42622602779E+03  0.14972587360E+04  0.25500000920E-02 0. -1.
</event>
<event>
 5   0  0.2429358E-06  0.2902983E+04  0.7818609E-02  0.8271991E-01
       -1   -1    0    0    0  501  0.00000000000E+00  0.00000000000E+00  0.12946340231E+04  0.12946340231E+04  0.50400001928E-02 0. -1.
        1   -1    0    0  501    0  0.00000000000E+00  0.00000000000E+00 -0.16273533444E+04  0.16273533444E+04  0.50400001928E-02 0.  1.
    10030    2    1    2    0    0  0.00000000000E+00  0.00000000000E+00 -0.33271932127E+03  0.29219873675E+04  0.29029826092E+04 0.  0.
        2    1    3    3  502    0  0.80471621651E+02  0.22630086747E+03  0.12744932069E+04  0.12969274070E+04  0.25500000920E-02 0. -1.
       -2    1    3    3    0  502 -0.80471621651E+02 -0.22630086747E+03 -0.16072125282E+04  0.16250599605E+04  0.25500000920E-02 0.  1.
</event>
<event>
 5   0  0.2474769E-06  0.2870498E+04  0.7818609E-02  0.8281710E-01
        1   -1    0    0  501    0  0.00000000000E+00  0.00000000000E+00  0.10474192469E+04  0.10474192469E+04  0.50400001928E-02 0.  1.
       -1   -1    0    0    0  501  0.00000000000E+00  0.00000000000E+00 -0.19666817918E+04  0.19666817918E+04  0.50400001928E-02 0. -1.
    10030    2    1    2    0    0  0.00000000000E+00  0.00000000000E+00 -0.91926254486E+03  0.30141010387E+04  0.28704984663E+04 0.  0.
        1    1    3    3  502    0  0.12469760384E+03  0.13632777083E+04 -0.69432394756E+01  0.13689864174E+04  0.50400001928E-02 0.  1.
       -1    1    3    3    0  502 -0.12469760384E+03 -0.13632777083E+04 -0.91231930539E+03  0.16451146213E+04  0.50400001928E-02 0. -1.
</event>
<event>
 5   0  0.2508094E-06  0.2954556E+04  0.7818609E-02  0.8256828E-01
       -1   -1    0    0    0  501  0.00000000000E+00  0.00000000000E+00  0.68702696759E+03  0.68702696761E+03  0.50400001928E-02 0.  1.
        1   -1    0    0  501    0  0.00000000000E+00  0.00000000000E+00 -0.31765126254E+04  0.31765126254E+04  0.50400001928E-02 0. -1.
    10030    2    1    2    0    0  0.00000000000E+00  0.00000000000E+00 -0.24894856578E+04  0.38635395930E+04  0.29545556936E+04 0.  0.
        3    1    3    3  502    0  0.33073509003E+03 -0.12389580432E+04 -0.22038407930E+04  0.25497680255E+04  0.10100000352E+00 0. -1.
       -3    1    3    3    0  502 -0.33073509003E+03  0.12389580432E+04 -0.28564486477E+03  0.13137715675E+04  0.10100000352E+00 0.  1.
</event>
<event>
 5   0  0.2474769E-06  0.2848961E+04  0.7818609E-02  0.8288227E-01
        1   -1    0    0  501    0  0.00000000000E+00  0.00000000000E+00  0.13284237702E+04  0.13284237702E+04  0.50400001928E-02 0.  1.
       -1   -1    0    0    0  501  0.00000000000E+00  0.00000000000E+00 -0.15274828207E+04  0.15274828207E+04  0.50400001928E-02 0. -1.
    10030    2    1    2    0    0  0.00000000000E+00  0.00000000000E+00 -0.19905905051E+03  0.28559065910E+04  0.28489608545E+04 0.  0.
        1    1    3    3  502    0  0.10832168167E+04 -0.14295428863E+03 -0.10157325598E+04  0.14918134045E+04  0.50400001928E-02 0. -1.
       -1    1    3    3    0  502 -0.10832168167E+04  0.14295428863E+03  0.81667350934E+03  0.13640931865E+04  0.50400001928E-02 0.  1.
</event>
<event>
 5   0  0.2336512E-06  0.2820319E+04  0.7818609E-02  0.8296988E-01
        1   -1    0    0  501    0  0.00000000000E+00  0.00000000000E+00  0.11897212535E+04  0.11897212535E+04  0.50400001928E-02 0.  1.
       -1   -1    0    0    0  501  0.00000000000E+00  0.00000000000E+00 -0.16714415910E+04  0.16714415910E+04  0.50400001928E-02 0. -1.
    10030    2    1    2    0    0  0.00000000000E+00  0.00000000000E+00 -0.48172033751E+03  0.28611628445E+04  0.28203188364E+04 0.  0.
        4    1    3    3  502    0  0.48703189288E+03  0.50796783681E+03 -0.14805707632E+04  0.16393055804E+04  0.12699999809E+01 0. -1.
       -4    1    3    3    0  502 -0.48703189288E+03 -0.50796783681E+03  0.99885042574E+03  0.12218572641E+04  0.12699999809E+01 0.  1.
</event>
<event>
 5   0  0.2336512E-06  0.2605213E+04  0.7818609E-02  0.8366433E-01
       -1   -1    0    0    0  501  0.00000000000E+00  0.00000000000E+00  0.70417595002E+03  0.70417595004E+03  0.50400001928E-02 0.  1.
        1   -1    0    0  501    0  0.00000000000E+00  0.00000000000E+00 -0.24096021917E+04  0.24096021917E+04  0.50400001928E-02 0. -1.
    10030    2    1    2    0    0  0.00000000000E+00  0.00000000000E+00 -0.17054262417E+04  0.31137781418E+04  0.26052131679E+04 0.  0.
        4    1    3    3  502    0 -0.91403852667E+03 -0.49747313075E+03  0.83706930116E+02  0.10440088156E+04  0.12699999809E+01 0.  1.
       -4    1    3    3    0  502  0.91403852667E+03  0.49747313075E+03 -0.17891331718E+04  0.20697693261E+04  0.12699999809E+01 0. -1.
</event>
<event>
 5   0  0.2508094E-06  0.2916246E+04  0.7818609E-02  0.8268060E-01
        1   -1    0    0  501    0  0.00000000000E+00  0.00000000000E+00  0.18679078229E+04  0.18679078229E+04  0.50400001928E-02 0.  1.
       -1   -1    0    0    0  501  0.00000000000E+00  0.00000000000E+00 -0.11382373651E+04  0.11382373651E+04  0.50400001928E-02 0. -1.
    10030    2    1    2    0    0  0.00000000000E+00  0.00000000000E+00  0.72967045782E+03  0.30061451881E+04  0.29162458598E+04 0.  0.
        3    1    3    3  502    0 -0.86019071965E+03  0.48569994871E+02 -0.84779398531E+03  0.12087356081E+04  0.10100000352E+00 0. -1.
       -3    1    3    3    0  502  0.86019071965E+03 -0.48569994871E+02  0.15774644431E+04  0.17974095800E+04  0.10100000352E+00 0.  1.
</event>
<event>
 5   0  0.6615403E-06  0.2873401E+04  0.7818609E-02  0.8280836E-01
        2   -1    0    0  501    0  0.00000000000E+00  0.00000000000E+00  0.12446866418E+04  0.12446866418E+04  0.25500000920E-02 0.  1.
       -2   -1    0    0    0  501  0.00000000000E+00  0.00000000000E+00 -0.16583356167E+04  0.16583356167E+04  0.25500000920E-02 0. -1.
    10030    2    1    2    0    0  0.00000000000E+00  0.00000000000E+00 -0.41364897486E+03  0.29030222585E+04  0.28734009046E+04 0.  0.
        2    1    3    3  502    0 -0.59073057821E+02 -0.10851034384E+04  0.74263419940E+03  0.13162236331E+04  0.25500000920E-02 0.  1.
       -2    1    3    3    0  502  0.59073057821E+02  0.10851034384E+04 -0.11562831743E+04  0.15867986253E+04  0.25500000920E-02 0. -1.
</event>
<event>
 5   0  0.2348684E-06  0.2829352E+04  0.7818609E-02  0.8294213E-01
        1   -1    0    0  501    0  0.00000000000E+00  0.00000000000E+00  0.18888244931E+04  0.18888244931E+04  0.50400001928E-02 0.  1.
       -1   -1    0    0    0  501  0.00000000000E+00  0.00000000000E+00 -0.10595520953E+04  0.10595520953E+04  0.50400001928E-02 0. -1.
    10030    2    1    2    0    0  0.00000000000E+00  0.00000000000E+00  0.82927239780E+03  0.29483765883E+04  0.28293518334E+04 0.  0.
        5    1    3    3  502    0 -0.46653658219E+03 -0.12999415724E+04  0.73375641632E+03  0.15639453452E+04  0.46999998093E+01 0.  1.
       -5    1    3    3    0  502  0.46653658219E+03  0.12999415724E+04  0.95515981483E+02  0.13844312431E+04  0.46999998093E+01 0. -1.
</event>
<event>
 5   0  0.6513041E-06  0.2860827E+04  0.7818609E-02  0.8284629E-01
        2   -1    0    0  501    0  0.00000000000E+00  0.00000000000E+00  0.15950941559E+04  0.15950941559E+04  0.25500000920E-02 0.  1.
       -2   -1    0    0    0  501  0.00000000000E+00  0.00000000000E+00 -0.12827352379E+04  0.12827352379E+04  0.25500000920E-02 0. -1.
    10030    2    1    2    0    0  0.00000000000E+00  0.00000000000E+00  0.31235891799E+03  0.28778293939E+04  0.28608274898E+04 0.  0.
        1    1    3    3  502    0  0.80629879210E+02  0.49173819250E+03 -0.11926006276E+04  0.12925184271E+04  0.50400001928E-02 0. -1.
       -1    1    3    3    0  502 -0.80629879210E+02 -0.49173819250E+03  0.15049595456E+04  0.15853109668E+04  0.50400001928E-02 0.  1.
</event>
<event>
 5   0  0.2508094E-06  0.2949510E+04  0.7818609E-02  0.8258297E-01
       -1   -1    0    0    0  501  0.00000000000E+00  0.00000000000E+00  0.10952722739E+04  0.10952722739E+04  0.50400001928E-02 0. -1.
        1   -1    0    0  501    0  0.00000000000E+00  0.00000000000E+00 -0.19857178258E+04  0.19857178258E+04  0.50400001928E-02 0.  1.
    10030    2    1    2    0    0  0.00000000000E+00  0.00000000000E+00 -0.89044555186E+03  0.30809900997E+04  0.29495095717E+04 0.  0.
        3    1    3    3  502    0  0.58653822180E+02 -0.71304828285E+03 -0.17922913102E+04  0.19298150884E+04  0.10100000352E+00 0.  1.
       -3    1    3    3    0  502 -0.58653822180E+02  0.71304828285E+03  0.90184575835E+03  0.11511750113E+04  0.10100000352E+00 0. -1.
</event>
<event>
 5   0  0.6513041E-06  0.2897840E+04  0.7818609E-02  0.8273520E-01
        2   -1    0    0  501    0  0.00000000000E+00  0.00000000000E+00  0.20636850861E+04  0.20636850861E+04  0.25500000920E-02 0. -1.
       -2   -1    0    0    0  501  0.00000000000E+00  0.00000000000E+00 -0.10172917344E+04  0.10172917344E+04  0.25500000920E-02 0.  1.
    10030    2    1    2    0    0  0.00000000000E+00  0.00000000000E+00  0.10463933517E+04  0.30809768205E+04  0.28978404238E+04 0.  0.
        1    1    3    3  502    0 -0.21500221696E+03  0.10181309666E+04 -0.54876439117E+03  0.11764178575E+04  0.50400001928E-02 0. -1.
       -1    1    3    3    0  502  0.21500221696E+03 -0.10181309666E+04  0.15951577429E+04  0.19045589629E+04  0.50400001928E-02 0.  1.
</event>
<event>
 5   0  0.2474769E-06  0.2902883E+04  0.7818609E-02  0.8272020E-01
       -1   -1    0    0    0  501  0.00000000000E+00  0.00000000000E+00  0.10484898190E+04  0.10484898191E+04  0.50400001928E-02 0. -1.
        1   -1    0    0  501    0  0.00000000000E+00  0.00000000000E+00 -0.20092542573E+04  0.20092542573E+04  0.50400001928E-02 0.  1.
    10030    2    1    2    0    0  0.00000000000E+00  0.00000000000E+00 -0.96076443822E+03  0.30577440763E+04  0.29028831410E+04 0.  0.
        1    1    3    3  502    0 -0.93766010762E+03  0.62311774877E+03 -0.14453313699E+04  0.18320657671E+04  0.50400001928E-02 0.  1.
       -1    1    3    3    0  502  0.93766010762E+03 -0.62311774877E+03  0.48456693170E+03  0.12256783092E+04  0.50400001928E-02 0. -1.
</event>
<event>
 5   0  0.6733688E-06  0.2917282E+04  0.7818609E-02  0.8267754E-01
        2   -1    0    0  501    0  0.00000000000E+00  0.00000000000E+00  0.13411534933E+04  0.13411534933E+04  0.25500000920E-02 0.  1.
       -2   -1    0    0    0  501  0.00000000000E+00  0.00000000000E+00 -0.15864210444E+04  0.15864210444E+04  0.25500000920E-02 0. -1.
    10030    2    1    2    0    0  0.00000000000E+00  0.00000000000E+00 -0.24526755101E+03  0.29275745377E+04  0.29172823830E+04 0.  0.
        5    1    3    3  502    0  0.75574334873E+03 -0.11242715194E+04  0.42008616669E+03  0.14183190530E+04  0.46999998093E+01 0.  1.
       -5    1    3    3    0  502 -0.75574334873E+03  0.11242715194E+04 -0.66535371770E+03  0.15092554847E+04  0.46999998093E+01 0. -1.
</event>
<event>
 5   0  0.2429358E-06  0.2858043E+04  0.7818609E-02  0.8285471E-01
       -1   -1    0    0    0  501  0.00000000000E+00  0.00000000000E+00  0.97140722885E+03  0.97140722886E+03  0.50400001928E-02 0.  1.
        1   -1    0    0  501    0  0.00000000000E+00  0.00000000000E+00 -0.21022106058E+04  0.21022106058E+04  0.50400001928E-02 0. -1.
    10030    2    1    2    0    0  0.00000000000E+00  0.00000000000E+00 -0.11308033770E+04  0.30736178347E+04  0.28580430921E+04 0.  0.
        2    1    3    3  502    0 -0.11201953844E+04  0.86472375282E+03 -0.35161680874E+03  0.14581561124E+04  0.25500000920E-02 0. -1.
       -2    1    3    3    0  502  0.11201953844E+04 -0.86472375282E+03 -0.77918656821E+03  0.16154617223E+04  0.25500000920E-02 0.  1.
</event>
<event>
 5   0  0.6612533E-06  0.2859865E+04  0.7818609E-02  0.8284920E-01
        2   -1    0    0  501    0  0.00000000000E+00  0.00000000000E+00  0.27951452474E+04  0.27951452474E+04  0.25500000920E-02 0. -1.
       -2   -1    0    0    0  501  0.00000000000E+00  0.00000000000E+00 -0.73152091368E+03  0.73152091368E+03  0.25500000920E-02 0.  1.
    10030    2    1    2    0    0  0.00000000000E+00  0.00000000000E+00  0.20636243338E+04  0.35266661611E+04  0.28598651753E+04 0.  0.
        3    1    3    3  502    0 -0.32263675527E+03  0.22287046227E+03  0.27275465858E+04  0.27555899744E+04  0.10100000352E+00 0. -1.
       -3    1    3    3    0  502  0.32263675527E+03 -0.22287046227E+03 -0.66392225206E+03  0.77107618675E+03  0.10100000352E+00 0.  1.
</event>
<event>
 5   0  0.6615403E-06  0.2933718E+04  0.7818609E-02  0.8262915E-01
       -2   -1    0    0    0  501  0.00000000000E+00  0.00000000000E+00  0.14499143117E+04  0.14499143117E+04  0.25500000920E-02 0.  1.
        2   -1    0    0  501    0  0.00000000000E+00  0.00000000000E+00 -0.14840018400E+04  0.14840018400E+04  0.25500000920E-02 0. -1.
    10030    2    1    2    0    0  0.00000000000E+00  0.00000000000E+00 -0.34087528320E+02  0.29339161517E+04  0.29337181230E+04 0.  0.
        2    1    3    3  502    0  0.10176545486E+04  0.10563426245E+04 -0.31008433290E+02  0.14671203235E+04  0.25500000920E-02 0. -1.
       -2    1    3    3    0  502 -0.10176545486E+04 -0.10563426245E+04 -0.30790950293E+01  0.14667958282E+04  0.25500000920E-02 0.  1.
</event>
<event>
 5   0  0.2429358E-06  0.2626125E+04  0.7818609E-02  0.8359381E-01
       -1   -1    0    0    0  501  0.00000000000E+00  0.00000000000E+00  0.15289330488E+04  0.15289330488E+04  0.50400001928E-02 0. -1.
        1   -1    0    0  501    0  0.00000000000E+00  0.00000000000E+00 -0.11276711425E+04  0.11276711425E+04  0.50400001928E-02 0.  1.
    10030    2    1    2    0    0  0.00000000000E+00  0.00000000000E+00  0.40126190625E+03  0.26566041913E+04  0.26261254181E+04 0.  0.
        2    1    3    3  502    0 -0.35076884460E+02 -0.23298772828E+03  0.15073737467E+04  0.15256766636E+04  0.25500000920E-02 0. -1.
       -2    1    3    3    0  502  0.35076884460E+02  0.23298772828E+03 -0.11061118405E+04  0.11309275278E+04  0.25500000920E-02 0.  1.
</event>
<event>
 5   0  0.6733688E-06  0.2888778E+04  0.7818609E-02  0.8276224E-01
       -2   -1    0    0    0  501  0.00000000000E+00  0.00000000000E+00  0.14062206323E+04  0.14062206323E+04  0.25500000920E-02 0.  1.
        2   -1    0    0  501    0  0.00000000000E+00  0.00000000000E+00 -0.14835928576E+04  0.14835928576E+04  0.25500000920E-02 0. -1.
    10030    2    1    2    0    0  0.00000000000E+00  0.00000000000E+00 -0.77372225351E+02  0.28898134899E+04  0.28887775174E+04 0.  0.
        5    1    3    3  502    0 -0.62745567640E+03 -0.11306404726E+03  0.12578314123E+04  0.14101936237E+04  0.46999998093E+01 0.  1.
       -5    1    3    3    0  502  0.62745567640E+03  0.11306404726E+03 -0.13352036376E+04  0.14796198662E+04  0.46999998093E+01 0. -1.
</event>
<event>
 5   0  0.6733688E-06  0.2819862E+04  0.7818609E-02  0.8297128E-01
        2   -1    0    0  501    0  0.00000000000E+00  0.00000000000E+00  0.12228756966E+04  0.12228756966E+04  0.25500000920E-02 0.  1.
       -2   -1    0    0    0  501  0.00000000000E+00  0.00000000000E+00 -0.16255987786E+04  0.16255987786E+04  0.25500000920E-02 0. -1.
    10030    2    1    2    0    0  0.00000000000E+00  0.00000000000E+00 -0.40272308201E+03  0.28484744752E+04  0.28198618681E+04 0.  0.
        5    1    3    3  502    0 -0.49630300380E+03  0.11423825977E+04 -0.86876858775E+03  0.15185965956E+04  0.46999998093E+01 0. -1.
       -5    1    3    3    0  502  0.49630300380E+03 -0.11423825977E+04  0.46604550573E+03  0.13298778796E+04  0.46999998093E+01 0.  1.
</event>
<event>
 5   0  0.6612533E-06  0.2946971E+04  0.7818609E-02  0.8259038E-01
        2   -1    0    0  501    0  0.00000000000E+00  0.00000000000E+00  0.17125809233E+04  0.17125809233E+04  0.25500000920E-02 0. -1.
       -2   -1    0    0    0  501  0.00000000000E+00  0.00000000000E+00 -0.12677702883E+04  0.12677702883E+04  0.25500000920E-02 0.  1.
    10030    2    1    2    0    0  0.00000000000E+00  0.00000000000E+00  0.44481063498E+03  0.29803512116E+04  0.29469707911E+04 0.  0.
        3    1    3    3  502    0 -0.92705329344E+03 -0.71359989507E+03  0.11283796954E+04  0.16253902197E+04  0.10100000352E+00 0. -1.
       -3    1    3    3    0  502  0.92705329344E+03  0.71359989507E+03 -0.68356906039E+03  0.13549609919E+04  0.10100000352E+00 0.  1.
</event>
<event>
 5   0  0.6513041E-06  0.2916089E+04  0.7818609E-02  0.8268107E-01
       -2   -1    0    0    0  501  0.00000000000E+00  0.00000000000E+00  0.14234264941E+04  0.14234264941E+04  0.25500000920E-02 0. -1.
        2   -1    0    0  501    0  0.00000000000E+00  0.00000000000E+00 -0.14935039613E+04  0.14935039613E+04  0.25500000920E-02 0.  1.
    10030    2    1    2    0    0  0.00000000000E+00  0.00000000000E+00 -0.70077467197E+02  0.29169304554E+04  0.29160885498E+04 0.  0.
        1    1    3    3  502    0  0.89755837451E+03 -0.91750329646E+03  0.65687606702E+03  0.14418423985E+04  0.50400001928E-02 0. -1.
       -1    1    3    3    0  502 -0.89755837451E+03  0.91750329646E+03 -0.72695353421E+03  0.14750880569E+04  0.50400001928E-02 0.  1.
</event>
<event>
 5   0  0.2348684E-06  0.2932653E+04  0.7818609E-02  0.8263228E-01
        1   -1    0    0  501    0  0.00000000000E+00  0.00000000000E+00  0.17893514013E+04  0.17893514013E+04  0.50400001928E-02 0. -1.
       -1   -1    0    0    0  501  0.00000000000E+00  0.00000000000E+00 -0.12016164353E+04  0.12016164353E+04  0.50400001928E-02 0.  1.
    10030    2    1    2    0    0  0.00000000000E+00  0.00000000000E+00  0.58773496607E+03  0.29909678366E+04  0.29326534417E+04 0.  0.
        5    1    3    3  502    0  0.83362089351E+03 -0.56897189554E+03 -0.79097478882E+03  0.12823088624E+04  0.46999998093E+01 0.  1.
       -5    1    3    3    0  502 -0.83362089351E+03  0.56897189554E+03  0.13787097549E+04  0.17086589742E+04  0.46999998093E+01 0. -1.
</event>
<event>
 5   0  0.2474769E-06  0.2882980E+04  0.7818609E-02  0.8277960E-01
       -1   -1    0    0    0  501  0.00000000000E+00  0.00000000000E+00  0.15567765406E+04  0.15567765406E+04  0.50400001928E-02 0. -1.
        1   -1    0    0  501    0  0.00000000000E+00  0.00000000000E+00 -0.13347407945E+04  0.13347407945E+04  0.50400001928E-02 0.  1.
    10030    2    1    2    0    0  0.00000000000E+00  0.00000000000E+00  0.22203574611E+03  0.28915173351E+04  0.28829798172E+04 0.  0.
        1    1    3    3  502    0 -0.12503591431E+04 -0.71452583014E+03  0.47998626133E+02  0.14409195039E+04  0.50400001928E-02 0.  1.
       -1    1    3    3    0  502  0.12503591431E+04  0.71452583014E+03  0.17403711997E+03  0.14505978312E+04  0.50400001928E-02 0. -1.
</event>
<event>
 5   0  0.6615403E-06  0.2903393E+04  0.7818609E-02  0.8271869E-01
        2   -1    0    0  501    0  0.00000000000E+00  0.00000000000E+00  0.27544929530E+04  0.27544929530E+04  0.25500000920E-02 0. -1.
       -2   -1    0    0    0  501  0.00000000000E+00  0.00000000000E+00 -0.76508528443E+03  0.76508528443E+03  0.25500000920E-02 0.  1.
    10030    2    1    2    0    0  0.00000000000E+00  0.00000000000E+00  0.19894076686E+04  0.35195782374E+04  0.29033925153E+04 0.  0.
        2    1    3    3  502    0  0.11195238408E+04  0.34154303588E+03  0.20356955151E+04  0.23481996307E+04  0.25500000920E-02 0. -1.
       -2    1    3    3    0  502 -0.11195238408E+04 -0.34154303588E+03 -0.46287846529E+02  0.11713786067E+04  0.25500000920E-02 0.  1.
</event>
<event>
 5   0  0.2429358E-06  0.2954245E+04  0.7818609E-02  0.8256919E-01
       -1   -1    0    0    0  501  0.00000000000E+00  0.00000000000E+00  0.30880225367E+04  0.30880225367E+04  0.50400001928E-02 0.  1.
        1   -1    0    0  501    0  0.00000000000E+00  0.00000000000E+00 -0.70656565786E+03  0.70656565787E+03  0.50400001928E-02 0. -1.
    10030    2    1    2    0    0  0.00000000000E+00  0.00000000000E+00  0.23814568788E+04  0.37945881945E+04  0.29542448613E+04 0.  0.
        2    1    3    3  502    0  0.13185230456E+04 -0.81214783532E+02  0.20396262370E+04  0.24300563881E+04  0.25500000920E-02 0.  1.
       -2    1    3    3    0  502 -0.13185230456E+04  0.81214783532E+02  0.34183064183E+03  0.13645318064E+04  0.25500000920E-02 0. -1.
</event>
<event>
 5   0  0.6513041E-06  0.2911436E+04  0.7818609E-02  0.8269483E-01
       -2   -1    0    0    0  501  0.00000000000E+00  0.00000000000E+00  0.11085980021E+04  0.11085980021E+04  0.25500000920E-02 0. -1.
        2   -1    0    0  501    0  0.00000000000E+00  0.00000000000E+00 -0.19115262433E+04  0.19115262433E+04  0.25500000920E-02 0.  1.
    10030    2    1    2    0    0  0.00000000000E+00  0.00000000000E+00 -0.80292824128E+03  0.30201242454E+04  0.29114355045E+04 0.  0.
        1    1    3    3  502    0 -0.52917437706E+03  0.11682594259E+03 -0.18029910900E+04  0.18826711590E+04  0.50400001928E-02 0.  1.
       -1    1    3    3    0  502  0.52917437706E+03 -0.11682594259E+03  0.10000628488E+04  0.11374530864E+04  0.50400001928E-02 0. -1.
</event>
<event>
 5   0  0.6733688E-06  0.2897799E+04  0.7818609E-02  0.8273533E-01
        2   -1    0    0  501    0  0.00000000000E+00  0.00000000000E+00  0.17749685289E+04  0.17749685289E+04  0.25500000920E-02 0. -1.
       -2   -1    0    0    0  501  0.00000000000E+00  0.00000000000E+00 -0.11827303769E+04  0.11827303769E+04  0.25500000920E-02 0.  1.
    10030    2    1    2    0    0  0.00000000000E+00  0.00000000000E+00  0.59223815200E+03  0.29576989058E+04  0.28977986108E+04 0.  0.
        5    1    3    3  502    0 -0.26847278269E+02 -0.14484760749E+04  0.31855970973E+03  0.14833428783E+04  0.46999998093E+01 0. -1.
       -5    1    3    3    0  502  0.26847278269E+02  0.14484760749E+04  0.27367844227E+03  0.14743560275E+04  0.46999998093E+01 0.  1.
</event>
<event>
 5   0  0.2348684E-06  0.2895559E+04  0.7818609E-02  0.8274200E-01
       -1   -1    0    0    0  501  0.00000000000E+00  0.00000000000E+00  0.11482582108E+04  0.11482582108E+04  0.50400001928E-02 0.  1.
        1   -1    0    0  501    0  0.00000000000E+00  0.00000000000E+00 -0.18254299145E+04  0.18254299145E+04  0.50400001928E-02 0. -1.
    10030    2    1    2    0    0  0.00000000000E+00  0.00000000000E+00 -0.67717170369E+03  0.29736881253E+04  0.28955585904E+04 0.  0.
        5    1    3    3  502    0  0.13767397148E+04 -0.99833657496E+02 -0.78701845396E+03  0.15889616541E+04  0.46999998093E+01 0. -1.
       -5    1    3    3    0  502 -0.13767397148E+04  0.99833657496E+02  0.10984675028E+03  0.13847264712E+04  0.46999998093E+01 0.  1.
</event>
<event>
 5   0  0.2348684E-06  0.2822989E+04  0.7818609E-02  0.8296166E-01
       -1   -1    0    0    0  501  0.00000000000E+00  0.00000000000E+00  0.69235378499E+03  0.69235378501E+03  0.50400001928E-02 0. -1.
        1   -1    0    0  501    0  0.00000000000E+00  0.00000000000E+00 -0.28775998633E+04  0.28775998633E+04  0.50400001928E-02 0.  1.
    10030    2    1    2    0    0  0.00000000000E+00  0.00000000000E+00 -0.21852460783E+04  0.35699536483E+04  0.28229893071E+04 0.  0.
        5    1    3    3  502    0 -0.11774179178E+04  0.66807802916E+03 -0.15979157775E+04  0.20942774716E+04  0.46999998093E+01 0.  1.
       -5    1    3    3    0  502  0.11774179178E+04 -0.66807802916E+03 -0.58733030079E+03  0.14756761767E+04  0.46999998093E+01 0. -1.
</event>
<event>
 5   0  0.6513041E-06  0.2902083E+04  0.7818609E-02  0.8272258E-01
       -2   -1    0    0    0  501  0.00000000000E+00  0.00000000000E+00  0.11000272665E+04  0.11000272665E+04  0.25500000920E-02 0. -1.
        2   -1    0    0  501    0  0.00000000000E+00  0.00000000000E+00 -0.19140625514E+04  0.19140625514E+04  0.25500000920E-02 0.  1.
    10030    2    1    2    0    0  0.00000000000E+00  0.00000000000E+00 -0.81403528488E+03  0.30140898180E+04  0.29020826979E+04 0.  0.
        1    1    3    3  502    0  0.71824018519E+03 -0.11937785613E+04  0.14279447874E+02  0.13932624016E+04  0.50400001928E-02 0. -1.
       -1    1    3    3    0  502 -0.71824018519E+03  0.11937785613E+04 -0.82831473276E+03  0.16208274164E+04  0.50400001928E-02 0.  1.
</event>
<event>
 5   0  0.6393633E-06  0.2872761E+04  0.7818609E-02  0.8281028E-01
       -2   -1    0    0    0  501  0.00000000000E+00  0.00000000000E+00  0.95415510452E+03  0.95415510452E+03  0.25500000920E-02 0.  1.
        2   -1    0    0  501    0  0.00000000000E+00  0.00000000000E+00 -0.21623199887E+04  0.21623199887E+04  0.25500000920E-02 0. -1.
    10030    2    1    2    0    0  0.00000000000E+00  0.00000000000E+00 -0.12081648842E+04  0.31164750932E+04  0.28727608009E+04 0.  0.
        4    1    3    3  502    0  0.21591930126E+03  0.96672160815E+03  0.52436381662E+03  0.11207724289E+04  0.12699999809E+01 0.  1.
       -4    1    3    3    0  502 -0.21591930126E+03 -0.96672160815E+03 -0.17325287008E+04  0.19957026643E+04  0.12699999809E+01 0. -1.
</event>
<event>
 5   0  0.2429358E-06  0.2878700E+04  0.7818609E-02  0.8279243E-01
        1   -1    0    0  501    0  0.00000000000E+00  0.00000000000E+00  0.13219910003E+04  0.13219910003E+04  0.50400001928E-02 0.  1.
       -1   -1    0    0    0  501  0.00000000000E+00  0.00000000000E+00 -0.15671277626E+04  0.15671277626E+04  0.50400001928E-02 0. -1.
    10030    2    1    2    0    0  0.00000000000E+00  0.00000000000E+00 -0.24513676232E+03  0.28891187628E+04  0.28787002612E+04 0.  0.
        2    1    3    3  502    0  0.87560594539E+03  0.68601176696E+03 -0.10393462737E+04  0.15223464102E+04  0.25500000920E-02 0. -1.
       -2    1    3    3    0  502 -0.87560594539E+03 -0.68601176696E+03  0.79420951137E+03  0.13667723526E+04  0.25500000920E-02 0.  1.
</event>
<event>
 5   0  0.2336512E-06  0.2831588E+04  0.7818609E-02  0.8293528E-01
       -1   -1    0    0    0  501  0.00000000000E+00  0.00000000000E+00  0.31694881778E+04  0.31694881778E+04  0.50400001928E-02 0.  1.
        1   -1    0    0  501    0  0.00000000000E+00  0.00000000000E+00 -0.63242803185E+03  0.63242803187E+03  0.50400001928E-02 0. -1.
    10030    2    1    2    0    0  0.00000000000E+00  0.00000000000E+00  0.25370601460E+04  0.38019162097E+04  0.28315883672E+04 0.  0.
        4    1    3    3  502    0 -0.33555145246E+03  0.75430459361E+03  0.28128460099E+04  0.29314969700E+04  0.12699999809E+01 0. -1.
       -4    1    3    3    0  502  0.33555145246E+03 -0.75430459361E+03 -0.27578586389E+03  0.87041923968E+03  0.12699999809E+01 0.  1.
</event>
<event>
 5   0  0.6612533E-06  0.2919236E+04  0.7818609E-02  0.8267177E-01
       -2   -1    0    0    0  501  0.00000000000E+00  0.00000000000E+00  0.18059518389E+04  0.18059518389E+04  0.25500000920E-02 0. -1.
        2   -1    0    0  501    0  0.00000000000E+00  0.00000000000E+00 -0.11797022201E+04  0.11797022201E+04  0.25500000920E-02 0.  1.
    10030    2    1    2    0    0  0.00000000000E+00  0.00000000000E+00  0.62624961875E+03  0.29856540590E+04  0.29192364712E+04 0.  0.
        3    1    3    3  502    0 -0.60005746487E+02 -0.86714804279E+03 -0.88613124429E+03  0.12412795858E+04  0.10100000352E+00 0.  1.
       -3    1    3    3    0  502  0.60005746487E+02  0.86714804279E+03  0.15123808630E+04  0.17443744732E+04  0.10100000352E+00 0. -1.
</event>
<event>
 5   0  0.2474769E-06  0.2861539E+04  0.7818609E-02  0.8284414E-01
       -1   -1    0    0    0  501  0.00000000000E+00  0.00000000000E+00  0.16204396838E+04  0.16204396838E+04  0.50400001928E-02 0. -1.
        1   -1    0    0  501    0  0.00000000000E+00  0.00000000000E+00 -0.12633001132E+04  0.12633001132E+04  0.50400001928E-02 0.  1.
    10030    2    1    2    0    0  0.00000000000E+00  0.00000000000E+00  0.35713957067E+03  0.28837397970E+04  0.28615391914E+04 0.  0.
        1    1    3    3  502    0 -0.11904490277E+03  0.13421123172E+04 -0.30647975045E+03  0.13817984652E+04  0.50400001928E-02 0.  1.
       -1    1    3    3    0  502  0.11904490277E+03 -0.13421123172E+04  0.66361932112E+03  0.15019413318E+04  0.50400001928E-02 0. -1.
</event>
<event>
 5   0  0.6733688E-06  0.2902353E+04  0.7818609E-02  0.8272178E-01
       -2   -1    0    0    0  501  0.00000000000E+00  0.00000000000E+00  0.12162866219E+04  0.12162866219E+04  0.25500000920E-02 0. -1.
        2   -1    0    0  501    0  0.00000000000E+00  0.00000000000E+00 -0.17314279042E+04  0.17314279042E+04  0.25500000920E-02 0.  1.
    10030    2    1    2    0    0  0.00000000000E+00  0.00000000000E+00 -0.51514128234E+03  0.29477145261E+04  0.29023525607E+04 0.  0.
        5    1    3    3  502    0  0.50175728991E+03 -0.13067536982E+04  0.13119777311E+03  0.14059162675E+04  0.46999998093E+01 0.  1.
       -5    1    3    3    0  502 -0.50175728991E+03  0.13067536982E+04 -0.64633905545E+03  0.15417982586E+04  0.46999998093E+01 0. -1.
</event>
<event>
 5   0  0.2429358E-06  0.2871363E+04  0.7818609E-02  0.8281449E-01
       -1   -1    0    0    0  501  0.00000000000E+00  0.00000000000E+00  0.92966461370E+03  0.92966461372E+03  0.50400001928E-02 0. -1.
        1   -1    0    0  501    0  0.00000000000E+00  0.00000000000E+00 -0.22171235654E+04  0.22171235654E+04  0.50400001928E-02 0.  1.
    10030    2    1    2    0    0  0.00000000000E+00  0.00000000000E+00 -0.12874589517E+04  0.31467881792E+04  0.28713629677E+04 0.  0.
        2    1    3    3  502    0 -0.36053512177E+03 -0.10684257913E+04 -0.16175973872E+04  0.19718368473E+04  0.25500000920E-02 0.  1.
       -2    1    3    3    0  502  0.36053512177E+03  0.10684257913E+04  0.33013843542E+03  0.11749513318E+04  0.25500000920E-02 0. -1.
</event>
<event>
 5   0  0.6513041E-06  0.2815789E+04  0.7818609E-02  0.8298383E-01
       -2   -1    0    0    0  501  0.00000000000E+00  0.00000000000E+00  0.80481470991E+03  0.80481470991E+03  0.25500000920E-02 0. -1.
        2   -1    0    0  501    0  0.00000000000E+00  0.00000000000E+00 -0.24628862635E+04  0.24628862635E+04  0.25500000920E-02 0.  1.
    10030    2    1    2    0    0  0.00000000000E+00  0.00000000000E+00 -0.16580715536E+04  0.32677009734E+04  0.28157891212E+04 0.  0.
        1    1    3    3  502    0  0.24331626636E+02  0.75436173751E+03 -0.22082714276E+04  0.23336915728E+04  0.50400001928E-02 0.  1.
       -1    1    3    3    0  502 -0.24331626636E+02 -0.75436173751E+03  0.55019987399E+03  0.93400940061E+03  0.50400001928E-02 0. -1.
</event>
<event>
 5   0  0.6615403E-06  0.2896826E+04  0.7818609E-02  0.8273822E-01
       -2   -1    0    0    0  501  0.00000000000E+00  0.00000000000E+00  0.23195947273E+04  0.23195947273E+04  0.25500000920E-02 0. -1.
        2   -1    0    0  501    0  0.00000000000E+00  0.00000000000E+00 -0.90442534091E+03  0.90442534091E+03  0.25500000920E-02 0.  1.
    10030    2    1    2    0    0  0.00000000000E+00  0.00000000000E+00  0.14151693863E+04  0.32240200682E+04  0.28968260231E+04 0.  0.
        2    1    3    3  502    0  0.11952225570E+03 -0.66521761503E+02  0.23123900442E+04  0.23164322634E+04  0.25500000920E-02 0. -1.
       -2    1    3    3    0  502 -0.11952225570E+03  0.66521761503E+02 -0.89722065789E+03  0.90758780474E+03  0.25500000920E-02 0.  1.
</event>
<event>
 5   0  0.2159500E-06  0.2896118E+04  0.7818609E-02  0.8274033E-01
       -3   -1    0    0    0  501  0.00000000000E+00  0.00000000000E+00  0.14089128738E+04  0.14089128775E+04  0.10100000352E+00 0. -1.
        3   -1    0    0  501    0  0.00000000000E+00  0.00000000000E+00 -0.14882926339E+04  0.14882926373E+04  0.10100000352E+00 0.  1.
    10030    2    1    2    0    0  0.00000000000E+00  0.00000000000E+00 -0.79379760055E+02  0.28972055148E+04  0.28961178582E+04 0.  0.
        3    1    3    3  502    0  0.13978875539E+04  0.28573966211E+03  0.20766374159E+03  0.14418255816E+04  0.10100000352E+00 0.  1.
       -3    1    3    3    0  502 -0.13978875539E+04 -0.28573966211E+03 -0.28704350165E+03  0.14553799332E+04  0.10100000352E+00 0. -1.
</event>
<event>
 5   0  0.2336512E-06  0.2907894E+04  0.7818609E-02  0.8270533E-01
       -1   -1    0    0    0  501  0.00000000000E+00  0.00000000000E+00  0.84427185800E+03  0.84427185801E+03  0.50400001928E-02 0. -1.
        1   -1    0    0  501    0  0.00000000000E+00  0.00000000000E+00 -0.25038870965E+04  0.25038870965E+04  0.50400001928E-02 0.  1.
    10030    2    1    2    0    0  0.00000000000E+00  0.00000000000E+00 -0.16596152385E+04  0.33481589545E+04  0.29078936784E+04 0.  0.
        4    1    3    3  502    0  0.19595218961E+02  0.14307751815E+04 -0.11266335582E+04  0.18212101416E+04  0.12699999809E+01 0. -1.
       -4    1    3    3    0  502 -0.19595218961E+02 -0.14307751815E+04 -0.53298168030E+03  0.15269488129E+04  0.12699999809E+01 0.  1.
</event>
<event>
 5   0  0.6393633E-06  0.2892806E+04  0.7818609E-02  0.8275021E-01
        2   -1    0    0  501    0  0.00000000000E+00  0.00000000000E+00  0.24604423196E+04  0.24604423196E+04  0.25500000920E-02 0.  1.
       -2   -1    0    0    0  501  0.00000000000E+00  0.00000000000E+00 -0.85028701566E+03  0.85028701566E+03  0.25500000920E-02 0. -1.
    10030    2    1    2    0    0  0.00000000000E+00  0.00000000000E+00  0.16101553040E+04  0.33107293353E+04  0.28928063587E+04 0.  0.
        4    1    3    3  502    0 -0.14143421816E+03  0.83895134299E+03  0.21437832089E+04  0.23064368740E+04  0.12699999809E+01 0.  1.
       -4    1    3    3    0  502  0.14143421816E+03 -0.83895134299E+03 -0.53362790495E+03  0.10042924613E+04  0.12699999809E+01 0. -1.
</event>
<event>
 5   0  0.6733688E-06  0.2927892E+04  0.7818609E-02  0.8264627E-01
       -2   -1    0    0    0  501  0.00000000000E+00  0.00000000000E+00  0.21170375249E+04  0.21170375249E+04  0.25500000920E-02 0.  1.
        2   -1    0    0  501    0  0.00000000000E+00  0.00000000000E+00 -0.10123284936E+04  0.10123284936E+04  0.25500000920E-02 0. -1.
    10030    2    1    2    0    0  0.00000000000E+00  0.00000000000E+00  0.11047090313E+04  0.31293660186E+04  0.29278916705E+04 0.  0.
        5    1    3    3  502    0 -0.56653296171E+03  0.58450985544E+03  0.18528418996E+04  0.20237728536E+04  0.46999998093E+01 0.  1.
       -5    1    3    3    0  502  0.56653296171E+03 -0.58450985544E+03 -0.74813286833E+03  0.11055931650E+04  0.46999998093E+01 0. -1.
</event>
<event>
 5   0  0.2474769E-06  0.2894929E+04  0.7818609E-02  0.8274388E-01
        1   -1    0    0  501    0  0.00000000000E+00  0.00000000000E+00  0.20221720933E+04  0.20221720933E+04  0.50400001928E-02 0.  1.
       -1   -1    0    0    0  501  0.00000000000E+00  0.00000000000E+00 -0.10360907176E+04  0.10360907176E+04  0.50400001928E-02 0. -1.
    10030    2    1    2    0    0  0.00000000000E+00  0.00000000000E+00  0.98608137569E+03  0.30582628109E+04  0.28949291772E+04 0.  0.
        1    1    3    3  502    0  0.12768307385E+04 -0.47010014460E+03  0.10147272940E+04  0.16973397898E+04  0.50400001928E-02 0. -1.
       -1    1    3    3    0  502 -0.12768307385E+04  0.47010014460E+03 -0.28645918294E+02  0.13609230211E+04  0.50400001928E-02 0.  1.
</event>
<event>
 5   0  0.6393633E-06  0.2897783E+04  0.7818609E-02  0.8273537E-01
       -2   -1    0    0    0  501  0.00000000000E+00  0.00000000000E+00  0.10322691855E+04  0.10322691855E+04  0.25500000920E-02 0. -1.
        2   -1    0    0  501    0  0.00000000000E+00  0.00000000000E+00 -0.20336614863E+04  0.20336614863E+04  0.25500000920E-02 0.  1.
    10030    2    1    2    0    0  0.00000000000E+00  0.00000000000E+00 -0.10013923008E+04  0.30659306718E+04  0.28977826599E+04 0.  0.
        4    1    3    3  502    0  0.10801962294E+03 -0.84123314452E+03  0.74217783983E+03  0.11270186339E+04  0.12699999809E+01 0. -1.
       -4    1    3    3    0  502 -0.10801962294E+03  0.84123314452E+03 -0.17435701406E+04  0.19389120378E+04  0.12699999809E+01 0.  1.
</event>
<event>
 5   0  0.2508094E-06  0.2809894E+04  0.7818609E-02  0.8300203E-01
        1   -1    0    0  501    0  0.00000000000E+00  0.00000000000E+00  0.17673267634E+04  0.17673267634E+04  0.50400001928E-02 0.  1.
       -1   -1    0    0    0  501  0.00000000000E+00  0.00000000000E+00 -0.11168711478E+04  0.11168711478E+04  0.50400001928E-02 0. -1.
    10030    2    1    2    0    0  0.00000000000E+00  0.00000000000E+00  0.65045561562E+03  0.28841979113E+04  0.28098941410E+04 0.  0.
        3    1    3    3  502    0  0.67665940071E+02 -0.95302111768E+03  0.13825386420E+04  0.16805478384E+04  0.10100000352E+00 0.  1.
       -3    1    3    3    0  502 -0.67665940071E+02  0.95302111768E+03 -0.73208302640E+03  0.12036500729E+04  0.10100000352E+00 0. -1.
</event>
<event>
 5   0  0.2429358E-06  0.2905535E+04  0.7818609E-02  0.8271232E-01
        1   -1    0    0  501    0  0.00000000000E+00  0.00000000000E+00  0.24553459023E+04  0.24553459023E+04  0.50400001928E-02 0.  1.
       -1   -1    0    0    0  501  0.00000000000E+00  0.00000000000E+00 -0.85956681211E+03  0.85956681213E+03  0.50400001928E-02 0. -1.
    10030    2    1    2    0    0  0.00000000000E+00  0.00000000000E+00  0.15957790902E+04  0.33149127145E+04  0.29055353035E+04 0.  0.
        2    1    3    3  502    0  0.89494056802E+03  0.42933761790E+03 -0.41236604547E+03  0.10748465778E+04  0.25500000920E-02 0. -1.
       -2    1    3    3    0  502 -0.89494056802E+03 -0.42933761790E+03  0.20081451357E+04  0.22400661366E+04  0.25500000920E-02 0.  1.
</event>
<event>
 5   0  0.2429358E-06  0.2902295E+04  0.7818609E-02  0.8272195E-01
       -1   -1    0    0    0  501  0.00000000000E+00  0.00000000000E+00  0.16072131353E+04  0.16072131353E+04  0.50400001928E-02 0. -1.
        1   -1    0    0  501    0  0.00000000000E+00  0.00000000000E+00 -0.13102363847E+04  0.13102363847E+04  0.50400001928E-02 0.  1.
    10030    2    1    2    0    0  0.00000000000E+00  0.00000000000E+00  0.29697675061E+03  0.29174495199E+04  0.29022950420E+04 0.  0.
        2    1    3    3  502    0  0.10999610363E+04 -0.16611058314E+03 -0.78821529673E+03  0.13633746225E+04  0.25500000920E-02 0.  1.
       -2    1    3    3    0  502 -0.10999610363E+04  0.16611058314E+03  0.10851920473E+04  0.15540748974E+04  0.25500000920E-02 0. -1.
</event>
<event>
 5   0  0.2474769E-06  0.2906045E+04  0.7818609E-02  0.8271081E-01
        1   -1    0    0  501    0  0.00000000000E+00  0.00000000000E+00  0.99278935853E+03  0.99278935855E+03  0.50400001928E-02 0. -1.
       -1   -1    0    0    0  501  0.00000000000E+00  0.00000000000E+00 -0.21266080969E+04  0.21266080969E+04  0.50400001928E-02 0.  1.
    10030    2    1    2    0    0  0.00000000000E+00  0.00000000000E+00 -0.11338187384E+04  0.31193974554E+04  0.29060446579E+04 0.  0.
        1    1    3    3  502    0  0.42885816943E+03 -0.32474961793E+02  0.92289891445E+03  0.10181926924E+04  0.50400001928E-02 0. -1.
       -1    1    3    3    0  502 -0.42885816943E+03  0.32474961793E+02 -0.20567176528E+04  0.21012047630E+04  0.50400001928E-02 0.  1.
</event>
<event>
 5   0  0.2348684E-06  0.2912135E+04  0.7818609E-02  0.8269276E-01
        1   -1    0    0  501    0  0.00000000000E+00  0.00000000000E+00  0.13912698483E+04  0.13912698483E+04  0.50400001928E-02 0. -1.
       -1   -1    0    0    0  501  0.00000000000E+00  0.00000000000E+00 -0.15238834183E+04  0.15238834183E+04  0.50400001928E-02 0.  1.
    10030    2    1    2    0    0  0.00000000000E+00  0.00000000000E+00 -0.13261356995E+03  0.29151532666E+04  0.29121353349E+04 0.  0.
        5    1    3    3  502    0  0.12839796158E+04  0.68233903862E+03  0.10719332941E+02  0.14540726294E+04  0.46999998093E+01 0.  1.
       -5    1    3    3    0  502 -0.12839796158E+04 -0.68233903862E+03 -0.14333290289E+03  0.14610806372E+04  0.46999998093E+01 0. -1.
</event>
<event>
 5   0  0.2429358E-06  0.2876166E+04  0.7818609E-02  0.8280004E-01
       -1   -1    0    0    0  501  0.00000000000E+00  0.00000000000E+00  0.15404593857E+04  0.15404593857E+04  0.50400001928E-02 0.  1.
        1   -1    0    0  501    0  0.00000000000E+00  0.00000000000E+00 -0.13425106312E+04  0.13425106312E+04  0.50400001928E-02 0. -1.
    10030    2    1    2    0    0  0.00000000000E+00  0.00000000000E+00  0.19794875446E+03  0.28829700169E+04  0.28761662693E+04 0.  0.
        2    1    3    3  502    0  0.21611530379E+03 -0.13706614717E+03 -0.13195022192E+04  0.13440904210E+04  0.25500000920E-02 0. -1.
       -2    1    3    3    0  502 -0.21611530379E+03  0.13706614717E+03  0.15174509737E+04  0.15388795959E+04  0.25500000920E-02 0.  1.
</event>
<event>
 5   0  0.6393633E-06  0.2762020E+04  0.7818609E-02  0.8315158E-01
       -2   -1    0    0    0  501  0.00000000000E+00  0.00000000000E+00  0.82934477254E+03  0.82934477255E+03  0.25500000920E-02 0. -1.
        2   -1    0    0  501    0  0.00000000000E+00  0.00000000000E+00 -0.22996325733E+04  0.22996325733E+04  0.25500000920E-02 0.  1.
    10030    2    1    2    0    0  0.00000000000E+00  0.00000000000E+00 -0.14702878007E+04  0.31289773458E+04  0.27620197345E+04 0.  0.
        4    1    3    3  502    0  0.99014629507E+03 -0.75371882917E+03 -0.56652597717E+02  0.12456696548E+04  0.12699999809E+01 0. -1.
       -4    1    3    3    0  502 -0.99014629507E+03  0.75371882917E+03 -0.14136352030E+04  0.18833076910E+04  0.12699999809E+01 0.  1.
</event>
<event>
 5   0  0.6393633E-06  0.2866584E+04  0.7818609E-02  0.8282890E-01
        2   -1    0    0  501    0  0.00000000000E+00  0.00000000000E+00  0.18388431382E+04  0.18388431382E+04  0.25500000920E-02 0.  1.
       -2   -1    0    0    0  501  0.00000000000E+00  0.00000000000E+00 -0.11171836146E+04  0.11171836146E+04  0.25500000920E-02 0. -1.
    10030    2    1    2    0    0  0.00000000000E+00  0.00000000000E+00  0.72165952353E+03  0.29560267528E+04  0.28665836278E+04 0.  0.
        4    1    3    3  502    0  0.11408444584E+04 -0.78827309105E+03  0.73466468716E+03  0.15692782927E+04  0.12699999809E+01 0.  1.
       -4    1    3    3    0  502 -0.11408444584E+04  0.78827309105E+03 -0.13005163634E+02  0.13867484601E+04  0.12699999809E+01 0. -1.
</event>
<event>
 5   0  0.6513041E-06  0.2897996E+04  0.7818609E-02  0.8273474E-01
        2   -1    0    0  501    0  0.00000000000E+00  0.00000000000E+00  0.20826072452E+04  0.20826072452E+04  0.25500000920E-02 0.  1.
       -2   -1    0    0    0  501  0.00000000000E+00  0.00000000000E+00 -0.10081573728E+04  0.10081573728E+04  0.25500000920E-02 0. -1.
    10030    2    1    2    0    0  0.00000000000E+00  0.00000000000E+00  0.10744498724E+04  0.30907646180E+04  0.28979964451E+04 0.  0.
        1    1    3    3  502    0  0.97956562551E+03 -0.45578079152E+03 -0.49256457829E+03  0.11873941251E+04  0.50400001928E-02 0. -1.
       -1    1    3    3    0  502 -0.97956562551E+03  0.45578079152E+03  0.15670144507E+04  0.19033704929E+04  0.50400001928E-02 0.  1.
</event>
<event>
 5   0  0.2336512E-06  0.2899983E+04  0.7818609E-02  0.8272882E-01
       -1   -1    0    0    0  501  0.00000000000E+00  0.00000000000E+00  0.13894441635E+04  0.13894441635E+04  0.50400001928E-02 0.  1.
        1   -1    0    0  501    0  0.00000000000E+00  0.00000000000E+00 -0.15131776871E+04  0.15131776871E+04  0.50400001928E-02 0. -1.
    10030    2    1    2    0    0  0.00000000000E+00  0.00000000000E+00 -0.12373352360E+03  0.29026218507E+04  0.28999833832E+04 0.  0.
        4    1    3    3  502    0  0.75681246957E+03 -0.16860845868E+03  0.11645154803E+04  0.13990324668E+04  0.12699999809E+01 0.  1.
       -4    1    3    3    0  502 -0.75681246957E+03  0.16860845868E+03 -0.12882490039E+04  0.15035893839E+04  0.12699999809E+01 0. -1.
</event>
<event>
 5   0  0.2336512E-06  0.2882278E+04  0.7818609E-02  0.8278170E-01
       -1   -1    0    0    0  501  0.00000000000E+00  0.00000000000E+00  0.13831947901E+04  0.13831947901E+04  0.50400001928E-02 0.  1.
        1   -1    0    0  501    0  0.00000000000E+00  0.00000000000E+00 -0.15015101187E+04  0.15015101187E+04  0.50400001928E-02 0. -1.
    10030    2    1    2    0    0  0.00000000000E+00  0.00000000000E+00 -0.11831532853E+03  0.28847049088E+04  0.28822775532E+04 0.  0.
        4    1    3    3  502    0 -0.74454558458E+03  0.55260244696E+03 -0.11633373308E+04  0.14876400606E+04  0.12699999809E+01 0. -1.
       -4    1    3    3    0  502  0.74454558458E+03 -0.55260244696E+03  0.10450220023E+04  0.13970648482E+04  0.12699999809E+01 0.  1.
</event>
<event>
 5   0  0.6733688E-06  0.2921119E+04  0.7818609E-02  0.8266622E-01
       -2   -1    0    0    0  501  0.00000000000E+00  0.00000000000E+00  0.10234705973E+04  0.10234705974E+04  0.25500000920E-02 0.  1.
        2   -1    0    0  501    0  0.00000000000E+00  0.00000000000E+00 -0.20843140344E+04  0.20843140344E+04  0.25500000920E-02 0. -1.
    10030    2    1    2    0    0  0.00000000000E+00  0.00000000000E+00 -0.10608434370E+04  0.31077846317E+04  0.29211190526E+04 0.  0.
        5    1    3    3  502    0 -0.63121200813E+02  0.40259226000E+03 -0.20225978532E+04  0.20632471931E+04  0.46999998093E+01 0. -1.
       -5    1    3    3    0  502  0.63121200813E+02 -0.40259226000E+03  0.96175441617E+03  0.10445374387E+04  0.46999998093E+01 0.  1.
</event>
<event>
 5   0  0.2348684E-06  0.2842003E+04  0.7818609E-02  0.8290345E-01
       -1   -1    0    0    0  501  0.00000000000E+00  0.00000000000E+00  0.15588920308E+04  0.15588920309E+04  0.50400001928E-02 0.  1.
        1   -1    0    0  501    0  0.00000000000E+00  0.00000000000E+00 -0.12953084014E+04  0.12953084014E+04  0.50400001928E-02 0. -1.
    10030    2    1    2    0    0  0.00000000000E+00  0.00000000000E+00  0.26358362949E+03  0.28542004322E+04  0.28420034795E+04 0.  0.
        5    1    3    3  502    0  0.29505177968E+03 -0.12643857310E+04  0.71176223520E+03  0.14806601227E+04  0.46999998093E+01 0. -1.
       -5    1    3    3    0  502 -0.29505177968E+03  0.12643857310E+04 -0.44817860571E+03  0.13735403096E+04  0.46999998093E+01 0.  1.
</event>
<event>
 5   0  0.2348684E-06  0.2885373E+04  0.7818609E-02  0.8277243E-01
       -1   -1    0    0    0  501  0.00000000000E+00  0.00000000000E+00  0.20818398088E+04  0.20818398088E+04  0.50400001928E-02 0. -1.
        1   -1    0    0  501    0  0.00000000000E+00  0.00000000000E+00 -0.99976174395E+03  0.99976174396E+03  0.50400001928E-02 0.  1.
    10030    2    1    2    0    0  0.00000000000E+00  0.00000000000E+00  0.10820780648E+04  0.30816015528E+04  0.28853726261E+04 0.  0.
        5    1    3    3  502    0  0.15559908141E+03 -0.98397617336E+03  0.16555103090E+04  0.19321378463E+04  0.46999998093E+01 0. -1.
       -5    1    3    3    0  502 -0.15559908141E+03  0.98397617336E+03 -0.57343224415E+03  0.11494637065E+04  0.46999998093E+01 0.  1.
</event>
<event>
 5   0  0.6615403E-06  0.2921165E+04  0.7818609E-02  0.8266608E-01
        2   -1    0    0  501    0  0.00000000000E+00  0.00000000000E+00  0.23830521739E+04  0.23830521739E+04  0.25500000920E-02 0.  1.
       -2   -1    0    0    0  501  0.00000000000E+00  0.00000000000E+00 -0.89519678968E+03  0.89519678969E+03  0.25500000920E-02 0. -1.
    10030    2    1    2    0    0  0.00000000000E+00  0.00000000000E+00  0.14878553842E+04  0.32782489636E+04  0.29211646004E+04 0.  0.
        2    1    3    3  502    0 -0.35946552260E+03 -0.12045777283E+04 -0.90673448101E+02  0.12603351299E+04  0.25500000920E-02 0. -1.
       -2    1    3    3    0  502  0.35946552260E+03  0.12045777283E+04  0.15785288323E+04  0.20179138336E+04  0.25500000920E-02 0.  1.
</event>
<event>
 5   0  0.2508094E-06  0.2869714E+04  0.7818609E-02  0.8281946E-01
        1   -1    0    0  501    0  0.00000000000E+00  0.00000000000E+00  0.24959797240E+04  0.24959797240E+04  0.50400001928E-02 0. -1.
       -1   -1    0    0    0  501  0.00000000000E+00  0.00000000000E+00 -0.82485247873E+03  0.82485247874E+03  0.50400001928E-02 0.  1.
    10030    2    1    2    0    0  0.00000000000E+00  0.00000000000E+00  0.16711272453E+04  0.33208322028E+04  0.28697143149E+04 0.  0.
        3    1    3    3  502    0 -0.10707775748E+04 -0.43352122278E+03  0.18204144281E+04  0.21560180810E+04  0.10100000352E+00 0. -1.
       -3    1    3    3    0  502  0.10707775748E+04  0.43352122278E+03 -0.14928718279E+03  0.11648141218E+04  0.10100000352E+00 0.  1.
</event>
<event>
 5   0  0.6612533E-06  0.2907362E+04  0.7818609E-02  0.8270690E-01
        2   -1    0    0  501    0  0.00000000000E+00  0.00000000000E+00  0.16062890599E+04  0.16062890599E+04  0.25500000920E-02 0. -1.
       -2   -1    0    0    0  501  0.00000000000E+00  0.00000000000E+00 -0.13155716232E+04  0.13155716232E+04  0.25500000920E-02 0.  1.
    10030    2    1    2    0    0  0.00000000000E+00  0.00000000000E+00  0.29071743663E+03  0.29218606831E+04  0.29073619010E+04 0.  0.
        3    1    3    3  502    0  0.39520840681E+03 -0.51645700293E+03  0.14519463741E+04  0.15909323694E+04  0.10100000352E+00 0. -1.
       -3    1    3    3    0  502 -0.39520840681E+03  0.51645700293E+03 -0.11612289375E+04  0.13309283136E+04  0.10100000352E+00 0.  1.
</event>
<event>
 5   0  0.6393633E-06  0.2901505E+04  0.7818609E-02  0.8272430E-01
       -2   -1    0    0    0  501  0.00000000000E+00  0.00000000000E+00  0.13622169108E+04  0.13622169108E+04  0.25500000920E-02 0.  1.
        2   -1    0    0  501    0  0.00000000000E+00  0.00000000000E+00 -0.15450425061E+04  0.15450425061E+04  0.25500000920E-02 0. -1.
    10030    2    1    2    0    0  0.00000000000E+00  0.00000000000E+00 -0.18282559523E+03  0.29072594169E+04  0.29015051471E+04 0.  0.
        4    1    3    3  502    0 -0.98731620899E+03  0.48856230751E+03 -0.10373162472E+04  0.15131136885E+04  0.12699999809E+01 0. -1.
       -4    1    3    3    0  502  0.98731620899E+03 -0.48856230751E+03  0.85449065193E+03  0.13941457284E+04  0.12699999809E+01 0.  1.
</event>
<event>
 5   0  0.6393633E-06  0.2967373E+04  0.7818609E-02  0.8253109E-01
        2   -1    0    0  501    0  0.00000000000E+00  0.00000000000E+00  0.24833406565E+04  0.24833406565E+04  0.25500000920E-02 0.  1.
       -2   -1    0    0    0  501  0.00000000000E+00  0.00000000000E+00 -0.88643746206E+03  0.88643746207E+03  0.25500000920E-02 0. -1.
    10030    2    1    2    0    0  0.00000000000E+00  0.00000000000E+00  0.15969031945E+04  0.33697781186E+04  0.29673733766E+04 0.  0.
        4    1    3    3  502    0 -0.34985232808E+03 -0.10848253690E+04  0.18770308968E+04  0.21960166969E+04  0.12699999809E+01 0.  1.
       -4    1    3    3    0  502  0.34985232808E+03  0.10848253690E+04 -0.28012770231E+03  0.11737614217E+04  0.12699999809E+01 0. -1.
</event>
<event>
 5   0  0.2429358E-06  0.2895239E+04  0.7818609E-02  0.8274295E-01
       -1   -1    0    0    0  501  0.00000000000E+00  0.00000000000E+00  0.12923454275E+04  0.12923454275E+04  0.50400001928E-02 0. -1.
        1   -1    0    0  501    0  0.00000000000E+00  0.00000000000E+00 -0.16215496100E+04  0.16215496100E+04  0.50400001928E-02 0.  1.
    10030    2    1    2    0    0  0.00000000000E+00  0.00000000000E+00 -0.32920418256E+03  0.29138950375E+04  0.28952390050E+04 0.  0.
        2    1    3    3  502    0 -0.76752152027E+03 -0.11616372628E+04  0.23432533798E+03  0.14118777491E+04  0.25500000920E-02 0.  1.
       -2    1    3    3    0  502  0.76752152027E+03  0.11616372628E+04 -0.56352952054E+03  0.15020172885E+04  0.25500000920E-02 0. -1.
</event>
<event>
 5   0  0.6513041E-06  0.2905239E+04  0.7818609E-02  0.8271320E-01
       -2   -1    0    0    0  501  0.00000000000E+00  0.00000000000E+00  0.93810075113E+03  0.93810075113E+03  0.25500000920E-02 0.  1.
        2   -1    0    0  501    0  0.00000000000E+00  0.00000000000E+00 -0.22493355817E+04  0.22493355817E+04  0.25500000920E-02 0. -1.
    10030    2    1    2    0    0  0.00000000000E+00  0.00000000000E+00 -0.13112348305E+04  0.31874363328E+04  0.29052389910E+04 0.  0.
        1    1    3    3  502    0 -0.31341418126E+03 -0.85466714464E+03  0.58633580470E+03  0.10828084101E+04  0.50400001928E-02 0.  1.
       -1    1    3    3    0  502  0.31341418126E+03  0.85466714464E+03 -0.18975706352E+04  0.21046279227E+04  0.50400001928E-02 0. -1.
</event>
<event>
 5   0  0.2474769E-06  0.2880943E+04  0.7818609E-02  0.8278570E-01
       -1   -1    0    0    0  501  0.00000000000E+00  0.00000000000E+00  0.14886685868E+04  0.14886685868E+04  0.50400001928E-02 0. -1.
        1   -1    0    0  501    0  0.00000000000E+00  0.00000000000E+00 -0.13938344044E+04  0.13938344044E+04  0.50400001928E-02 0.  1.
    10030    2    1    2    0    0  0.00000000000E+00  0.00000000000E+00  0.94834182345E+02  0.28825029912E+04  0.28809425493E+04 0.  0.
        1    1    3    3  502    0  0.26448195182E+03  0.69750914361E+03 -0.11855197224E+04  0.14006879455E+04  0.50400001928E-02 0.  1.
       -1    1    3    3    0  502 -0.26448195182E+03 -0.69750914361E+03  0.12803539048E+04  0.14818150457E+04  0.50400001928E-02 0. -1.
</event>
<event>
 5   0  0.2348684E-06  0.2943158E+04  0.7818609E-02  0.8260151E-01
        1   -1    0    0  501    0  0.00000000000E+00  0.00000000000E+00  0.23591247542E+04  0.23591247542E+04  0.50400001928E-02 0. -1.
       -1   -1    0    0    0  501  0.00000000000E+00  0.00000000000E+00 -0.91794427371E+03  0.91794427372E+03  0.50400001928E-02 0.  1.
    10030    2    1    2    0    0  0.00000000000E+00  0.00000000000E+00  0.14411804804E+04  0.32770690279E+04  0.29431582078E+04 0.  0.
        5    1    3    3  502    0  0.97706148352E+03  0.77741969148E+03  0.15877211768E+04  0.20198789925E+04  0.46999998093E+01 0. -1.
       -5    1    3    3    0  502 -0.97706148352E+03 -0.77741969148E+03 -0.14654069635E+03  0.12571900353E+04  0.46999998093E+01 0.  1.
</event>
<event>
 5   0  0.6513041E-06  0.2908738E+04  0.7818609E-02  0.8270282E-01
        2   -1    0    0  501    0  0.00000000000E+00  0.00000000000E+00  0.15424785079E+04  0.15424785079E+04  0.25500000920E-02 0.  1.
       -2   -1    0    0    0  501  0.00000000000E+00  0.00000000000E+00 -0.13712926213E+04  0.13712926213E+04  0.25500000920E-02 0. -1.
    10030    2    1    2    0    0  0.00000000000E+00  0.00000000000E+00  0.17118588663E+03  0.29137711292E+04  0.29087381431E+04 0.  0.
        1    1    3    3  502    0 -0.74423101880E+03  0.31421377635E+03 -0.11258710747E+04  0.13857112915E+04  0.50400001928E-02 0. -1.
       -1    1    3    3    0  502  0.74423101880E+03 -0.31421377635E+03  0.12970569613E+04  0.15280598377E+04  0.50400001928E-02 0.  1.
</event>
<event>
 5   0  0.2348684E-06  0.2913415E+04  0.7818609E-02  0.8268897E-01
        1   -1    0    0  501    0  0.00000000000E+00  0.00000000000E+00  0.19123014531E+04  0.19123014531E+04  0.50400001928E-02 0.  1.
       -1   -1    0    0    0  501  0.00000000000E+00  0.00000000000E+00 -0.11096563296E+04  0.11096563296E+04  0.50400001928E-02 0. -1.
    10030    2    1    2    0    0  0.00000000000E+00  0.00000000000E+00  0.80264512343E+03  0.30219577827E+04  0.29134154606E+04 0.  0.
        5    1    3    3  502    0 -0.31484478273E+03  0.13119270837E+04  0.97105418363E+03  0.16623020867E+04  0.46999998093E+01 0.  1.
       -5    1    3    3    0  502  0.31484478273E+03 -0.13119270837E+04 -0.16840906020E+03  0.13596556960E+04  0.46999998093E+01 0. -1.
</event>
<event>
 5   0  0.2508094E-06  0.2888771E+04  0.7818609E-02  0.8276226E-01
        1   -1    0    0  501    0  0.00000000000E+00  0.00000000000E+00  0.20421693960E+04  0.20421693960E+04  0.50400001928E-02 0. -1.
       -1   -1    0    0    0  501  0.00000000000E+00  0.00000000000E+00 -0.10215849714E+04  0.10215849714E+04  0.50400001928E-02 0.  1.
    10030    2    1    2    0    0  0.00000000000E+00  0.00000000000E+00  0.10205844246E+04  0.30637543674E+04  0.28887710632E+04 0.  0.
        3    1    3    3  502    0  0.10823234485E+04  0.56274829262E+03  0.13305345699E+04  0.18051127222E+04  0.10100000352E+00 0. -1.
       -3    1    3    3    0  502 -0.10823234485E+04 -0.56274829262E+03 -0.30995014534E+03  0.12586416451E+04  0.10100000352E+00 0.  1.
</event>
<event>
 5   0  0.2336512E-06  0.2931311E+04  0.7818609E-02  0.8263622E-01
        1   -1    0    0  501    0  0.00000000000E+00  0.00000000000E+00  0.15460293686E+04  0.15460293686E+04  0.50400001928E-02 0.  1.
       -1   -1    0    0    0  501  0.00000000000E+00  0.00000000000E+00 -0.13894599033E+04  0.13894599033E+04  0.50400001928E-02 0. -1.
    10030    2    1    2    0    0  0.00000000000E+00  0.00000000000E+00  0.15656946527E+03  0.29354892718E+04  0.29313108446E+04 0.  0.
        4    1    3    3  502    0 -0.92528864682E+03 -0.89526290668E+03 -0.62306309956E+03  0.14303370201E+04  0.12699999809E+01 0. -1.
       -4    1    3    3    0  502  0.92528864682E+03  0.89526290668E+03  0.77963256484E+03  0.15051522518E+04  0.12699999809E+01 0.  1.
</event>
<event>
 5   0  0.6733688E-06  0.2867394E+04  0.7818609E-02  0.8282645E-01
       -2   -1    0    0    0  501  0.00000000000E+00  0.00000000000E+00  0.17867229634E+04  0.17867229634E+04  0.25500000920E-02 0. -1.
        2   -1    0    0  501    0  0.00000000000E+00  0.00000000000E+00 -0.11504233164E+04  0.11504233164E+04  0.25500000920E-02 0.  1.
    10030    2    1    2    0    0  0.00000000000E+00  0.00000000000E+00  0.63629964704E+03  0.29371462798E+04  0.28673944668E+04 0.  0.
        5    1    3    3  502    0  0.20042077350E+03  0.77399320386E+03  0.15371542686E+04  0.17326567177E+04  0.46999998093E+01 0. -1.
       -5    1    3    3    0  502 -0.20042077350E+03 -0.77399320386E+03 -0.90085462153E+03  0.12044895621E+04  0.46999998093E+01 0.  1.
</event>
<event>
 5   0  0.6513041E-06  0.2892934E+04  0.7818609E-02  0.8274983E-01
       -2   -1    0    0    0  501  0.00000000000E+00  0.00000000000E+00  0.18953377611E+04  0.18953377611E+04  0.25500000920E-02 0.  1.
        2   -1    0    0  501    0  0.00000000000E+00  0.00000000000E+00 -0.11039015471E+04  0.11039015471E+04  0.25500000920E-02 0. -1.
    10030    2    1    2    0    0  0.00000000000E+00  0.00000000000E+00  0.79143621399E+03  0.29992393082E+04  0.28929336576E+04 0.  0.
        1    1    3    3  502    0  0.52039848001E+02 -0.13056713076E+04 -0.24738293921E+03  0.13299188050E+04  0.50400001928E-02 0. -1.
       -1    1    3    3    0  502 -0.52039848001E+02  0.13056713076E+04  0.10388191532E+04  0.16693205032E+04  0.50400001928E-02 0.  1.
</event>
<event>
 5   0  0.2429358E-06  0.2909816E+04  0.7818609E-02  0.8269963E-01
        1   -1    0    0  501    0  0.00000000000E+00  0.00000000000E+00  0.72324945831E+03  0.72324945833E+03  0.50400001928E-02 0.  1.
       -1   -1    0    0    0  501  0.00000000000E+00  0.00000000000E+00 -0.29267313414E+04  0.29267313414E+04  0.50400001928E-02 0. -1.
    10030    2    1    2    0    0  0.00000000000E+00  0.00000000000E+00 -0.22034818831E+04  0.36499807998E+04  0.29098157037E+04 0.  0.
        2    1    3    3  502    0 -0.19473510048E+03 -0.13582518140E+04 -0.49497518742E+03  0.14586878301E+04  0.25500000920E-02 0.  1.
       -2    1    3    3    0  502  0.19473510048E+03  0.13582518140E+04 -0.17085066957E+04  0.21912929696E+04  0.25500000920E-02 0. -1.
</event>
<event>
 5   0  0.2348684E-06  0.2343486E+04  0.7818609E-02  0.8460970E-01
       -1   -1    0    0    0  501  0.00000000000E+00  0.00000000000E+00  0.63006056506E+03  0.63006056508E+03  0.50400001928E-02 0. -1.
        1   -1    0    0  501    0  0.00000000000E+00  0.00000000000E+00 -0.21791259787E+04  0.21791259787E+04  0.50400001928E-02 0.  1.
    10030    2    1    2    0    0  0.00000000000E+00  0.00000000000E+00 -0.15490654137E+04  0.28091865438E+04  0.23434857333E+04 0.  0.
        5    1    3    3  502    0 -0.93684111273E+03 -0.46896800189E+03 -0.14035554160E+04  0.17514542966E+04  0.46999998093E+01 0. -1.
       -5    1    3    3    0  502  0.93684111273E+03  0.46896800189E+03 -0.14550999761E+03  0.10577322472E+04  0.46999998093E+01 0.  1.
</event>
<event>
 5   0  0.6612533E-06  0.2914206E+04  0.7818609E-02  0.8268663E-01
       -2   -1    0    0    0  501  0.00000000000E+00  0.00000000000E+00  0.11286520293E+04  0.11286520293E+04  0.25500000920E-02 0.  1.
        2   -1    0    0  501    0  0.00000000000E+00  0.00000000000E+00 -0.18811366722E+04  0.18811366722E+04  0.25500000920E-02 0. -1.
    10030    2    1    2    0    0  0.00000000000E+00  0.00000000000E+00 -0.75248464289E+03  0.30097887016E+04  0.29142057049E+04 0.  0.
        3    1    3    3  502    0  0.82049800524E+03 -0.80565081476E+03 -0.13005013430E+04  0.17359706119E+04  0.10100000352E+00 0. -1.
       -3    1    3    3    0  502 -0.82049800524E+03  0.80565081476E+03  0.54801670010E+03  0.12738180897E+04  0.10100000352E+00 0.  1.
</event>
<event>
 5   0  0.6513041E-06  0.2899495E+04  0.7818609E-02  0.8273028E-01
        2   -1    0    0  501    0  0.00000000000E+00  0.00000000000E+00  0.19095015838E+04  0.19095015838E+04  0.25500000920E-02 0. -1.
       -2   -1    0    0    0  501  0.00000000000E+00  0.00000000000E+00 -0.11006893788E+04  0.11006893788E+04  0.25500000920E-02 0.  1.
    10030    2    1    2    0    0  0.00000000000E+00  0.00000000000E+00  0.80881220492E+03  0.30101909626E+04  0.28994952058E+04 0.  0.
        1    1    3    3  502    0 -0.72311598916E+03 -0.80778550584E+03  0.14036238348E+04  0.17735766200E+04  0.50400001928E-02 0. -1.
       -1    1    3    3    0  502  0.72311598916E+03  0.80778550584E+03 -0.59481162992E+03  0.12366143426E+04  0.50400001928E-02 0.  1.
</event>
<event>
 5   0  0.2159500E-06  0.2887168E+04  0.7818609E-02  0.8276706E-01
       -3   -1    0    0    0  501  0.00000000000E+00  0.00000000000E+00  0.12488679587E+04  0.12488679628E+04  0.10100000352E+00 0.  1.
        3   -1    0    0  501    0  0.00000000000E+00  0.00000000000E+00 -0.16686591849E+04  0.16686591879E+04  0.10100000352E+00 0. -1.
    10030    2    1    2    0    0  0.00000000000E+00  0.00000000000E+00 -0.41979122612E+03  0.29175271507E+04  0.28871681631E+04 0.  0.
        4    1    3    3  502    0 -0.11663340421E+04  0.71233828057E+03 -0.67972806682E+03  0.15263658740E+04  0.12699999809E+01 0. -1.
       -4    1    3    3    0  502  0.11663340421E+04 -0.71233828057E+03  0.25993684070E+03  0.13911612767E+04  0.12699999809E+01 0.  1.
</event>
<event>
 5   0  0.2429358E-06  0.2922697E+04  0.7818609E-02  0.8266156E-01
        1   -1    0    0  501    0  0.00000000000E+00  0.00000000000E+00  0.20424676187E+04  0.20424676187E+04  0.50400001928E-02 0. -1.
       -1   -1    0    0    0  501  0.00000000000E+00  0.00000000000E+00 -0.10455683372E+04  0.10455683372E+04  0.50400001928E-02 0.  1.
    10030    2    1    2    0    0  0.00000000000E+00  0.00000000000E+00  0.99689928149E+03  0.30880359559E+04  0.29226970228E+04 0.  0.
        2    1    3    3  502    0  0.71178972074E+03 -0.70200350605E+03 -0.62772085285E+03  0.11804605026E+04  0.25500000920E-02 0.  1.
       -2    1    3    3    0  502 -0.71178972074E+03  0.70200350605E+03  0.16246201343E+04  0.19075754533E+04  0.25500000920E-02 0. -1.
</event>
<event>
 5   0  0.2348684E-06  0.2931912E+04  0.7818609E-02  0.8263446E-01
       -1   -1    0    0    0  501  0.00000000000E+00  0.00000000000E+00  0.11313854049E+04  0.11313854049E+04  0.50400001928E-02 0. -1.
        1   -1    0    0  501    0  0.00000000000E+00  0.00000000000E+00 -0.18994648783E+04  0.18994648783E+04  0.50400001928E-02 0.  1.
    10030    2    1    2    0    0  0.00000000000E+00  0.00000000000E+00 -0.76807947337E+03  0.30308502832E+04  0.29319118953E+04 0.  0.
        5    1    3    3  502    0 -0.12951908739E+04  0.64691561062E+03 -0.14608614498E+03  0.14551228329E+04  0.46999998093E+01 0. -1.
       -5    1    3    3    0  502  0.12951908739E+04 -0.64691561062E+03 -0.62199332839E+03  0.15757274503E+04  0.46999998093E+01 0.  1.
</event>
<event>
 5   0  0.2429358E-06  0.2895942E+04  0.7818609E-02  0.8274086E-01
        1   -1    0    0  501    0  0.00000000000E+00  0.00000000000E+00  0.15404262677E+04  0.15404262677E+04  0.50400001928E-02 0. -1.
       -1   -1    0    0    0  501  0.00000000000E+00  0.00000000000E+00 -0.13610644524E+04  0.13610644524E+04  0.50400001928E-02 0.  1.
    10030    2    1    2    0    0  0.00000000000E+00  0.00000000000E+00  0.17936181537E+03  0.29014907201E+04  0.28959415979E+04 0.  0.
        2    1    3    3  502    0  0.98434770966E+03 -0.83508098597E+03 -0.56756294163E+03  0.14101164347E+04  0.25500000920E-02 0.  1.
       -2    1    3    3    0  502 -0.98434770966E+03  0.83508098597E+03  0.74692475700E+03  0.14913742854E+04  0.25500000920E-02 0. -1.
</event>
<event>
 5   0  0.2348684E-06  0.2880637E+04  0.7818609E-02  0.8278662E-01
        1   -1    0    0  501    0  0.00000000000E+00  0.00000000000E+00  0.19338090925E+04  0.19338090925E+04  0.50400001928E-02 0. -1.
       -1   -1    0    0    0  501  0.00000000000E+00  0.00000000000E+00 -0.10727619417E+04  0.10727619417E+04  0.50400001928E-02 0.  1.
    10030    2    1    2    0    0  0.00000000000E+00  0.00000000000E+00  0.86104715079E+03  0.30065710342E+04  0.28806365942E+04 0.  0.
        5    1    3    3  502    0  0.48421659606E+03  0.67583177172E+03  0.16580705184E+04  0.18548407559E+04  0.46999998093E+01 0. -1.
       -5    1    3    3    0  502 -0.48421659606E+03 -0.67583177172E+03 -0.79702336763E+03  0.11517302784E+04  0.46999998093E+01 0.  1.
</event>
<event>
 5   0  0.2429358E-06  0.3036803E+04  0.7818609E-02  0.8233299E-01
       -1   -1    0    0    0  501  0.00000000000E+00  0.00000000000E+00  0.10961502609E+04  0.10961502609E+04  0.50400001928E-02 0. -1.
        1   -1    0    0  501    0  0.00000000000E+00  0.00000000000E+00 -0.21033091906E+04  0.21033091906E+04  0.50400001928E-02 0.  1.
    10030    2    1    2    0    0  0.00000000000E+00  0.00000000000E+00 -0.10071589297E+04  0.31994594515E+04  0.30368028702E+04 0.  0.
        2    1    3    3  502    0 -0.80984111071E+03  0.72639517080E+03 -0.16195845716E+04  0.19510373532E+04  0.25500000920E-02 0.  1.
       -2    1    3    3    0  502  0.80984111071E+03 -0.72639517080E+03  0.61242564194E+03  0.12484220984E+04  0.25500000920E-02 0. -1.
</event>
<event>
 5   0  0.6612533E-06  0.2987127E+04  0.7818609E-02  0.8247416E-01
        2   -1    0    0  501    0  0.00000000000E+00  0.00000000000E+00  0.20528074585E+04  0.20528074585E+04  0.25500000920E-02 0.  1.
       -2   -1    0    0    0  501  0.00000000000E+00  0.00000000000E+00 -0.10866739599E+04  0.10866739599E+04  0.25500000920E-02 0. -1.
    10030    2    1    2    0    0  0.00000000000E+00  0.00000000000E+00  0.96613349861E+03  0.31394814184E+04  0.29871273222E+04 0.  0.
        3    1    3    3  502    0  0.70548518447E+03 -0.10256832403E+04 -0.38424806494E+03  0.13028361526E+04  0.10100000352E+00 0. -1.
       -3    1    3    3    0  502 -0.70548518447E+03  0.10256832403E+04  0.13503815636E+04  0.18366452658E+04  0.10100000352E+00 0.  1.
</event>
<event>
 5   0  0.6615403E-06  0.2833969E+04  0.7818609E-02  0.8292799E-01
        2   -1    0    0  501    0  0.00000000000E+00  0.00000000000E+00  0.24177787774E+04  0.24177787774E+04  0.25500000920E-02 0.  1.
       -2   -1    0    0    0  501  0.00000000000E+00  0.00000000000E+00 -0.83045021795E+03  0.83045021795E+03  0.25500000920E-02 0. -1.
    10030    2    1    2    0    0  0.00000000000E+00  0.00000000000E+00  0.15873285595E+04  0.32482289954E+04  0.28339688867E+04 0.  0.
        2    1    3    3  502    0 -0.18899162450E+03 -0.83833855930E+03 -0.49766309921E+03  0.99307498934E+03  0.25500000920E-02 0. -1.
       -2    1    3    3    0  502  0.18899162450E+03  0.83833855930E+03  0.20849916587E+04  0.22551540061E+04  0.25500000920E-02 0.  1.
</event>
<event>
 5   0  0.6513041E-06  0.2721394E+04  0.7818609E-02  0.8328096E-01
        2   -1    0    0  501    0  0.00000000000E+00  0.00000000000E+00  0.14780989657E+04  0.14780989657E+04  0.25500000920E-02 0.  1.
       -2   -1    0    0    0  501  0.00000000000E+00  0.00000000000E+00 -0.12526203579E+04  0.12526203579E+04  0.25500000920E-02 0. -1.
    10030    2    1    2    0    0  0.00000000000E+00  0.00000000000E+00  0.22547860780E+03  0.27307193235E+04  0.27213943892E+04 0.  0.
        1    1    3    3  502    0  0.25931283906E+03 -0.13343291511E+04  0.17475255070E+03  0.13704801663E+04  0.50400001928E-02 0.  1.
       -1    1    3    3    0  502 -0.25931283906E+03  0.13343291511E+04  0.50726057095E+02  0.13602391573E+04  0.50400001928E-02 0. -1.
</event>
<event>
 5   0  0.2429358E-06  0.2863410E+04  0.7818609E-02  0.8283848E-01
        1   -1    0    0  501    0  0.00000000000E+00  0.00000000000E+00  0.14344502561E+04  0.14344502561E+04  0.50400001928E-02 0. -1.
       -1   -1    0    0    0  501  0.00000000000E+00  0.00000000000E+00 -0.14289645148E+04  0.14289645148E+04  0.50400001928E-02 0.  1.
    10030    2    1    2    0    0  0.00000000000E+00  0.00000000000E+00  0.54857412655E+01  0.28634147709E+04  0.28634095161E+04 0.  0.
        2    1    3    3  502    0 -0.94422063942E+03 -0.23461182688E+03 -0.10475843346E+04  0.14296951645E+04  0.25500000920E-02 0.  1.
       -2    1    3    3    0  502  0.94422063942E+03  0.23461182688E+03  0.10530700759E+04  0.14337196064E+04  0.25500000920E-02 0. -1.
</event>
<event>
 5   0  0.6393633E-06  0.2913254E+04  0.7818609E-02  0.8268945E-01
       -2   -1    0    0    0  501  0.00000000000E+00  0.00000000000E+00  0.14856271040E+04  0.14856271040E+04  0.25500000920E-02 0.  1.
        2   -1    0    0  501    0  0.00000000000E+00  0.00000000000E+00 -0.14281930988E+04  0.14281930988E+04  0.25500000920E-02 0. -1.
    10030    2    1    2    0    0  0.00000000000E+00  0.00000000000E+00  0.57434005201E+02  0.29138202029E+04  0.29132541100E+04 0.  0.
        4    1    3    3  502    0 -0.51718193055E+03 -0.76947377277E+03 -0.10949752620E+04  0.14347611208E+04  0.12699999809E+01 0. -1.
       -4    1    3    3    0  502  0.51718193055E+03  0.76947377277E+03  0.11524092672E+04  0.14790590821E+04  0.12699999809E+01 0.  1.
</event>
<event>
 5   0  0.2474769E-06  0.2916292E+04  0.7818609E-02  0.8268046E-01
        1   -1    0    0  501    0  0.00000000000E+00  0.00000000000E+00  0.16953898543E+04  0.16953898543E+04  0.50400001928E-02 0. -1.
       -1   -1    0    0    0  501  0.00000000000E+00  0.00000000000E+00 -0.12541010615E+04  0.12541010615E+04  0.50400001928E-02 0.  1.
    10030    2    1    2    0    0  0.00000000000E+00  0.00000000000E+00  0.44128879279E+03  0.29494909158E+04  0.29162923145E+04 0.  0.
        1    1    3    3  502    0  0.91491454527E+03 -0.57142047222E+03  0.12129352567E+04  0.16232072936E+04  0.50400001928E-02 0. -1.
       -1    1    3    3    0  502 -0.91491454527E+03  0.57142047222E+03 -0.77164646388E+03  0.13262836222E+04  0.50400001928E-02 0.  1.
</event>
<event>
 5   0  0.2336512E-06  0.2904879E+04  0.7818609E-02  0.8271427E-01
       -1   -1    0    0    0  501  0.00000000000E+00  0.00000000000E+00  0.13957134017E+04  0.13957134018E+04  0.50400001928E-02 0. -1.
        1   -1    0    0  501    0  0.00000000000E+00  0.00000000000E+00 -0.15114709074E+04  0.15114709074E+04  0.50400001928E-02 0.  1.
    10030    2    1    2    0    0  0.00000000000E+00  0.00000000000E+00 -0.11575750561E+03  0.29071843091E+04  0.29048787939E+04 0.  0.
        4    1    3    3  502    0  0.14799906777E+03  0.91586888379E+03  0.10605318172E+04  0.14090595746E+04  0.12699999809E+01 0. -1.
       -4    1    3    3    0  502 -0.14799906777E+03 -0.91586888379E+03 -0.11762893228E+04  0.14981247346E+04  0.12699999809E+01 0.  1.
</event>
<event>
 5   0  0.6612533E-06  0.2913264E+04  0.7818609E-02  0.8268942E-01
       -2   -1    0    0    0  501  0.00000000000E+00  0.00000000000E+00  0.14006799260E+04  0.14006799260E+04  0.25500000920E-02 0.  1.
        2   -1    0    0  501    0  0.00000000000E+00  0.00000000000E+00 -0.15148194035E+04  0.15148194035E+04  0.25500000920E-02 0. -1.
    10030    2    1    2    0    0  0.00000000000E+00  0.00000000000E+00 -0.11413947747E+03  0.29154993295E+04  0.29132642380E+04 0.  0.
        3    1    3    3  502    0  0.32678408525E+03 -0.11865772856E+04 -0.83678469685E+03  0.14882748846E+04  0.10100000352E+00 0. -1.
       -3    1    3    3    0  502 -0.32678408525E+03  0.11865772856E+04  0.72264521938E+03  0.14272244450E+04  0.10100000352E+00 0.  1.
</event>
<event>
 5   0  0.2348684E-06  0.2861530E+04  0.7818609E-02  0.8284416E-01
        1   -1    0    0  501    0  0.00000000000E+00  0.00000000000E+00  0.25280802046E+04  0.25280802047E+04  0.50400001928E-02 0. -1.
       -1   -1    0    0    0  501  0.00000000000E+00  0.00000000000E+00 -0.80974021835E+03  0.80974021837E+03  0.50400001928E-02 0.  1.
    10030    2    1    2    0    0  0.00000000000E+00  0.00000000000E+00  0.17183399863E+04  0.33378204230E+04  0.28615298125E+04 0.  0.
        5    1    3    3  502    0 -0.46663964106E+03  0.13109309422E+04  0.12473944585E+04  0.18687716594E+04  0.46999998093E+01 0.  1.
       -5    1    3    3    0  502  0.46663964106E+03 -0.13109309422E+04  0.47094552776E+03  0.14690487636E+04  0.46999998093E+01 0. -1.
</event>
<event>
 5   0  0.6612533E-06  0.2905080E+04  0.7818609E-02  0.8271368E-01
       -2   -1    0    0    0  501  0.00000000000E+00  0.00000000000E+00  0.10215858577E+04  0.10215858577E+04  0.25500000920E-02 0. -1.
        2   -1    0    0  501    0  0.00000000000E+00  0.00000000000E+00 -0.20652917667E+04  0.20652917667E+04  0.25500000920E-02 0.  1.
    10030    2    1    2    0    0  0.00000000000E+00  0.00000000000E+00 -0.10437059090E+04  0.30868776244E+04  0.29050802817E+04 0.  0.
        3    1    3    3  502    0  0.27621860236E+03 -0.71587157499E+03 -0.18323641383E+04  0.19865364768E+04  0.10100000352E+00 0.  1.
       -3    1    3    3    0  502 -0.27621860236E+03  0.71587157499E+03  0.78865822932E+03  0.11003411476E+04  0.10100000352E+00 0. -1.
</event>
<event>
 5   0  0.2336512E-06  0.2903288E+04  0.7818609E-02  0.8271900E-01
       -1   -1    0    0    0  501  0.00000000000E+00  0.00000000000E+00  0.19928274952E+04  0.19928274952E+04  0.50400001928E-02 0. -1.
        1   -1    0    0  501    0  0.00000000000E+00  0.00000000000E+00 -0.10574275973E+04  0.10574275973E+04  0.50400001928E-02 0.  1.
    10030    2    1    2    0    0  0.00000000000E+00  0.00000000000E+00  0.93539989793E+03  0.30502550926E+04  0.29032883358E+04 0.  0.
        4    1    3    3  502    0 -0.47387318918E+03 -0.45111591139E+03 -0.89373913665E+03  0.11076247660E+04  0.12699999809E+01 0.  1.
       -4    1    3    3    0  502  0.47387318918E+03  0.45111591139E+03  0.18291390346E+04  0.19426303266E+04  0.12699999809E+01 0. -1.
</event>
<event>
 5   0  0.2348684E-06  0.2873351E+04  0.7818609E-02  0.8280851E-01
        1   -1    0    0  501    0  0.00000000000E+00  0.00000000000E+00  0.15954843399E+04  0.15954843399E+04  0.50400001928E-02 0. -1.
       -1   -1    0    0    0  501  0.00000000000E+00  0.00000000000E+00 -0.12936736920E+04  0.12936736920E+04  0.50400001928E-02 0.  1.
    10030    2    1    2    0    0  0.00000000000E+00  0.00000000000E+00  0.30181064788E+03  0.28891580319E+04  0.28733507384E+04 0.  0.
        5    1    3    3  502    0  0.10389026609E+04 -0.96103013054E+02 -0.84218163043E+03  0.13408379904E+04  0.46999998093E+01 0.  1.
       -5    1    3    3    0  502 -0.10389026609E+04  0.96103013054E+02  0.11439922783E+04  0.15483200415E+04  0.46999998093E+01 0. -1.
</event>
<event>
 5   0  0.6733688E-06  0.2793536E+04  0.7818609E-02  0.8305278E-01
       -2   -1    0    0    0  501  0.00000000000E+00  0.00000000000E+00  0.19844096191E+04  0.19844096191E+04  0.25500000920E-02 0. -1.
        2   -1    0    0  501    0  0.00000000000E+00  0.00000000000E+00 -0.98314398581E+03  0.98314398581E+03  0.25500000920E-02 0.  1.
    10030    2    1    2    0    0  0.00000000000E+00  0.00000000000E+00  0.10012656333E+04  0.29675536049E+04  0.27935356682E+04 0.  0.
        5    1    3    3  502    0  0.12663395070E+04  0.20293763733E+03  0.10883976292E+04  0.16820912344E+04  0.46999998093E+01 0. -1.
       -5    1    3    3    0  502 -0.12663395070E+04 -0.20293763733E+03 -0.87131995844E+02  0.12854623706E+04  0.46999998093E+01 0.  1.
</event>
<event>
 5   0  0.2474769E-06  0.2902209E+04  0.7818609E-02  0.8272220E-01
       -1   -1    0    0    0  501  0.00000000000E+00  0.00000000000E+00  0.79282934819E+03  0.79282934820E+03  0.50400001928E-02 0.  1.
        1   -1    0    0  501    0  0.00000000000E+00  0.00000000000E+00 -0.26559367702E+04  0.26559367702E+04  0.50400001928E-02 0. -1.
    10030    2    1    2    0    0  0.00000000000E+00  0.00000000000E+00 -0.18631074220E+04  0.34487661184E+04  0.29022092401E+04 0.  0.
        1    1    3    3  502    0 -0.52901773144E+02  0.32620526391E+03  0.74751806264E+03  0.81730760782E+03  0.50400001928E-02 0.  1.
       -1    1    3    3    0  502  0.52901773144E+02 -0.32620526391E+03 -0.26106254846E+04  0.26314585106E+04  0.50400001928E-02 0. -1.
</event>
<event>
 5   0  0.6733688E-06  0.2930931E+04  0.7818609E-02  0.8263734E-01
       -2   -1    0    0    0  501  0.00000000000E+00  0.00000000000E+00  0.11534523995E+04  0.11534523995E+04  0.25500000920E-02 0.  1.
        2   -1    0    0  501    0  0.00000000000E+00  0.00000000000E+00 -0.18618793412E+04  0.18618793412E+04  0.25500000920E-02 0. -1.
    10030    2    1    2    0    0  0.00000000000E+00  0.00000000000E+00 -0.70842694176E+03  0.30153317407E+04  0.29309310423E+04 0.  0.
        5    1    3    3  502    0  0.41591003367E+03  0.33304130272E+03 -0.17586882357E+04  0.18376354551E+04  0.46999998093E+01 0. -1.
       -5    1    3    3    0  502 -0.41591003367E+03 -0.33304130272E+03  0.10502612940E+04  0.11776962856E+04  0.46999998093E+01 0.  1.
</event>
<event>
 5   0  0.2429358E-06  0.2917605E+04  0.7818609E-02  0.8267659E-01
        1   -1    0    0  501    0  0.00000000000E+00  0.00000000000E+00  0.19977138967E+04  0.19977138968E+04  0.50400001928E-02 0.  1.
       -1   -1    0    0    0  501  0.00000000000E+00  0.00000000000E+00 -0.10652699603E+04  0.10652699603E+04  0.50400001928E-02 0. -1.
    10030    2    1    2    0    0  0.00000000000E+00  0.00000000000E+00  0.93244393641E+03  0.30629838571E+04  0.29176049106E+04 0.  0.
        2    1    3    3  502    0 -0.11126106689E+04  0.44193093388E+03 -0.40892122198E+03  0.12650778698E+04  0.25500000920E-02 0. -1.
       -2    1    3    3    0  502  0.11126106689E+04 -0.44193093388E+03  0.13413651584E+04  0.17979059873E+04  0.25500000920E-02 0.  1.
</event>
<event>
 5   0  0.2508094E-06  0.2931013E+04  0.7818609E-02  0.8263709E-01
        1   -1    0    0  501    0  0.00000000000E+00  0.00000000000E+00  0.20885937584E+04  0.20885937584E+04  0.50400001928E-02 0. -1.
       -1   -1    0    0    0  501  0.00000000000E+00  0.00000000000E+00 -0.10283042716E+04  0.10283042716E+04  0.50400001928E-02 0.  1.
    10030    2    1    2    0    0  0.00000000000E+00  0.00000000000E+00  0.10602894868E+04  0.31168980300E+04  0.29310133970E+04 0.  0.
        3    1    3    3  502    0  0.90041819485E+03  0.93626832050E+03 -0.19138279546E+03  0.13130036855E+04  0.10100000352E+00 0.  1.
       -3    1    3    3    0  502 -0.90041819485E+03 -0.93626832050E+03  0.12516722823E+04  0.18038943445E+04  0.10100000352E+00 0. -1.
</event>
<event>
 5   0  0.2348684E-06  0.2893538E+04  0.7818609E-02  0.8274803E-01
       -1   -1    0    0    0  501  0.00000000000E+00  0.00000000000E+00  0.89232277416E+03  0.89232277418E+03  0.50400001928E-02 0.  1.
        1   -1    0    0  501    0  0.00000000000E+00  0.00000000000E+00 -0.23457211127E+04  0.23457211128E+04  0.50400001928E-02 0. -1.
    10030    2    1    2    0    0  0.00000000000E+00  0.00000000000E+00 -0.14533983386E+04  0.32380438869E+04  0.28935378835E+04 0.  0.
        5    1    3    3  502    0 -0.12693855043E+04 -0.65992281911E+03 -0.96744181273E+03  0.17270794529E+04  0.46999998093E+01 0. -1.
       -5    1    3    3    0  502  0.12693855043E+04  0.65992281911E+03 -0.48595652586E+03  0.15109644340E+04  0.46999998093E+01 0.  1.
</event>
<event>
 5   0  0.6615403E-06  0.2889650E+04  0.7818609E-02  0.8275963E-01
        2   -1    0    0  501    0  0.00000000000E+00  0.00000000000E+00  0.75797860641E+03  0.75797860641E+03  0.25500000920E-02 0. -1.
       -2   -1    0    0    0  501  0.00000000000E+00  0.00000000000E+00 -0.27540613744E+04  0.27540613744E+04  0.25500000920E-02 0.  1.
    10030    2    1    2    0    0  0.00000000000E+00  0.00000000000E+00 -0.19960827680E+04  0.35120399808E+04  0.28896502228E+04 0.  0.
        2    1    3    3  502    0  0.35733826775E+03 -0.10586356623E+04  0.11529417696E+03  0.11232510184E+04  0.25500000920E-02 0. -1.
       -2    1    3    3    0  502 -0.35733826775E+03  0.10586356623E+04 -0.21113769450E+04  0.23887889624E+04  0.25500000920E-02 0.  1.
</event>
<event>
 5   0  0.6513041E-06  0.2889613E+04  0.7818609E-02  0.8275975E-01
       -2   -1    0    0    0  501  0.00000000000E+00  0.00000000000E+00  0.97265249703E+03  0.97265249703E+03  0.25500000920E-02 0.  1.
        2   -1    0    0  501    0  0.00000000000E+00  0.00000000000E+00 -0.21461580715E+04  0.21461580716E+04  0.25500000920E-02 0. -1.
    10030    2    1    2    0    0  0.00000000000E+00  0.00000000000E+00 -0.11735055745E+04  0.31188105686E+04  0.28896131280E+04 0.  0.
        1    1    3    3  502    0 -0.11747874568E+04 -0.15392484097E+03  0.30565928488E+03  0.12236200487E+04  0.50400001928E-02 0.  1.
       -1    1    3    3    0  502  0.11747874568E+04  0.15392484097E+03 -0.14791648594E+04  0.18951905198E+04  0.50400001928E-02 0. -1.
</event>
<event>
 5   0  0.2474769E-06  0.2957858E+04  0.7818609E-02  0.8255868E-01
        1   -1    0    0  501    0  0.00000000000E+00  0.00000000000E+00  0.17752793794E+04  0.17752793795E+04  0.50400001928E-02 0. -1.
       -1   -1    0    0    0  501  0.00000000000E+00  0.00000000000E+00 -0.12320485470E+04  0.12320485470E+04  0.50400001928E-02 0.  1.
    10030    2    1    2    0    0  0.00000000000E+00  0.00000000000E+00  0.54323083249E+03  0.30073279264E+04  0.29578575895E+04 0.  0.
        1    1    3    3  502    0  0.11563310319E+04 -0.50385548846E+03 -0.51347711238E+03  0.13618482124E+04  0.50400001928E-02 0.  1.
       -1    1    3    3    0  502 -0.11563310319E+04  0.50385548846E+03  0.10567079449E+04  0.16454797141E+04  0.50400001928E-02 0. -1.
</event>
<event>
 5   0  0.2508094E-06  0.2904264E+04  0.7818609E-02  0.8271610E-01
        1   -1    0    0  501    0  0.00000000000E+00  0.00000000000E+00  0.15129691426E+04  0.15129691426E+04  0.50400001928E-02 0. -1.
       -1   -1    0    0    0  501  0.00000000000E+00  0.00000000000E+00 -0.13937414015E+04  0.13937414015E+04  0.50400001928E-02 0.  1.
    10030    2    1    2    0    0  0.00000000000E+00  0.00000000000E+00  0.11922774106E+03  0.29067105441E+04  0.29042642671E+04 0.  0.
        3    1    3    3  502    0  0.34991219757E+03 -0.10909695800E+04  0.95257306646E+03  0.14899827608E+04  0.10100000352E+00 0. -1.
       -3    1    3    3    0  502 -0.34991219757E+03  0.10909695800E+04 -0.83334532541E+03  0.14167277833E+04  0.10100000352E+00 0.  1.
</event>
<event>
 5   0  0.2508094E-06  0.2916178E+04  0.7818609E-02  0.8268080E-01
        1   -1    0    0  501    0  0.00000000000E+00  0.00000000000E+00  0.16744788366E+04  0.16744788366E+04  0.50400001928E-02 0. -1.
       -1   -1    0    0    0  501  0.00000000000E+00  0.00000000000E+00 -0.12696632323E+04  0.12696632324E+04  0.50400001928E-02 0.  1.
    10030    2    1    2    0    0  0.00000000000E+00  0.00000000000E+00  0.40481560424E+03  0.29441420689E+04  0.29161784665E+04 0.  0.
        3    1    3    3  502    0  0.74391240362E+03 -0.10694360700E+04  0.86361163021E+03  0.15629856782E+04  0.10100000352E+00 0. -1.
       -3    1    3    3    0  502 -0.74391240362E+03  0.10694360700E+04 -0.45879602597E+03  0.13811563908E+04  0.10100000352E+00 0.  1.
</event>
<event>
 5   0  0.2336512E-06  0.2912288E+04  0.7818609E-02  0.8269231E-01
       -1   -1    0    0    0  501  0.00000000000E+00  0.00000000000E+00  0.32175410114E+04  0.32175410114E+04  0.50400001928E-02 0. -1.
        1   -1    0    0  501    0  0.00000000000E+00  0.00000000000E+00 -0.65899862558E+03  0.65899862560E+03  0.50400001928E-02 0.  1.
    10030    2    1    2    0    0  0.00000000000E+00  0.00000000000E+00  0.25585423858E+04  0.38765396370E+04  0.29122878321E+04 0.  0.
        4    1    3    3  502    0 -0.44413342583E+03 -0.94076182011E+03 -0.76924797951E+02  0.10431712897E+04  0.12699999809E+01 0.  1.
       -4    1    3    3    0  502  0.44413342583E+03  0.94076182011E+03  0.26354671838E+04  0.28333683474E+04  0.12699999809E+01 0. -1.
</event>
<event>
 5   0  0.6513041E-06  0.2910224E+04  0.7818609E-02  0.8269842E-01
       -2   -1    0    0    0  501  0.00000000000E+00  0.00000000000E+00  0.80072522736E+03  0.80072522736E+03  0.25500000920E-02 0.  1.
        2   -1    0    0  501    0  0.00000000000E+00  0.00000000000E+00 -0.26442909276E+04  0.26442909276E+04  0.25500000920E-02 0. -1.
    10030    2    1    2    0    0  0.00000000000E+00  0.00000000000E+00 -0.18435657002E+04  0.34450161549E+04  0.29102236713E+04 0.  0.
        1    1    3    3  502    0  0.73158611467E+03 -0.53649441684E+03 -0.22685216364E+04  0.24432017758E+04  0.50400001928E-02 0. -1.
       -1    1    3    3    0  502 -0.73158611467E+03  0.53649441684E+03  0.42495593619E+03  0.10018143791E+04  0.50400001928E-02 0.  1.
</event>
<event>
 5   0  0.6612533E-06  0.2882050E+04  0.7818609E-02  0.8278238E-01
        2   -1    0    0  501    0  0.00000000000E+00  0.00000000000E+00  0.14136721378E+04  0.14136721378E+04  0.25500000920E-02 0.  1.
       -2   -1    0    0    0  501  0.00000000000E+00  0.00000000000E+00 -0.14689073235E+04  0.14689073236E+04  0.25500000920E-02 0. -1.
    10030    2    1    2    0    0  0.00000000000E+00  0.00000000000E+00 -0.55235185794E+02  0.28825794613E+04  0.28820502121E+04 0.  0.
        3    1    3    3  502    0 -0.35498435372E+03  0.51353093107E+03 -0.13266345363E+04  0.14661811320E+04  0.10100000352E+00 0. -1.
       -3    1    3    3    0  502  0.35498435372E+03 -0.51353093107E+03  0.12713993505E+04  0.14163983293E+04  0.10100000352E+00 0.  1.
</event>
<event>
 5   0  0.2508094E-06  0.2888413E+04  0.7818609E-02  0.8276333E-01
       -1   -1    0    0    0  501  0.00000000000E+00  0.00000000000E+00  0.13278818258E+04  0.13278818258E+04  0.50400001928E-02 0.  1.
        1   -1    0    0  501    0  0.00000000000E+00  0.00000000000E+00 -0.15707213677E+04  0.15707213677E+04  0.50400001928E-02 0. -1.
    10030    2    1    2    0    0  0.00000000000E+00  0.00000000000E+00 -0.24283954184E+03  0.28986031935E+04  0.28884129605E+04 0.  0.
        3    1    3    3  502    0  0.28116226023E+03 -0.74861531629E+03  0.10854265030E+04  0.13481942783E+04  0.10100000352E+00 0.  1.
       -3    1    3    3    0  502 -0.28116226023E+03  0.74861531629E+03 -0.13282660448E+04  0.15504089152E+04  0.10100000352E+00 0. -1.
</event>
<event>
 5   0  0.6393633E-06  0.2885951E+04  0.7818609E-02  0.8277070E-01
       -2   -1    0    0    0  501  0.00000000000E+00  0.00000000000E+00  0.97145005138E+03  0.97145005138E+03  0.25500000920E-02 0. -1.
        2   -1    0    0  501    0  0.00000000000E+00  0.00000000000E+00 -0.21433711555E+04  0.21433711555E+04  0.25500000920E-02 0.  1.
    10030    2    1    2    0    0  0.00000000000E+00  0.00000000000E+00 -0.11719211041E+04  0.31148212069E+04  0.28859508098E+04 0.  0.
        4    1    3    3  502    0  0.94757798979E+02  0.24818534874E+02  0.96785690813E+03  0.97280193649E+03  0.12699999809E+01 0. -1.
       -4    1    3    3    0  502 -0.94757798979E+02 -0.24818534874E+02 -0.21397780123E+04  0.21420192704E+04  0.12699999809E+01 0.  1.
</event>
<event>
 5   0  0.2508094E-06  0.2907387E+04  0.7818609E-02  0.8270683E-01
       -1   -1    0    0    0  501  0.00000000000E+00  0.00000000000E+00  0.15237091416E+04  0.15237091416E+04  0.50400001928E-02 0.  1.
        1   -1    0    0  501    0  0.00000000000E+00  0.00000000000E+00 -0.13868949951E+04  0.13868949951E+04  0.50400001928E-02 0. -1.
    10030    2    1    2    0    0  0.00000000000E+00  0.00000000000E+00  0.13681414651E+03  0.29106041367E+04  0.29073868559E+04 0.  0.
        3    1    3    3  502    0 -0.20304710754E+03  0.34034907819E+03  0.14685823018E+04  0.15211178818E+04  0.10100000352E+00 0.  1.
       -3    1    3    3    0  502  0.20304710754E+03 -0.34034907819E+03 -0.13317681553E+04  0.13894862549E+04  0.10100000352E+00 0. -1.
</event>
<event>
 5   0  0.2508094E-06  0.2909176E+04  0.7818609E-02  0.8270153E-01
        1   -1    0    0  501    0  0.00000000000E+00  0.00000000000E+00  0.19759214602E+04  0.19759214603E+04  0.50400001928E-02 0. -1.
       -1   -1    0    0    0  501  0.00000000000E+00  0.00000000000E+00 -0.10708046165E+04  0.10708046165E+04  0.50400001928E-02 0.  1.
    10030    2    1    2    0    0  0.00000000000E+00  0.00000000000E+00  0.90511684378E+03  0.30467260767E+04  0.29091757055E+04 0.  0.
        3    1    3    3  502    0  0.48197432712E+03 -0.13663249699E+04  0.31729019671E+03  0.14831777556E+04  0.10100000352E+00 0.  1.
       -3    1    3    3    0  502 -0.48197432712E+03  0.13663249699E+04  0.58782664707E+03  0.15635483212E+04  0.10100000352E+00 0. -1.
</event>
<event>
 5   0  0.6733688E-06  0.2898032E+04  0.7818609E-02  0.8273463E-01
       -2   -1    0    0    0  501  0.00000000000E+00  0.00000000000E+00  0.13703423108E+04  0.13703423108E+04  0.25500000920E-02 0.  1.
        2   -1    0    0  501    0  0.00000000000E+00  0.00000000000E+00 -0.15322066234E+04  0.15322066234E+04  0.25500000920E-02 0. -1.
    10030    2    1    2    0    0  0.00000000000E+00  0.00000000000E+00 -0.16186431258E+03  0.29025489342E+04  0.28980321357E+04 0.  0.
        5    1    3    3  502    0  0.76708839494E+03 -0.11019274809E+04 -0.62671881402E+03  0.14817109504E+04  0.46999998093E+01 0.  1.
       -5    1    3    3    0  502 -0.76708839494E+03  0.11019274809E+04  0.46485450144E+03  0.14208379838E+04  0.46999998093E+01 0. -1.
</event>
<event>
 5   0  0.2336512E-06  0.2937997E+04  0.7818609E-02  0.8261661E-01
        1   -1    0    0  501    0  0.00000000000E+00  0.00000000000E+00  0.18474258435E+04  0.18474258435E+04  0.50400001928E-02 0.  1.
       -1   -1    0    0    0  501  0.00000000000E+00  0.00000000000E+00 -0.11680887278E+04  0.11680887278E+04  0.50400001928E-02 0. -1.
    10030    2    1    2    0    0  0.00000000000E+00  0.00000000000E+00  0.67933711567E+03  0.30155145713E+04  0.29379974835E+04 0.  0.
        4    1    3    3  502    0  0.35908924825E+03 -0.14170611766E+04  0.48822230643E+03  0.15412235723E+04  0.12699999809E+01 0.  1.
       -4    1    3    3    0  502 -0.35908924825E+03  0.14170611766E+04  0.19111480924E+03  0.14742909990E+04  0.12699999809E+01 0. -1.
</event>
<event>
 5   0  0.2508094E-06  0.2912112E+04  0.7818609E-02  0.8269283E-01
       -1   -1    0    0    0  501  0.00000000000E+00  0.00000000000E+00  0.75165568542E+03  0.75165568543E+03  0.50400001928E-02 0. -1.
        1   -1    0    0  501    0  0.00000000000E+00  0.00000000000E+00 -0.28205730265E+04  0.28205730265E+04  0.50400001928E-02 0.  1.
    10030    2    1    2    0    0  0.00000000000E+00  0.00000000000E+00 -0.20689173411E+04  0.35722287119E+04  0.29121124645E+04 0.  0.
        3    1    3    3  502    0 -0.83390714344E+02  0.11736913896E+04 -0.20865423342E+04  0.23954465996E+04  0.10100000352E+00 0.  1.
       -3    1    3    3    0  502  0.83390714344E+02 -0.11736913896E+04  0.17624993103E+02  0.11767821123E+04  0.10100000352E+00 0. -1.
</event>
<event>
 5   0  0.6615403E-06  0.2901785E+04  0.7818609E-02  0.8272347E-01
       -2   -1    0    0    0  501  0.00000000000E+00  0.00000000000E+00  0.15592016278E+04  0.15592016278E+04  0.25500000920E-02 0. -1.
        2   -1    0    0  501    0  0.00000000000E+00  0.00000000000E+00 -0.13501070105E+04  0.13501070105E+04  0.25500000920E-02 0.  1.
    10030    2    1    2    0    0  0.00000000000E+00  0.00000000000E+00  0.20909461729E+03  0.29093086382E+04  0.29017850012E+04 0.  0.
        2    1    3    3  502    0 -0.82144515453E+03  0.11344769545E+03  0.12981997948E+04  0.15404431923E+04  0.25500000920E-02 0. -1.
       -2    1    3    3    0  502  0.82144515453E+03 -0.11344769545E+03 -0.10891051775E+04  0.13688654459E+04  0.25500000920E-02 0.  1.
</event>
<event>
 5   0  0.2336512E-06  0.2888466E+04  0.7818609E-02  0.8276317E-01
       -1   -1    0    0    0  501  0.00000000000E+00  0.00000000000E+00  0.20004456038E+04  0.20004456038E+04  0.50400001928E-02 0.  1.
        1   -1    0    0  501    0  0.00000000000E+00  0.00000000000E+00 -0.10426720934E+04  0.10426720934E+04  0.50400001928E-02 0. -1.
    10030    2    1    2    0    0  0.00000000000E+00  0.00000000000E+00  0.95777351039E+03  0.30431176972E+04  0.28884658942E+04 0.  0.
        4    1    3    3  502    0 -0.84009711168E+03 -0.11743854169E+04  0.44793831252E+03  0.15118183123E+04  0.12699999809E+01 0.  1.
       -4    1    3    3    0  502  0.84009711168E+03  0.11743854169E+04  0.50983519787E+03  0.15312993850E+04  0.12699999809E+01 0. -1.
</event>
<event>
 5   0  0.6513041E-06  0.2550504E+04  0.7818609E-02  0.8385211E-01
        2   -1    0    0  501    0  0.00000000000E+00  0.00000000000E+00  0.10983434522E+04  0.10983434522E+04  0.25500000920E-02 0. -1.
       -2   -1    0    0    0  501  0.00000000000E+00  0.00000000000E+00 -0.14806544062E+04  0.14806544062E+04  0.25500000920E-02 0.  1.
    10030    2    1    2    0    0  0.00000000000E+00  0.00000000000E+00 -0.38231095397E+03  0.25789978585E+04  0.25505035362E+04 0.  0.
        1    1    3    3  502    0 -0.55024616296E+03 -0.70968391328E+03 -0.11067241430E+04  0.14252229388E+04  0.50400001928E-02 0.  1.
       -1    1    3    3    0  502  0.55024616296E+03  0.70968391328E+03  0.72441318905E+03  0.11537749196E+04  0.50400001928E-02 0. -1.
</event>
<event>
 5   0  0.2429358E-06  0.2895622E+04  0.7818609E-02  0.8274181E-01
        1   -1    0    0  501    0  0.00000000000E+00  0.00000000000E+00  0.21442954072E+04  0.21442954072E+04  0.50400001928E-02 0.  1.
       -1   -1    0    0    0  501  0.00000000000E+00  0.00000000000E+00 -0.97755061829E+03  0.97755061830E+03  0.50400001928E-02 0. -1.
    10030    2    1    2    0    0  0.00000000000E+00  0.00000000000E+00  0.11667447889E+04  0.31218460255E+04  0.28956224209E+04 0.  0.
        2    1    3    3  502    0 -0.50803222999E+03  0.11996130913E+04  0.12643769260E+04  0.18154386045E+04  0.25500000920E-02 0.  1.
       -2    1    3    3    0  502  0.50803222999E+03 -0.11996130913E+04 -0.97632137097E+02  0.13064074210E+04  0.25500000920E-02 0. -1.
</event>
<event>
 5   0  0.2336512E-06  0.3373578E+04  0.7818609E-02  0.8144422E-01
        1   -1    0    0  501    0  0.00000000000E+00  0.00000000000E+00  0.11465865604E+04  0.11465865604E+04  0.50400001928E-02 0.  1.
       -1   -1    0    0    0  501  0.00000000000E+00  0.00000000000E+00 -0.24815017814E+04  0.24815017814E+04  0.50400001928E-02 0. -1.
    10030    2    1    2    0    0  0.00000000000E+00  0.00000000000E+00 -0.13349152209E+04  0.36280883418E+04  0.33735776809E+04 0.  0.
        4    1    3    3  502    0  0.54892130206E+02 -0.75742697044E+02 -0.24787097266E+04  0.24804744755E+04  0.12699999809E+01 0. -1.
       -4    1    3    3    0  502 -0.54892130206E+02  0.75742697044E+02  0.11437945056E+04  0.11476138663E+04  0.12699999809E+01 0.  1.
</event>
<event>
 5   0  0.6612533E-06  0.2915110E+04  0.7818609E-02  0.8268396E-01
       -2   -1    0    0    0  501  0.00000000000E+00  0.00000000000E+00  0.12146133677E+04  0.12146133677E+04  0.25500000920E-02 0. -1.
        2   -1    0    0  501    0  0.00000000000E+00  0.00000000000E+00 -0.17490883979E+04  0.17490883979E+04  0.25500000920E-02 0.  1.
    10030    2    1    2    0    0  0.00000000000E+00  0.00000000000E+00 -0.53447503017E+03  0.29637017657E+04  0.29151097060E+04 0.  0.
        3    1    3    3  502    0  0.66064895857E+03  0.53201610413E+03 -0.14723089867E+04  0.16991739005E+04  0.10100000352E+00 0.  1.
       -3    1    3    3    0  502 -0.66064895857E+03 -0.53201610413E+03  0.93783395656E+03  0.12645278652E+04  0.10100000352E+00 0. -1.
</event>
<event>
 5   0  0.2508094E-06  0.2883192E+04  0.7818609E-02  0.8277896E-01
       -1   -1    0    0    0  501  0.00000000000E+00  0.00000000000E+00  0.14217400348E+04  0.14217400349E+04  0.50400001928E-02 0. -1.
        1   -1    0    0  501    0  0.00000000000E+00  0.00000000000E+00 -0.14617295121E+04  0.14617295121E+04  0.50400001928E-02 0.  1.
    10030    2    1    2    0    0  0.00000000000E+00  0.00000000000E+00 -0.39989477243E+02  0.28834695470E+04  0.28831922360E+04 0.  0.
        3    1    3    3  502    0 -0.14342449546E+04  0.74674479871E+01 -0.16521547030E+03  0.14437487712E+04  0.10100000352E+00 0.  1.
       -3    1    3    3    0  502  0.14342449546E+04 -0.74674479871E+01  0.12522599306E+03  0.14397207757E+04  0.10100000352E+00 0. -1.
</event>
<event>
 5   0  0.6615403E-06  0.3034583E+04  0.7818609E-02  0.8233924E-01
        2   -1    0    0  501    0  0.00000000000E+00  0.00000000000E+00  0.13940432280E+04  0.13940432280E+04  0.25500000920E-02 0.  1.
       -2   -1    0    0    0  501  0.00000000000E+00  0.00000000000E+00 -0.16514365219E+04  0.16514365219E+04  0.25500000920E-02 0. -1.
    10030    2    1    2    0    0  0.00000000000E+00  0.00000000000E+00 -0.25739329394E+03  0.30454797499E+04  0.30345832662E+04 0.  0.
        2    1    3    3  502    0 -0.44672495041E+02 -0.36043137011E+03 -0.16071692815E+04  0.16476952097E+04  0.25500000920E-02 0. -1.
       -2    1    3    3    0  502  0.44672495041E+02  0.36043137011E+03  0.13497759876E+04  0.13977845403E+04  0.25500000920E-02 0.  1.
</event>
<event>
 5   0  0.6612533E-06  0.2862351E+04  0.7818609E-02  0.8284168E-01
        2   -1    0    0  501    0  0.00000000000E+00  0.00000000000E+00  0.14839658918E+04  0.14839658918E+04  0.25500000920E-02 0. -1.
       -2   -1    0    0    0  501  0.00000000000E+00  0.00000000000E+00 -0.13802634812E+04  0.13802634812E+04  0.25500000920E-02 0.  1.
    10030    2    1    2    0    0  0.00000000000E+00  0.00000000000E+00  0.10370241060E+03  0.28642293731E+04  0.28623514305E+04 0.  0.
        3    1    3    3  502    0 -0.47854098596E+03  0.94978827894E+03 -0.90646426276E+03  0.13974178759E+04  0.10100000352E+00 0.  1.
       -3    1    3    3    0  502  0.47854098596E+03 -0.94978827894E+03  0.10101666734E+04  0.14668114972E+04  0.10100000352E+00 0. -1.
</event>
<event>
 5   0  0.6615403E-06  0.2896352E+04  0.7818609E-02  0.8273964E-01
        2   -1    0    0  501    0  0.00000000000E+00  0.00000000000E+00  0.20385727400E+04  0.20385727400E+04  0.25500000920E-02 0.  1.
       -2   -1    0    0    0  501  0.00000000000E+00  0.00000000000E+00 -0.10287659208E+04  0.10287659208E+04  0.25500000920E-02 0. -1.
    10030    2    1    2    0    0  0.00000000000E+00  0.00000000000E+00  0.10098068192E+04  0.30673386608E+04  0.28963523003E+04 0.  0.
        2    1    3    3  502    0  0.40885600706E+03 -0.12278455174E+04  0.11932324678E+04  0.17602759929E+04  0.25500000920E-02 0.  1.
       -2    1    3    3    0  502 -0.40885600706E+03  0.12278455174E+04 -0.18342564854E+03  0.13070626678E+04  0.25500000920E-02 0. -1.
</event>
<event>
 5   0  0.6615403E-06  0.2890024E+04  0.7818609E-02  0.8275852E-01
        2   -1    0    0  501    0  0.00000000000E+00  0.00000000000E+00  0.16532835658E+04  0.16532835658E+04  0.25500000920E-02 0.  1.
       -2   -1    0    0    0  501  0.00000000000E+00  0.00000000000E+00 -0.12629772691E+04  0.12629772691E+04  0.25500000920E-02 0. -1.
    10030    2    1    2    0    0  0.00000000000E+00  0.00000000000E+00  0.39030629670E+03  0.29162608349E+04  0.28900239189E+04 0.  0.
        2    1    3    3  502    0 -0.31126802691E+03  0.18512252409E+03  0.16067458473E+04  0.16470550542E+04  0.25500000920E-02 0.  1.
       -2    1    3    3    0  502  0.31126802691E+03 -0.18512252409E+03 -0.12164395506E+04  0.12692057807E+04  0.25500000920E-02 0. -1.
</event>
<event>
 5   0  0.2348684E-06  0.2880356E+04  0.7818609E-02  0.8278746E-01
       -1   -1    0    0    0  501  0.00000000000E+00  0.00000000000E+00  0.23351208747E+04  0.23351208747E+04  0.50400001928E-02 0. -1.
        1   -1    0    0  501    0  0.00000000000E+00  0.00000000000E+00 -0.88822478817E+03  0.88822478819E+03  0.50400001928E-02 0.  1.
    10030    2    1    2    0    0  0.00000000000E+00  0.00000000000E+00  0.14468960866E+04  0.32233456629E+04  0.28803557033E+04 0.  0.
        5    1    3    3  502    0  0.45417417587E+02 -0.94936785196E+03 -0.48739758309E+03  0.10681481892E+04  0.46999998093E+01 0.  1.
       -5    1    3    3    0  502 -0.45417417587E+02  0.94936785196E+03  0.19342936697E+04  0.21551974737E+04  0.46999998093E+01 0. -1.
</event>
<event>
 5   0  0.2474769E-06  0.2946472E+04  0.7818609E-02  0.8259183E-01
       -1   -1    0    0    0  501  0.00000000000E+00  0.00000000000E+00  0.13617326280E+04  0.13617326280E+04  0.50400001928E-02 0. -1.
        1   -1    0    0  501    0  0.00000000000E+00  0.00000000000E+00 -0.15938694865E+04  0.15938694865E+04  0.50400001928E-02 0.  1.
    10030    2    1    2    0    0  0.00000000000E+00  0.00000000000E+00 -0.23213685851E+03  0.29556021145E+04  0.29464718458E+04 0.  0.
        1    1    3    3  502    0 -0.87703553986E+02 -0.41222794050E+03 -0.15321085632E+04  0.15890187028E+04  0.50400001928E-02 0.  1.
       -1    1    3    3    0  502  0.87703553986E+02  0.41222794050E+03  0.12999717047E+04  0.13665834118E+04  0.50400001928E-02 0. -1.
</event>
<event>
 5   0  0.6615403E-06  0.2942969E+04  0.7818609E-02  0.8260207E-01
       -2   -1    0    0    0  501  0.00000000000E+00  0.00000000000E+00  0.18664553254E+04  0.18664553254E+04  0.25500000920E-02 0.  1.
        2   -1    0    0  501    0  0.00000000000E+00  0.00000000000E+00 -0.11600956820E+04  0.11600956820E+04  0.25500000920E-02 0. -1.
    10030    2    1    2    0    0  0.00000000000E+00  0.00000000000E+00  0.70635964343E+03  0.30265510074E+04  0.29429690882E+04 0.  0.
        2    1    3    3  502    0  0.87818028051E+03  0.11074459065E+04 -0.67874190828E+02  0.14150066949E+04  0.25500000920E-02 0. -1.
       -2    1    3    3    0  502 -0.87818028051E+03 -0.11074459065E+04  0.77423383426E+03  0.16115443125E+04  0.25500000920E-02 0.  1.
</event>
<event>
 5   0  0.6615403E-06  0.2896671E+04  0.7818609E-02  0.8273869E-01
        2   -1    0    0  501    0  0.00000000000E+00  0.00000000000E+00  0.20372410043E+04  0.20372410043E+04  0.25500000920E-02 0.  1.
       -2   -1    0    0    0  501  0.00000000000E+00  0.00000000000E+00 -0.10296649008E+04  0.10296649008E+04  0.25500000920E-02 0. -1.
    10030    2    1    2    0    0  0.00000000000E+00  0.00000000000E+00  0.10075761035E+04  0.30669059051E+04  0.28966708868E+04 0.  0.
        2    1    3    3  502    0  0.80640862020E+03 -0.11877506627E+04  0.70642291479E+03  0.16000249479E+04  0.25500000920E-02 0.  1.
       -2    1    3    3    0  502 -0.80640862020E+03  0.11877506627E+04  0.30115318868E+03  0.14668809572E+04  0.25500000920E-02 0. -1.
</event>
<event>
 5   0  0.6612533E-06  0.2905911E+04  0.7818609E-02  0.8271121E-01
       -2   -1    0    0    0  501  0.00000000000E+00  0.00000000000E+00  0.10069265285E+04  0.10069265285E+04  0.25500000920E-02 0. -1.
        2   -1    0    0  501    0  0.00000000000E+00  0.00000000000E+00 -0.20965579299E+04  0.20965579299E+04  0.25500000920E-02 0.  1.
    10030    2    1    2    0    0  0.00000000000E+00  0.00000000000E+00 -0.10896314014E+04  0.31034844584E+04  0.29059110779E+04 0.  0.
        3    1    3    3  502    0 -0.40727554767E+03 -0.10648994386E+04 -0.15067159737E+04  0.18894647977E+04  0.10100000352E+00 0.  1.
       -3    1    3    3    0  502  0.40727554767E+03  0.10648994386E+04  0.41708457225E+03  0.12140196608E+04  0.10100000352E+00 0. -1.
</event>
<event>
 5   0  0.2429358E-06  0.2984996E+04  0.7818609E-02  0.8248028E-01
       -1   -1    0    0    0  501  0.00000000000E+00  0.00000000000E+00  0.17770924215E+04  0.17770924215E+04  0.50400001928E-02 0. -1.
        1   -1    0    0  501    0  0.00000000000E+00  0.00000000000E+00 -0.12534799936E+04  0.12534799936E+04  0.50400001928E-02 0.  1.
    10030    2    1    2    0    0  0.00000000000E+00  0.00000000000E+00  0.52361242782E+03  0.30305724151E+04  0.29849956765E+04 0.  0.
        2    1    3    3  502    0 -0.49907325415E+03  0.77639515883E+03  0.14526112327E+04  0.17210296189E+04  0.25500000920E-02 0. -1.
       -2    1    3    3    0  502  0.49907325415E+03 -0.77639515883E+03 -0.92899880489E+03  0.13095427962E+04  0.25500000920E-02 0.  1.
</event>
<event>
 5   0  0.2474769E-06  0.2915699E+04  0.7818609E-02  0.8268222E-01
       -1   -1    0    0    0  501  0.00000000000E+00  0.00000000000E+00  0.12457685698E+04  0.12457685698E+04  0.50400001928E-02 0.  1.
        1   -1    0    0  501    0  0.00000000000E+00  0.00000000000E+00 -0.17060347653E+04  0.17060347653E+04  0.50400001928E-02 0. -1.
    10030    2    1    2    0    0  0.00000000000E+00  0.00000000000E+00 -0.46026619552E+03  0.29518033351E+04  0.29156985369E+04 0.  0.
        1    1    3    3  502    0 -0.54425392799E+02 -0.14204736894E+04 -0.55758359093E+03  0.15269600802E+04  0.50400001928E-02 0. -1.
       -1    1    3    3    0  502  0.54425392799E+02  0.14204736894E+04  0.97317395406E+02  0.14248432549E+04  0.50400001928E-02 0.  1.
</event>
<event>
 5   0  0.6615403E-06  0.2896848E+04  0.7818609E-02  0.8273816E-01
       -2   -1    0    0    0  501  0.00000000000E+00  0.00000000000E+00  0.11052476273E+04  0.11052476273E+04  0.25500000920E-02 0. -1.
        2   -1    0    0  501    0  0.00000000000E+00  0.00000000000E+00 -0.18981554683E+04  0.18981554683E+04  0.25500000920E-02 0.  1.
    10030    2    1    2    0    0  0.00000000000E+00  0.00000000000E+00 -0.79290784100E+03  0.30034030956E+04  0.28968478232E+04 0.  0.
        2    1    3    3  502    0  0.13837301881E+04 -0.19638868908E+03 -0.79077798501E+03  0.16058043381E+04  0.25500000920E-02 0.  1.
       -2    1    3    3    0  502 -0.13837301881E+04  0.19638868908E+03 -0.21298559887E+01  0.13975987575E+04  0.25500000920E-02 0. -1.
</event>
<event>
 5   0  0.6733688E-06  0.2884973E+04  0.7818609E-02  0.8277363E-01
       -2   -1    0    0    0  501  0.00000000000E+00  0.00000000000E+00  0.12640696207E+04  0.12640696207E+04  0.25500000920E-02 0. -1.
        2   -1    0    0  501    0  0.00000000000E+00  0.00000000000E+00 -0.16460857628E+04  0.16460857628E+04  0.25500000920E-02 0.  1.
    10030    2    1    2    0    0  0.00000000000E+00  0.00000000000E+00 -0.38201614216E+03  0.29101553835E+04  0.28849727942E+04 0.  0.
        5    1    3    3  502    0  0.12629371890E+04  0.68855901038E+03 -0.82266059883E+02  0.14408031263E+04  0.46999998093E+01 0. -1.
       -5    1    3    3    0  502 -0.12629371890E+04 -0.68855901038E+03 -0.29975008228E+03  0.14693522572E+04  0.46999998093E+01 0.  1.
</event>
<event>
 5   0  0.2429358E-06  0.2879937E+04  0.7818609E-02  0.8278872E-01
        1   -1    0    0  501    0  0.00000000000E+00  0.00000000000E+00  0.18516212097E+04  0.18516212097E+04  0.50400001928E-02 0. -1.
       -1   -1    0    0    0  501  0.00000000000E+00  0.00000000000E+00 -0.11198345787E+04  0.11198345787E+04  0.50400001928E-02 0.  1.
    10030    2    1    2    0    0  0.00000000000E+00  0.00000000000E+00  0.73178663098E+03  0.29714557885E+04  0.28799371225E+04 0.  0.
        2    1    3    3  502    0 -0.43571190930E+03  0.37443704791E+03 -0.99646844790E+03  0.11502162138E+04  0.25500000920E-02 0.  1.
       -2    1    3    3    0  502  0.43571190930E+03 -0.37443704791E+03  0.17282550789E+04  0.18212395747E+04  0.25500000920E-02 0. -1.
</event>
<event>
 5   0  0.2348684E-06  0.2900010E+04  0.7818609E-02  0.8272874E-01
        1   -1    0    0  501    0  0.00000000000E+00  0.00000000000E+00  0.19026894922E+04  0.19026894922E+04  0.50400001928E-02 0. -1.
       -1   -1    0    0    0  501  0.00000000000E+00  0.00000000000E+00 -0.11050224825E+04  0.11050224825E+04  0.50400001928E-02 0.  1.
    10030    2    1    2    0    0  0.00000000000E+00  0.00000000000E+00  0.79766700966E+03  0.30077119747E+04  0.29000101145E+04 0.  0.
        5    1    3    3  502    0  0.12106188761E+04  0.25258256432E+03  0.11839798864E+04  0.17120824969E+04  0.46999998093E+01 0. -1.
       -5    1    3    3    0  502 -0.12106188761E+04 -0.25258256432E+03 -0.38631287675E+03  0.12956294778E+04  0.46999998093E+01 0.  1.
</event>
<event>
 5   0  0.6393633E-06  0.2912231E+04  0.7818609E-02  0.8269248E-01
       -2   -1    0    0    0  501  0.00000000000E+00  0.00000000000E+00  0.12902514338E+04  0.12902514339E+04  0.25500000920E-02 0. -1.
        2   -1    0    0  501    0  0.00000000000E+00  0.00000000000E+00 -0.16433021955E+04  0.16433021955E+04  0.25500000920E-02 0.  1.
    10030    2    1    2    0    0  0.00000000000E+00  0.00000000000E+00 -0.35305076166E+03  0.29335536294E+04  0.29122314565E+04 0.  0.
        4    1    3    3  502    0 -0.12156776085E+04  0.42666487609E+03  0.50693800467E+03  0.13845225595E+04  0.12699999809E+01 0. -1.
       -4    1    3    3    0  502  0.12156776085E+04 -0.42666487609E+03 -0.85998876633E+03  0.15490310699E+04  0.12699999809E+01 0.  1.
</event>
<event>
 5   0  0.2508094E-06  0.2911617E+04  0.7818609E-02  0.8269430E-01
        1   -1    0    0  501    0  0.00000000000E+00  0.00000000000E+00  0.11303010761E+04  0.11303010761E+04  0.50400001928E-02 0. -1.
       -1   -1    0    0    0  501  0.00000000000E+00  0.00000000000E+00 -0.18750561343E+04  0.18750561343E+04  0.50400001928E-02 0.  1.
    10030    2    1    2    0    0  0.00000000000E+00  0.00000000000E+00 -0.74475505826E+03  0.30053572104E+04  0.29116167099E+04 0.  0.
        3    1    3    3  502    0  0.13103038037E+04 -0.49910804401E+03  0.31859817502E+02  0.14025048862E+04  0.10100000352E+00 0. -1.
       -3    1    3    3    0  502 -0.13103038037E+04  0.49910804401E+03 -0.77661487576E+03  0.16028523242E+04  0.10100000352E+00 0.  1.
</event>
<event>
 5   0  0.2429358E-06  0.2953254E+04  0.7818609E-02  0.8257207E-01
       -1   -1    0    0    0  501  0.00000000000E+00  0.00000000000E+00  0.95402179088E+03  0.95402179090E+03  0.50400001928E-02 0.  1.
        1   -1    0    0  501    0  0.00000000000E+00  0.00000000000E+00 -0.22855114773E+04  0.22855114773E+04  0.50400001928E-02 0. -1.
    10030    2    1    2    0    0  0.00000000000E+00  0.00000000000E+00 -0.13314896865E+04  0.32395332682E+04  0.29532543085E+04 0.  0.
        2    1    3    3  502    0  0.10558118984E+04  0.80913612365E+03 -0.13689726281E+04  0.19088022653E+04  0.25500000920E-02 0. -1.
       -2    1    3    3    0  502 -0.10558118984E+04 -0.80913612365E+03  0.37482941653E+02  0.13307310030E+04  0.25500000920E-02 0.  1.
</event>
<event>
 5   0  0.6615403E-06  0.2840255E+04  0.7818609E-02  0.8290879E-01
        2   -1    0    0  501    0  0.00000000000E+00  0.00000000000E+00  0.22922663182E+04  0.22922663182E+04  0.25500000920E-02 0. -1.
       -2   -1    0    0    0  501  0.00000000000E+00  0.00000000000E+00 -0.87981131196E+03  0.87981131196E+03  0.25500000920E-02 0.  1.
    10030    2    1    2    0    0  0.00000000000E+00  0.00000000000E+00  0.14124550063E+04  0.31720776302E+04  0.28402548032E+04 0.  0.
        2    1    3    3  502    0  0.36365845781E+03  0.18732448035E+03  0.22250420126E+04  0.22623328430E+04  0.25500000920E-02 0. -1.
       -2    1    3    3    0  502 -0.36365845781E+03 -0.18732448035E+03 -0.81258700633E+03  0.90974478715E+03  0.25500000920E-02 0.  1.
</event>
<event>
 5   0  0.6733688E-06  0.2861850E+04  0.7818609E-02  0.8284319E-01
        2   -1    0    0  501    0  0.00000000000E+00  0.00000000000E+00  0.10093644207E+04  0.10093644207E+04  0.25500000920E-02 0.  1.
       -2   -1    0    0    0  501  0.00000000000E+00  0.00000000000E+00 -0.20285508295E+04  0.20285508295E+04  0.25500000920E-02 0. -1.
    10030    2    1    2    0    0  0.00000000000E+00  0.00000000000E+00 -0.10191864088E+04  0.30379152501E+04  0.28618504732E+04 0.  0.
        5    1    3    3  502    0  0.77724788917E+02  0.24239610092E+03  0.98512828159E+03  0.10174953728E+04  0.46999998093E+01 0.  1.
       -5    1    3    3    0  502 -0.77724788917E+02 -0.24239610092E+03 -0.20043146904E+04  0.20204198773E+04  0.46999998093E+01 0. -1.
</event>
<event>
 5   0  0.2336512E-06  0.2789015E+04  0.7818609E-02  0.8306687E-01
        1   -1    0    0  501    0  0.00000000000E+00  0.00000000000E+00  0.29391302965E+04  0.29391302965E+04  0.50400001928E-02 0.  1.
       -1   -1    0    0    0  501  0.00000000000E+00  0.00000000000E+00 -0.66164177492E+03  0.66164177493E+03  0.50400001928E-02 0. -1.
    10030    2    1    2    0    0  0.00000000000E+00  0.00000000000E+00  0.22774885216E+04  0.36007720714E+04  0.27890151567E+04 0.  0.
        4    1    3    3  502    0 -0.56981836584E+02 -0.10209027090E+04 -0.85486725501E+02  0.10260598735E+04  0.12699999809E+01 0. -1.
       -4    1    3    3    0  502  0.56981836584E+02  0.10209027090E+04  0.23629752471E+04  0.25747121979E+04  0.12699999809E+01 0.  1.
</event>
<event>
 5   0  0.6733688E-06  0.2975519E+04  0.7818609E-02  0.8250756E-01
        2   -1    0    0  501    0  0.00000000000E+00  0.00000000000E+00  0.11310926176E+04  0.11310926176E+04  0.25500000920E-02 0. -1.
       -2   -1    0    0    0  501  0.00000000000E+00  0.00000000000E+00 -0.19568944046E+04  0.19568944046E+04  0.25500000920E-02 0.  1.
    10030    2    1    2    0    0  0.00000000000E+00  0.00000000000E+00 -0.82580178698E+03  0.30879870222E+04  0.29755193258E+04 0.  0.
        5    1    3    3  502    0  0.97039615738E+03  0.10830939547E+04 -0.86950622044E+02  0.14568265915E+04  0.46999998093E+01 0.  1.
       -5    1    3    3    0  502 -0.97039615738E+03 -0.10830939547E+04 -0.73885116493E+03  0.16311604308E+04  0.46999998093E+01 0. -1.
</event>
<event>
 5   0  0.2508094E-06  0.2889748E+04  0.7818609E-02  0.8275934E-01
        1   -1    0    0  501    0  0.00000000000E+00  0.00000000000E+00  0.17096343401E+04  0.17096343401E+04  0.50400001928E-02 0.  1.
       -1   -1    0    0    0  501  0.00000000000E+00  0.00000000000E+00 -0.12211154528E+04  0.12211154528E+04  0.50400001928E-02 0. -1.
    10030    2    1    2    0    0  0.00000000000E+00  0.00000000000E+00  0.48851888735E+03  0.29307497929E+04  0.28897480246E+04 0.  0.
        3    1    3    3  502    0  0.23349136991E+03  0.14072277777E+04  0.47741845485E+03  0.15042395519E+04  0.10100000352E+00 0.  1.
       -3    1    3    3    0  502 -0.23349136991E+03 -0.14072277777E+04  0.11100432507E+02  0.14265102411E+04  0.10100000352E+00 0. -1.
</event>
<event>
 5   0  0.6615403E-06  0.2925612E+04  0.7818609E-02  0.8265298E-01
       -2   -1    0    0    0  501  0.00000000000E+00  0.00000000000E+00  0.13719704106E+04  0.13719704106E+04  0.25500000920E-02 0. -1.
        2   -1    0    0  501    0  0.00000000000E+00  0.00000000000E+00 -0.15596558456E+04  0.15596558456E+04  0.25500000920E-02 0.  1.
    10030    2    1    2    0    0  0.00000000000E+00  0.00000000000E+00 -0.18768543498E+03  0.29316262562E+04  0.29256121896E+04 0.  0.
        2    1    3    3  502    0 -0.10852594978E+03  0.10630282800E+03 -0.15517298785E+04  0.15591484178E+04  0.25500000920E-02 0.  1.
       -2    1    3    3    0  502  0.10852594978E+03 -0.10630282800E+03  0.13640444435E+04  0.13724778384E+04  0.25500000920E-02 0. -1.
</event>
<event>
 5   0  0.6612533E-06  0.2900558E+04  0.7818609E-02  0.8272711E-01
        2   -1    0    0  501    0  0.00000000000E+00  0.00000000000E+00  0.13704513710E+04  0.13704513710E+04  0.25500000920E-02 0.  1.
       -2   -1    0    0    0  501  0.00000000000E+00  0.00000000000E+00 -0.15347565519E+04  0.15347565519E+04  0.25500000920E-02 0. -1.
    10030    2    1    2    0    0  0.00000000000E+00  0.00000000000E+00 -0.16430518088E+03  0.29052079228E+04  0.29005580295E+04 0.  0.
        3    1    3    3  502    0  0.22460279320E+03 -0.11619537144E+04 -0.92178420775E+03  0.15000896590E+04  0.10100000352E+00 0. -1.
       -3    1    3    3    0  502 -0.22460279320E+03  0.11619537144E+04  0.75747902686E+03  0.14051182639E+04  0.10100000352E+00 0.  1.
</event>
<event>
 5   0  0.6513041E-06  0.2913260E+04  0.7818609E-02  0.8268943E-01
       -2   -1    0    0    0  501  0.00000000000E+00  0.00000000000E+00  0.21209384411E+04  0.21209384411E+04  0.25500000920E-02 0. -1.
        2   -1    0    0  501    0  0.00000000000E+00  0.00000000000E+00 -0.10003922288E+04  0.10003922288E+04  0.25500000920E-02 0.  1.
    10030    2    1    2    0    0  0.00000000000E+00  0.00000000000E+00  0.11205462123E+04  0.31213306699E+04  0.29132595725E+04 0.  0.
        1    1    3    3  502    0  0.58991088677E+03 -0.12732323141E+04  0.14165688873E+03  0.14103836549E+04  0.50400001928E-02 0.  1.
       -1    1    3    3    0  502 -0.58991088677E+03  0.12732323141E+04  0.97888932360E+03  0.17109470149E+04  0.50400001928E-02 0. -1.
</event>
<event>
 5   0  0.2474769E-06  0.3009810E+04  0.7818609E-02  0.8240935E-01
        1   -1    0    0  501    0  0.00000000000E+00  0.00000000000E+00  0.99970386152E+03  0.99970386153E+03  0.50400001928E-02 0.  1.
       -1   -1    0    0    0  501  0.00000000000E+00  0.00000000000E+00 -0.22654093832E+04  0.22654093832E+04  0.50400001928E-02 0. -1.
    10030    2    1    2    0    0  0.00000000000E+00  0.00000000000E+00 -0.12657055217E+04  0.32651132447E+04  0.30098096341E+04 0.  0.
        1    1    3    3  502    0  0.89766054782E+03  0.77766704418E+03  0.36976043423E+03  0.12438984161E+04  0.50400001928E-02 0.  1.
       -1    1    3    3    0  502 -0.89766054782E+03 -0.77766704418E+03 -0.16354659559E+04  0.20212148287E+04  0.50400001928E-02 0. -1.
</event>
<event>
 5   0  0.6612533E-06  0.2889108E+04  0.7818609E-02  0.8276126E-01
        2   -1    0    0  501    0  0.00000000000E+00  0.00000000000E+00  0.20661229979E+04  0.20661229979E+04  0.25500000920E-02 0.  1.
       -2   -1    0    0    0  501  0.00000000000E+00  0.00000000000E+00 -0.10099767875E+04  0.10099767875E+04  0.25500000920E-02 0. -1.
    10030    2    1    2    0    0  0.00000000000E+00  0.00000000000E+00  0.10561462104E+04  0.30760997854E+04  0.28891080063E+04 0.  0.
        3    1    3    3  502    0  0.82351351891E+03 -0.78483816557E+03  0.14759701165E+04  0.18635002702E+04  0.10100000352E+00 0.  1.
       -3    1    3    3    0  502 -0.82351351891E+03  0.78483816557E+03 -0.41982390613E+03  0.12125995152E+04  0.10100000352E+00 0. -1.
</event>
<event>
 5   0  0.2336512E-06  0.3080281E+04  0.7818609E-02  0.8221170E-01
        1   -1    0    0  501    0  0.00000000000E+00  0.00000000000E+00  0.23822235387E+04  0.23822235387E+04  0.50400001928E-02 0. -1.
       -1   -1    0    0    0  501  0.00000000000E+00  0.00000000000E+00 -0.99572230914E+03  0.99572230915E+03  0.50400001928E-02 0.  1.
    10030    2    1    2    0    0  0.00000000000E+00  0.00000000000E+00  0.13865012296E+04  0.33779458479E+04  0.30802812358E+04 0.  0.
        4    1    3    3  502    0 -0.11775477770E+03 -0.11830805596E+04  0.17668818412E+04  0.21296522843E+04  0.12699999809E+01 0. -1.
       -4    1    3    3    0  502  0.11775477770E+03  0.11830805596E+04 -0.38038061165E+03  0.12482935636E+04  0.12699999809E+01 0.  1.
</event>
<event>
 5   0  0.6733688E-06  0.2878833E+04  0.7818609E-02  0.8279203E-01
       -2   -1    0    0    0  501  0.00000000000E+00  0.00000000000E+00  0.10749214337E+04  0.10749214337E+04  0.25500000920E-02 0.  1.
        2   -1    0    0  501    0  0.00000000000E+00  0.00000000000E+00 -0.19275080185E+04  0.19275080185E+04  0.25500000920E-02 0. -1.
    10030    2    1    2    0    0  0.00000000000E+00  0.00000000000E+00 -0.85258658476E+03  0.30024294522E+04  0.28788328765E+04 0.  0.
        5    1    3    3  502    0  0.35449880162E+03 -0.16552052976E+03  0.10183969435E+04  0.10909724427E+04  0.46999998093E+01 0.  1.
       -5    1    3    3    0  502 -0.35449880162E+03  0.16552052976E+03 -0.18709835283E+04  0.19114570095E+04  0.46999998093E+01 0. -1.
</event>
<event>
 5   0  0.2336512E-06  0.2880649E+04  0.7818609E-02  0.8278658E-01
       -1   -1    0    0    0  501  0.00000000000E+00  0.00000000000E+00  0.10156165708E+04  0.10156165708E+04  0.50400001928E-02 0. -1.
        1   -1    0    0  501    0  0.00000000000E+00  0.00000000000E+00 -0.20426361293E+04  0.20426361293E+04  0.50400001928E-02 0.  1.
    10030    2    1    2    0    0  0.00000000000E+00  0.00000000000E+00 -0.10270195585E+04  0.30582527001E+04  0.28806493025E+04 0.  0.
        4    1    3    3  502    0  0.14749979649E+03  0.91358376943E+03  0.65823205629E+03  0.11356331038E+04  0.12699999809E+01 0. -1.
       -4    1    3    3    0  502 -0.14749979649E+03 -0.91358376943E+03 -0.16852516148E+04  0.19226195963E+04  0.12699999809E+01 0.  1.
</event>
<event>
 5   0  0.2508094E-06  0.2939043E+04  0.7818609E-02  0.8261355E-01
       -1   -1    0    0    0  501  0.00000000000E+00  0.00000000000E+00  0.12663560324E+04  0.12663560324E+04  0.50400001928E-02 0. -1.
        1   -1    0    0  501    0  0.00000000000E+00  0.00000000000E+00 -0.17052818466E+04  0.17052818466E+04  0.50400001928E-02 0.  1.
    10030    2    1    2    0    0  0.00000000000E+00  0.00000000000E+00 -0.43892581426E+03  0.29716378790E+04  0.29390433501E+04 0.  0.
        3    1    3    3  502    0  0.89434995780E+03  0.84450807463E+03  0.59346756413E+03  0.13657450329E+04  0.10100000352E+00 0. -1.
       -3    1    3    3    0  502 -0.89434995780E+03 -0.84450807463E+03 -0.10323933784E+04  0.16058928461E+04  0.10100000352E+00 0.  1.
</event>
<event>
 5   0  0.6513041E-06  0.2901027E+04  0.7818609E-02  0.8272572E-01
        2   -1    0    0  501    0  0.00000000000E+00  0.00000000000E+00  0.14692617220E+04  0.14692617220E+04  0.25500000920E-02 0. -1.
       -2   -1    0    0    0  501  0.00000000000E+00  0.00000000000E+00 -0.14320041377E+04  0.14320041377E+04  0.25500000920E-02 0.  1.
    10030    2    1    2    0    0  0.00000000000E+00  0.00000000000E+00  0.37257584322E+02  0.29012658596E+04  0.29010266219E+04 0.  0.
        1    1    3    3  502    0 -0.10007382876E+04 -0.98220348347E+03  0.38985754748E+03  0.14554001891E+04  0.50400001928E-02 0.  1.
       -1    1    3    3    0  502  0.10007382876E+04  0.98220348347E+03 -0.35259996316E+03  0.14458656705E+04  0.50400001928E-02 0. -1.
</event>
<event>
 5   0  0.6393633E-06  0.2890824E+04  0.7818609E-02  0.8275613E-01
        2   -1    0    0  501    0  0.00000000000E+00  0.00000000000E+00  0.21138370811E+04  0.21138370811E+04  0.25500000920E-02 0.  1.
       -2   -1    0    0    0  501  0.00000000000E+00  0.00000000000E+00 -0.98835229833E+03  0.98835229834E+03  0.25500000920E-02 0. -1.
    10030    2    1    2    0    0  0.00000000000E+00  0.00000000000E+00  0.11254847827E+04  0.31021893794E+04  0.28908239223E+04 0.  0.
        4    1    3    3  502    0 -0.56707598871E+03  0.26942369419E+02  0.19891848479E+04  0.20686128299E+04  0.12699999809E+01 0.  1.
       -4    1    3    3    0  502  0.56707598871E+03 -0.26942369419E+02 -0.86370006513E+03  0.10335765495E+04  0.12699999809E+01 0. -1.
</event>
<event>
 5   0  0.6612533E-06  0.2900717E+04  0.7818609E-02  0.8272664E-01
       -2   -1    0    0    0  501  0.00000000000E+00  0.00000000000E+00  0.15355762038E+04  0.15355762038E+04  0.25500000920E-02 0.  1.
        2   -1    0    0  501    0  0.00000000000E+00  0.00000000000E+00 -0.13698703375E+04  0.13698703375E+04  0.25500000920E-02 0. -1.
    10030    2    1    2    0    0  0.00000000000E+00  0.00000000000E+00  0.16570586631E+03  0.29054465413E+04  0.29007173544E+04 0.  0.
        3    1    3    3  502    0 -0.55098010283E+02  0.12297694307E+04 -0.68532091088E+03  0.14089121351E+04  0.10100000352E+00 0. -1.
       -3    1    3    3    0  502  0.55098010283E+02 -0.12297694307E+04  0.85102677719E+03  0.14965344062E+04  0.10100000352E+00 0.  1.
</event>
<event>
 5   0  0.2336512E-06  0.2919235E+04  0.7818609E-02  0.8267177E-01
        1   -1    0    0  501    0  0.00000000000E+00  0.00000000000E+00  0.17109059584E+04  0.17109059584E+04  0.50400001928E-02 0.  1.
       -1   -1    0    0    0  501  0.00000000000E+00  0.00000000000E+00 -0.12452368087E+04  0.12452368087E+04  0.50400001928E-02 0. -1.
    10030    2    1    2    0    0  0.00000000000E+00  0.00000000000E+00  0.46566914969E+03  0.29561427671E+04  0.29192348830E+04 0.  0.
        4    1    3    3  502    0  0.10363172595E+04 -0.26851294092E+03  0.12375626089E+04  0.16363421053E+04  0.12699999809E+01 0.  1.
       -4    1    3    3    0  502 -0.10363172595E+04  0.26851294092E+03 -0.77189345918E+03  0.13198006618E+04  0.12699999809E+01 0. -1.
</event>
<event>
 5   0  0.2429358E-06  0.2770660E+04  0.7818609E-02  0.8312436E-01
        1   -1    0    0  501    0  0.00000000000E+00  0.00000000000E+00  0.17763463350E+04  0.17763463350E+04  0.50400001928E-02 0.  1.
       -1   -1    0    0    0  501  0.00000000000E+00  0.00000000000E+00 -0.10803857955E+04  0.10803857955E+04  0.50400001928E-02 0. -1.
    10030    2    1    2    0    0  0.00000000000E+00  0.00000000000E+00  0.69596053954E+03  0.28567321306E+04  0.27706601006E+04 0.  0.
        2    1    3    3  502    0 -0.40854577724E+02  0.99395137588E+03  0.13420530632E+04  0.16705432825E+04  0.25500000920E-02 0.  1.
       -2    1    3    3    0  502  0.40854577724E+02 -0.99395137588E+03 -0.64609252368E+03  0.11861888481E+04  0.25500000920E-02 0. -1.
</event>
<event>
 5   0  0.6733688E-06  0.2875735E+04  0.7818609E-02  0.8280134E-01
        2   -1    0    0  501    0  0.00000000000E+00  0.00000000000E+00  0.21906296768E+04  0.21906296768E+04  0.25500000920E-02 0. -1.
       -2   -1    0    0    0  501  0.00000000000E+00  0.00000000000E+00 -0.94377588451E+03  0.94377588452E+03  0.25500000920E-02 0.  1.
    10030    2    1    2    0    0  0.00000000000E+00  0.00000000000E+00  0.12468537923E+04  0.31344055614E+04  0.28757353570E+04 0.  0.
        5    1    3    3  502    0 -0.13795777099E+04 -0.31746793649E+03  0.89791416605E+03  0.16763927010E+04  0.46999998093E+01 0. -1.
       -5    1    3    3    0  502  0.13795777099E+04  0.31746793649E+03  0.34893962628E+03  0.14580128604E+04  0.46999998093E+01 0.  1.
</event>
<event>
 5   0  0.2474769E-06  0.2716237E+04  0.7818609E-02  0.8329756E-01
       -1   -1    0    0    0  501  0.00000000000E+00  0.00000000000E+00  0.13936570148E+04  0.13936570148E+04  0.50400001928E-02 0. -1.
        1   -1    0    0  501    0  0.00000000000E+00  0.00000000000E+00 -0.13234858783E+04  0.13234858783E+04  0.50400001928E-02 0.  1.
    10030    2    1    2    0    0  0.00000000000E+00  0.00000000000E+00  0.70171136424E+02  0.27171428931E+04  0.27162366453E+04 0.  0.
        1    1    3    3  502    0  0.12807482066E+04 -0.43941075965E+03 -0.70247207897E+02  0.13558511919E+04  0.50400001928E-02 0.  1.
       -1    1    3    3    0  502 -0.12807482066E+04  0.43941075965E+03  0.14041834432E+03  0.13612917012E+04  0.50400001928E-02 0. -1.
</event>
<event>
 5   0  0.6612533E-06  0.2935407E+04  0.7818609E-02  0.8262420E-01
       -2   -1    0    0    0  501  0.00000000000E+00  0.00000000000E+00  0.10111469838E+04  0.10111469838E+04  0.25500000920E-02 0. -1.
        2   -1    0    0  501    0  0.00000000000E+00  0.00000000000E+00 -0.21304055929E+04  0.21304055929E+04  0.25500000920E-02 0.  1.
    10030    2    1    2    0    0  0.00000000000E+00  0.00000000000E+00 -0.11192586090E+04  0.31415525767E+04  0.29354067450E+04 0.  0.
        3    1    3    3  502    0 -0.44751498621E+03 -0.43143074572E+03  0.86331071497E+03  0.10638174430E+04  0.10100000352E+00 0. -1.
       -3    1    3    3    0  502  0.44751498621E+03  0.43143074572E+03 -0.19825693240E+04  0.20777351337E+04  0.10100000352E+00 0.  1.
</event>
<event>
 5   0  0.2429358E-06  0.2891516E+04  0.7818609E-02  0.8275406E-01
       -1   -1    0    0    0  501  0.00000000000E+00  0.00000000000E+00  0.89199570140E+03  0.89199570141E+03  0.50400001928E-02 0.  1.
        1   -1    0    0  501    0  0.00000000000E+00  0.00000000000E+00 -0.23433029754E+04  0.23433029754E+04  0.50400001928E-02 0. -1.
    10030    2    1    2    0    0  0.00000000000E+00  0.00000000000E+00 -0.14513072740E+04  0.32352986768E+04  0.28915159907E+04 0.  0.
        2    1    3    3  502    0 -0.71722861825E+03 -0.12549690128E+04 -0.69299291866E+03  0.16029982218E+04  0.25500000920E-02 0. -1.
       -2    1    3    3    0  502  0.71722861825E+03  0.12549690128E+04 -0.75831435532E+03  0.16323004550E+04  0.25500000920E-02 0.  1.
</event>
<event>
 5   0  0.2336512E-06  0.2892898E+04  0.7818609E-02  0.8274994E-01
       -1   -1    0    0    0  501  0.00000000000E+00  0.00000000000E+00  0.11083909681E+04  0.11083909681E+04  0.50400001928E-02 0.  1.
        1   -1    0    0  501    0  0.00000000000E+00  0.00000000000E+00 -0.18876149127E+04  0.18876149127E+04  0.50400001928E-02 0. -1.
    10030    2    1    2    0    0  0.00000000000E+00  0.00000000000E+00 -0.77922394462E+03  0.29960058808E+04  0.28928984224E+04 0.  0.
        4    1    3    3  502    0  0.47464490569E+03  0.75986342919E+03  0.78643803688E+03  0.11921269296E+04  0.12699999809E+01 0.  1.
       -4    1    3    3    0  502 -0.47464490569E+03 -0.75986342919E+03 -0.15656619815E+04  0.18038789512E+04  0.12699999809E+01 0. -1.
</event>
<event>
 5   0  0.2159500E-06  0.2920485E+04  0.7818609E-02  0.8266808E-01
        3   -1    0    0  501    0  0.00000000000E+00  0.00000000000E+00  0.14345825437E+04  0.14345825472E+04  0.10100000352E+00 0.  1.
       -3   -1    0    0    0  501  0.00000000000E+00  0.00000000000E+00 -0.14863618153E+04  0.14863618187E+04  0.10100000352E+00 0. -1.
    10030    2    1    2    0    0  0.00000000000E+00  0.00000000000E+00 -0.51779271601E+02  0.29209443659E+04  0.29204853870E+04 0.  0.
        4    1    3    3  502    0 -0.51822115809E+03  0.13624061455E+04  0.61321758223E+02  0.14589261958E+04  0.12699999809E+01 0.  1.
       -4    1    3    3    0  502  0.51822115809E+03 -0.13624061455E+04 -0.11310102982E+03  0.14620181701E+04  0.12699999809E+01 0. -1.
</event>
<event>
 5   0  0.6393633E-06  0.2906137E+04  0.7818609E-02  0.8271054E-01
        2   -1    0    0  501    0  0.00000000000E+00  0.00000000000E+00  0.87090479547E+03  0.87090479548E+03  0.25500000920E-02 0.  1.
       -2   -1    0    0    0  501  0.00000000000E+00  0.00000000000E+00 -0.24243848614E+04  0.24243848614E+04  0.25500000920E-02 0. -1.
    10030    2    1    2    0    0  0.00000000000E+00  0.00000000000E+00 -0.15534800660E+04  0.32952896569E+04  0.29061372314E+04 0.  0.
        4    1    3    3  502    0 -0.42289415443E+03 -0.13288508711E+04 -0.31374660606E+03  0.14293784136E+04  0.12699999809E+01 0.  1.
       -4    1    3    3    0  502  0.42289415443E+03  0.13288508711E+04 -0.12397334599E+04  0.18659112433E+04  0.12699999809E+01 0. -1.
</event>
<event>
 5   0  0.2348684E-06  0.2888759E+04  0.7818609E-02  0.8276230E-01
        1   -1    0    0  501    0  0.00000000000E+00  0.00000000000E+00  0.14796447980E+04  0.14796447980E+04  0.50400001928E-02 0. -1.
       -1   -1    0    0    0  501  0.00000000000E+00  0.00000000000E+00 -0.14099544552E+04  0.14099544552E+04  0.50400001928E-02 0.  1.
    10030    2    1    2    0    0  0.00000000000E+00  0.00000000000E+00  0.69690342739E+02  0.28895992532E+04  0.28887587473E+04 0.  0.
        5    1    3    3  502    0 -0.89159334753E+03 -0.64490510066E+03  0.97072863789E+03  0.14673709363E+04  0.46999998093E+01 0. -1.
       -5    1    3    3    0  502  0.89159334753E+03  0.64490510066E+03 -0.90103829515E+03  0.14222283169E+04  0.46999998093E+01 0.  1.
</event>
<event>
 5   0  0.6615403E-06  0.2916681E+04  0.7818609E-02  0.8267932E-01
       -2   -1    0    0    0  501  0.00000000000E+00  0.00000000000E+00  0.11314084500E+04  0.11314084500E+04  0.25500000920E-02 0. -1.
        2   -1    0    0  501    0  0.00000000000E+00  0.00000000000E+00 -0.18797427265E+04  0.18797427265E+04  0.25500000920E-02 0.  1.
    10030    2    1    2    0    0  0.00000000000E+00  0.00000000000E+00 -0.74833427655E+03  0.30111511765E+04  0.29166808565E+04 0.  0.
        2    1    3    3  502    0 -0.84026624329E+03  0.81525797888E+03 -0.12718499139E+04  0.17286686019E+04  0.25500000920E-02 0.  1.
       -2    1    3    3    0  502  0.84026624329E+03 -0.81525797888E+03  0.52351563732E+03  0.12824825746E+04  0.25500000920E-02 0. -1.
</event>
<event>
 5   0  0.2336512E-06  0.2881392E+04  0.7818609E-02  0.8278435E-01
        1   -1    0    0  501    0  0.00000000000E+00  0.00000000000E+00  0.16403504006E+04  0.16403504006E+04  0.50400001928E-02 0.  1.
       -1   -1    0    0    0  501  0.00000000000E+00  0.00000000000E+00 -0.12653425673E+04  0.12653425674E+04  0.50400001928E-02 0. -1.
    10030    2    1    2    0    0  0.00000000000E+00  0.00000000000E+00  0.37500783327E+03  0.29056929680E+04  0.28813921547E+04 0.  0.
        4    1    3    3  502    0 -0.12108715490E+04  0.22748885644E+02 -0.59938211488E+03  0.13512912168E+04  0.12699999809E+01 0. -1.
       -4    1    3    3    0  502  0.12108715490E+04 -0.22748885644E+02  0.97438994815E+03  0.15544017512E+04  0.12699999809E+01 0.  1.
</event>
<event>
 5   0  0.2474769E-06  0.2886873E+04  0.7818609E-02  0.8276794E-01
       -1   -1    0    0    0  501  0.00000000000E+00  0.00000000000E+00  0.11048650515E+04  0.11048650515E+04  0.50400001928E-02 0.  1.
        1   -1    0    0  501    0  0.00000000000E+00  0.00000000000E+00 -0.18857585719E+04  0.18857585719E+04  0.50400001928E-02 0. -1.
    10030    2    1    2    0    0  0.00000000000E+00  0.00000000000E+00 -0.78089352037E+03  0.29906236234E+04  0.28868728698E+04 0.  0.
        1    1    3    3  502    0  0.10821845836E+04 -0.59489473674E+03 -0.11646233944E+04  0.16974601237E+04  0.50400001928E-02 0. -1.
       -1    1    3    3    0  502 -0.10821845836E+04  0.59489473674E+03  0.38372987399E+03  0.12931634997E+04  0.50400001928E-02 0.  1.
</event>
<event>
 5   0  0.6615403E-06  0.2670467E+04  0.7818609E-02  0.8344651E-01
        2   -1    0    0  501    0  0.00000000000E+00  0.00000000000E+00  0.13438239209E+04  0.13438239209E+04  0.25500000920E-02 0.  1.
       -2   -1    0    0    0  501  0.00000000000E+00  0.00000000000E+00 -0.13266979743E+04  0.13266979744E+04  0.25500000920E-02 0. -1.
    10030    2    1    2    0    0  0.00000000000E+00  0.00000000000E+00  0.17125946571E+02  0.26705218953E+04  0.26704669807E+04 0.  0.
        2    1    3    3  502    0 -0.45521506483E+03 -0.11842156512E+04  0.42481786611E+03  0.13379303731E+04  0.25500000920E-02 0.  1.
       -2    1    3    3    0  502  0.45521506483E+03  0.11842156512E+04 -0.40769191953E+03  0.13325915222E+04  0.25500000920E-02 0. -1.
</event>
<event>
 5   0  0.6393633E-06  0.2898628E+04  0.7818609E-02  0.8273286E-01
       -2   -1    0    0    0  501  0.00000000000E+00  0.00000000000E+00  0.10945062928E+04  0.10945062929E+04  0.25500000920E-02 0. -1.
        2   -1    0    0  501    0  0.00000000000E+00  0.00000000000E+00 -0.19191405425E+04  0.19191405425E+04  0.25500000920E-02 0.  1.
    10030    2    1    2    0    0  0.00000000000E+00  0.00000000000E+00 -0.82463424967E+03  0.30136468354E+04  0.28986282277E+04 0.  0.
        4    1    3    3  502    0 -0.89511736336E+03  0.18507940827E+03 -0.15816780779E+04  0.18267995611E+04  0.12699999809E+01 0.  1.
       -4    1    3    3    0  502  0.89511736336E+03 -0.18507940827E+03  0.75704382824E+03  0.11868472742E+04  0.12699999809E+01 0. -1.
</event>
<event>
 5   0  0.2429358E-06  0.2900640E+04  0.7818609E-02  0.8272687E-01
       -1   -1    0    0    0  501  0.00000000000E+00  0.00000000000E+00  0.13811570311E+04  0.13811570311E+04  0.50400001928E-02 0.  1.
        1   -1    0    0  501    0  0.00000000000E+00  0.00000000000E+00 -0.15229465341E+04  0.15229465341E+04  0.50400001928E-02 0. -1.
    10030    2    1    2    0    0  0.00000000000E+00  0.00000000000E+00 -0.14178950293E+03  0.29041035652E+04  0.29006401456E+04 0.  0.
        2    1    3    3  502    0 -0.10585472549E+04  0.94881872072E+03 -0.35872550864E+03  0.14661047869E+04  0.25500000920E-02 0. -1.
       -2    1    3    3    0  502  0.10585472549E+04 -0.94881872072E+03  0.21693600571E+03  0.14379987783E+04  0.25500000920E-02 0.  1.
</event>
<event>
 5   0  0.2474769E-06  0.2891593E+04  0.7818609E-02  0.8275383E-01
       -1   -1    0    0    0  501  0.00000000000E+00  0.00000000000E+00  0.11198954654E+04  0.11198954654E+04  0.50400001928E-02 0. -1.
        1   -1    0    0  501    0  0.00000000000E+00  0.00000000000E+00 -0.18665386689E+04  0.18665386689E+04  0.50400001928E-02 0.  1.
    10030    2    1    2    0    0  0.00000000000E+00  0.00000000000E+00 -0.74664320345E+03  0.29864341343E+04  0.28915934647E+04 0.  0.
        1    1    3    3  502    0  0.28517543094E+03 -0.14101083460E+04 -0.22509566587E+03  0.14561588624E+04  0.50400001928E-02 0. -1.
       -1    1    3    3    0  502 -0.28517543094E+03  0.14101083460E+04 -0.52154753758E+03  0.15302752719E+04  0.50400001928E-02 0.  1.
</event>
<event>
 5   0  0.2474769E-06  0.2923004E+04  0.7818609E-02  0.8266066E-01
       -1   -1    0    0    0  501  0.00000000000E+00  0.00000000000E+00  0.13940540792E+04  0.13940540792E+04  0.50400001928E-02 0. -1.
        1   -1    0    0  501    0  0.00000000000E+00  0.00000000000E+00 -0.15322135452E+04  0.15322135452E+04  0.50400001928E-02 0.  1.
    10030    2    1    2    0    0  0.00000000000E+00  0.00000000000E+00 -0.13815946601E+03  0.29262676245E+04  0.29230043058E+04 0.  0.
        1    1    3    3  502    0  0.73276014823E+03 -0.90216140131E+03  0.81799976176E+03  0.14212516452E+04  0.50400001928E-02 0. -1.
       -1    1    3    3    0  502 -0.73276014823E+03  0.90216140131E+03 -0.95615922777E+03  0.15050159792E+04  0.50400001928E-02 0.  1.
</event>
<event>
 5   0  0.6393633E-06  0.2799144E+04  0.7818609E-02  0.8303534E-01
        2   -1    0    0  501    0  0.00000000000E+00  0.00000000000E+00  0.24003141188E+04  0.24003141188E+04  0.25500000920E-02 0. -1.
       -2   -1    0    0    0  501  0.00000000000E+00  0.00000000000E+00 -0.81606034112E+03  0.81606034113E+03  0.25500000920E-02 0.  1.
    10030    2    1    2    0    0  0.00000000000E+00  0.00000000000E+00  0.15842537777E+04  0.32163744599E+04  0.27991435537E+04 0.  0.
        4    1    3    3  502    0 -0.13246575856E+04  0.35896174934E+03  0.47696621097E+03  0.14529520418E+04  0.12699999809E+01 0.  1.
       -4    1    3    3    0  502  0.13246575856E+04 -0.35896174934E+03  0.11072875667E+04  0.17634224181E+04  0.12699999809E+01 0. -1.
</event>
<event>
 5   0  0.2508094E-06  0.2912163E+04  0.7818609E-02  0.8269268E-01
        1   -1    0    0  501    0  0.00000000000E+00  0.00000000000E+00  0.14639125375E+04  0.14639125375E+04  0.50400001928E-02 0. -1.
       -1   -1    0    0    0  501  0.00000000000E+00  0.00000000000E+00 -0.14482924257E+04  0.14482924257E+04  0.50400001928E-02 0.  1.
    10030    2    1    2    0    0  0.00000000000E+00  0.00000000000E+00  0.15620111780E+02  0.29122049632E+04  0.29121630723E+04 0.  0.
        3    1    3    3  502    0 -0.46463125071E+03  0.12820692605E+04 -0.50267710255E+03  0.14533643960E+04  0.10100000352E+00 0.  1.
       -3    1    3    3    0  502  0.46463125071E+03 -0.12820692605E+04  0.51829721433E+03  0.14588405672E+04  0.10100000352E+00 0. -1.
</event>
<event>
 5   0  0.2474769E-06  0.2906024E+04  0.7818609E-02  0.8271088E-01
        1   -1    0    0  501    0  0.00000000000E+00  0.00000000000E+00  0.29559017901E+04  0.29559017901E+04  0.50400001928E-02 0. -1.
       -1   -1    0    0    0  501  0.00000000000E+00  0.00000000000E+00 -0.71424677996E+03  0.71424677998E+03  0.50400001928E-02 0.  1.
    10030    2    1    2    0    0  0.00000000000E+00  0.00000000000E+00  0.22416550101E+04  0.36701485701E+04  0.29060236307E+04 0.  0.
        1    1    3    3  502    0 -0.18856206485E+03 -0.20214623108E+03  0.29223844397E+04  0.29354300476E+04  0.50400001928E-02 0. -1.
       -1    1    3    3    0  502  0.18856206485E+03  0.20214623108E+03 -0.68072942953E+03  0.73471852250E+03  0.50400001928E-02 0.  1.
</event>
<event>
 5   0  0.2474769E-06  0.2833041E+04  0.7818609E-02  0.8293083E-01
        1   -1    0    0  501    0  0.00000000000E+00  0.00000000000E+00  0.91804319154E+03  0.91804319156E+03  0.50400001928E-02 0. -1.
       -1   -1    0    0    0  501  0.00000000000E+00  0.00000000000E+00 -0.21856594567E+04  0.21856594567E+04  0.50400001928E-02 0.  1.
    10030    2    1    2    0    0  0.00000000000E+00  0.00000000000E+00 -0.12676162652E+04  0.31037026483E+04  0.28330406162E+04 0.  0.
        1    1    3    3  502    0  0.56839870487E+03  0.95948571838E+03 -0.15906584218E+04  0.19426487450E+04  0.50400001928E-02 0.  1.
       -1    1    3    3    0  502 -0.56839870487E+03 -0.95948571838E+03  0.32304215660E+03  0.11610539033E+04  0.50400001928E-02 0. -1.
</event>
<event>
 5   0  0.6393633E-06  0.2809345E+04  0.7818609E-02  0.8300373E-01
        2   -1    0    0  501    0  0.00000000000E+00  0.00000000000E+00  0.13023131078E+04  0.13023131078E+04  0.25500000920E-02 0.  1.
       -2   -1    0    0    0  501  0.00000000000E+00  0.00000000000E+00 -0.15150773498E+04  0.15150773498E+04  0.25500000920E-02 0. -1.
    10030    2    1    2    0    0  0.00000000000E+00  0.00000000000E+00 -0.21276424199E+03  0.28173904577E+04  0.28093451850E+04 0.  0.
        4    1    3    3  502    0  0.94263694483E+03  0.53371474834E+03  0.79043135571E+03  0.13409694938E+04  0.12699999809E+01 0.  1.
       -4    1    3    3    0  502 -0.94263694483E+03 -0.53371474834E+03 -0.10031955977E+04  0.14764209638E+04  0.12699999809E+01 0. -1.
</event>
<event>
 5   0  0.6612533E-06  0.2904487E+04  0.7818609E-02  0.8271544E-01
        2   -1    0    0  501    0  0.00000000000E+00  0.00000000000E+00  0.24405716237E+04  0.24405716237E+04  0.25500000920E-02 0.  1.
       -2   -1    0    0    0  501  0.00000000000E+00  0.00000000000E+00 -0.86414652946E+03  0.86414652946E+03  0.25500000920E-02 0. -1.
    10030    2    1    2    0    0  0.00000000000E+00  0.00000000000E+00  0.15764250942E+04  0.33047181531E+04  0.29044872170E+04 0.  0.
        3    1    3    3  502    0  0.12925199199E+04 -0.15233226897E+03  0.55062427424E+02  0.13026299339E+04  0.10100000352E+00 0. -1.
       -3    1    3    3    0  502 -0.12925199199E+04  0.15233226897E+03  0.15213626668E+04  0.20020882192E+04  0.10100000352E+00 0.  1.
</event>
<event>
 5   0  0.6733688E-06  0.2474781E+04  0.7818609E-02  0.8412025E-01
       -2   -1    0    0    0  501  0.00000000000E+00  0.00000000000E+00  0.82141665368E+03  0.82141665368E+03  0.25500000920E-02 0.  1.
        2   -1    0    0  501    0  0.00000000000E+00  0.00000000000E+00 -0.18640174923E+04  0.18640174923E+04  0.25500000920E-02 0. -1.
    10030    2    1    2    0    0  0.00000000000E+00  0.00000000000E+00 -0.10426008386E+04  0.26854341459E+04  0.24747808072E+04 0.  0.
        5    1    3    3  502    0 -0.52027806119E+03  0.35035635364E+03 -0.16787090068E+04  0.17920727817E+04  0.46999998093E+01 0. -1.
       -5    1    3    3    0  502  0.52027806119E+03 -0.35035635364E+03  0.63610816819E+03  0.89336136424E+03  0.46999998093E+01 0.  1.
</event>
<event>
 5   0  0.6612533E-06  0.2891030E+04  0.7818609E-02  0.8275551E-01
       -2   -1    0    0    0  501  0.00000000000E+00  0.00000000000E+00  0.13925978886E+04  0.13925978886E+04  0.25500000920E-02 0.  1.
        2   -1    0    0  501    0  0.00000000000E+00  0.00000000000E+00 -0.15004424022E+04  0.15004424022E+04  0.25500000920E-02 0. -1.
    10030    2    1    2    0    0  0.00000000000E+00  0.00000000000E+00 -0.10784451364E+03  0.28930402908E+04  0.28910295199E+04 0.  0.
        3    1    3    3  502    0  0.12683557087E+04 -0.54346538100E+03  0.37699550817E+03  0.14304567269E+04  0.10100000352E+00 0.  1.
       -3    1    3    3    0  502 -0.12683557087E+04  0.54346538100E+03 -0.48484002180E+03  0.14625835638E+04  0.10100000352E+00 0. -1.
</event>
<event>
 5   0  0.2348684E-06  0.2839379E+04  0.7818609E-02  0.8291146E-01
        1   -1    0    0  501    0  0.00000000000E+00  0.00000000000E+00  0.14362962107E+04  0.14362962107E+04  0.50400001928E-02 0. -1.
       -1   -1    0    0    0  501  0.00000000000E+00  0.00000000000E+00 -0.14032745273E+04  0.14032745273E+04  0.50400001928E-02 0.  1.
    10030    2    1    2    0    0  0.00000000000E+00  0.00000000000E+00  0.33021683471E+02  0.28395707380E+04  0.28393787251E+04 0.  0.
        5    1    3    3  502    0 -0.14035018137E+04  0.18805463679E+03  0.11807512458E+03  0.14209664713E+04  0.46999998093E+01 0. -1.
       -5    1    3    3    0  502  0.14035018137E+04 -0.18805463679E+03 -0.85053441109E+02  0.14186042667E+04  0.46999998093E+01 0.  1.
</event>
<event>
 5   0  0.6733688E-06  0.2924265E+04  0.7818609E-02  0.8265694E-01
        2   -1    0    0  501    0  0.00000000000E+00  0.00000000000E+00  0.14797135427E+04  0.14797135427E+04  0.25500000920E-02 0. -1.
       -2   -1    0    0    0  501  0.00000000000E+00  0.00000000000E+00 -0.14447605628E+04  0.14447605628E+04  0.25500000920E-02 0.  1.
    10030    2    1    2    0    0  0.00000000000E+00  0.00000000000E+00  0.34952979915E+02  0.29244741054E+04  0.29242652210E+04 0.  0.
        5    1    3    3  502    0 -0.50944169697E+03 -0.13492146718E+04  0.25811497269E+03  0.14651131363E+04  0.46999998093E+01 0.  1.
       -5    1    3    3    0  502  0.50944169697E+03  0.13492146718E+04 -0.22316199278E+03  0.14593609691E+04  0.46999998093E+01 0. -1.
</event>
<event>
 5   0  0.6615403E-06  0.2917561E+04  0.7818609E-02  0.8267672E-01
       -2   -1    0    0    0  501  0.00000000000E+00  0.00000000000E+00  0.10457534671E+04  0.10457534671E+04  0.25500000920E-02 0.  1.
        2   -1    0    0  501    0  0.00000000000E+00  0.00000000000E+00 -0.20349352955E+04  0.20349352955E+04  0.25500000920E-02 0. -1.
    10030    2    1    2    0    0  0.00000000000E+00  0.00000000000E+00 -0.98918182836E+03  0.30806887626E+04  0.29175610640E+04 0.  0.
        2    1    3    3  502    0 -0.52932572570E+03  0.47409753135E+03  0.85064575061E+03  0.11084008238E+04  0.25500000920E-02 0.  1.
       -2    1    3    3    0  502  0.52932572570E+03 -0.47409753135E+03 -0.18398275790E+04  0.19722879388E+04  0.25500000920E-02 0. -1.
</event>
<event>
 5   0  0.6733688E-06  0.2839299E+04  0.7818609E-02  0.8291170E-01
       -2   -1    0    0    0  501  0.00000000000E+00  0.00000000000E+00  0.93937936677E+03  0.93937936677E+03  0.25500000920E-02 0. -1.
        2   -1    0    0  501    0  0.00000000000E+00  0.00000000000E+00 -0.21454646028E+04  0.21454646028E+04  0.25500000920E-02 0.  1.
    10030    2    1    2    0    0  0.00000000000E+00  0.00000000000E+00 -0.12060852360E+04  0.30848439696E+04  0.28392993361E+04 0.  0.
        5    1    3    3  502    0 -0.59454782475E+03 -0.18504342046E+03 -0.19891701425E+04  0.20843579657E+04  0.46999998093E+01 0.  1.
       -5    1    3    3    0  502  0.59454782475E+03  0.18504342046E+03  0.78308490642E+03  0.10004860039E+04  0.46999998093E+01 0. -1.
</event>
<event>
 5   0  0.2474769E-06  0.2487116E+04  0.7818609E-02  0.8407590E-01
        1   -1    0    0  501    0  0.00000000000E+00  0.00000000000E+00  0.21528481720E+04  0.21528481720E+04  0.50400001928E-02 0. -1.
       -1   -1    0    0    0  501  0.00000000000E+00  0.00000000000E+00 -0.71832140774E+03  0.71832140776E+03  0.50400001928E-02 0.  1.
    10030    2    1    2    0    0  0.00000000000E+00  0.00000000000E+00  0.14345267643E+04  0.28711695798E+04  0.24871163460E+04 0.  0.
        1    1    3    3  502    0  0.67100626383E+03  0.46910654047E+03  0.17978166213E+04  0.19754632258E+04  0.50400001928E-02 0. -1.
       -1    1    3    3    0  502 -0.67100626383E+03 -0.46910654047E+03 -0.36328985703E+03  0.89570635404E+03  0.50400001928E-02 0.  1.
</event>
<event>
 5   0  0.6615403E-06  0.2954690E+04  0.7818609E-02  0.8256789E-01
       -2   -1    0    0    0  501  0.00000000000E+00  0.00000000000E+00  0.10255844276E+04  0.10255844276E+04  0.25500000920E-02 0.  1.
        2   -1    0    0  501    0  0.00000000000E+00  0.00000000000E+00 -0.21281019558E+04  0.21281019558E+04  0.25500000920E-02 0. -1.
    10030    2    1    2    0    0  0.00000000000E+00  0.00000000000E+00 -0.11025175282E+04  0.31536863833E+04  0.29546899845E+04 0.  0.
        2    1    3    3  502    0  0.14538918462E+04  0.11234822613E+03 -0.80412056028E+03  0.16652427751E+04  0.25500000920E-02 0.  1.
       -2    1    3    3    0  502 -0.14538918462E+04 -0.11234822613E+03 -0.29839696790E+03  0.14884436083E+04  0.25500000920E-02 0. -1.
</event>
<event>
 5   0  0.2348684E-06  0.2923313E+04  0.7818609E-02  0.8265975E-01
        1   -1    0    0  501    0  0.00000000000E+00  0.00000000000E+00  0.12401647878E+04  0.12401647878E+04  0.50400001928E-02 0.  1.
       -1   -1    0    0    0  501  0.00000000000E+00  0.00000000000E+00 -0.17227059090E+04  0.17227059090E+04  0.50400001928E-02 0. -1.
    10030    2    1    2    0    0  0.00000000000E+00  0.00000000000E+00 -0.48254112115E+03  0.29628706968E+04  0.29233126470E+04 0.  0.
        5    1    3    3  502    0 -0.47698010516E+03 -0.81560029028E+03  0.88903488602E+03  0.12973507516E+04  0.46999998093E+01 0.  1.
       -5    1    3    3    0  502  0.47698010516E+03  0.81560029028E+03 -0.13715760072E+04  0.16655199451E+04  0.46999998093E+01 0. -1.
</event>
<event>
 5   0  0.2508094E-06  0.2902799E+04  0.7818609E-02  0.8272045E-01
       -1   -1    0    0    0  501  0.00000000000E+00  0.00000000000E+00  0.12926473366E+04  0.12926473366E+04  0.50400001928E-02 0. -1.
        1   -1    0    0  501    0  0.00000000000E+00  0.00000000000E+00 -0.16296479404E+04  0.16296479404E+04  0.50400001928E-02 0.  1.
    10030    2    1    2    0    0  0.00000000000E+00  0.00000000000E+00 -0.33700060381E+03  0.29222952771E+04  0.29027986977E+04 0.  0.
        3    1    3    3  502    0  0.19356992389E+03 -0.72164917568E+03  0.10841694376E+04  0.13166891158E+04  0.10100000352E+00 0. -1.
       -3    1    3    3    0  502 -0.19356992389E+03  0.72164917568E+03 -0.14211700414E+04  0.16056061612E+04  0.10100000352E+00 0.  1.
</event>
<event>
 5   0  0.6393633E-06  0.2911732E+04  0.7818609E-02  0.8269395E-01
       -2   -1    0    0    0  501  0.00000000000E+00  0.00000000000E+00  0.82902201680E+03  0.82902201680E+03  0.25500000920E-02 0. -1.
        2   -1    0    0  501    0  0.00000000000E+00  0.00000000000E+00 -0.25566820025E+04  0.25566820025E+04  0.25500000920E-02 0.  1.
    10030    2    1    2    0    0  0.00000000000E+00  0.00000000000E+00 -0.17276599857E+04  0.33857040193E+04  0.29117319039E+04 0.  0.
        4    1    3    3  502    0  0.12006606144E+04 -0.82332601443E+03 -0.87500842292E+03  0.16985561486E+04  0.12699999809E+01 0. -1.
       -4    1    3    3    0  502 -0.12006606144E+04  0.82332601443E+03 -0.85265156274E+03  0.16871478706E+04  0.12699999809E+01 0.  1.
</event>
<event>
 5   0  0.2348684E-06  0.2904153E+04  0.7818609E-02  0.8271643E-01
        1   -1    0    0  501    0  0.00000000000E+00  0.00000000000E+00  0.21711539892E+04  0.21711539892E+04  0.50400001928E-02 0. -1.
       -1   -1    0    0    0  501  0.00000000000E+00  0.00000000000E+00 -0.97115463025E+03  0.97115463026E+03  0.50400001928E-02 0.  1.
    10030    2    1    2    0    0  0.00000000000E+00  0.00000000000E+00  0.11999993589E+04  0.31423086194E+04  0.29041530604E+04 0.  0.
        5    1    3    3  502    0  0.53605004371E+03  0.11498663631E+04  0.13642981821E+04  0.18630281593E+04  0.46999998093E+01 0. -1.
       -5    1    3    3    0  502 -0.53605004371E+03 -0.11498663631E+04 -0.16429882321E+03  0.12792804602E+04  0.46999998093E+01 0.  1.
</event>
<event>
 5   0  0.2474769E-06  0.2821780E+04  0.7818609E-02  0.8296538E-01
       -1   -1    0    0    0  501  0.00000000000E+00  0.00000000000E+00  0.11266043103E+04  0.11266043103E+04  0.50400001928E-02 0.  1.
        1   -1    0    0  501    0  0.00000000000E+00  0.00000000000E+00 -0.17669115641E+04  0.17669115641E+04  0.50400001928E-02 0. -1.
    10030    2    1    2    0    0  0.00000000000E+00  0.00000000000E+00 -0.64030725381E+03  0.28935158744E+04  0.28217797108E+04 0.  0.
        1    1    3    3  502    0 -0.40027833998E+03  0.12497886152E+04  0.21110603689E+03  0.13291952795E+04  0.50400001928E-02 0.  1.
       -1    1    3    3    0  502  0.40027833998E+03 -0.12497886152E+04 -0.85141329070E+03  0.15643205949E+04  0.50400001928E-02 0. -1.
</event>
<event>
 5   0  0.2348684E-06  0.2892391E+04  0.7818609E-02  0.8275145E-01
        1   -1    0    0  501    0  0.00000000000E+00  0.00000000000E+00  0.25885148368E+04  0.25885148368E+04  0.50400001928E-02 0.  1.
       -1   -1    0    0    0  501  0.00000000000E+00  0.00000000000E+00 -0.80798502919E+03  0.80798502920E+03  0.50400001928E-02 0. -1.
    10030    2    1    2    0    0  0.00000000000E+00  0.00000000000E+00  0.17805298076E+04  0.33964998660E+04  0.28923908698E+04 0.  0.
        5    1    3    3  502    0  0.10219650538E+04 -0.26630979469E+02 -0.31092171955E+03  0.10685579937E+04  0.46999998093E+01 0. -1.
       -5    1    3    3    0  502 -0.10219650538E+04  0.26630979469E+02  0.20914515271E+04  0.23279418722E+04  0.46999998093E+01 0.  1.
</event>
<event>
 5   0  0.6733688E-06  0.2891085E+04  0.7818609E-02  0.8275535E-01
       -2   -1    0    0    0  501  0.00000000000E+00  0.00000000000E+00  0.92220190330E+03  0.92220190330E+03  0.25500000920E-02 0.  1.
        2   -1    0    0  501    0  0.00000000000E+00  0.00000000000E+00 -0.22658741638E+04  0.22658741638E+04  0.25500000920E-02 0. -1.
    10030    2    1    2    0    0  0.00000000000E+00  0.00000000000E+00 -0.13436722605E+04  0.31880760671E+04  0.28910852402E+04 0.  0.
        5    1    3    3  502    0 -0.11412539207E+04  0.65329781290E+03 -0.99128686658E+01  0.13150585154E+04  0.46999998093E+01 0. -1.
       -5    1    3    3    0  502  0.11412539207E+04 -0.65329781290E+03 -0.13337593919E+04  0.18730175518E+04  0.46999998093E+01 0.  1.
</event>
<event>
 5   0  0.2336512E-06  0.2919066E+04  0.7818609E-02  0.8267227E-01
        1   -1    0    0  501    0  0.00000000000E+00  0.00000000000E+00  0.22084358875E+04  0.22084358875E+04  0.50400001928E-02 0. -1.
       -1   -1    0    0    0  501  0.00000000000E+00  0.00000000000E+00 -0.96459071555E+03  0.96459071556E+03  0.50400001928E-02 0.  1.
    10030    2    1    2    0    0  0.00000000000E+00  0.00000000000E+00  0.12438451719E+04  0.31730266031E+04  0.29190661198E+04 0.  0.
        4    1    3    3  502    0 -0.12802968155E+03 -0.12501946627E+04 -0.18484632949E+03  0.12702551210E+04  0.12699999809E+01 0.  1.
       -4    1    3    3    0  502  0.12802968155E+03  0.12501946627E+04  0.14286915014E+04  0.19027714821E+04  0.12699999809E+01 0. -1.
</event>
<event>
 5   0  0.2159500E-06  0.2893097E+04  0.7818609E-02  0.8274934E-01
        3   -1    0    0  501    0  0.00000000000E+00  0.00000000000E+00  0.15154607988E+04  0.15154608022E+04  0.10100000352E+00 0. -1.
       -3   -1    0    0    0  501  0.00000000000E+00  0.00000000000E+00 -0.13807697932E+04  0.13807697969E+04  0.10100000352E+00 0.  1.
    10030    2    1    2    0    0  0.00000000000E+00  0.00000000000E+00  0.13469100563E+03  0.28962305990E+04  0.28930969592E+04 0.  0.
        2    1    3    3  502    0 -0.10275046354E+04  0.61170637765E+03  0.88220014702E+03  0.14860106216E+04  0.25500000920E-02 0. -1.
       -2    1    3    3    0  502  0.10275046354E+04 -0.61170637765E+03 -0.74750914138E+03  0.14102199774E+04  0.25500000920E-02 0.  1.
</event>
<event>
 5   0  0.6733688E-06  0.2899508E+04  0.7818609E-02  0.8273024E-01
       -2   -1    0    0    0  501  0.00000000000E+00  0.00000000000E+00  0.13608187692E+04  0.13608187692E+04  0.25500000920E-02 0. -1.
        2   -1    0    0  501    0  0.00000000000E+00  0.00000000000E+00 -0.15445012854E+04  0.15445012854E+04  0.25500000920E-02 0.  1.
    10030    2    1    2    0    0  0.00000000000E+00  0.00000000000E+00 -0.18368251624E+03  0.29053200546E+04  0.28995077777E+04 0.  0.
        5    1    3    3  502    0  0.13300044553E+04  0.11577090990E+03 -0.65817287250E+03  0.14884651070E+04  0.46999998093E+01 0.  1.
       -5    1    3    3    0  502 -0.13300044553E+04 -0.11577090990E+03  0.47449035626E+03  0.14168549477E+04  0.46999998093E+01 0. -1.
</event>
<event>
 5   0  0.2348684E-06  0.2845626E+04  0.7818609E-02  0.8289242E-01
       -1   -1    0    0    0  501  0.00000000000E+00  0.00000000000E+00  0.18111245862E+04  0.18111245862E+04  0.50400001928E-02 0.  1.
        1   -1    0    0  501    0  0.00000000000E+00  0.00000000000E+00 -0.11177571617E+04  0.11177571617E+04  0.50400001928E-02 0. -1.
    10030    2    1    2    0    0  0.00000000000E+00  0.00000000000E+00  0.69336742456E+03  0.29288817479E+04  0.28456264526E+04 0.  0.
        5    1    3    3  502    0  0.11374880269E+04 -0.55532341160E+03  0.10153939063E+04  0.16227476630E+04  0.46999998093E+01 0. -1.
       -5    1    3    3    0  502 -0.11374880269E+04  0.55532341160E+03 -0.32202648170E+03  0.13061340849E+04  0.46999998093E+01 0.  1.
</event>
<event>
 5   0  0.6393633E-06  0.2911101E+04  0.7818609E-02  0.8269582E-01
        2   -1    0    0  501    0  0.00000000000E+00  0.00000000000E+00  0.24989276526E+04  0.24989276526E+04  0.25500000920E-02 0. -1.
       -2   -1    0    0    0  501  0.00000000000E+00  0.00000000000E+00 -0.84781427855E+03  0.84781427856E+03  0.25500000920E-02 0.  1.
    10030    2    1    2    0    0  0.00000000000E+00  0.00000000000E+00  0.16511133741E+04  0.33467419312E+04  0.29111005101E+04 0.  0.
        4    1    3    3  502    0  0.36967281642E+03  0.13987566116E+04  0.10089495018E+04  0.17638477144E+04  0.12699999809E+01 0.  1.
       -4    1    3    3    0  502 -0.36967281642E+03 -0.13987566116E+04  0.64216387232E+03  0.15828942168E+04  0.12699999809E+01 0. -1.
</event>
<event>
 5   0  0.2336512E-06  0.2883142E+04  0.7818609E-02  0.8277911E-01
        1   -1    0    0  501    0  0.00000000000E+00  0.00000000000E+00  0.19351472211E+04  0.19351472211E+04  0.50400001928E-02 0. -1.
       -1   -1    0    0    0  501  0.00000000000E+00  0.00000000000E+00 -0.10738855691E+04  0.10738855691E+04  0.50400001928E-02 0.  1.
    10030    2    1    2    0    0  0.00000000000E+00  0.00000000000E+00  0.86126165207E+03  0.30090327902E+04  0.28831418105E+04 0.  0.
        4    1    3    3  502    0  0.68047561972E+03 -0.11980600489E+04 -0.11826447565E+02  0.13778738794E+04  0.12699999809E+01 0.  1.
       -4    1    3    3    0  502 -0.68047561972E+03  0.11980600489E+04  0.87308809963E+03  0.16311589108E+04  0.12699999809E+01 0. -1.
</event>
<event>
 5   0  0.2429358E-06  0.2882822E+04  0.7818609E-02  0.8278007E-01
       -1   -1    0    0    0  501  0.00000000000E+00  0.00000000000E+00  0.65277276344E+03  0.65277276346E+03  0.50400001928E-02 0.  1.
        1   -1    0    0  501    0  0.00000000000E+00  0.00000000000E+00 -0.31828314747E+04  0.31828314747E+04  0.50400001928E-02 0. -1.
    10030    2    1    2    0    0  0.00000000000E+00  0.00000000000E+00 -0.25300587113E+04  0.38356042382E+04  0.28828220183E+04 0.  0.
        2    1    3    3  502    0  0.19511825617E+03  0.86795798646E+03 -0.27739887578E+04  0.29131487825E+04  0.25500000920E-02 0. -1.
       -2    1    3    3    0  502 -0.19511825617E+03 -0.86795798646E+03  0.24393004657E+03  0.92245545571E+03  0.25500000920E-02 0.  1.
</event>
<event>
 5   0  0.2508094E-06  0.2424115E+04  0.7818609E-02  0.8430530E-01
       -1   -1    0    0    0  501  0.00000000000E+00  0.00000000000E+00  0.94621542816E+03  0.94621542817E+03  0.50400001928E-02 0. -1.
        1   -1    0    0  501    0  0.00000000000E+00  0.00000000000E+00 -0.15525880747E+04  0.15525880747E+04  0.50400001928E-02 0.  1.
    10030    2    1    2    0    0  0.00000000000E+00  0.00000000000E+00 -0.60637264654E+03  0.24988035029E+04  0.24241145104E+04 0.  0.
        3    1    3    3  502    0 -0.80711096924E+03  0.86365012354E+03 -0.27046112232E+02  0.11823921325E+04  0.10100000352E+00 0. -1.
       -3    1    3    3    0  502  0.80711096924E+03 -0.86365012354E+03 -0.57932653431E+03  0.13164113704E+04  0.10100000352E+00 0.  1.
</event>
<event>
 5   0  0.6612533E-06  0.2897316E+04  0.7818609E-02  0.8273676E-01
       -2   -1    0    0    0  501  0.00000000000E+00  0.00000000000E+00  0.11432716300E+04  0.11432716300E+04  0.25500000920E-02 0.  1.
        2   -1    0    0  501    0  0.00000000000E+00  0.00000000000E+00 -0.18356180344E+04  0.18356180344E+04  0.25500000920E-02 0. -1.
    10030    2    1    2    0    0  0.00000000000E+00  0.00000000000E+00 -0.69234640440E+03  0.29788896644E+04  0.28973160147E+04 0.  0.
        3    1    3    3  502    0 -0.87995487261E+03 -0.13454851206E+02  0.83692371084E+03  0.12144722800E+04  0.10100000352E+00 0.  1.
       -3    1    3    3    0  502  0.87995487261E+03  0.13454851206E+02 -0.15292701152E+04  0.17644173844E+04  0.10100000352E+00 0. -1.
</event>
<event>
 5   0  0.2429358E-06  0.2869776E+04  0.7818609E-02  0.8281927E-01
        1   -1    0    0  501    0  0.00000000000E+00  0.00000000000E+00  0.21857089629E+04  0.21857089629E+04  0.50400001928E-02 0. -1.
       -1   -1    0    0    0  501  0.00000000000E+00  0.00000000000E+00 -0.94198449211E+03  0.94198449212E+03  0.50400001928E-02 0.  1.
    10030    2    1    2    0    0  0.00000000000E+00  0.00000000000E+00  0.12437244708E+04  0.31276934551E+04  0.28697762612E+04 0.  0.
        2    1    3    3  502    0 -0.23057158331E+03  0.14162303664E+04  0.61567375932E+03  0.15613858856E+04  0.25500000920E-02 0.  1.
       -2    1    3    3    0  502  0.23057158331E+03 -0.14162303664E+04  0.62805071152E+03  0.15663075695E+04  0.25500000920E-02 0. -1.
</event>
<event>
 5   0  0.2429358E-06  0.2908634E+04  0.7818609E-02  0.8270313E-01
       -1   -1    0    0    0  501  0.00000000000E+00  0.00000000000E+00  0.19025153621E+04  0.19025153621E+04  0.50400001928E-02 0. -1.
        1   -1    0    0  501    0  0.00000000000E+00  0.00000000000E+00 -0.11117063288E+04  0.11117063288E+04  0.50400001928E-02 0.  1.
    10030    2    1    2    0    0  0.00000000000E+00  0.00000000000E+00  0.79080903330E+03  0.30142216910E+04  0.29086342973E+04 0.  0.
        2    1    3    3  502    0  0.19949513416E+03 -0.70517669540E+03 -0.90636733139E+03  0.11655789204E+04  0.25500000920E-02 0.  1.
       -2    1    3    3    0  502 -0.19949513416E+03  0.70517669540E+03  0.16971763647E+04  0.18486427706E+04  0.25500000920E-02 0. -1.
</event>
<event>
 5   0  0.6733688E-06  0.2919125E+04  0.7818609E-02  0.8267210E-01
        2   -1    0    0  501    0  0.00000000000E+00  0.00000000000E+00  0.16538011283E+04  0.16538011283E+04  0.25500000920E-02 0. -1.
       -2   -1    0    0    0  501  0.00000000000E+00  0.00000000000E+00 -0.12881367935E+04  0.12881367935E+04  0.25500000920E-02 0.  1.
    10030    2    1    2    0    0  0.00000000000E+00  0.00000000000E+00  0.36566433475E+03  0.29419379218E+04  0.29191245828E+04 0.  0.
        5    1    3    3  502    0 -0.35290745318E+03 -0.12398703859E+04  0.87263561059E+03  0.15567071797E+04  0.46999998093E+01 0. -1.
       -5    1    3    3    0  502  0.35290745318E+03  0.12398703859E+04 -0.50697127584E+03  0.13852307421E+04  0.46999998093E+01 0.  1.
</event>
<event>
 5   0  0.6393633E-06  0.2889757E+04  0.7818609E-02  0.8275932E-01
        2   -1    0    0  501    0  0.00000000000E+00  0.00000000000E+00  0.25893634588E+04  0.25893634588E+04  0.25500000920E-02 0.  1.
       -2   -1    0    0    0  501  0.00000000000E+00  0.00000000000E+00 -0.80624973104E+03  0.80624973104E+03  0.25500000920E-02 0. -1.
    10030    2    1    2    0    0  0.00000000000E+00  0.00000000000E+00  0.17831137278E+04  0.33956131898E+04  0.28897568010E+04 0.  0.
        4    1    3    3  502    0 -0.11051387152E+04  0.91315715255E+03  0.67977223484E+03  0.15865936686E+04  0.12699999809E+01 0. -1.
       -4    1    3    3    0  502  0.11051387152E+04 -0.91315715255E+03  0.11033414929E+04  0.18090195212E+04  0.12699999809E+01 0.  1.
</event>
<event>
 5   0  0.2429358E-06  0.2898422E+04  0.7818609E-02  0.8273347E-01
       -1   -1    0    0    0  501  0.00000000000E+00  0.00000000000E+00  0.82034937062E+03  0.82034937063E+03  0.50400001928E-02 0.  1.
        1   -1    0    0  501    0  0.00000000000E+00  0.00000000000E+00 -0.25601440928E+04  0.25601440928E+04  0.50400001928E-02 0. -1.
    10030    2    1    2    0    0  0.00000000000E+00  0.00000000000E+00 -0.17397947222E+04  0.33804934634E+04  0.28984220502E+04 0.  0.
        2    1    3    3  502    0  0.32224604974E+02 -0.83611336698E+02  0.81711530239E+03  0.82201380657E+03  0.25500000920E-02 0.  1.
       -2    1    3    3    0  502 -0.32224604974E+02  0.83611336698E+02 -0.25569100245E+04  0.25584796568E+04  0.25500000920E-02 0. -1.
</event>
<event>
 5   0  0.2508094E-06  0.2782324E+04  0.7818609E-02  0.8308777E-01
       -1   -1    0    0    0  501  0.00000000000E+00  0.00000000000E+00  0.14664073866E+04  0.14664073866E+04  0.50400001928E-02 0. -1.
        1   -1    0    0  501    0  0.00000000000E+00  0.00000000000E+00 -0.13197777814E+04  0.13197777814E+04  0.50400001928E-02 0.  1.
    10030    2    1    2    0    0  0.00000000000E+00  0.00000000000E+00  0.14662960513E+03  0.27861851680E+04  0.27823241273E+04 0.  0.
        3    1    3    3  502    0  0.10805228482E+04  0.50355643298E+03 -0.64478085048E+03  0.13553010965E+04  0.10100000352E+00 0.  1.
       -3    1    3    3    0  502 -0.10805228482E+04 -0.50355643298E+03  0.79141045561E+03  0.14308840715E+04  0.10100000352E+00 0. -1.
</event>
<event>
 5   0  0.2508094E-06  0.2871779E+04  0.7818609E-02  0.8281324E-01
        1   -1    0    0  501    0  0.00000000000E+00  0.00000000000E+00  0.22641437859E+04  0.22641437859E+04  0.50400001928E-02 0. -1.
       -1   -1    0    0    0  501  0.00000000000E+00  0.00000000000E+00 -0.91062180753E+03  0.91062180755E+03  0.50400001928E-02 0.  1.
    10030    2    1    2    0    0  0.00000000000E+00  0.00000000000E+00  0.13535219784E+04  0.31747655934E+04  0.28717790353E+04 0.  0.
        3    1    3    3  502    0  0.33433083179E+03  0.70786776893E+03 -0.65394946646E+03  0.10200508802E+04  0.10100000352E+00 0.  1.
       -3    1    3    3    0  502 -0.33433083179E+03 -0.70786776893E+03  0.20074714448E+04  0.21547147132E+04  0.10100000352E+00 0. -1.
</event>
<event>
 5   0  0.6615403E-06  0.2909947E+04  0.7818609E-02  0.8269924E-01
        2   -1    0    0  501    0  0.00000000000E+00  0.00000000000E+00  0.25988132679E+04  0.25988132679E+04  0.25500000920E-02 0.  1.
       -2   -1    0    0    0  501  0.00000000000E+00  0.00000000000E+00 -0.81458261212E+03  0.81458261213E+03  0.25500000920E-02 0. -1.
    10030    2    1    2    0    0  0.00000000000E+00  0.00000000000E+00  0.17842306558E+04  0.34133958800E+04  0.29099471474E+04 0.  0.
        2    1    3    3  502    0  0.11849232555E+04  0.30972221250E+03  0.18134896227E+04  0.21883134104E+04  0.25500000920E-02 0.  1.
       -2    1    3    3    0  502 -0.11849232555E+04 -0.30972221250E+03 -0.29258966957E+02  0.12250824696E+04  0.25500000920E-02 0. -1.
</event>
<event>
 5   0  0.2474769E-06  0.2885577E+04  0.7818609E-02  0.8277182E-01
       -1   -1    0    0    0  501  0.00000000000E+00  0.00000000000E+00  0.13147470845E+04  0.13147470845E+04  0.50400001928E-02 0. -1.
        1   -1    0    0  501    0  0.00000000000E+00  0.00000000000E+00 -0.15832996469E+04  0.15832996469E+04  0.50400001928E-02 0.  1.
    10030    2    1    2    0    0  0.00000000000E+00  0.00000000000E+00 -0.26855256236E+03  0.28980467314E+04  0.28855769577E+04 0.  0.
        1    1    3    3  502    0  0.64771862986E+02  0.58567155124E+03  0.11883933009E+04  0.13264558786E+04  0.50400001928E-02 0. -1.
       -1    1    3    3    0  502 -0.64771862986E+02 -0.58567155124E+03 -0.14569458633E+04  0.15715908528E+04  0.50400001928E-02 0.  1.
</event>
<event>
 5   0  0.6733688E-06  0.2672403E+04  0.7818609E-02  0.8344015E-01
       -2   -1    0    0    0  501  0.00000000000E+00  0.00000000000E+00  0.11932078882E+04  0.11932078882E+04  0.25500000920E-02 0. -1.
        2   -1    0    0  501    0  0.00000000000E+00  0.00000000000E+00 -0.14963309467E+04  0.14963309467E+04  0.25500000920E-02 0.  1.
    10030    2    1    2    0    0  0.00000000000E+00  0.00000000000E+00 -0.30312305844E+03  0.26895388349E+04  0.26724025812E+04 0.  0.
        5    1    3    3  502    0 -0.52331941468E+03 -0.53130459551E+03 -0.12673927825E+04  0.14705285914E+04  0.46999998093E+01 0.  1.
       -5    1    3    3    0  502  0.52331941468E+03  0.53130459551E+03  0.96426972406E+03  0.12190102435E+04  0.46999998093E+01 0. -1.
</event>
<event>
 5   0  0.2508094E-06  0.2897017E+04  0.7818609E-02  0.8273766E-01
       -1   -1    0    0    0  501  0.00000000000E+00  0.00000000000E+00  0.19843589830E+04  0.19843589830E+04  0.50400001928E-02 0.  1.
        1   -1    0    0  501    0  0.00000000000E+00  0.00000000000E+00 -0.10573576362E+04  0.10573576363E+04  0.50400001928E-02 0. -1.
    10030    2    1    2    0    0  0.00000000000E+00  0.00000000000E+00  0.92700134671E+03  0.30417166192E+04  0.28970171720E+04 0.  0.
        3    1    3    3  502    0  0.10536638227E+04  0.20681172795E+03  0.14842737562E+04  0.18319517285E+04  0.10100000352E+00 0.  1.
       -3    1    3    3    0  502 -0.10536638227E+04 -0.20681172795E+03 -0.55727240948E+03  0.12097648907E+04  0.10100000352E+00 0. -1.
</event>
<event>
 5   0  0.6615403E-06  0.2885597E+04  0.7818609E-02  0.8277176E-01
       -2   -1    0    0    0  501  0.00000000000E+00  0.00000000000E+00  0.90176747654E+03  0.90176747654E+03  0.25500000920E-02 0. -1.
        2   -1    0    0  501    0  0.00000000000E+00  0.00000000000E+00 -0.23084308763E+04  0.23084308763E+04  0.25500000920E-02 0.  1.
    10030    2    1    2    0    0  0.00000000000E+00  0.00000000000E+00 -0.14066633998E+04  0.32101983528E+04  0.28855972596E+04 0.  0.
        2    1    3    3  502    0 -0.10407458361E+04 -0.44447067444E+03  0.29230765667E+03  0.11688241279E+04  0.25500000920E-02 0. -1.
       -2    1    3    3    0  502  0.10407458361E+04  0.44447067444E+03 -0.16989710564E+04  0.20413742250E+04  0.25500000920E-02 0.  1.
</event>
<event>
 5   0  0.6733688E-06  0.2889677E+04  0.7818609E-02  0.8275955E-01
       -2   -1    0    0    0  501  0.00000000000E+00  0.00000000000E+00  0.14837675106E+04  0.14837675106E+04  0.25500000920E-02 0. -1.
        2   -1    0    0  501    0  0.00000000000E+00  0.00000000000E+00 -0.14069309947E+04  0.14069309948E+04  0.25500000920E-02 0.  1.
    10030    2    1    2    0    0  0.00000000000E+00  0.00000000000E+00  0.76836515850E+02  0.28906985054E+04  0.28896771444E+04 0.  0.
        5    1    3    3  502    0 -0.73227189117E+03 -0.94358155333E+03  0.85170508454E+03  0.14669669088E+04  0.46999998093E+01 0. -1.
       -5    1    3    3    0  502  0.73227189117E+03  0.94358155333E+03 -0.77486856869E+03  0.14237315966E+04  0.46999998093E+01 0.  1.
</event>
<event>
 5   0  0.2474769E-06  0.2407670E+04  0.7818609E-02  0.8436637E-01
        1   -1    0    0  501    0  0.00000000000E+00  0.00000000000E+00  0.17273581876E+04  0.17273581876E+04  0.50400001928E-02 0.  1.
       -1   -1    0    0    0  501  0.00000000000E+00  0.00000000000E+00 -0.83898015660E+03  0.83898015661E+03  0.50400001928E-02 0. -1.
    10030    2    1    2    0    0  0.00000000000E+00  0.00000000000E+00  0.88837803102E+03  0.25663383442E+04  0.24076704449E+04 0.  0.
        1    1    3    3  502    0  0.63790527448E+03  0.83308900929E+03 -0.18483601098E+03  0.10654223517E+04  0.50400001928E-02 0. -1.
       -1    1    3    3    0  502 -0.63790527448E+03 -0.83308900929E+03  0.10732140420E+04  0.15009159925E+04  0.50400001928E-02 0.  1.
</event>
<event>
 5   0  0.2336512E-06  0.2870657E+04  0.7818609E-02  0.8281662E-01
        1   -1    0    0  501    0  0.00000000000E+00  0.00000000000E+00  0.17651827142E+04  0.17651827142E+04  0.50400001928E-02 0. -1.
       -1   -1    0    0    0  501  0.00000000000E+00  0.00000000000E+00 -0.11671129145E+04  0.11671129145E+04  0.50400001928E-02 0.  1.
    10030    2    1    2    0    0  0.00000000000E+00  0.00000000000E+00  0.59806979977E+03  0.29322956287E+04  0.28706567487E+04 0.  0.
        4    1    3    3  502    0 -0.86950307031E+03  0.57167886444E+03 -0.71078392317E+03  0.12601855862E+04  0.12699999809E+01 0.  1.
       -4    1    3    3    0  502  0.86950307031E+03 -0.57167886444E+03  0.13088537229E+04  0.16721100425E+04  0.12699999809E+01 0. -1.
</event>
<event>
 5   0  0.6612533E-06  0.2895790E+04  0.7818609E-02  0.8274131E-01
       -2   -1    0    0    0  501  0.00000000000E+00  0.00000000000E+00  0.88268088412E+03  0.88268088412E+03  0.25500000920E-02 0.  1.
        2   -1    0    0  501    0  0.00000000000E+00  0.00000000000E+00 -0.23750378065E+04  0.23750378065E+04  0.25500000920E-02 0. -1.
    10030    2    1    2    0    0  0.00000000000E+00  0.00000000000E+00 -0.14923569223E+04  0.32577186906E+04  0.28957903728E+04 0.  0.
        3    1    3    3  502    0  0.38727246751E+02 -0.10157835372E+04 -0.19061046280E+04  0.21602200946E+04  0.10100000352E+00 0. -1.
       -3    1    3    3    0  502 -0.38727246751E+02  0.10157835372E+04  0.41374770563E+03  0.10974985960E+04  0.10100000352E+00 0.  1.
</event>
<event>
 5   0  0.2348684E-06  0.2894613E+04  0.7818609E-02  0.8274482E-01
        1   -1    0    0  501    0  0.00000000000E+00  0.00000000000E+00  0.27864260415E+04  0.27864260415E+04  0.50400001928E-02 0.  1.
       -1   -1    0    0    0  501  0.00000000000E+00  0.00000000000E+00 -0.75174993115E+03  0.75174993117E+03  0.50400001928E-02 0. -1.
    10030    2    1    2    0    0  0.00000000000E+00  0.00000000000E+00  0.20346761104E+04  0.35381759727E+04  0.28946126407E+04 0.  0.
        5    1    3    3  502    0 -0.50047053979E+02 -0.38057689587E+02 -0.75007050044E+03  0.75271571059E+03  0.46999998093E+01 0. -1.
       -5    1    3    3    0  502  0.50047053979E+02  0.38057689587E+02  0.27847466108E+04  0.27854602621E+04  0.46999998093E+01 0.  1.
</event>
<event>
 5   0  0.6513041E-06  0.2906042E+04  0.7818609E-02  0.8271082E-01
       -2   -1    0    0    0  501  0.00000000000E+00  0.00000000000E+00  0.22462179675E+04  0.22462179675E+04  0.25500000920E-02 0. -1.
        2   -1    0    0  501    0  0.00000000000E+00  0.00000000000E+00 -0.93992207818E+03  0.93992207819E+03  0.25500000920E-02 0.  1.
    10030    2    1    2    0    0  0.00000000000E+00  0.00000000000E+00  0.13062958893E+04  0.31861400457E+04  0.29060418855E+04 0.  0.
        1    1    3    3  502    0  0.54484723570E+02  0.60950860905E+03 -0.79175262765E+03  0.10006705517E+04  0.50400001928E-02 0.  1.
       -1    1    3    3    0  502 -0.54484723570E+02 -0.60950860905E+03  0.20980485169E+04  0.21854694940E+04  0.50400001928E-02 0. -1.
</event>
<event>
 5   0  0.2474769E-06  0.2916353E+04  0.7818609E-02  0.8268029E-01
       -1   -1    0    0    0  501  0.00000000000E+00  0.00000000000E+00  0.11225449076E+04  0.11225449076E+04  0.50400001928E-02 0.  1.
        1   -1    0    0  501    0  0.00000000000E+00  0.00000000000E+00 -0.18941589993E+04  0.18941589993E+04  0.50400001928E-02 0. -1.
    10030    2    1    2    0    0  0.00000000000E+00  0.00000000000E+00 -0.77161409173E+03  0.30167039069E+04  0.29163528860E+04 0.  0.
        1    1    3    3  502    0  0.13581030546E+03  0.10702377669E+04 -0.14005968852E+04  0.17679154255E+04  0.50400001928E-02 0. -1.
       -1    1    3    3    0  502 -0.13581030546E+03 -0.10702377669E+04  0.62898279348E+03  0.12487884814E+04  0.50400001928E-02 0.  1.
</event>
<event>
 5   0  0.6615403E-06  0.2856787E+04  0.7818609E-02  0.8285852E-01
        2   -1    0    0  501    0  0.00000000000E+00  0.00000000000E+00  0.12706352400E+04  0.12706352400E+04  0.25500000920E-02 0. -1.
       -2   -1    0    0    0  501  0.00000000000E+00  0.00000000000E+00 -0.16057381991E+04  0.16057381991E+04  0.25500000920E-02 0.  1.
    10030    2    1    2    0    0  0.00000000000E+00  0.00000000000E+00 -0.33510295910E+03  0.28763734390E+04  0.28567866857E+04 0.  0.
        2    1    3    3  502    0  0.59580552995E+03  0.12887654935E+04 -0.32484941126E+03  0.14565122268E+04  0.25500000920E-02 0.  1.
       -2    1    3    3    0  502 -0.59580552995E+03 -0.12887654935E+04 -0.10253547845E+02  0.14198612123E+04  0.25500000920E-02 0. -1.
</event>
<event>
 5   0  0.2508094E-06  0.2869990E+04  0.7818609E-02  0.8281863E-01
       -1   -1    0    0    0  501  0.00000000000E+00  0.00000000000E+00  0.16596064925E+04  0.16596064925E+04  0.50400001928E-02 0.  1.
        1   -1    0    0  501    0  0.00000000000E+00  0.00000000000E+00 -0.12407822475E+04  0.12407822475E+04  0.50400001928E-02 0. -1.
    10030    2    1    2    0    0  0.00000000000E+00  0.00000000000E+00  0.41882424500E+03  0.29003887400E+04  0.28699897378E+04 0.  0.
        3    1    3    3  502    0  0.47696134511E+03 -0.48015253836E+03 -0.10693648775E+04  0.12655353951E+04  0.10100000352E+00 0. -1.
       -3    1    3    3    0  502 -0.47696134511E+03  0.48015253836E+03  0.14881891225E+04  0.16348533449E+04  0.10100000352E+00 0.  1.
</event>
<event>
 5   0  0.6393633E-06  0.2871069E+04  0.7818609E-02  0.8281538E-01
        2   -1    0    0  501    0  0.00000000000E+00  0.00000000000E+00  0.19815145457E+04  0.19815145457E+04  0.25500000920E-02 0.  1.
       -2   -1    0    0    0  501  0.00000000000E+00  0.00000000000E+00 -0.10399922657E+04  0.10399922657E+04  0.25500000920E-02 0. -1.
    10030    2    1    2    0    0  0.00000000000E+00  0.00000000000E+00  0.94152228001E+03  0.30215068114E+04  0.28710693492E+04 0.  0.
        4    1    3    3  502    0 -0.44769325936E+02 -0.12655517343E+04 -0.24078168107E+03  0.12890317744E+04  0.12699999809E+01 0.  1.
       -4    1    3    3    0  502  0.44769325936E+02  0.12655517343E+04  0.11823039611E+04  0.17324750370E+04  0.12699999809E+01 0. -1.
</event>
<event>
 5   0  0.6513041E-06  0.2871042E+04  0.7818609E-02  0.8281546E-01
       -2   -1    0    0    0  501  0.00000000000E+00  0.00000000000E+00  0.90799066039E+03  0.90799066039E+03  0.25500000920E-02 0. -1.
        2   -1    0    0  501    0  0.00000000000E+00  0.00000000000E+00 -0.22695399357E+04  0.22695399357E+04  0.25500000920E-02 0.  1.
    10030    2    1    2    0    0  0.00000000000E+00  0.00000000000E+00 -0.13615492753E+04  0.31775305960E+04  0.28710423647E+04 0.  0.
        1    1    3    3  502    0 -0.52606211180E+03 -0.12543477127E+04 -0.17288354615E+03  0.13711375753E+04  0.50400001928E-02 0. -1.
       -1    1    3    3    0  502  0.52606211180E+03  0.12543477127E+04 -0.11886657291E+04  0.18063930208E+04  0.50400001928E-02 0.  1.
</event>
<event>
 5   0  0.2508094E-06  0.2868311E+04  0.7818609E-02  0.8282369E-01
        1   -1    0    0  501    0  0.00000000000E+00  0.00000000000E+00  0.35131382579E+04  0.35131382579E+04  0.50400001928E-02 0. -1.
       -1   -1    0    0    0  501  0.00000000000E+00  0.00000000000E+00 -0.58545984907E+03  0.58545984909E+03  0.50400001928E-02 0.  1.
    10030    2    1    2    0    0  0.00000000000E+00  0.00000000000E+00  0.29276784089E+04  0.40985981070E+04  0.28683105789E+04 0.  0.
        3    1    3    3  502    0  0.99729229776E+03 -0.13385483431E+03  0.29240656406E+04  0.30923565326E+04  0.10100000352E+00 0. -1.
       -3    1    3    3    0  502 -0.99729229776E+03  0.13385483431E+03  0.36127682508E+01  0.10062415744E+04  0.10100000352E+00 0.  1.
</event>
<event>
 5   0  0.2348684E-06  0.2884051E+04  0.7818609E-02  0.8277639E-01
       -1   -1    0    0    0  501  0.00000000000E+00  0.00000000000E+00  0.97179719336E+03  0.97179719337E+03  0.50400001928E-02 0. -1.
        1   -1    0    0  501    0  0.00000000000E+00  0.00000000000E+00 -0.21397856136E+04  0.21397856136E+04  0.50400001928E-02 0.  1.
    10030    2    1    2    0    0  0.00000000000E+00  0.00000000000E+00 -0.11679884203E+04  0.31115828070E+04  0.28840510770E+04 0.  0.
        5    1    3    3  502    0 -0.90152559924E+03 -0.27073098504E+03  0.59460546686E+03  0.11133828738E+04  0.46999998093E+01 0. -1.
       -5    1    3    3    0  502  0.90152559924E+03  0.27073098504E+03 -0.17625938871E+04  0.19981999333E+04  0.46999998093E+01 0.  1.
</event>
<event>
 5   0  0.2508094E-06  0.2886814E+04  0.7818609E-02  0.8276812E-01
        1   -1    0    0  501    0  0.00000000000E+00  0.00000000000E+00  0.17861097884E+04  0.17861097884E+04  0.50400001928E-02 0. -1.
       -1   -1    0    0    0  501  0.00000000000E+00  0.00000000000E+00 -0.11664586804E+04  0.11664586804E+04  0.50400001928E-02 0.  1.
    10030    2    1    2    0    0  0.00000000000E+00  0.00000000000E+00  0.61965110806E+03  0.29525684688E+04  0.28868136530E+04 0.  0.
        3    1    3    3  502    0  0.11947838488E+04  0.73752269572E+03  0.65207434818E+03  0.15481114746E+04  0.10100000352E+00 0. -1.
       -3    1    3    3    0  502 -0.11947838488E+04 -0.73752269572E+03 -0.32423240122E+02  0.14044569942E+04  0.10100000352E+00 0.  1.
</event>
<event>
 5   0  0.2348684E-06  0.2893487E+04  0.7818609E-02  0.8274818E-01
        1   -1    0    0  501    0  0.00000000000E+00  0.00000000000E+00  0.12189872048E+04  0.12189872048E+04  0.50400001928E-02 0. -1.
       -1   -1    0    0    0  501  0.00000000000E+00  0.00000000000E+00 -0.17170543712E+04  0.17170543712E+04  0.50400001928E-02 0.  1.
    10030    2    1    2    0    0  0.00000000000E+00  0.00000000000E+00 -0.49806716642E+03  0.29360415760E+04  0.28934873827E+04 0.  0.
        5    1    3    3  502    0 -0.42863764825E+03  0.70611907518E+03 -0.14542349332E+04  0.16724699437E+04  0.46999998093E+01 0.  1.
       -5    1    3    3    0  502  0.42863764825E+03 -0.70611907518E+03  0.95616776675E+03  0.12635716323E+04  0.46999998093E+01 0. -1.
</event>
<event>
 5   0  0.6615403E-06  0.3031514E+04  0.7818609E-02  0.8234789E-01
        2   -1    0    0  501    0  0.00000000000E+00  0.00000000000E+00  0.11564414199E+04  0.11564414199E+04  0.25500000920E-02 0. -1.
       -2   -1    0    0    0  501  0.00000000000E+00  0.00000000000E+00 -0.19867151748E+04  0.19867151748E+04  0.25500000920E-02 0.  1.
    10030    2    1    2    0    0  0.00000000000E+00  0.00000000000E+00 -0.83027375498E+03  0.31431565947E+04  0.30315142867E+04 0.  0.
        2    1    3    3  502    0  0.95639957364E+02  0.11901867795E+04 -0.13832404930E+04  0.18273056211E+04  0.25500000920E-02 0.  1.
       -2    1    3    3    0  502 -0.95639957364E+02 -0.11901867795E+04  0.55296673797E+03  0.13158509736E+04  0.25500000920E-02 0. -1.
</event>
<event>
 5   0  0.2508094E-06  0.2896889E+04  0.7818609E-02  0.8273804E-01
       -1   -1    0    0    0  501  0.00000000000E+00  0.00000000000E+00  0.27233956426E+04  0.27233956426E+04  0.50400001928E-02 0.  1.
        1   -1    0    0  501    0  0.00000000000E+00  0.00000000000E+00 -0.77035891415E+03  0.77035891417E+03  0.50400001928E-02 0. -1.
    10030    2    1    2    0    0  0.00000000000E+00  0.00000000000E+00  0.19530367285E+04  0.34937545568E+04  0.28968894422E+04 0.  0.
        3    1    3    3  502    0  0.12053521218E+04  0.51285940123E+03  0.23102230737E+03  0.13301390227E+04  0.10100000352E+00 0.  1.
       -3    1    3    3    0  502 -0.12053521218E+04 -0.51285940123E+03  0.17220144211E+04  0.21636155341E+04  0.10100000352E+00 0. -1.
</event>
<event>
 5   0  0.6513041E-06  0.2887282E+04  0.7818609E-02  0.8276671E-01
        2   -1    0    0  501    0  0.00000000000E+00  0.00000000000E+00  0.25421577817E+04  0.25421577817E+04  0.25500000920E-02 0.  1.
       -2   -1    0    0    0  501  0.00000000000E+00  0.00000000000E+00 -0.81981534082E+03  0.81981534083E+03  0.25500000920E-02 0. -1.
    10030    2    1    2    0    0  0.00000000000E+00  0.00000000000E+00  0.17223424409E+04  0.33619731225E+04  0.28872824235E+04 0.  0.
        1    1    3    3  502    0 -0.19632895967E+03 -0.10654092407E+04  0.19722246319E+04  0.22501804171E+04  0.50400001928E-02 0.  1.
       -1    1    3    3    0  502  0.19632895967E+03  0.10654092407E+04 -0.24988219102E+03  0.11117927055E+04  0.50400001928E-02 0. -1.
</event>
<event>
 5   0  0.6393633E-06  0.2911655E+04  0.7818609E-02  0.8269418E-01
        2   -1    0    0  501    0  0.00000000000E+00  0.00000000000E+00  0.22885161598E+04  0.22885161598E+04  0.25500000920E-02 0. -1.
       -2   -1    0    0    0  501  0.00000000000E+00  0.00000000000E+00 -0.92611707112E+03  0.92611707113E+03  0.25500000920E-02 0.  1.
    10030    2    1    2    0    0  0.00000000000E+00  0.00000000000E+00  0.13623990887E+04  0.32146332309E+04  0.29116551191E+04 0.  0.
        4    1    3    3  502    0  0.49891641610E+03  0.91221910698E+03 -0.44383995091E+03  0.11305117444E+04  0.12699999809E+01 0.  1.
       -4    1    3    3    0  502 -0.49891641610E+03 -0.91221910698E+03  0.18062390396E+04  0.20841214865E+04  0.12699999809E+01 0. -1.
</event>
<event>
 5   0  0.2348684E-06  0.2498513E+04  0.7818609E-02  0.8403516E-01
        1   -1    0    0  501    0  0.00000000000E+00  0.00000000000E+00  0.24688155775E+04  0.24688155775E+04  0.50400001928E-02 0.  1.
       -1   -1    0    0    0  501  0.00000000000E+00  0.00000000000E+00 -0.63214183037E+03  0.63214183039E+03  0.50400001928E-02 0. -1.
    10030    2    1    2    0    0  0.00000000000E+00  0.00000000000E+00  0.18366737471E+04  0.31009574079E+04  0.24985128361E+04 0.  0.
        5    1    3    3  502    0  0.21283880690E+03 -0.47829439147E+03 -0.48942164070E+03  0.71667392518E+03  0.46999998093E+01 0. -1.
       -5    1    3    3    0  502 -0.21283880690E+03  0.47829439147E+03  0.23260953878E+04  0.23842834827E+04  0.46999998093E+01 0.  1.
</event>
<event>
 5   0  0.6612533E-06  0.2896415E+04  0.7818609E-02  0.8273945E-01
        2   -1    0    0  501    0  0.00000000000E+00  0.00000000000E+00  0.26912013286E+04  0.26912013286E+04  0.25500000920E-02 0.  1.
       -2   -1    0    0    0  501  0.00000000000E+00  0.00000000000E+00 -0.77931939642E+03  0.77931939642E+03  0.25500000920E-02 0. -1.
    10030    2    1    2    0    0  0.00000000000E+00  0.00000000000E+00  0.19118819322E+04  0.34705207250E+04  0.28964152983E+04 0.  0.
        3    1    3    3  502    0 -0.66935926587E+03  0.77605598725E+03  0.21819884428E+04  0.24106800486E+04  0.10100000352E+00 0.  1.
       -3    1    3    3    0  502  0.66935926587E+03 -0.77605598725E+03 -0.27010651058E+03  0.10598406764E+04  0.10100000352E+00 0. -1.
</event>
<event>
 5   0  0.6612533E-06  0.2904155E+04  0.7818609E-02  0.8271642E-01
       -2   -1    0    0    0  501  0.00000000000E+00  0.00000000000E+00  0.96833465170E+03  0.96833465171E+03  0.25500000920E-02 0. -1.
        2   -1    0    0  501    0  0.00000000000E+00  0.00000000000E+00 -0.21774794127E+04  0.21774794127E+04  0.25500000920E-02 0.  1.
    10030    2    1    2    0    0  0.00000000000E+00  0.00000000000E+00 -0.12091447610E+04  0.31458140644E+04  0.29041547952E+04 0.  0.
        3    1    3    3  502    0  0.12313286574E+04  0.27589462609E+03 -0.13828586857E+04  0.18720540222E+04  0.10100000352E+00 0.  1.
       -3    1    3    3    0  502 -0.12313286574E+04 -0.27589462609E+03  0.17371392468E+03  0.12737600422E+04  0.10100000352E+00 0. -1.
</event>
<event>
 5   0  0.2429358E-06  0.2854437E+04  0.7818609E-02  0.8286564E-01
       -1   -1    0    0    0  501  0.00000000000E+00  0.00000000000E+00  0.12871322430E+04  0.12871322430E+04  0.50400001928E-02 0.  1.
        1   -1    0    0  501    0  0.00000000000E+00  0.00000000000E+00 -0.15825511572E+04  0.15825511572E+04  0.50400001928E-02 0. -1.
    10030    2    1    2    0    0  0.00000000000E+00  0.00000000000E+00 -0.29541891418E+03  0.28696834002E+04  0.28544369817E+04 0.  0.
        2    1    3    3  502    0 -0.11055717877E+04 -0.76938586377E+03 -0.62215071056E+03  0.14836829486E+04  0.25500000920E-02 0.  1.
       -2    1    3    3    0  502  0.11055717877E+04  0.76938586377E+03  0.32673179637E+03  0.13860004516E+04  0.25500000920E-02 0. -1.
</event>
<event>
 5   0  0.2348684E-06  0.2878755E+04  0.7818609E-02  0.8279227E-01
        1   -1    0    0  501    0  0.00000000000E+00  0.00000000000E+00  0.20923148974E+04  0.20923148974E+04  0.50400001928E-02 0.  1.
       -1   -1    0    0    0  501  0.00000000000E+00  0.00000000000E+00 -0.99019899950E+03  0.99019899952E+03  0.50400001928E-02 0. -1.
    10030    2    1    2    0    0  0.00000000000E+00  0.00000000000E+00  0.11021158979E+04  0.30825138969E+04  0.28787553686E+04 0.  0.
        5    1    3    3  502    0 -0.12252391498E+04  0.46797832921E+03 -0.83844515499E+02  0.13142551820E+04  0.46999998093E+01 0. -1.
       -5    1    3    3    0  502  0.12252391498E+04 -0.46797832921E+03  0.11859604134E+04  0.17682587149E+04  0.46999998093E+01 0.  1.
</event>
<event>
 5   0  0.2474769E-06  0.2764900E+04  0.7818609E-02  0.8314249E-01
        1   -1    0    0  501    0  0.00000000000E+00  0.00000000000E+00  0.15536362822E+04  0.15536362822E+04  0.50400001928E-02 0. -1.
       -1   -1    0    0    0  501  0.00000000000E+00  0.00000000000E+00 -0.12301256975E+04  0.12301256975E+04  0.50400001928E-02 0.  1.
    10030    2    1    2    0    0  0.00000000000E+00  0.00000000000E+00  0.32351058468E+03  0.27837619798E+04  0.27648999370E+04 0.  0.
        1    1    3    3  502    0  0.93557794435E+03  0.10177678036E+04  0.15848919116E+03  0.13915014250E+04  0.50400001928E-02 0.  1.
       -1    1    3    3    0  502 -0.93557794435E+03 -0.10177678036E+04  0.16502139352E+03  0.13922605548E+04  0.50400001928E-02 0. -1.
</event>
<event>
 5   0  0.6733688E-06  0.2908397E+04  0.7818609E-02  0.8270384E-01
        2   -1    0    0  501    0  0.00000000000E+00  0.00000000000E+00  0.24583358069E+04  0.24583358069E+04  0.25500000920E-02 0. -1.
       -2   -1    0    0    0  501  0.00000000000E+00  0.00000000000E+00 -0.86021315376E+03  0.86021315376E+03  0.25500000920E-02 0.  1.
    10030    2    1    2    0    0  0.00000000000E+00  0.00000000000E+00  0.15981226531E+04  0.33185489607E+04  0.29083966700E+04 0.  0.
        5    1    3    3  502    0 -0.13577259011E+04  0.49992539172E+03  0.63243404361E+03  0.15790313263E+04  0.46999998093E+01 0.  1.
       -5    1    3    3    0  502  0.13577259011E+04 -0.49992539172E+03  0.96568860953E+03  0.17395176344E+04  0.46999998093E+01 0. -1.
</event>
<event>
 5   0  0.6612533E-06  0.2925151E+04  0.7818609E-02  0.8265433E-01
        2   -1    0    0  501    0  0.00000000000E+00  0.00000000000E+00  0.13073889203E+04  0.13073889203E+04  0.25500000920E-02 0.  1.
       -2   -1    0    0    0  501  0.00000000000E+00  0.00000000000E+00 -0.16361830519E+04  0.16361830519E+04  0.25500000920E-02 0. -1.
    10030    2    1    2    0    0  0.00000000000E+00  0.00000000000E+00 -0.32879413163E+03  0.29435719722E+04  0.29251513422E+04 0.  0.
        3    1    3    3  502    0  0.12241784724E+04  0.64586305288E+03  0.31120546122E+03  0.14186616456E+04  0.10100000352E+00 0.  1.
       -3    1    3    3    0  502 -0.12241784724E+04 -0.64586305288E+03 -0.63999959285E+03  0.15249103267E+04  0.10100000352E+00 0. -1.
</event>
<event>
 5   0  0.6393633E-06  0.2901266E+04  0.7818609E-02  0.8272501E-01
       -2   -1    0    0    0  501  0.00000000000E+00  0.00000000000E+00  0.97850050575E+03  0.97850050575E+03  0.25500000920E-02 0.  1.
        2   -1    0    0  501    0  0.00000000000E+00  0.00000000000E+00 -0.21505725935E+04  0.21505725935E+04  0.25500000920E-02 0. -1.
    10030    2    1    2    0    0  0.00000000000E+00  0.00000000000E+00 -0.11720720878E+04  0.31290730993E+04  0.29012661859E+04 0.  0.
        4    1    3    3  502    0 -0.34204065114E+03  0.97126768009E+03 -0.16880184154E+04  0.19773114315E+04  0.12699999809E+01 0. -1.
       -4    1    3    3    0  502  0.34204065114E+03 -0.97126768009E+03  0.51594632765E+03  0.11517616678E+04  0.12699999809E+01 0.  1.
</event>
<event>
 5   0  0.6612533E-06  0.2914659E+04  0.7818609E-02  0.8268529E-01
        2   -1    0    0  501    0  0.00000000000E+00  0.00000000000E+00  0.18686939545E+04  0.18686939545E+04  0.25500000920E-02 0. -1.
       -2   -1    0    0    0  501  0.00000000000E+00  0.00000000000E+00 -0.11365209937E+04  0.11365209937E+04  0.25500000920E-02 0.  1.
    10030    2    1    2    0    0  0.00000000000E+00  0.00000000000E+00  0.73217296081E+03  0.30052149481E+04  0.29146594381E+04 0.  0.
        3    1    3    3  502    0  0.81160905940E+03 -0.11367681088E+04  0.79476685093E+03  0.16070486477E+04  0.10100000352E+00 0. -1.
       -3    1    3    3    0  502 -0.81160905940E+03  0.11367681088E+04 -0.62593890126E+02  0.13981663005E+04  0.10100000352E+00 0.  1.
</event>
<event>
 5   0  0.2348684E-06  0.2964232E+04  0.7818609E-02  0.8254019E-01
        1   -1    0    0  501    0  0.00000000000E+00  0.00000000000E+00  0.12845715818E+04  0.12845715819E+04  0.50400001928E-02 0. -1.
       -1   -1    0    0    0  501  0.00000000000E+00  0.00000000000E+00 -0.17100395313E+04  0.17100395313E+04  0.50400001928E-02 0.  1.
    10030    2    1    2    0    0  0.00000000000E+00  0.00000000000E+00 -0.42546794941E+03  0.29946111131E+04  0.29642322350E+04 0.  0.
        5    1    3    3  502    0 -0.66583485318E+03  0.19680865662E+03 -0.15355718668E+04  0.16852515382E+04  0.46999998093E+01 0.  1.
       -5    1    3    3    0  502  0.66583485318E+03 -0.19680865662E+03  0.11101039174E+04  0.13093595749E+04  0.46999998093E+01 0. -1.
</event>
<event>
 5   0  0.2336512E-06  0.2874440E+04  0.7818609E-02  0.8280523E-01
        1   -1    0    0  501    0  0.00000000000E+00  0.00000000000E+00  0.72645765732E+03  0.72645765734E+03  0.50400001928E-02 0. -1.
       -1   -1    0    0    0  501  0.00000000000E+00  0.00000000000E+00 -0.28433894187E+04  0.28433894187E+04  0.50400001928E-02 0.  1.
    10030    2    1    2    0    0  0.00000000000E+00  0.00000000000E+00 -0.21169317613E+04  0.35698470760E+04  0.28744404784E+04 0.  0.
        4    1    3    3  502    0  0.19718242739E+03  0.14166240595E+04 -0.88328906009E+03  0.16810430727E+04  0.12699999809E+01 0. -1.
       -4    1    3    3    0  502 -0.19718242739E+03 -0.14166240595E+04 -0.12336427012E+04  0.18888040033E+04  0.12699999809E+01 0.  1.
</event>
<event>
 5   0  0.2348684E-06  0.2932944E+04  0.7818609E-02  0.8263143E-01
       -1   -1    0    0    0  501  0.00000000000E+00  0.00000000000E+00  0.14995948803E+04  0.14995948803E+04  0.50400001928E-02 0.  1.
        1   -1    0    0  501    0  0.00000000000E+00  0.00000000000E+00 -0.14340803011E+04  0.14340803011E+04  0.50400001928E-02 0. -1.
    10030    2    1    2    0    0  0.00000000000E+00  0.00000000000E+00  0.65514579174E+02  0.29336751814E+04  0.29329435572E+04 0.  0.
        5    1    3    3  502    0 -0.34531346648E+03  0.89207617630E+02  0.14555459455E+04  0.14986111833E+04  0.46999998093E+01 0.  1.
       -5    1    3    3    0  502  0.34531346648E+03 -0.89207617630E+02 -0.13900313663E+04  0.14350639981E+04  0.46999998093E+01 0. -1.
</event>
<event>
 5   0  0.2336512E-06  0.2430147E+04  0.7818609E-02  0.8428303E-01
       -1   -1    0    0    0  501  0.00000000000E+00  0.00000000000E+00  0.60486161584E+03  0.60486161586E+03  0.50400001928E-02 0.  1.
        1   -1    0    0  501    0  0.00000000000E+00  0.00000000000E+00 -0.24408946101E+04  0.24408946101E+04  0.50400001928E-02 0. -1.
    10030    2    1    2    0    0  0.00000000000E+00  0.00000000000E+00 -0.18360329942E+04  0.30457562259E+04  0.24301468745E+04 0.  0.
        4    1    3    3  502    0 -0.47851486233E+03  0.10736449835E+04 -0.53230311062E+03  0.12903636071E+04  0.12699999809E+01 0. -1.
       -4    1    3    3    0  502  0.47851486233E+03 -0.10736449835E+04 -0.13037298836E+04  0.17553926188E+04  0.12699999809E+01 0.  1.
</event>
<event>
 5   0  0.6612533E-06  0.2893046E+04  0.7818609E-02  0.8274949E-01
       -2   -1    0    0    0  501  0.00000000000E+00  0.00000000000E+00  0.10295204703E+04  0.10295204703E+04  0.25500000920E-02 0. -1.
        2   -1    0    0  501    0  0.00000000000E+00  0.00000000000E+00 -0.20324304712E+04  0.20324304712E+04  0.25500000920E-02 0.  1.
    10030    2    1    2    0    0  0.00000000000E+00  0.00000000000E+00 -0.10029100009E+04  0.30619509415E+04  0.28930459896E+04 0.  0.
        3    1    3    3  502    0  0.73837619650E+03 -0.65303912143E+03 -0.16219269703E+04  0.18979743436E+04  0.10100000352E+00 0.  1.
       -3    1    3    3    0  502 -0.73837619650E+03  0.65303912143E+03  0.61901696944E+03  0.11639765978E+04  0.10100000352E+00 0. -1.
</event>
<event>
 5   0  0.2508094E-06  0.2902101E+04  0.7818609E-02  0.8272253E-01
        1   -1    0    0  501    0  0.00000000000E+00  0.00000000000E+00  0.21390140233E+04  0.21390140233E+04  0.50400001928E-02 0.  1.
       -1   -1    0    0    0  501  0.00000000000E+00  0.00000000000E+00 -0.98435405564E+03  0.98435405566E+03  0.50400001928E-02 0. -1.
    10030    2    1    2    0    0  0.00000000000E+00  0.00000000000E+00  0.11546599677E+04  0.31233680790E+04  0.29021007074E+04 0.  0.
        3    1    3    3  502    0 -0.11705311995E+03  0.51453732243E+03 -0.87743049515E+03  0.10238820113E+04  0.10100000352E+00 0. -1.
       -3    1    3    3    0  502  0.11705311995E+03 -0.51453732243E+03  0.20320904628E+04  0.20994860677E+04  0.10100000352E+00 0.  1.
</event>
<event>
 5   0  0.2159500E-06  0.2937181E+04  0.7818609E-02  0.8261900E-01
       -4   -1    0    0    0  501  0.00000000000E+00  0.00000000000E+00  0.12674266380E+04  0.12674272743E+04  0.12699999809E+01 0. -1.
        4   -1    0    0  501    0  0.00000000000E+00  0.00000000000E+00 -0.17016810336E+04  0.17016815075E+04  0.12699999809E+01 0.  1.
    10030    2    1    2    0    0  0.00000000000E+00  0.00000000000E+00 -0.43425439560E+03  0.29691087817E+04  0.29371806342E+04 0.  0.
        4    1    3    3  502    0  0.21701753874E+02  0.51357355959E+03  0.11735185477E+04  0.12811620358E+04  0.12699999809E+01 0. -1.
       -4    1    3    3    0  502 -0.21701753874E+02 -0.51357355959E+03 -0.16077729433E+04  0.16879467460E+04  0.12699999809E+01 0.  1.
</event>
<event>
 5   0  0.6612533E-06  0.2892933E+04  0.7818609E-02  0.8274983E-01
       -2   -1    0    0    0  501  0.00000000000E+00  0.00000000000E+00  0.14540520083E+04  0.14540520083E+04  0.25500000920E-02 0.  1.
        2   -1    0    0  501    0  0.00000000000E+00  0.00000000000E+00 -0.14389207910E+04  0.14389207910E+04  0.25500000920E-02 0. -1.
    10030    2    1    2    0    0  0.00000000000E+00  0.00000000000E+00  0.15131217306E+02  0.28929727993E+04  0.28929332284E+04 0.  0.
        3    1    3    3  502    0 -0.12355121229E+03  0.14395408167E+04 -0.61159351044E+02  0.14461269451E+04  0.10100000352E+00 0. -1.
       -3    1    3    3    0  502  0.12355121229E+03 -0.14395408167E+04  0.76290568350E+02  0.14468458542E+04  0.10100000352E+00 0.  1.
</event>
<event>
 5   0  0.2508094E-06  0.2913191E+04  0.7818609E-02  0.8268963E-01
        1   -1    0    0  501    0  0.00000000000E+00  0.00000000000E+00  0.22050183904E+04  0.22050183904E+04  0.50400001928E-02 0.  1.
       -1   -1    0    0    0  501  0.00000000000E+00  0.00000000000E+00 -0.96220107354E+03  0.96220107356E+03  0.50400001928E-02 0. -1.
    10030    2    1    2    0    0  0.00000000000E+00  0.00000000000E+00  0.12428173168E+04  0.31672194640E+04  0.29131914200E+04 0.  0.
        3    1    3    3  502    0 -0.69581844331E+03 -0.82437607053E+03 -0.44266552445E+03  0.11660668885E+04  0.10100000352E+00 0. -1.
       -3    1    3    3    0  502  0.69581844331E+03  0.82437607053E+03  0.16854828413E+04  0.20011525755E+04  0.10100000352E+00 0.  1.
</event>
<event>
 5   0  0.6393633E-06  0.2900256E+04  0.7818609E-02  0.8272801E-01
        2   -1    0    0  501    0  0.00000000000E+00  0.00000000000E+00  0.15800763089E+04  0.15800763089E+04  0.25500000920E-02 0. -1.
       -2   -1    0    0    0  501  0.00000000000E+00  0.00000000000E+00 -0.13308669157E+04  0.13308669157E+04  0.25500000920E-02 0.  1.
    10030    2    1    2    0    0  0.00000000000E+00  0.00000000000E+00  0.24920939322E+03  0.29109432245E+04  0.29002560464E+04 0.  0.
        4    1    3    3  502    0 -0.10976835371E+04  0.94756919598E+03  0.13318852152E+03  0.14562064840E+04  0.12699999809E+01 0.  1.
       -4    1    3    3    0  502  0.10976835371E+04 -0.94756919598E+03  0.11602087170E+03  0.14547367406E+04  0.12699999809E+01 0. -1.
</event>
<event>
 5   0  0.2159500E-06  0.2912230E+04  0.7818609E-02  0.8269248E-01
        4   -1    0    0  501    0  0.00000000000E+00  0.00000000000E+00  0.13761998508E+04  0.13762004368E+04  0.12699999809E+01 0.  1.
       -4   -1    0    0    0  501  0.00000000000E+00  0.00000000000E+00 -0.15406692902E+04  0.15406698137E+04  0.12699999809E+01 0. -1.
    10030    2    1    2    0    0  0.00000000000E+00  0.00000000000E+00 -0.16446943943E+03  0.29168702505E+04  0.29122297062E+04 0.  0.
        5    1    3    3  502    0 -0.32230020657E+03  0.10477846230E+04  0.87768607240E+03  0.14043094285E+04  0.46999998093E+01 0.  1.
       -5    1    3    3    0  502  0.32230020657E+03 -0.10477846230E+04 -0.10421555118E+04  0.15125608220E+04  0.46999998093E+01 0. -1.
</event>
<event>
 5   0  0.2429358E-06  0.2888819E+04  0.7818609E-02  0.8276212E-01
        1   -1    0    0  501    0  0.00000000000E+00  0.00000000000E+00  0.21722434397E+04  0.21722434397E+04  0.50400001928E-02 0. -1.
       -1   -1    0    0    0  501  0.00000000000E+00  0.00000000000E+00 -0.96044430134E+03  0.96044430135E+03  0.50400001928E-02 0.  1.
    10030    2    1    2    0    0  0.00000000000E+00  0.00000000000E+00  0.12117991384E+04  0.31326877411E+04  0.28888190202E+04 0.  0.
        2    1    3    3  502    0  0.61639385778E+03 -0.49657294795E+03  0.19161139874E+04  0.20731663930E+04  0.25500000920E-02 0. -1.
       -2    1    3    3    0  502 -0.61639385778E+03  0.49657294795E+03 -0.70431484897E+03  0.10595213481E+04  0.25500000920E-02 0.  1.
</event>
<event>
 5   0  0.2336512E-06  0.2844233E+04  0.7818609E-02  0.8289666E-01
       -1   -1    0    0    0  501  0.00000000000E+00  0.00000000000E+00  0.14882018255E+04  0.14882018255E+04  0.50400001928E-02 0.  1.
        1   -1    0    0  501    0  0.00000000000E+00  0.00000000000E+00 -0.13589655950E+04  0.13589655950E+04  0.50400001928E-02 0. -1.
    10030    2    1    2    0    0  0.00000000000E+00  0.00000000000E+00  0.12923623053E+03  0.28471674205E+04  0.28442328170E+04 0.  0.
        4    1    3    3  502    0  0.47384826171E+03 -0.12972474190E+04  0.40412940852E+03  0.14389945215E+04  0.12699999809E+01 0. -1.
       -4    1    3    3    0  502 -0.47384826171E+03  0.12972474190E+04 -0.27489317799E+03  0.14081728990E+04  0.12699999809E+01 0.  1.
</event>
<event>
 5   0  0.2508094E-06  0.3003878E+04  0.7818609E-02  0.8242624E-01
       -1   -1    0    0    0  501  0.00000000000E+00  0.00000000000E+00  0.11608021505E+04  0.11608021505E+04  0.50400001928E-02 0. -1.
        1   -1    0    0  501    0  0.00000000000E+00  0.00000000000E+00 -0.19433287698E+04  0.19433287698E+04  0.50400001928E-02 0.  1.
    10030    2    1    2    0    0  0.00000000000E+00  0.00000000000E+00 -0.78252661931E+03  0.31041309204E+04  0.30038776375E+04 0.  0.
        3    1    3    3  502    0 -0.39667185770E+03  0.52361458348E+02  0.11047155244E+04  0.11749411411E+04  0.10100000352E+00 0. -1.
       -3    1    3    3    0  502  0.39667185770E+03 -0.52361458348E+02 -0.18872421437E+04  0.19291897792E+04  0.10100000352E+00 0.  1.
</event>
<event>
 5   0  0.2348684E-06  0.2902386E+04  0.7818609E-02  0.8272168E-01
        1   -1    0    0  501    0  0.00000000000E+00  0.00000000000E+00  0.16683540391E+04  0.16683540391E+04  0.50400001928E-02 0. -1.
       -1   -1    0    0    0  501  0.00000000000E+00  0.00000000000E+00 -0.12622989919E+04  0.12622989919E+04  0.50400001928E-02 0.  1.
    10030    2    1    2    0    0  0.00000000000E+00  0.00000000000E+00  0.40605504722E+03  0.29306530310E+04  0.29023863435E+04 0.  0.
        5    1    3    3  502    0 -0.30416500949E+03  0.13477720057E+04 -0.24506666557E+03  0.14032410672E+04  0.46999998093E+01 0.  1.
       -5    1    3    3    0  502  0.30416500949E+03 -0.13477720057E+04  0.65112171278E+03  0.15274119638E+04  0.46999998093E+01 0. -1.
</event>
<event>
 5   0  0.6612533E-06  0.2898161E+04  0.7818609E-02  0.8273425E-01
       -2   -1    0    0    0  501  0.00000000000E+00  0.00000000000E+00  0.10197600962E+04  0.10197600962E+04  0.25500000920E-02 0. -1.
        2   -1    0    0  501    0  0.00000000000E+00  0.00000000000E+00 -0.20591457844E+04  0.20591457844E+04  0.25500000920E-02 0.  1.
    10030    2    1    2    0    0  0.00000000000E+00  0.00000000000E+00 -0.10393856882E+04  0.30789058805E+04  0.28981612813E+04 0.  0.
        3    1    3    3  502    0  0.10931930582E+04  0.47856623586E+03  0.35360629150E+03  0.12446421671E+04  0.10100000352E+00 0. -1.
       -3    1    3    3    0  502 -0.10931930582E+04 -0.47856623586E+03 -0.13929919797E+04  0.18342637134E+04  0.10100000352E+00 0.  1.
</event>
<event>
 5   0  0.2474769E-06  0.2932761E+04  0.7818609E-02  0.8263196E-01
        1   -1    0    0  501    0  0.00000000000E+00  0.00000000000E+00  0.14496778878E+04  0.14496778878E+04  0.50400001928E-02 0.  1.
       -1   -1    0    0    0  501  0.00000000000E+00  0.00000000000E+00 -0.14832756337E+04  0.14832756337E+04  0.50400001928E-02 0. -1.
    10030    2    1    2    0    0  0.00000000000E+00  0.00000000000E+00 -0.33597745896E+02  0.29329535215E+04  0.29327610797E+04 0.  0.
        1    1    3    3  502    0 -0.13538353081E+04 -0.52269884763E+03 -0.22702151691E+03  0.14688849159E+04  0.50400001928E-02 0. -1.
       -1    1    3    3    0  502  0.13538353081E+04  0.52269884763E+03  0.19342377101E+03  0.14640686057E+04  0.50400001928E-02 0.  1.
</event>
<event>
 5   0  0.6513041E-06  0.2907710E+04  0.7818609E-02  0.8270587E-01
       -2   -1    0    0    0  501  0.00000000000E+00  0.00000000000E+00  0.98333084954E+03  0.98333084955E+03  0.25500000920E-02 0. -1.
        2   -1    0    0  501    0  0.00000000000E+00  0.00000000000E+00 -0.21495246335E+04  0.21495246335E+04  0.25500000920E-02 0.  1.
    10030    2    1    2    0    0  0.00000000000E+00  0.00000000000E+00 -0.11661937840E+04  0.31328554831E+04  0.29077096719E+04 0.  0.
        1    1    3    3  502    0  0.13499312423E+04 -0.17230218263E+03 -0.11342650436E+04  0.17715980329E+04  0.50400001928E-02 0.  1.
       -1    1    3    3    0  502 -0.13499312423E+04  0.17230218263E+03 -0.31928740334E+02  0.13612574501E+04  0.50400001928E-02 0. -1.
</event>
<event>
 5   0  0.2508094E-06  0.2906902E+04  0.7818609E-02  0.8270827E-01
       -1   -1    0    0    0  501  0.00000000000E+00  0.00000000000E+00  0.88434231698E+03  0.88434231700E+03  0.50400001928E-02 0. -1.
        1   -1    0    0  501    0  0.00000000000E+00  0.00000000000E+00 -0.23888026870E+04  0.23888026870E+04  0.50400001928E-02 0.  1.
    10030    2    1    2    0    0  0.00000000000E+00  0.00000000000E+00 -0.15044603700E+04  0.32731450040E+04  0.29069016516E+04 0.  0.
        3    1    3    3  502    0 -0.16881387172E+03 -0.50126920162E+03  0.77212637196E+03  0.93592097971E+03  0.10100000352E+00 0. -1.
       -3    1    3    3    0  502  0.16881387172E+03  0.50126920162E+03 -0.22765867420E+04  0.23372240243E+04  0.10100000352E+00 0.  1.
</event>
<event>
 5   0  0.2429358E-06  0.2901778E+04  0.7818609E-02  0.8272349E-01
       -1   -1    0    0    0  501  0.00000000000E+00  0.00000000000E+00  0.10250680710E+04  0.10250680710E+04  0.50400001928E-02 0.  1.
        1   -1    0    0  501    0  0.00000000000E+00  0.00000000000E+00 -0.20535984622E+04  0.20535984622E+04  0.50400001928E-02 0. -1.
    10030    2    1    2    0    0  0.00000000000E+00  0.00000000000E+00 -0.10285303912E+04  0.30786665332E+04  0.29017775340E+04 0.  0.
        2    1    3    3  502    0 -0.47460555623E+03  0.18307718340E+03 -0.19558855629E+04  0.20209542361E+04  0.25500000920E-02 0.  1.
       -2    1    3    3    0  502  0.47460555623E+03 -0.18307718340E+03  0.92735517167E+03  0.10577122971E+04  0.25500000920E-02 0. -1.
</event>
<event>
 5   0  0.2348684E-06  0.2972687E+04  0.7818609E-02  0.8251573E-01
        1   -1    0    0  501    0  0.00000000000E+00  0.00000000000E+00  0.19424451572E+04  0.19424451572E+04  0.50400001928E-02 0. -1.
       -1   -1    0    0    0  501  0.00000000000E+00  0.00000000000E+00 -0.11373385095E+04  0.11373385095E+04  0.50400001928E-02 0.  1.
    10030    2    1    2    0    0  0.00000000000E+00  0.00000000000E+00  0.80510664764E+03  0.30797836667E+04  0.29726874575E+04 0.  0.
        5    1    3    3  502    0  0.96615113012E+03  0.49338434285E+03  0.14551888438E+04  0.18150682569E+04  0.46999998093E+01 0. -1.
       -5    1    3    3    0  502 -0.96615113012E+03 -0.49338434285E+03 -0.65008219619E+03  0.12647154098E+04  0.46999998093E+01 0.  1.
</event>
<event>
 5   0  0.6733688E-06  0.2863923E+04  0.7818609E-02  0.8283693E-01
       -2   -1    0    0    0  501  0.00000000000E+00  0.00000000000E+00  0.20060268973E+04  0.20060268973E+04  0.25500000920E-02 0.  1.
        2   -1    0    0  501    0  0.00000000000E+00  0.00000000000E+00 -0.10221763584E+04  0.10221763584E+04  0.25500000920E-02 0. -1.
    10030    2    1    2    0    0  0.00000000000E+00  0.00000000000E+00  0.98385053886E+03  0.30282032557E+04  0.28639226727E+04 0.  0.
        5    1    3    3  502    0  0.10406548497E+04 -0.71568802861E+03 -0.22155467225E+03  0.12822949868E+04  0.46999998093E+01 0. -1.
       -5    1    3    3    0  502 -0.10406548497E+04  0.71568802861E+03  0.12054052111E+04  0.17459082689E+04  0.46999998093E+01 0.  1.
</event>
<event>
 5   0  0.6733688E-06  0.2888312E+04  0.7818609E-02  0.8276364E-01
       -2   -1    0    0    0  501  0.00000000000E+00  0.00000000000E+00  0.69060238525E+03  0.69060238526E+03  0.25500000920E-02 0.  1.
        2   -1    0    0  501    0  0.00000000000E+00  0.00000000000E+00 -0.30199524648E+04  0.30199524648E+04  0.25500000920E-02 0. -1.
    10030    2    1    2    0    0  0.00000000000E+00  0.00000000000E+00 -0.23293500796E+04  0.37105548501E+04  0.28883118776E+04 0.  0.
        5    1    3    3  502    0 -0.54731151789E+03 -0.40869652547E+03 -0.27992909351E+04  0.28814292594E+04  0.46999998093E+01 0. -1.
       -5    1    3    3    0  502  0.54731151789E+03  0.40869652547E+03  0.46994085549E+03  0.82912559073E+03  0.46999998093E+01 0.  1.
</event>
<event>
 5   0  0.6733688E-06  0.2930188E+04  0.7818609E-02  0.8263952E-01
       -2   -1    0    0    0  501  0.00000000000E+00  0.00000000000E+00  0.11220561897E+04  0.11220561897E+04  0.25500000920E-02 0.  1.
        2   -1    0    0  501    0  0.00000000000E+00  0.00000000000E+00 -0.19130061047E+04  0.19130061047E+04  0.25500000920E-02 0. -1.
    10030    2    1    2    0    0  0.00000000000E+00  0.00000000000E+00 -0.79094991498E+03  0.30350622943E+04  0.29301879398E+04 0.  0.
        5    1    3    3  502    0 -0.46088688682E+03  0.12971552239E+04  0.12392011602E+03  0.13821746209E+04  0.46999998093E+01 0. -1.
       -5    1    3    3    0  502  0.46088688682E+03 -0.12971552239E+04 -0.91487003100E+03  0.16528876735E+04  0.46999998093E+01 0.  1.
</event>
<event>
 5   0  0.2336512E-06  0.2892161E+04  0.7818609E-02  0.8275214E-01
        1   -1    0    0  501    0  0.00000000000E+00  0.00000000000E+00  0.22054546524E+04  0.22054546524E+04  0.50400001928E-02 0. -1.
       -1   -1    0    0    0  501  0.00000000000E+00  0.00000000000E+00 -0.94817132880E+03  0.94817132881E+03  0.50400001928E-02 0.  1.
    10030    2    1    2    0    0  0.00000000000E+00  0.00000000000E+00  0.12572833236E+04  0.31536259813E+04  0.28921610387E+04 0.  0.
        4    1    3    3  502    0 -0.12387224786E+04  0.95379254174E+02  0.14355534225E+04  0.18985114756E+04  0.12699999809E+01 0. -1.
       -4    1    3    3    0  502  0.12387224786E+04 -0.95379254174E+02 -0.17827009888E+03  0.12551145056E+04  0.12699999809E+01 0.  1.
</event>
<event>
 5   0  0.6615403E-06  0.2866565E+04  0.7818609E-02  0.8282895E-01
       -2   -1    0    0    0  501  0.00000000000E+00  0.00000000000E+00  0.25458654707E+04  0.25458654707E+04  0.25500000920E-02 0.  1.
        2   -1    0    0  501    0  0.00000000000E+00  0.00000000000E+00 -0.80691578413E+03  0.80691578413E+03  0.25500000920E-02 0. -1.
    10030    2    1    2    0    0  0.00000000000E+00  0.00000000000E+00  0.17389496866E+04  0.33527812548E+04  0.28665652147E+04 0.  0.
        2    1    3    3  502    0  0.12313663292E+04 -0.23851059181E+03  0.16807777813E+04  0.20971800803E+04  0.25500000920E-02 0.  1.
       -2    1    3    3    0  502 -0.12313663292E+04  0.23851059181E+03  0.58171905290E+02  0.12556011746E+04  0.25500000920E-02 0. -1.
</event>
<event>
 5   0  0.6612533E-06  0.2897835E+04  0.7818609E-02  0.8273522E-01
        2   -1    0    0  501    0  0.00000000000E+00  0.00000000000E+00  0.16235449080E+04  0.16235449080E+04  0.25500000920E-02 0.  1.
       -2   -1    0    0    0  501  0.00000000000E+00  0.00000000000E+00 -0.12930724624E+04  0.12930724624E+04  0.25500000920E-02 0. -1.
    10030    2    1    2    0    0  0.00000000000E+00  0.00000000000E+00  0.33047244564E+03  0.29166173705E+04  0.28978345102E+04 0.  0.
        3    1    3    3  502    0 -0.54546668205E+03 -0.19893546558E+03 -0.11708666003E+04  0.13069192119E+04  0.10100000352E+00 0. -1.
       -3    1    3    3    0  502  0.54546668205E+03  0.19893546558E+03  0.15013390459E+04  0.16096981585E+04  0.10100000352E+00 0.  1.
</event>
<event>
 5   0  0.2508094E-06  0.2696629E+04  0.7818609E-02  0.8336099E-01
        1   -1    0    0  501    0  0.00000000000E+00  0.00000000000E+00  0.11606250443E+04  0.11606250443E+04  0.50400001928E-02 0.  1.
       -1   -1    0    0    0  501  0.00000000000E+00  0.00000000000E+00 -0.15663563946E+04  0.15663563946E+04  0.50400001928E-02 0. -1.
    10030    2    1    2    0    0  0.00000000000E+00  0.00000000000E+00 -0.40573135024E+03  0.27269814389E+04  0.26966293478E+04 0.  0.
        3    1    3    3  502    0 -0.96843303359E+03  0.66156441497E+03  0.46976937734E+03  0.12634133503E+04  0.10100000352E+00 0.  1.
       -3    1    3    3    0  502  0.96843303359E+03 -0.66156441497E+03 -0.87550072758E+03  0.14635680886E+04  0.10100000352E+00 0. -1.
</event>
<event>
 5   0  0.6612533E-06  0.2898234E+04  0.7818609E-02  0.8273403E-01
        2   -1    0    0  501    0  0.00000000000E+00  0.00000000000E+00  0.24015609890E+04  0.24015609890E+04  0.25500000920E-02 0.  1.
       -2   -1    0    0    0  501  0.00000000000E+00  0.00000000000E+00 -0.87440629813E+03  0.87440629814E+03  0.25500000920E-02 0. -1.
    10030    2    1    2    0    0  0.00000000000E+00  0.00000000000E+00  0.15271546908E+04  0.32759672871E+04  0.28982339824E+04 0.  0.
        3    1    3    3  502    0 -0.45769106951E+03  0.48569115643E+03  0.22175216481E+04  0.23157675368E+04  0.10100000352E+00 0.  1.
       -3    1    3    3    0  502  0.45769106951E+03 -0.48569115643E+03 -0.69036695728E+03  0.96019975028E+03  0.10100000352E+00 0. -1.
</event>
<event>
 5   0  0.2336512E-06  0.2864260E+04  0.7818609E-02  0.8283591E-01
       -1   -1    0    0    0  501  0.00000000000E+00  0.00000000000E+00  0.97584528942E+03  0.97584528944E+03  0.50400001928E-02 0.  1.
        1   -1    0    0  501    0  0.00000000000E+00  0.00000000000E+00 -0.21017632325E+04  0.21017632325E+04  0.50400001928E-02 0. -1.
    10030    2    1    2    0    0  0.00000000000E+00  0.00000000000E+00 -0.11259179431E+04  0.30776085220E+04  0.28642595902E+04 0.  0.
        4    1    3    3  502    0 -0.10085234952E+04  0.13565207095E+03  0.51980848182E+03  0.11426826311E+04  0.12699999809E+01 0.  1.
       -4    1    3    3    0  502  0.10085234952E+04 -0.13565207095E+03 -0.16457264249E+04  0.19349258909E+04  0.12699999809E+01 0. -1.
</event>
<event>
 5   0  0.6733688E-06  0.2904103E+04  0.7818609E-02  0.8271658E-01
       -2   -1    0    0    0  501  0.00000000000E+00  0.00000000000E+00  0.19775806935E+04  0.19775806935E+04  0.25500000920E-02 0. -1.
        2   -1    0    0  501    0  0.00000000000E+00  0.00000000000E+00 -0.10661782890E+04  0.10661782891E+04  0.25500000920E-02 0.  1.
    10030    2    1    2    0    0  0.00000000000E+00  0.00000000000E+00  0.91140240442E+03  0.30437589825E+04  0.29041030286E+04 0.  0.
        5    1    3    3  502    0  0.91433912117E+03 -0.10710840072E+04  0.82654491435E+03  0.16329224000E+04  0.46999998093E+01 0. -1.
       -5    1    3    3    0  502 -0.91433912117E+03  0.10710840072E+04  0.84857490073E+02  0.14108365825E+04  0.46999998093E+01 0.  1.
</event>
<event>
 5   0  0.2508094E-06  0.2907335E+04  0.7818609E-02  0.8270698E-01
        1   -1    0    0  501    0  0.00000000000E+00  0.00000000000E+00  0.70340452205E+03  0.70340452207E+03  0.50400001928E-02 0. -1.
       -1   -1    0    0    0  501  0.00000000000E+00  0.00000000000E+00 -0.30041743768E+04  0.30041743768E+04  0.50400001928E-02 0.  1.
    10030    2    1    2    0    0  0.00000000000E+00  0.00000000000E+00 -0.23007698547E+04  0.37075788989E+04  0.29073354410E+04 0.  0.
        3    1    3    3  502    0  0.12160818052E+04  0.59723104417E+03 -0.47847234059E+03  0.14368283363E+04  0.10100000352E+00 0. -1.
       -3    1    3    3    0  502 -0.12160818052E+04 -0.59723104417E+03 -0.18222975141E+04  0.22707505626E+04  0.10100000352E+00 0.  1.
</event>
<event>
 5   0  0.6615403E-06  0.2412472E+04  0.7818609E-02  0.8434849E-01
       -2   -1    0    0    0  501  0.00000000000E+00  0.00000000000E+00  0.11682639771E+04  0.11682639771E+04  0.25500000920E-02 0. -1.
        2   -1    0    0  501    0  0.00000000000E+00  0.00000000000E+00 -0.12454417923E+04  0.12454417923E+04  0.25500000920E-02 0.  1.
    10030    2    1    2    0    0  0.00000000000E+00  0.00000000000E+00 -0.77177815186E+02  0.24137057695E+04  0.24124715804E+04 0.  0.
        2    1    3    3  502    0 -0.77986865202E+03 -0.59056373236E+03  0.66749455869E+03  0.11842759908E+04  0.25500000920E-02 0. -1.
       -2    1    3    3    0  502  0.77986865202E+03  0.59056373236E+03 -0.74467237388E+03  0.12294297787E+04  0.25500000920E-02 0.  1.
</event>
<event>
 5   0  0.2348684E-06  0.2900339E+04  0.7818609E-02  0.8272777E-01
        1   -1    0    0  501    0  0.00000000000E+00  0.00000000000E+00  0.11670852872E+04  0.11670852872E+04  0.50400001928E-02 0. -1.
       -1   -1    0    0    0  501  0.00000000000E+00  0.00000000000E+00 -0.18019175955E+04  0.18019175955E+04  0.50400001928E-02 0.  1.
    10030    2    1    2    0    0  0.00000000000E+00  0.00000000000E+00 -0.63483230826E+03  0.29690028827E+04  0.29003389557E+04 0.  0.
        5    1    3    3  502    0  0.58471766457E+03  0.25806068146E+03 -0.16499553895E+04  0.17694250309E+04  0.46999998093E+01 0.  1.
       -5    1    3    3    0  502 -0.58471766457E+03 -0.25806068146E+03  0.10151230812E+04  0.11995778518E+04  0.46999998093E+01 0. -1.
</event>
<event>
 5   0  0.2429358E-06  0.2831970E+04  0.7818609E-02  0.8293411E-01
       -1   -1    0    0    0  501  0.00000000000E+00  0.00000000000E+00  0.13958086827E+04  0.13958086827E+04  0.50400001928E-02 0.  1.
        1   -1    0    0  501    0  0.00000000000E+00  0.00000000000E+00 -0.14364533183E+04  0.14364533183E+04  0.50400001928E-02 0. -1.
    10030    2    1    2    0    0  0.00000000000E+00  0.00000000000E+00 -0.40644635632E+02  0.28322620010E+04  0.28319703487E+04 0.  0.
        2    1    3    3  502    0 -0.11714334967E+04 -0.52420534073E+03 -0.61868681549E+03  0.14247178851E+04  0.25500000920E-02 0. -1.
       -2    1    3    3    0  502  0.11714334967E+04  0.52420534073E+03  0.57804217986E+03  0.14075441159E+04  0.25500000920E-02 0.  1.
</event>
<event>
 5   0  0.2348684E-06  0.2906568E+04  0.7818609E-02  0.8270926E-01
        1   -1    0    0  501    0  0.00000000000E+00  0.00000000000E+00  0.30194889351E+04  0.30194889351E+04  0.50400001928E-02 0. -1.
       -1   -1    0    0    0  501  0.00000000000E+00  0.00000000000E+00 -0.69946734730E+03  0.69946734731E+03  0.50400001928E-02 0.  1.
    10030    2    1    2    0    0  0.00000000000E+00  0.00000000000E+00  0.23200215878E+04  0.37189562824E+04  0.29065676773E+04 0.  0.
        5    1    3    3  502    0  0.47843446586E+03  0.10920439564E+04  0.22232694249E+04  0.25227779463E+04  0.46999998093E+01 0. -1.
       -5    1    3    3    0  502 -0.47843446586E+03 -0.10920439564E+04  0.96752162902E+02  0.11961783361E+04  0.46999998093E+01 0.  1.
</event>
<event>
 5   0  0.6733688E-06  0.2325047E+04  0.7818609E-02  0.8468110E-01
        2   -1    0    0  501    0  0.00000000000E+00  0.00000000000E+00  0.12413023092E+04  0.12413023092E+04  0.25500000920E-02 0.  1.
       -2   -1    0    0    0  501  0.00000000000E+00  0.00000000000E+00 -0.10887445832E+04  0.10887445832E+04  0.25500000920E-02 0. -1.
    10030    2    1    2    0    0  0.00000000000E+00  0.00000000000E+00  0.15255772597E+03  0.23300468924E+04  0.23250472385E+04 0.  0.
        5    1    3    3  502    0 -0.11215849448E+04  0.26863998130E+03  0.22260258529E+03  0.11746038604E+04  0.46999998093E+01 0.  1.
       -5    1    3    3    0  502  0.11215849448E+04 -0.26863998130E+03 -0.70044859320E+02  0.11554430320E+04  0.46999998093E+01 0. -1.
</event>
<event>
 5   0  0.2348684E-06  0.2938195E+04  0.7818609E-02  0.8261603E-01
        1   -1    0    0  501    0  0.00000000000E+00  0.00000000000E+00  0.18449589651E+04  0.18449589651E+04  0.50400001928E-02 0. -1.
       -1   -1    0    0    0  501  0.00000000000E+00  0.00000000000E+00 -0.11698074485E+04  0.11698074485E+04  0.50400001928E-02 0.  1.
    10030    2    1    2    0    0  0.00000000000E+00  0.00000000000E+00  0.67515151657E+03  0.30147664137E+04  0.29381945066E+04 0.  0.
        5    1    3    3  502    0  0.31197504209E+02 -0.69085897978E+02  0.18429432644E+04  0.18445075526E+04  0.46999998093E+01 0. -1.
       -5    1    3    3    0  502 -0.31197504209E+02  0.69085897978E+02 -0.11677917479E+04  0.11702588611E+04  0.46999998093E+01 0.  1.
</event>
<event>
 5   0  0.6513041E-06  0.2896279E+04  0.7818609E-02  0.8273985E-01
        2   -1    0    0  501    0  0.00000000000E+00  0.00000000000E+00  0.13279392241E+04  0.13279392241E+04  0.25500000920E-02 0.  1.
       -2   -1    0    0    0  501  0.00000000000E+00  0.00000000000E+00 -0.15792198093E+04  0.15792198093E+04  0.25500000920E-02 0. -1.
    10030    2    1    2    0    0  0.00000000000E+00  0.00000000000E+00 -0.25128058514E+03  0.29071590334E+04  0.28962789426E+04 0.  0.
        1    1    3    3  502    0  0.50131692525E+03  0.69477839405E+02  0.12362772911E+04  0.13358620326E+04  0.50400001928E-02 0.  1.
       -1    1    3    3    0  502 -0.50131692525E+03 -0.69477839405E+02 -0.14875578762E+04  0.15712970008E+04  0.50400001928E-02 0. -1.
</event>
<event>
 5   0  0.6733688E-06  0.2898714E+04  0.7818609E-02  0.8273260E-01
       -2   -1    0    0    0  501  0.00000000000E+00  0.00000000000E+00  0.11955961838E+04  0.11955961838E+04  0.25500000920E-02 0.  1.
        2   -1    0    0  501    0  0.00000000000E+00  0.00000000000E+00 -0.17569771108E+04  0.17569771108E+04  0.25500000920E-02 0. -1.
    10030    2    1    2    0    0  0.00000000000E+00  0.00000000000E+00 -0.56138092698E+03  0.29525732946E+04  0.28987135966E+04 0.  0.
        5    1    3    3  502    0 -0.47002438588E+03 -0.73678260831E+03  0.89701133921E+03  0.12523669462E+04  0.46999998093E+01 0.  1.
       -5    1    3    3    0  502  0.47002438588E+03  0.73678260831E+03 -0.14583922662E+04  0.17002063484E+04  0.46999998093E+01 0. -1.
</event>
<event>
 5   0  0.6733688E-06  0.2897155E+04  0.7818609E-02  0.8273724E-01
       -2   -1    0    0    0  501  0.00000000000E+00  0.00000000000E+00  0.90382428846E+03  0.90382428846E+03  0.25500000920E-02 0. -1.
        2   -1    0    0  501    0  0.00000000000E+00  0.00000000000E+00 -0.23216652876E+04  0.23216652876E+04  0.25500000920E-02 0.  1.
    10030    2    1    2    0    0  0.00000000000E+00  0.00000000000E+00 -0.14178409992E+04  0.32254895761E+04  0.28971554854E+04 0.  0.
        5    1    3    3  502    0 -0.32703688671E+03 -0.38993173277E+03  0.80100902519E+03  0.94901919365E+03  0.46999998093E+01 0. -1.
       -5    1    3    3    0  502  0.32703688671E+03  0.38993173277E+03 -0.22188500244E+04  0.22764703824E+04  0.46999998093E+01 0.  1.
</event>
<event>
 5   0  0.2348684E-06  0.2883579E+04  0.7818609E-02  0.8277780E-01
       -1   -1    0    0    0  501  0.00000000000E+00  0.00000000000E+00  0.16506610746E+04  0.16506610746E+04  0.50400001928E-02 0.  1.
        1   -1    0    0  501    0  0.00000000000E+00  0.00000000000E+00 -0.12593478977E+04  0.12593478977E+04  0.50400001928E-02 0. -1.
    10030    2    1    2    0    0  0.00000000000E+00  0.00000000000E+00  0.39131317686E+03  0.29100089723E+04  0.28835787169E+04 0.  0.
        5    1    3    3  502    0 -0.13667968557E+04  0.34969486035E+03  0.49555771096E+03  0.14953326302E+04  0.46999998093E+01 0.  1.
       -5    1    3    3    0  502  0.13667968557E+04 -0.34969486035E+03 -0.10424453410E+03  0.14146763421E+04  0.46999998093E+01 0. -1.
</event>
<event>
 5   0  0.2348684E-06  0.2906037E+04  0.7818609E-02  0.8271084E-01
       -1   -1    0    0    0  501  0.00000000000E+00  0.00000000000E+00  0.11926454586E+04  0.11926454586E+04  0.50400001928E-02 0.  1.
        1   -1    0    0  501    0  0.00000000000E+00  0.00000000000E+00 -0.17702352590E+04  0.17702352590E+04  0.50400001928E-02 0. -1.
    10030    2    1    2    0    0  0.00000000000E+00  0.00000000000E+00 -0.57758980046E+03  0.29628807176E+04  0.29060371934E+04 0.  0.
        5    1    3    3  502    0 -0.17224497550E+03  0.13930614839E+04 -0.67157479414E+03  0.15560602249E+04  0.46999998093E+01 0. -1.
       -5    1    3    3    0  502  0.17224497550E+03 -0.13930614839E+04  0.93984993672E+02  0.14068204927E+04  0.46999998093E+01 0.  1.
</event>
<event>
 5   0  0.6733688E-06  0.2890737E+04  0.7818609E-02  0.8275639E-01
        2   -1    0    0  501    0  0.00000000000E+00  0.00000000000E+00  0.15307514411E+04  0.15307514411E+04  0.25500000920E-02 0. -1.
       -2   -1    0    0    0  501  0.00000000000E+00  0.00000000000E+00 -0.13647478500E+04  0.13647478500E+04  0.25500000920E-02 0.  1.
    10030    2    1    2    0    0  0.00000000000E+00  0.00000000000E+00  0.16600359110E+03  0.28954992911E+04  0.28907367491E+04 0.  0.
        5    1    3    3  502    0 -0.84876679867E+03 -0.10055466179E+04 -0.51592861945E+03  0.14134120099E+04  0.46999998093E+01 0.  1.
       -5    1    3    3    0  502  0.84876679867E+03  0.10055466179E+04  0.68193221055E+03  0.14820872812E+04  0.46999998093E+01 0. -1.
</event>
<event>
 5   0  0.2336512E-06  0.2970515E+04  0.7818609E-02  0.8252201E-01
        1   -1    0    0  501    0  0.00000000000E+00  0.00000000000E+00  0.17975588447E+04  0.17975588447E+04  0.50400001928E-02 0. -1.
       -1   -1    0    0    0  501  0.00000000000E+00  0.00000000000E+00 -0.12272138923E+04  0.12272138923E+04  0.50400001928E-02 0.  1.
    10030    2    1    2    0    0  0.00000000000E+00  0.00000000000E+00  0.57034495240E+03  0.30247727371E+04  0.29705145592E+04 0.  0.
        4    1    3    3  502    0  0.93911252102E+03  0.49898851304E+03 -0.77062001686E+03  0.13133082984E+04  0.12699999809E+01 0.  1.
       -4    1    3    3    0  502 -0.93911252102E+03 -0.49898851304E+03  0.13409649693E+04  0.17114644387E+04  0.12699999809E+01 0. -1.
</event>
<event>
 5   0  0.6513041E-06  0.2890976E+04  0.7818609E-02  0.8275568E-01
       -2   -1    0    0    0  501  0.00000000000E+00  0.00000000000E+00  0.16033168135E+04  0.16033168135E+04  0.25500000920E-02 0.  1.
        2   -1    0    0  501    0  0.00000000000E+00  0.00000000000E+00 -0.13031954172E+04  0.13031954172E+04  0.25500000920E-02 0. -1.
    10030    2    1    2    0    0  0.00000000000E+00  0.00000000000E+00  0.30012139633E+03  0.29065122308E+04  0.28909756995E+04 0.  0.
        1    1    3    3  502    0  0.90557023101E+03 -0.90169080158E+03 -0.52909270353E+03  0.13831279167E+04  0.50400001928E-02 0. -1.
       -1    1    3    3    0  502 -0.90557023101E+03  0.90169080158E+03  0.82921409986E+03  0.15233843141E+04  0.50400001928E-02 0.  1.
</event>
<event>
 5   0  0.2348684E-06  0.2907411E+04  0.7818609E-02  0.8270676E-01
        1   -1    0    0  501    0  0.00000000000E+00  0.00000000000E+00  0.15103684775E+04  0.15103684775E+04  0.50400001928E-02 0. -1.
       -1   -1    0    0    0  501  0.00000000000E+00  0.00000000000E+00 -0.13991684877E+04  0.13991684878E+04  0.50400001928E-02 0.  1.
    10030    2    1    2    0    0  0.00000000000E+00  0.00000000000E+00  0.11119998978E+03  0.29095369653E+04  0.29074112049E+04 0.  0.
        5    1    3    3  502    0  0.67965856706E+03 -0.11021175771E+04 -0.60566976826E+03  0.14294953234E+04  0.46999998093E+01 0.  1.
       -5    1    3    3    0  502 -0.67965856706E+03  0.11021175771E+04  0.71686975803E+03  0.14800416418E+04  0.46999998093E+01 0. -1.
</event>
<event>
 5   0  0.2474769E-06  0.2821930E+04  0.7818609E-02  0.8296492E-01
        1   -1    0    0  501    0  0.00000000000E+00  0.00000000000E+00  0.24583530540E+04  0.24583530540E+04  0.50400001928E-02 0. -1.
       -1   -1    0    0    0  501  0.00000000000E+00  0.00000000000E+00 -0.80981931205E+03  0.80981931207E+03  0.50400001928E-02 0.  1.
    10030    2    1    2    0    0  0.00000000000E+00  0.00000000000E+00  0.16485337419E+04  0.32681723660E+04  0.28219296795E+04 0.  0.
        1    1    3    3  502    0  0.13530787990E+02 -0.19796355095E+03  0.24421136310E+04  0.24501615531E+04  0.50400001928E-02 0. -1.
       -1    1    3    3    0  502 -0.13530787990E+02  0.19796355095E+03 -0.79357988906E+03  0.81801081293E+03  0.50400001928E-02 0.  1.
</event>
<event>
 5   0  0.2474769E-06  0.3044848E+04  0.7818609E-02  0.8231039E-01
       -1   -1    0    0    0  501  0.00000000000E+00  0.00000000000E+00  0.13960718874E+04  0.13960718875E+04  0.50400001928E-02 0. -1.
        1   -1    0    0  501    0  0.00000000000E+00  0.00000000000E+00 -0.16602121831E+04  0.16602121832E+04  0.50400001928E-02 0.  1.
    10030    2    1    2    0    0  0.00000000000E+00  0.00000000000E+00 -0.26414029570E+03  0.30562840706E+04  0.30448484731E+04 0.  0.
        1    1    3    3  502    0 -0.99848120030E+03  0.42690194745E+03 -0.12031135187E+04  0.16207072898E+04  0.50400001928E-02 0.  1.
       -1    1    3    3    0  502  0.99848120030E+03 -0.42690194745E+03  0.93897322304E+03  0.14355767808E+04  0.50400001928E-02 0. -1.
</event>
<event>
 5   0  0.2336512E-06  0.2917080E+04  0.7818609E-02  0.8267814E-01
       -1   -1    0    0    0  501  0.00000000000E+00  0.00000000000E+00  0.15129238605E+04  0.15129238606E+04  0.50400001928E-02 0. -1.
        1   -1    0    0  501    0  0.00000000000E+00  0.00000000000E+00 -0.14061110812E+04  0.14061110812E+04  0.50400001928E-02 0.  1.
    10030    2    1    2    0    0  0.00000000000E+00  0.00000000000E+00  0.10681277932E+03  0.29190349418E+04  0.29170800506E+04 0.  0.
        4    1    3    3  502    0 -0.60049913972E+03  0.12001394577E+04 -0.51829378099E+03  0.14385979254E+04  0.12699999809E+01 0.  1.
       -4    1    3    3    0  502  0.60049913972E+03 -0.12001394577E+04  0.62510656031E+03  0.14804370164E+04  0.12699999809E+01 0. -1.
</event>
<event>
 5   0  0.6393633E-06  0.2907295E+04  0.7818609E-02  0.8270710E-01
        2   -1    0    0  501    0  0.00000000000E+00  0.00000000000E+00  0.11140067315E+04  0.11140067315E+04  0.25500000920E-02 0.  1.
       -2   -1    0    0    0  501  0.00000000000E+00  0.00000000000E+00 -0.18968384098E+04  0.18968384098E+04  0.25500000920E-02 0. -1.
    10030    2    1    2    0    0  0.00000000000E+00  0.00000000000E+00 -0.78283167837E+03  0.30108451413E+04  0.29072947955E+04 0.  0.
        4    1    3    3  502    0 -0.24411727116E+03 -0.10995561269E+04  0.56026655068E+03  0.12579813747E+04  0.12699999809E+01 0.  1.
       -4    1    3    3    0  502  0.24411727116E+03  0.10995561269E+04 -0.13430982290E+04  0.17528637666E+04  0.12699999809E+01 0. -1.
</event>
<event>
 5   0  0.6612533E-06  0.2961837E+04  0.7818609E-02  0.8254713E-01
       -2   -1    0    0    0  501  0.00000000000E+00  0.00000000000E+00  0.14653328282E+04  0.14653328282E+04  0.25500000920E-02 0.  1.
        2   -1    0    0  501    0  0.00000000000E+00  0.00000000000E+00 -0.14966696628E+04  0.14966696628E+04  0.25500000920E-02 0. -1.
    10030    2    1    2    0    0  0.00000000000E+00  0.00000000000E+00 -0.31336834593E+02  0.29620024911E+04  0.29618367207E+04 0.  0.
        3    1    3    3  502    0 -0.13123586966E+03 -0.82089585763E+03  0.12099720092E+04  0.14680344464E+04  0.10100000352E+00 0.  1.
       -3    1    3    3    0  502  0.13123586966E+03  0.82089585763E+03 -0.12413088438E+04  0.14939680447E+04  0.10100000352E+00 0. -1.
</event>
<event>
 5   0  0.2336512E-06  0.2889561E+04  0.7818609E-02  0.8275990E-01
        1   -1    0    0  501    0  0.00000000000E+00  0.00000000000E+00  0.26327098306E+04  0.26327098306E+04  0.50400001928E-02 0. -1.
       -1   -1    0    0    0  501  0.00000000000E+00  0.00000000000E+00 -0.79286788933E+03  0.79286788935E+03  0.50400001928E-02 0.  1.
    10030    2    1    2    0    0  0.00000000000E+00  0.00000000000E+00  0.18398419413E+04  0.34255777200E+04  0.28895612723E+04 0.  0.
        4    1    3    3  502    0 -0.52708866143E+03 -0.68264462761E+03 -0.45421904988E+03  0.97475263672E+03  0.12699999809E+01 0.  1.
       -4    1    3    3    0  502  0.52708866143E+03  0.68264462761E+03  0.22940609911E+04  0.24508250832E+04  0.12699999809E+01 0. -1.
</event>
<event>
 5   0  0.6733688E-06  0.2920825E+04  0.7818609E-02  0.8266708E-01
        2   -1    0    0  501    0  0.00000000000E+00  0.00000000000E+00  0.21652840271E+04  0.21652840271E+04  0.25500000920E-02 0.  1.
       -2   -1    0    0    0  501  0.00000000000E+00  0.00000000000E+00 -0.98500018036E+03  0.98500018036E+03  0.25500000920E-02 0. -1.
    10030    2    1    2    0    0  0.00000000000E+00  0.00000000000E+00  0.11802838468E+04  0.31502842075E+04  0.29208253335E+04 0.  0.
        5    1    3    3  502    0  0.11264399679E+04  0.43429160464E+03  0.14764704607E+04  0.19072134937E+04  0.46999998093E+01 0.  1.
       -5    1    3    3    0  502 -0.11264399679E+04 -0.43429160464E+03 -0.29618661393E+03  0.12430707138E+04  0.46999998093E+01 0. -1.
</event>
<event>
 5   0  0.6612533E-06  0.2781168E+04  0.7818609E-02  0.8309139E-01
       -2   -1    0    0    0  501  0.00000000000E+00  0.00000000000E+00  0.11113427469E+04  0.11113427469E+04  0.25500000920E-02 0.  1.
        2   -1    0    0  501    0  0.00000000000E+00  0.00000000000E+00 -0.17399886917E+04  0.17399886917E+04  0.25500000920E-02 0. -1.
    10030    2    1    2    0    0  0.00000000000E+00  0.00000000000E+00 -0.62864594475E+03  0.28513314386E+04  0.27811679649E+04 0.  0.
        3    1    3    3  502    0 -0.97423686142E+02  0.50237687192E+03  0.10112972691E+04  0.11334002262E+04  0.10100000352E+00 0.  1.
       -3    1    3    3    0  502  0.97423686142E+02 -0.50237687192E+03 -0.16399432138E+04  0.17179312125E+04  0.10100000352E+00 0. -1.
</event>
<event>
 5   0  0.6393633E-06  0.2839301E+04  0.7818609E-02  0.8291170E-01
       -2   -1    0    0    0  501  0.00000000000E+00  0.00000000000E+00  0.14633607061E+04  0.14633607062E+04  0.25500000920E-02 0. -1.
        2   -1    0    0  501    0  0.00000000000E+00  0.00000000000E+00 -0.13772456571E+04  0.13772456571E+04  0.25500000920E-02 0.  1.
    10030    2    1    2    0    0  0.00000000000E+00  0.00000000000E+00  0.86115049050E+02  0.28406063633E+04  0.28393007430E+04 0.  0.
        4    1    3    3  502    0 -0.89166708791E+03  0.77360158023E+03  0.83201127510E+03  0.14442208887E+04  0.12699999809E+01 0. -1.
       -4    1    3    3    0  502  0.89166708791E+03 -0.77360158023E+03 -0.74589622605E+03  0.13963854745E+04  0.12699999809E+01 0.  1.
</event>
<event>
 5   0  0.6615403E-06  0.2931159E+04  0.7818609E-02  0.8263667E-01
        2   -1    0    0  501    0  0.00000000000E+00  0.00000000000E+00  0.21364552338E+04  0.21364552338E+04  0.25500000920E-02 0. -1.
       -2   -1    0    0    0  501  0.00000000000E+00  0.00000000000E+00 -0.10053678500E+04  0.10053678500E+04  0.25500000920E-02 0.  1.
    10030    2    1    2    0    0  0.00000000000E+00  0.00000000000E+00  0.11310873838E+04  0.31418230838E+04  0.29311590916E+04 0.  0.
        2    1    3    3  502    0 -0.10335725911E+04  0.39355759160E+02  0.16784851158E+04  0.19715814618E+04  0.25500000920E-02 0. -1.
       -2    1    3    3    0  502  0.10335725911E+04 -0.39355759160E+02 -0.54739773192E+03  0.11702416220E+04  0.25500000920E-02 0.  1.
</event>
<event>
 5   0  0.6615403E-06  0.2858213E+04  0.7818609E-02  0.8285420E-01
        2   -1    0    0  501    0  0.00000000000E+00  0.00000000000E+00  0.17790435937E+04  0.17790435937E+04  0.25500000920E-02 0. -1.
       -2   -1    0    0    0  501  0.00000000000E+00  0.00000000000E+00 -0.11480018061E+04  0.11480018061E+04  0.25500000920E-02 0.  1.
    10030    2    1    2    0    0  0.00000000000E+00  0.00000000000E+00  0.63104178765E+03  0.29270453998E+04  0.28582129093E+04 0.  0.
        2    1    3    3  502    0 -0.13194429250E+04  0.53533836064E+03  0.44022564409E+03  0.14904078000E+04  0.25500000920E-02 0. -1.
       -2    1    3    3    0  502  0.13194429250E+04 -0.53533836064E+03  0.19081614356E+03  0.14366375998E+04  0.25500000920E-02 0.  1.
</event>
<event>
 5   0  0.6615403E-06  0.2906450E+04  0.7818609E-02  0.8270961E-01
        2   -1    0    0  501    0  0.00000000000E+00  0.00000000000E+00  0.19570268277E+04  0.19570268277E+04  0.25500000920E-02 0.  1.
       -2   -1    0    0    0  501  0.00000000000E+00  0.00000000000E+00 -0.10791179031E+04  0.10791179032E+04  0.25500000920E-02 0. -1.
    10030    2    1    2    0    0  0.00000000000E+00  0.00000000000E+00  0.87790892453E+03  0.30361447308E+04  0.29064498528E+04 0.  0.
        2    1    3    3  502    0 -0.37715111832E+03 -0.10526171702E+04  0.14086082956E+04  0.17984502227E+04  0.25500000920E-02 0.  1.
       -2    1    3    3    0  502  0.37715111832E+03  0.10526171702E+04 -0.53069937108E+03  0.12376945081E+04  0.25500000920E-02 0. -1.
</event>
<event>
 5   0  0.6612533E-06  0.2899312E+04  0.7818609E-02  0.8273082E-01
        2   -1    0    0  501    0  0.00000000000E+00  0.00000000000E+00  0.30676259355E+04  0.30676259355E+04  0.25500000920E-02 0.  1.
       -2   -1    0    0    0  501  0.00000000000E+00  0.00000000000E+00 -0.68505830262E+03  0.68505830263E+03  0.25500000920E-02 0. -1.
    10030    2    1    2    0    0  0.00000000000E+00  0.00000000000E+00  0.23825676329E+04  0.37526842381E+04  0.28993120677E+04 0.  0.
        3    1    3    3  502    0  0.26544206748E+03 -0.14000735125E+03  0.30269796204E+04  0.30418197156E+04  0.10100000352E+00 0.  1.
       -3    1    3    3    0  502 -0.26544206748E+03  0.14000735125E+03 -0.64441198751E+03  0.71086452256E+03  0.10100000352E+00 0. -1.
</event>
<event>
 5   0  0.6393633E-06  0.2921099E+04  0.7818609E-02  0.8266628E-01
        2   -1    0    0  501    0  0.00000000000E+00  0.00000000000E+00  0.93463452598E+03  0.93463452598E+03  0.25500000920E-02 0. -1.
       -2   -1    0    0    0  501  0.00000000000E+00  0.00000000000E+00 -0.22823943457E+04  0.22823943457E+04  0.25500000920E-02 0.  1.
    10030    2    1    2    0    0  0.00000000000E+00  0.00000000000E+00 -0.13477598197E+04  0.32170288717E+04  0.29210988052E+04 0.  0.
        4    1    3    3  502    0 -0.10009699912E+03  0.12325958657E+04  0.18195102074E+03  0.12499679053E+04  0.12699999809E+01 0. -1.
       -4    1    3    3    0  502  0.10009699912E+03 -0.12325958657E+04 -0.15297108405E+04  0.19670609664E+04  0.12699999809E+01 0.  1.
</event>
<event>
 5   0  0.6513041E-06  0.2922893E+04  0.7818609E-02  0.8266099E-01
        2   -1    0    0  501    0  0.00000000000E+00  0.00000000000E+00  0.17479162848E+04  0.17479162848E+04  0.25500000920E-02 0.  1.
       -2   -1    0    0    0  501  0.00000000000E+00  0.00000000000E+00 -0.12219267615E+04  0.12219267615E+04  0.25500000920E-02 0. -1.
    10030    2    1    2    0    0  0.00000000000E+00  0.00000000000E+00  0.52598952331E+03  0.29698430463E+04  0.29228928719E+04 0.  0.
        1    1    3    3  502    0  0.52403169026E+03  0.13374566924E+04  0.53643854611E+03  0.15333512090E+04  0.50400001928E-02 0.  1.
       -1    1    3    3    0  502 -0.52403169026E+03 -0.13374566924E+04 -0.10449022798E+02  0.14364918373E+04  0.50400001928E-02 0. -1.
</event>
<event>
 5   0  0.2474769E-06  0.2872209E+04  0.7818609E-02  0.8281194E-01
       -1   -1    0    0    0  501  0.00000000000E+00  0.00000000000E+00  0.14508928848E+04  0.14508928848E+04  0.50400001928E-02 0. -1.
        1   -1    0    0  501    0  0.00000000000E+00  0.00000000000E+00 -0.14214667478E+04  0.14214667478E+04  0.50400001928E-02 0.  1.
    10030    2    1    2    0    0  0.00000000000E+00  0.00000000000E+00  0.29426137068E+02  0.28723596326E+04  0.28722088993E+04 0.  0.
        1    1    3    3  502    0  0.37784595019E+03 -0.58056747469E+03 -0.12433552707E+04  0.14232914262E+04  0.50400001928E-02 0.  1.
       -1    1    3    3    0  502 -0.37784595019E+03  0.58056747469E+03  0.12727814078E+04  0.14490682064E+04  0.50400001928E-02 0. -1.
</event>
<event>
 5   0  0.2508094E-06  0.2715187E+04  0.7818609E-02  0.8330094E-01
        1   -1    0    0  501    0  0.00000000000E+00  0.00000000000E+00  0.84009706942E+03  0.84009706944E+03  0.50400001928E-02 0.  1.
       -1   -1    0    0    0  501  0.00000000000E+00  0.00000000000E+00 -0.21938661631E+04  0.21938661631E+04  0.50400001928E-02 0. -1.
    10030    2    1    2    0    0  0.00000000000E+00  0.00000000000E+00 -0.13537690936E+04  0.30339632325E+04  0.27151873117E+04 0.  0.
        3    1    3    3  502    0  0.33459535824E+03 -0.10579515191E+04  0.19715532500E+03  0.11269807908E+04  0.10100000352E+00 0.  1.
       -3    1    3    3    0  502 -0.33459535824E+03  0.10579515191E+04 -0.15509244186E+04  0.19069824417E+04  0.10100000352E+00 0. -1.
</event>
<event>
 5   0  0.2474769E-06  0.2897635E+04  0.7818609E-02  0.8273582E-01
        1   -1    0    0  501    0  0.00000000000E+00  0.00000000000E+00  0.11611701017E+04  0.11611701018E+04  0.50400001928E-02 0.  1.
       -1   -1    0    0    0  501  0.00000000000E+00  0.00000000000E+00 -0.18077211944E+04  0.18077211944E+04  0.50400001928E-02 0. -1.
    10030    2    1    2    0    0  0.00000000000E+00  0.00000000000E+00 -0.64655109261E+03  0.29688912961E+04  0.28976347618E+04 0.  0.
        1    1    3    3  502    0 -0.86561893829E+03  0.10603370931E+04  0.16322829900E+03  0.13784971436E+04  0.50400001928E-02 0.  1.
       -1    1    3    3    0  502  0.86561893829E+03 -0.10603370931E+04 -0.80977939162E+03  0.15903941525E+04  0.50400001928E-02 0. -1.
</event>
<event>
 5   0  0.6393633E-06  0.2861843E+04  0.7818609E-02  0.8284322E-01
       -2   -1    0    0    0  501  0.00000000000E+00  0.00000000000E+00  0.11552571605E+04  0.11552571605E+04  0.25500000920E-02 0. -1.
        2   -1    0    0  501    0  0.00000000000E+00  0.00000000000E+00 -0.17723647202E+04  0.17723647202E+04  0.25500000920E-02 0.  1.
    10030    2    1    2    0    0  0.00000000000E+00  0.00000000000E+00 -0.61710755971E+03  0.29276218807E+04  0.28618434857E+04 0.  0.
        4    1    3    3  502    0 -0.13727020947E+04  0.29221445250E+03 -0.59395566251E+03  0.15239702323E+04  0.12699999809E+01 0.  1.
       -4    1    3    3    0  502  0.13727020947E+04 -0.29221445250E+03 -0.23151897204E+02  0.14036516485E+04  0.12699999809E+01 0. -1.
</event>
<event>
 5   0  0.6615403E-06  0.2867658E+04  0.7818609E-02  0.8282566E-01
       -2   -1    0    0    0  501  0.00000000000E+00  0.00000000000E+00  0.18510134905E+04  0.18510134905E+04  0.25500000920E-02 0.  1.
        2   -1    0    0  501    0  0.00000000000E+00  0.00000000000E+00 -0.11106705333E+04  0.11106705333E+04  0.25500000920E-02 0. -1.
    10030    2    1    2    0    0  0.00000000000E+00  0.00000000000E+00  0.74034295726E+03  0.29616840238E+04  0.28676583762E+04 0.  0.
        2    1    3    3  502    0  0.13404032744E+04  0.45482318820E+03  0.60640940331E+03  0.15398952675E+04  0.25500000920E-02 0. -1.
       -2    1    3    3    0  502 -0.13404032744E+04 -0.45482318820E+03  0.13393355394E+03  0.14217887563E+04  0.25500000920E-02 0.  1.
</event>
<event>
 5   0  0.6615403E-06  0.2713159E+04  0.7818609E-02  0.8330748E-01
        2   -1    0    0  501    0  0.00000000000E+00  0.00000000000E+00  0.29533717603E+04  0.29533717603E+04  0.25500000920E-02 0.  1.
       -2   -1    0    0    0  501  0.00000000000E+00  0.00000000000E+00 -0.62312085193E+03  0.62312085194E+03  0.25500000920E-02 0. -1.
    10030    2    1    2    0    0  0.00000000000E+00  0.00000000000E+00  0.23302509084E+04  0.35764926123E+04  0.27131586960E+04 0.  0.
        2    1    3    3  502    0 -0.90678314464E+03 -0.99852104991E+03  0.97406533991E+03  0.16637617753E+04  0.25500000920E-02 0. -1.
       -2    1    3    3    0  502  0.90678314464E+03  0.99852104991E+03  0.13561855685E+04  0.19127308370E+04  0.25500000920E-02 0.  1.
</event>
<event>
 5   0  0.6513041E-06  0.2891449E+04  0.7818609E-02  0.8275426E-01
        2   -1    0    0  501    0  0.00000000000E+00  0.00000000000E+00  0.23017156728E+04  0.23017156728E+04  0.25500000920E-02 0.  1.
       -2   -1    0    0    0  501  0.00000000000E+00  0.00000000000E+00 -0.90807034475E+03  0.90807034475E+03  0.25500000920E-02 0. -1.
    10030    2    1    2    0    0  0.00000000000E+00  0.00000000000E+00  0.13936453281E+04  0.32097860176E+04  0.28914492868E+04 0.  0.
        1    1    3    3  502    0  0.38057846955E+03 -0.81325502677E+03 -0.56101741870E+03  0.10587559937E+04  0.50400001928E-02 0. -1.
       -1    1    3    3    0  502 -0.38057846955E+03  0.81325502677E+03  0.19546627468E+04  0.21510300239E+04  0.50400001928E-02 0.  1.
</event>
<event>
 5   0  0.6733688E-06  0.2844352E+04  0.7818609E-02  0.8289630E-01
       -2   -1    0    0    0  501  0.00000000000E+00  0.00000000000E+00  0.90584162541E+03  0.90584162541E+03  0.25500000920E-02 0. -1.
        2   -1    0    0  501    0  0.00000000000E+00  0.00000000000E+00 -0.22328240435E+04  0.22328240435E+04  0.25500000920E-02 0.  1.
    10030    2    1    2    0    0  0.00000000000E+00  0.00000000000E+00 -0.13269824181E+04  0.31386656689E+04  0.28443522713E+04 0.  0.
        5    1    3    3  502    0 -0.92977521962E+02 -0.98397124088E+03 -0.17919068596E+04  0.20464106397E+04  0.46999998093E+01 0.  1.
       -5    1    3    3    0  502  0.92977521962E+02  0.98397124088E+03  0.46492444159E+03  0.10922550292E+04  0.46999998093E+01 0. -1.
</event>
<event>
 5   0  0.2429358E-06  0.2743684E+04  0.7818609E-02  0.8320969E-01
       -1   -1    0    0    0  501  0.00000000000E+00  0.00000000000E+00  0.12905799076E+04  0.12905799076E+04  0.50400001928E-02 0.  1.
        1   -1    0    0  501    0  0.00000000000E+00  0.00000000000E+00 -0.14582210519E+04  0.14582210520E+04  0.50400001928E-02 0. -1.
    10030    2    1    2    0    0  0.00000000000E+00  0.00000000000E+00 -0.16764114438E+03  0.27488009595E+04  0.27436842314E+04 0.  0.
        2    1    3    3  502    0  0.13430198185E+04  0.21595870907E+03  0.94304115994E+02  0.13635371881E+04  0.25500000920E-02 0. -1.
       -2    1    3    3    0  502 -0.13430198185E+04 -0.21595870907E+03 -0.26194526037E+03  0.13852637714E+04  0.25500000920E-02 0.  1.
</event>
<event>
 5   0  0.2508094E-06  0.2908114E+04  0.7818609E-02  0.8270467E-01
       -1   -1    0    0    0  501  0.00000000000E+00  0.00000000000E+00  0.96827467968E+03  0.96827467969E+03  0.50400001928E-02 0. -1.
        1   -1    0    0  501    0  0.00000000000E+00  0.00000000000E+00 -0.21835560062E+04  0.21835560062E+04  0.50400001928E-02 0.  1.
    10030    2    1    2    0    0  0.00000000000E+00  0.00000000000E+00 -0.12152813266E+04  0.31518306859E+04  0.29081141604E+04 0.  0.
        3    1    3    3  502    0  0.45222768830E+03 -0.12069568512E+04  0.12183968355E+03  0.12946426694E+04  0.10100000352E+00 0. -1.
       -3    1    3    3    0  502 -0.45222768830E+03  0.12069568512E+04 -0.13371210101E+04  0.18571880165E+04  0.10100000352E+00 0.  1.
</event>
<event>
 5   0  0.2474769E-06  0.2904451E+04  0.7818609E-02  0.8271554E-01
        1   -1    0    0  501    0  0.00000000000E+00  0.00000000000E+00  0.14963944676E+04  0.14963944677E+04  0.50400001928E-02 0.  1.
       -1   -1    0    0    0  501  0.00000000000E+00  0.00000000000E+00 -0.14093600528E+04  0.14093600528E+04  0.50400001928E-02 0. -1.
    10030    2    1    2    0    0  0.00000000000E+00  0.00000000000E+00  0.87034414855E+02  0.29057545205E+04  0.29044507818E+04 0.  0.
        1    1    3    3  502    0  0.44236147839E+03  0.12855450011E+04 -0.46724987180E+03  0.14375785440E+04  0.50400001928E-02 0. -1.
       -1    1    3    3    0  502 -0.44236147839E+03 -0.12855450011E+04  0.55428428665E+03  0.14681759765E+04  0.50400001928E-02 0.  1.
</event>
<event>
 5   0  0.2429358E-06  0.2932504E+04  0.7818609E-02  0.8263272E-01
       -1   -1    0    0    0  501  0.00000000000E+00  0.00000000000E+00  0.78706018407E+03  0.78706018409E+03  0.50400001928E-02 0. -1.
        1   -1    0    0  501    0  0.00000000000E+00  0.00000000000E+00 -0.27315504000E+04  0.27315504000E+04  0.50400001928E-02 0.  1.
    10030    2    1    2    0    0  0.00000000000E+00  0.00000000000E+00 -0.19444902159E+04  0.35186105841E+04  0.29325037498E+04 0.  0.
        2    1    3    3  502    0  0.13736699312E+03 -0.14423114510E+04 -0.12425813897E+04  0.19087012659E+04  0.25500000920E-02 0. -1.
       -2    1    3    3    0  502 -0.13736699312E+03  0.14423114510E+04 -0.70190882616E+03  0.16099093181E+04  0.25500000920E-02 0.  1.
</event>
<event>
 5   0  0.6612533E-06  0.2903197E+04  0.7818609E-02  0.8271927E-01
       -2   -1    0    0    0  501  0.00000000000E+00  0.00000000000E+00  0.17475155591E+04  0.17475155591E+04  0.25500000920E-02 0. -1.
        2   -1    0    0  501    0  0.00000000000E+00  0.00000000000E+00 -0.12057908295E+04  0.12057908295E+04  0.25500000920E-02 0.  1.
    10030    2    1    2    0    0  0.00000000000E+00  0.00000000000E+00  0.54172472952E+03  0.29533063886E+04  0.29031970209E+04 0.  0.
        3    1    3    3  502    0 -0.41711048239E+02 -0.13604606012E+04 -0.24237065902E+03  0.13825109062E+04  0.10100000352E+00 0.  1.
       -3    1    3    3    0  502  0.41711048239E+02  0.13604606012E+04  0.78409538854E+03  0.15707954824E+04  0.10100000352E+00 0. -1.
</event>
<event>
 5   0  0.2429358E-06  0.2874252E+04  0.7818609E-02  0.8280580E-01
       -1   -1    0    0    0  501  0.00000000000E+00  0.00000000000E+00  0.10826348440E+04  0.10826348440E+04  0.50400001928E-02 0.  1.
        1   -1    0    0  501    0  0.00000000000E+00  0.00000000000E+00 -0.19076901282E+04  0.19076901282E+04  0.50400001928E-02 0. -1.
    10030    2    1    2    0    0  0.00000000000E+00  0.00000000000E+00 -0.82505528421E+03  0.29903249722E+04  0.28742524624E+04 0.  0.
        2    1    3    3  502    0 -0.42018471256E+03 -0.45641865253E+03  0.93614760769E+03  0.11230518788E+04  0.25500000920E-02 0.  1.
       -2    1    3    3    0  502  0.42018471256E+03  0.45641865253E+03 -0.17612028919E+04  0.18672730934E+04  0.25500000920E-02 0. -1.
</event>
<event>
 5   0  0.6733688E-06  0.2876591E+04  0.7818609E-02  0.8279877E-01
       -2   -1    0    0    0  501  0.00000000000E+00  0.00000000000E+00  0.81049384750E+03  0.81049384750E+03  0.25500000920E-02 0. -1.
        2   -1    0    0  501    0  0.00000000000E+00  0.00000000000E+00 -0.25523869863E+04  0.25523869863E+04  0.25500000920E-02 0.  1.
    10030    2    1    2    0    0  0.00000000000E+00  0.00000000000E+00 -0.17418931388E+04  0.33628808338E+04  0.28765910024E+04 0.  0.
        5    1    3    3  502    0  0.83259105281E+03  0.11654861177E+03  0.49333134345E+03  0.97477656134E+03  0.46999998093E+01 0. -1.
       -5    1    3    3    0  502 -0.83259105281E+03 -0.11654861177E+03 -0.22352244822E+04  0.23881042725E+04  0.46999998093E+01 0.  1.
</event>
<event>
 5   0  0.6393633E-06  0.2864343E+04  0.7818609E-02  0.8283566E-01
       -2   -1    0    0    0  501  0.00000000000E+00  0.00000000000E+00  0.12577268134E+04  0.12577268135E+04  0.25500000920E-02 0. -1.
        2   -1    0    0  501    0  0.00000000000E+00  0.00000000000E+00 -0.16308113962E+04  0.16308113962E+04  0.25500000920E-02 0.  1.
    10030    2    1    2    0    0  0.00000000000E+00  0.00000000000E+00 -0.37308458276E+03  0.28885382097E+04  0.28643430107E+04 0.  0.
        4    1    3    3  502    0  0.45713107701E+03 -0.73128736782E+03 -0.13396006338E+04  0.15931985146E+04  0.12699999809E+01 0.  1.
       -4    1    3    3    0  502 -0.45713107701E+03  0.73128736782E+03  0.96651605102E+03  0.12953396951E+04  0.12699999809E+01 0. -1.
</event>
<event>
 5   0  0.2348684E-06  0.2918734E+04  0.7818609E-02  0.8267325E-01
       -1   -1    0    0    0  501  0.00000000000E+00  0.00000000000E+00  0.11317159914E+04  0.11317159914E+04  0.50400001928E-02 0.  1.
        1   -1    0    0  501    0  0.00000000000E+00  0.00000000000E+00 -0.18818784735E+04  0.18818784735E+04  0.50400001928E-02 0. -1.
    10030    2    1    2    0    0  0.00000000000E+00  0.00000000000E+00 -0.75016248206E+03  0.30135944649E+04  0.29187339464E+04 0.  0.
        5    1    3    3  502    0  0.29048953375E+03  0.73062361176E+03 -0.16444838349E+04  0.18227847390E+04  0.46999998093E+01 0. -1.
       -5    1    3    3    0  502 -0.29048953375E+03 -0.73062361176E+03  0.89432135287E+03  0.11908097260E+04  0.46999998093E+01 0.  1.
</event>
<event>
 5   0  0.2508094E-06  0.2866031E+04  0.7818609E-02  0.8283057E-01
        1   -1    0    0  501    0  0.00000000000E+00  0.00000000000E+00  0.97500757838E+03  0.97500757839E+03  0.50400001928E-02 0. -1.
       -1   -1    0    0    0  501  0.00000000000E+00  0.00000000000E+00 -0.21061718109E+04  0.21061718109E+04  0.50400001928E-02 0.  1.
    10030    2    1    2    0    0  0.00000000000E+00  0.00000000000E+00 -0.11311642325E+04  0.30811793893E+04  0.28660310375E+04 0.  0.
        3    1    3    3  502    0  0.12238726139E+04 -0.52098850373E+03  0.75818760016E+01  0.13301694219E+04  0.10100000352E+00 0. -1.
       -3    1    3    3    0  502 -0.12238726139E+04  0.52098850373E+03 -0.11387461085E+04  0.17510099674E+04  0.10100000352E+00 0.  1.
</event>
<event>
 5   0  0.2474769E-06  0.2908751E+04  0.7818609E-02  0.8270278E-01
       -1   -1    0    0    0  501  0.00000000000E+00  0.00000000000E+00  0.14612028246E+04  0.14612028246E+04  0.50400001928E-02 0.  1.
        1   -1    0    0  501    0  0.00000000000E+00  0.00000000000E+00 -0.14475805060E+04  0.14475805060E+04  0.50400001928E-02 0. -1.
    10030    2    1    2    0    0  0.00000000000E+00  0.00000000000E+00  0.13622318559E+02  0.29087833306E+04  0.29087514326E+04 0.  0.
        1    1    3    3  502    0 -0.62360855519E+03  0.36310944771E+03 -0.12559269743E+04  0.14484780515E+04  0.50400001928E-02 0. -1.
       -1    1    3    3    0  502  0.62360855519E+03 -0.36310944771E+03  0.12695492928E+04  0.14603052791E+04  0.50400001928E-02 0.  1.
</event>
<event>
 5   0  0.2348684E-06  0.2908328E+04  0.7818609E-02  0.8270404E-01
       -1   -1    0    0    0  501  0.00000000000E+00  0.00000000000E+00  0.14134024164E+04  0.14134024164E+04  0.50400001928E-02 0.  1.
        1   -1    0    0  501    0  0.00000000000E+00  0.00000000000E+00 -0.14961006100E+04  0.14961006101E+04  0.50400001928E-02 0. -1.
    10030    2    1    2    0    0  0.00000000000E+00  0.00000000000E+00 -0.82698193635E+02  0.29095030265E+04  0.29083275039E+04 0.  0.
        5    1    3    3  502    0 -0.64840680211E+02 -0.13765027829E+04  0.42317240970E+03  0.14415481967E+04  0.46999998093E+01 0.  1.
       -5    1    3    3    0  502  0.64840680211E+02  0.13765027829E+04 -0.50587060333E+03  0.14679548298E+04  0.46999998093E+01 0. -1.
</event>
<event>
 5   0  0.6615403E-06  0.2948283E+04  0.7818609E-02  0.8258655E-01
       -2   -1    0    0    0  501  0.00000000000E+00  0.00000000000E+00  0.16481915305E+04  0.16481915305E+04  0.25500000920E-02 0.  1.
        2   -1    0    0  501    0  0.00000000000E+00  0.00000000000E+00 -0.13184710591E+04  0.13184710591E+04  0.25500000920E-02 0. -1.
    10030    2    1    2    0    0  0.00000000000E+00  0.00000000000E+00  0.32972047140E+03  0.29666625895E+04  0.29482827766E+04 0.  0.
        2    1    3    3  502    0 -0.10158159239E+04  0.61214667930E+03  0.10458107167E+04  0.15812417915E+04  0.25500000920E-02 0.  1.
       -2    1    3    3    0  502  0.10158159239E+04 -0.61214667930E+03 -0.71609024525E+03  0.13854207980E+04  0.25500000920E-02 0. -1.
</event>
<event>
 5   0  0.2429358E-06  0.2928848E+04  0.7818609E-02  0.8264346E-01
        1   -1    0    0  501    0  0.00000000000E+00  0.00000000000E+00  0.92607257881E+03  0.92607257883E+03  0.50400001928E-02 0. -1.
       -1   -1    0    0    0  501  0.00000000000E+00  0.00000000000E+00 -0.23157339832E+04  0.23157339832E+04  0.50400001928E-02 0.  1.
    10030    2    1    2    0    0  0.00000000000E+00  0.00000000000E+00 -0.13896614044E+04  0.32418065620E+04  0.29288480614E+04 0.  0.
        2    1    3    3  502    0 -0.91549729650E+03 -0.13525848317E+02  0.57019204459E+03  0.10786274687E+04  0.25500000920E-02 0. -1.
       -2    1    3    3    0  502  0.91549729650E+03  0.13525848317E+02 -0.19598534490E+04  0.21631790933E+04  0.25500000920E-02 0.  1.
</event>
<event>
 5   0  0.6733688E-06  0.2783774E+04  0.7818609E-02  0.8308324E-01
        2   -1    0    0  501    0  0.00000000000E+00  0.00000000000E+00  0.13042992414E+04  0.13042992414E+04  0.25500000920E-02 0. -1.
       -2   -1    0    0    0  501  0.00000000000E+00  0.00000000000E+00 -0.14853560323E+04  0.14853560323E+04  0.25500000920E-02 0.  1.
    10030    2    1    2    0    0  0.00000000000E+00  0.00000000000E+00 -0.18105679091E+03  0.27896552736E+04  0.27837735152E+04 0.  0.
        5    1    3    3  502    0  0.50242720643E+03  0.12972078416E+04 -0.13694444218E+03  0.13978401741E+04  0.46999998093E+01 0. -1.
       -5    1    3    3    0  502 -0.50242720643E+03 -0.12972078416E+04 -0.44112348727E+02  0.13918150995E+04  0.46999998093E+01 0.  1.
</event>
<event>
 5   0  0.2474769E-06  0.2906136E+04  0.7818609E-02  0.8271054E-01
        1   -1    0    0  501    0  0.00000000000E+00  0.00000000000E+00  0.11828317778E+04  0.11828317778E+04  0.50400001928E-02 0. -1.
       -1   -1    0    0    0  501  0.00000000000E+00  0.00000000000E+00 -0.17850441201E+04  0.17850441201E+04  0.50400001928E-02 0.  1.
    10030    2    1    2    0    0  0.00000000000E+00  0.00000000000E+00 -0.60221234226E+03  0.29678758979E+04  0.29061362047E+04 0.  0.
        1    1    3    3  502    0  0.29055265370E+03  0.13939299255E+04 -0.59699481456E+03  0.15439767778E+04  0.50400001928E-02 0. -1.
       -1    1    3    3    0  502 -0.29055265370E+03 -0.13939299255E+04 -0.52175276977E+01  0.14238991201E+04  0.50400001928E-02 0.  1.
</event>
<event>
 5   0  0.6612533E-06  0.2844141E+04  0.7818609E-02  0.8289694E-01
        2   -1    0    0  501    0  0.00000000000E+00  0.00000000000E+00  0.23771654387E+04  0.23771654387E+04  0.25500000920E-02 0. -1.
       -2   -1    0    0    0  501  0.00000000000E+00  0.00000000000E+00 -0.85071242331E+03  0.85071242331E+03  0.25500000920E-02 0.  1.
    10030    2    1    2    0    0  0.00000000000E+00  0.00000000000E+00  0.15264530154E+04  0.32278778620E+04  0.28441407637E+04 0.  0.
        3    1    3    3  502    0 -0.12114692962E+04 -0.56173053044E+03  0.13181617122E+04  0.18763659969E+04  0.10100000352E+00 0. -1.
       -3    1    3    3    0  502  0.12114692962E+04  0.56173053044E+03  0.20829130319E+03  0.13515118652E+04  0.10100000352E+00 0.  1.
</event>
<event>
 5   0  0.6733688E-06  0.3046470E+04  0.7818609E-02  0.8230584E-01
       -2   -1    0    0    0  501  0.00000000000E+00  0.00000000000E+00  0.21542155463E+04  0.21542155463E+04  0.25500000920E-02 0.  1.
        2   -1    0    0  501    0  0.00000000000E+00  0.00000000000E+00 -0.10770721153E+04  0.10770721153E+04  0.25500000920E-02 0. -1.
    10030    2    1    2    0    0  0.00000000000E+00  0.00000000000E+00  0.10771434310E+04  0.32312876616E+04  0.30464704136E+04 0.  0.
        5    1    3    3  502    0  0.87168464730E+03 -0.89745280259E+03 -0.38302911427E+03  0.13084299942E+04  0.46999998093E+01 0. -1.
       -5    1    3    3    0  502 -0.87168464730E+03  0.89745280259E+03  0.14601725453E+04  0.19228576674E+04  0.46999998093E+01 0.  1.
</event>
<event>
 5   0  0.6733688E-06  0.2929854E+04  0.7818609E-02  0.8264050E-01
       -2   -1    0    0    0  501  0.00000000000E+00  0.00000000000E+00  0.11330300898E+04  0.11330300898E+04  0.25500000920E-02 0.  1.
        2   -1    0    0  501    0  0.00000000000E+00  0.00000000000E+00 -0.18940463527E+04  0.18940463527E+04  0.25500000920E-02 0. -1.
    10030    2    1    2    0    0  0.00000000000E+00  0.00000000000E+00 -0.76101626297E+03  0.30270764425E+04  0.29298542688E+04 0.  0.
        5    1    3    3  502    0  0.14278827683E+04 -0.32509646231E+03 -0.41988460458E+03  0.15234375868E+04  0.46999998093E+01 0. -1.
       -5    1    3    3    0  502 -0.14278827683E+04  0.32509646231E+03 -0.34113165839E+03  0.15036388556E+04  0.46999998093E+01 0.  1.
</event>
<event>
 5   0  0.6612533E-06  0.2863661E+04  0.7818609E-02  0.8283772E-01
       -2   -1    0    0    0  501  0.00000000000E+00  0.00000000000E+00  0.10950493387E+04  0.10950493387E+04  0.25500000920E-02 0. -1.
        2   -1    0    0  501    0  0.00000000000E+00  0.00000000000E+00 -0.18721888176E+04  0.18721888176E+04  0.25500000920E-02 0.  1.
    10030    2    1    2    0    0  0.00000000000E+00  0.00000000000E+00 -0.77713947892E+03  0.29672381562E+04  0.28636613812E+04 0.  0.
        3    1    3    3  502    0  0.46555847816E+02  0.25507212818E+03  0.10705207628E+04  0.11014735364E+04  0.10100000352E+00 0. -1.
       -3    1    3    3    0  502 -0.46555847816E+02 -0.25507212818E+03 -0.18476602417E+04  0.18657646198E+04  0.10100000352E+00 0.  1.
</event>
<event>
 5   0  0.2474769E-06  0.2919798E+04  0.7818609E-02  0.8267011E-01
        1   -1    0    0  501    0  0.00000000000E+00  0.00000000000E+00  0.18516688661E+04  0.18516688662E+04  0.50400001928E-02 0. -1.
       -1   -1    0    0    0  501  0.00000000000E+00  0.00000000000E+00 -0.11510183133E+04  0.11510183133E+04  0.50400001928E-02 0.  1.
    10030    2    1    2    0    0  0.00000000000E+00  0.00000000000E+00  0.70065055287E+03  0.30026871794E+04  0.29197977842E+04 0.  0.
        1    1    3    3  502    0 -0.89604630918E+03  0.96583759940E+03  0.99711845450E+03  0.16522670695E+04  0.50400001928E-02 0. -1.
       -1    1    3    3    0  502  0.89604630918E+03 -0.96583759940E+03 -0.29646790163E+03  0.13504201099E+04  0.50400001928E-02 0.  1.
</event>
<event>
 5   0  0.2336512E-06  0.2914840E+04  0.7818609E-02  0.8268476E-01
       -1   -1    0    0    0  501  0.00000000000E+00  0.00000000000E+00  0.16406323689E+04  0.16406323689E+04  0.50400001928E-02 0.  1.
        1   -1    0    0  501    0  0.00000000000E+00  0.00000000000E+00 -0.12946671659E+04  0.12946671659E+04  0.50400001928E-02 0. -1.
    10030    2    1    2    0    0  0.00000000000E+00  0.00000000000E+00  0.34596520299E+03  0.29352995349E+04  0.29148398648E+04 0.  0.
        4    1    3    3  502    0  0.94707416996E+03  0.10797397244E+04 -0.76310861247E+02  0.14382671227E+04  0.12699999809E+01 0.  1.
       -4    1    3    3    0  502 -0.94707416996E+03 -0.10797397244E+04  0.42227606424E+03  0.14970324122E+04  0.12699999809E+01 0. -1.
</event>
<event>
 5   0  0.2348684E-06  0.2906142E+04  0.7818609E-02  0.8271053E-01
        1   -1    0    0  501    0  0.00000000000E+00  0.00000000000E+00  0.17810545615E+04  0.17810545615E+04  0.50400001928E-02 0.  1.
       -1   -1    0    0    0  501  0.00000000000E+00  0.00000000000E+00 -0.11854856634E+04  0.11854856634E+04  0.50400001928E-02 0. -1.
    10030    2    1    2    0    0  0.00000000000E+00  0.00000000000E+00  0.59556889806E+03  0.29665402249E+04  0.29061415302E+04 0.  0.
        5    1    3    3  502    0 -0.10622184818E+04  0.33572013849E+03  0.12501135271E+04  0.16744617150E+04  0.46999998093E+01 0.  1.
       -5    1    3    3    0  502  0.10622184818E+04 -0.33572013849E+03 -0.65454462902E+03  0.12920785099E+04  0.46999998093E+01 0. -1.
</event>
<event>
 5   0  0.6615403E-06  0.2885002E+04  0.7818609E-02  0.8277354E-01
        2   -1    0    0  501    0  0.00000000000E+00  0.00000000000E+00  0.20142889148E+04  0.20142889148E+04  0.25500000920E-02 0. -1.
       -2   -1    0    0    0  501  0.00000000000E+00  0.00000000000E+00 -0.10330245049E+04  0.10330245049E+04  0.25500000920E-02 0.  1.
    10030    2    1    2    0    0  0.00000000000E+00  0.00000000000E+00  0.98126440988E+03  0.30473134198E+04  0.28850024673E+04 0.  0.
        2    1    3    3  502    0 -0.33927348372E+03  0.84054983529E+03  0.16758951870E+04  0.19053228598E+04  0.25500000920E-02 0. -1.
       -2    1    3    3    0  502  0.33927348372E+03 -0.84054983529E+03 -0.69463077714E+03  0.11419905599E+04  0.25500000920E-02 0.  1.
</event>
<event>
 5   0  0.2508094E-06  0.2893873E+04  0.7818609E-02  0.8274703E-01
       -1   -1    0    0    0  501  0.00000000000E+00  0.00000000000E+00  0.13838391373E+04  0.13838391373E+04  0.50400001928E-02 0. -1.
        1   -1    0    0  501    0  0.00000000000E+00  0.00000000000E+00 -0.15129107801E+04  0.15129107801E+04  0.50400001928E-02 0.  1.
    10030    2    1    2    0    0  0.00000000000E+00  0.00000000000E+00 -0.12907164282E+03  0.28967499174E+04  0.28938729404E+04 0.  0.
        3    1    3    3  502    0  0.57398988733E+03  0.13279240988E+04 -0.92462227422E+02  0.14496192867E+04  0.10100000352E+00 0.  1.
       -3    1    3    3    0  502 -0.57398988733E+03 -0.13279240988E+04 -0.36609415396E+02  0.14471306307E+04  0.10100000352E+00 0. -1.
</event>
<event>
 5   0  0.2336512E-06  0.2869189E+04  0.7818609E-02  0.8282104E-01
        1   -1    0    0  501    0  0.00000000000E+00  0.00000000000E+00  0.86847491125E+03  0.86847491126E+03  0.50400001928E-02 0. -1.
       -1   -1    0    0    0  501  0.00000000000E+00  0.00000000000E+00 -0.23697417799E+04  0.23697417799E+04  0.50400001928E-02 0.  1.
    10030    2    1    2    0    0  0.00000000000E+00  0.00000000000E+00 -0.15012668687E+04  0.32382166912E+04  0.28691889321E+04 0.  0.
        4    1    3    3  502    0  0.32339054733E+03 -0.89813998483E+03 -0.19592677417E+04  0.21794422624E+04  0.12699999809E+01 0.  1.
       -4    1    3    3    0  502 -0.32339054733E+03  0.89813998483E+03  0.45800087305E+03  0.10587744288E+04  0.12699999809E+01 0. -1.
</event>
<event>
 5   0  0.6393633E-06  0.2846327E+04  0.7818609E-02  0.8289028E-01
        2   -1    0    0  501    0  0.00000000000E+00  0.00000000000E+00  0.17259155036E+04  0.17259155036E+04  0.25500000920E-02 0. -1.
       -2   -1    0    0    0  501  0.00000000000E+00  0.00000000000E+00 -0.11735188836E+04  0.11735188836E+04  0.25500000920E-02 0.  1.
    10030    2    1    2    0    0  0.00000000000E+00  0.00000000000E+00  0.55239661996E+03  0.28994343872E+04  0.28463270613E+04 0.  0.
        4    1    3    3  502    0 -0.17679969921E+03 -0.14085228249E+04  0.17332825563E+03  0.14301185193E+04  0.12699999809E+01 0. -1.
       -4    1    3    3    0  502  0.17679969921E+03  0.14085228249E+04  0.37906836432E+03  0.14693158679E+04  0.12699999809E+01 0.  1.
</event>
<event>
 5   0  0.2336512E-06  0.2901727E+04  0.7818609E-02  0.8272364E-01
        1   -1    0    0  501    0  0.00000000000E+00  0.00000000000E+00  0.23040613590E+04  0.23040613590E+04  0.50400001928E-02 0. -1.
       -1   -1    0    0    0  501  0.00000000000E+00  0.00000000000E+00 -0.91360647565E+03  0.91360647566E+03  0.50400001928E-02 0.  1.
    10030    2    1    2    0    0  0.00000000000E+00  0.00000000000E+00  0.13904548834E+04  0.32176678347E+04  0.29017273324E+04 0.  0.
        4    1    3    3  502    0 -0.40590344277E+03 -0.78887265883E+03  0.19682325197E+04  0.21589392167E+04  0.12699999809E+01 0. -1.
       -4    1    3    3    0  502  0.40590344277E+03  0.78887265883E+03 -0.57777763633E+03  0.10587286180E+04  0.12699999809E+01 0.  1.
</event>
<event>
 5   0  0.2336512E-06  0.2963200E+04  0.7818609E-02  0.8254318E-01
        1   -1    0    0  501    0  0.00000000000E+00  0.00000000000E+00  0.17301260321E+04  0.17301260321E+04  0.50400001928E-02 0.  1.
       -1   -1    0    0    0  501  0.00000000000E+00  0.00000000000E+00 -0.12687735948E+04  0.12687735948E+04  0.50400001928E-02 0. -1.
    10030    2    1    2    0    0  0.00000000000E+00  0.00000000000E+00  0.46135243729E+03  0.29988996270E+04  0.29631997741E+04 0.  0.
        4    1    3    3  502    0 -0.10140591432E+04 -0.88024275964E+03 -0.40296051773E+03  0.14019707748E+04  0.12699999809E+01 0. -1.
       -4    1    3    3    0  502  0.10140591432E+04  0.88024275964E+03  0.86431295502E+03  0.15969288521E+04  0.12699999809E+01 0.  1.
</event>
<event>
 5   0  0.2474769E-06  0.2786747E+04  0.7818609E-02  0.8307395E-01
       -1   -1    0    0    0  501  0.00000000000E+00  0.00000000000E+00  0.12628903394E+04  0.12628903394E+04  0.50400001928E-02 0. -1.
        1   -1    0    0  501    0  0.00000000000E+00  0.00000000000E+00 -0.15373383810E+04  0.15373383810E+04  0.50400001928E-02 0.  1.
    10030    2    1    2    0    0  0.00000000000E+00  0.00000000000E+00 -0.27444804157E+03  0.28002287205E+04  0.27867470569E+04 0.  0.
        1    1    3    3  502    0 -0.10184347964E+04  0.61807363992E+02 -0.10907405296E+04  0.14935677044E+04  0.50400001928E-02 0.  1.
       -1    1    3    3    0  502  0.10184347964E+04 -0.61807363992E+02  0.81629248807E+03  0.13066610160E+04  0.50400001928E-02 0. -1.
</event>
<event>
 5   0  0.6513041E-06  0.2915989E+04  0.7818609E-02  0.8268136E-01
        2   -1    0    0  501    0  0.00000000000E+00  0.00000000000E+00  0.19722952483E+04  0.19722952483E+04  0.25500000920E-02 0.  1.
       -2   -1    0    0    0  501  0.00000000000E+00  0.00000000000E+00 -0.10778040896E+04  0.10778040896E+04  0.25500000920E-02 0. -1.
    10030    2    1    2    0    0  0.00000000000E+00  0.00000000000E+00  0.89449115876E+03  0.30500993379E+04  0.29159889468E+04 0.  0.
        1    1    3    3  502    0  0.95445423180E+03  0.51236993153E+03  0.14679542170E+04  0.18243890514E+04  0.50400001928E-02 0.  1.
       -1    1    3    3    0  502 -0.95445423180E+03 -0.51236993153E+03 -0.57346305828E+03  0.12257102866E+04  0.50400001928E-02 0. -1.
</event>
<event>
 5   0  0.2508094E-06  0.2895345E+04  0.7818609E-02  0.8274264E-01
        1   -1    0    0  501    0  0.00000000000E+00  0.00000000000E+00  0.17513575814E+04  0.17513575814E+04  0.50400001928E-02 0.  1.
       -1   -1    0    0    0  501  0.00000000000E+00  0.00000000000E+00 -0.11966459451E+04  0.11966459451E+04  0.50400001928E-02 0. -1.
    10030    2    1    2    0    0  0.00000000000E+00  0.00000000000E+00  0.55471163626E+03  0.29480035265E+04  0.28953445033E+04 0.  0.
        3    1    3    3  502    0 -0.87614572498E+02  0.61420737681E+03 -0.10544193653E+04  0.12234080362E+04  0.10100000352E+00 0. -1.
       -3    1    3    3    0  502  0.87614572498E+02 -0.61420737681E+03  0.16091310015E+04  0.17245954903E+04  0.10100000352E+00 0.  1.
</event>
<event>
 5   0  0.6615403E-06  0.2904126E+04  0.7818609E-02  0.8271651E-01
        2   -1    0    0  501    0  0.00000000000E+00  0.00000000000E+00  0.21331941401E+04  0.21331941401E+04  0.25500000920E-02 0. -1.
       -2   -1    0    0    0  501  0.00000000000E+00  0.00000000000E+00 -0.98841774551E+03  0.98841774551E+03  0.25500000920E-02 0.  1.
    10030    2    1    2    0    0  0.00000000000E+00  0.00000000000E+00  0.11447763946E+04  0.31216118857E+04  0.29041259909E+04 0.  0.
        2    1    3    3  502    0  0.10289019499E+04  0.77777212611E+03 -0.14458605103E+03  0.12978728092E+04  0.25500000920E-02 0.  1.
       -2    1    3    3    0  502 -0.10289019499E+04 -0.77777212611E+03  0.12893624457E+04  0.18237390765E+04  0.25500000920E-02 0. -1.
</event>
<event>
 5   0  0.6612533E-06  0.2894594E+04  0.7818609E-02  0.8274488E-01
       -2   -1    0    0    0  501  0.00000000000E+00  0.00000000000E+00  0.84724108151E+03  0.84724108151E+03  0.25500000920E-02 0. -1.
        2   -1    0    0  501    0  0.00000000000E+00  0.00000000000E+00 -0.24723405954E+04  0.24723405954E+04  0.25500000920E-02 0.  1.
    10030    2    1    2    0    0  0.00000000000E+00  0.00000000000E+00 -0.16250995139E+04  0.33195816769E+04  0.28945939404E+04 0.  0.
        3    1    3    3  502    0 -0.10578747260E+04 -0.94268397178E+03 -0.11506510507E+04  0.18253081540E+04  0.10100000352E+00 0. -1.
       -3    1    3    3    0  502  0.10578747260E+04  0.94268397178E+03 -0.47444846321E+03  0.14942735228E+04  0.10100000352E+00 0.  1.
</event>
<event>
 5   0  0.2348684E-06  0.2904231E+04  0.7818609E-02  0.8271620E-01
       -1   -1    0    0    0  501  0.00000000000E+00  0.00000000000E+00  0.12505005316E+04  0.12505005316E+04  0.50400001928E-02 0. -1.
        1   -1    0    0  501    0  0.00000000000E+00  0.00000000000E+00 -0.16862361728E+04  0.16862361728E+04  0.50400001928E-02 0.  1.
    10030    2    1    2    0    0  0.00000000000E+00  0.00000000000E+00 -0.43573564118E+03  0.29367367044E+04  0.29042308658E+04 0.  0.
        5    1    3    3  502    0  0.10278178033E+04  0.23490180606E+03 -0.12275570790E+04  0.16181800788E+04  0.46999998093E+01 0.  1.
       -5    1    3    3    0  502 -0.10278178033E+04 -0.23490180606E+03  0.79182143785E+03  0.13185566255E+04  0.46999998093E+01 0. -1.
</event>
<event>
 5   0  0.6393633E-06  0.2869032E+04  0.7818609E-02  0.8282151E-01
        2   -1    0    0  501    0  0.00000000000E+00  0.00000000000E+00  0.15573667653E+04  0.15573667653E+04  0.25500000920E-02 0.  1.
       -2   -1    0    0    0  501  0.00000000000E+00  0.00000000000E+00 -0.13213565117E+04  0.13213565117E+04  0.25500000920E-02 0. -1.
    10030    2    1    2    0    0  0.00000000000E+00  0.00000000000E+00  0.23601025358E+03  0.28787232769E+04  0.28690323918E+04 0.  0.
        4    1    3    3  502    0  0.24983286071E+03 -0.13870146889E+04 -0.15049714416E+03  0.14173486546E+04  0.12699999809E+01 0.  1.
       -4    1    3    3    0  502 -0.24983286071E+03  0.13870146889E+04  0.38650739775E+03  0.14613746223E+04  0.12699999809E+01 0. -1.
</event>
<event>
 5   0  0.6393633E-06  0.2969123E+04  0.7818609E-02  0.8252603E-01
       -2   -1    0    0    0  501  0.00000000000E+00  0.00000000000E+00  0.94992282824E+03  0.94992282825E+03  0.25500000920E-02 0. -1.
        2   -1    0    0  501    0  0.00000000000E+00  0.00000000000E+00 -0.23201078672E+04  0.23201078672E+04  0.25500000920E-02 0.  1.
    10030    2    1    2    0    0  0.00000000000E+00  0.00000000000E+00 -0.13701850390E+04  0.32700306955E+04  0.29691233905E+04 0.  0.
        4    1    3    3  502    0  0.30093059605E+03 -0.17004536584E+03 -0.22751727156E+04  0.23012794591E+04  0.12699999809E+01 0.  1.
       -4    1    3    3    0  502 -0.30093059605E+03  0.17004536584E+03  0.90498767667E+03  0.96875123634E+03  0.12699999809E+01 0. -1.
</event>
<event>
 5   0  0.6615403E-06  0.2848707E+04  0.7818609E-02  0.8288304E-01
        2   -1    0    0  501    0  0.00000000000E+00  0.00000000000E+00  0.15871567427E+04  0.15871567427E+04  0.25500000920E-02 0.  1.
       -2   -1    0    0    0  501  0.00000000000E+00  0.00000000000E+00 -0.12782500670E+04  0.12782500670E+04  0.25500000920E-02 0. -1.
    10030    2    1    2    0    0  0.00000000000E+00  0.00000000000E+00  0.30890667570E+03  0.28654068097E+04  0.28487072245E+04 0.  0.
        2    1    3    3  502    0  0.93209358111E+03  0.79343353368E+03 -0.57813479345E+03  0.13537263592E+04  0.25500000920E-02 0. -1.
       -2    1    3    3    0  502 -0.93209358111E+03 -0.79343353368E+03  0.88704146915E+03  0.15116804505E+04  0.25500000920E-02 0.  1.
</event>
<event>
 5   0  0.2348684E-06  0.2862797E+04  0.7818609E-02  0.8284033E-01
        1   -1    0    0  501    0  0.00000000000E+00  0.00000000000E+00  0.21005740874E+04  0.21005740874E+04  0.50400001928E-02 0.  1.
       -1   -1    0    0    0  501  0.00000000000E+00  0.00000000000E+00 -0.97540107608E+03  0.97540107610E+03  0.50400001928E-02 0. -1.
    10030    2    1    2    0    0  0.00000000000E+00  0.00000000000E+00  0.11251730113E+04  0.30759751635E+04  0.28627973908E+04 0.  0.
        5    1    3    3  502    0  0.57728014166E+03  0.11023110853E+04  0.13227565614E+04  0.18160531659E+04  0.46999998093E+01 0.  1.
       -5    1    3    3    0  502 -0.57728014166E+03 -0.11023110853E+04 -0.19758355007E+03  0.12599219976E+04  0.46999998093E+01 0. -1.
</event>
<event>
 5   0  0.6612533E-06  0.2844123E+04  0.7818609E-02  0.8289700E-01
        2   -1    0    0  501    0  0.00000000000E+00  0.00000000000E+00  0.16184650231E+04  0.16184650231E+04  0.25500000920E-02 0. -1.
       -2   -1    0    0    0  501  0.00000000000E+00  0.00000000000E+00 -0.12494914457E+04  0.12494914457E+04  0.25500000920E-02 0.  1.
    10030    2    1    2    0    0  0.00000000000E+00  0.00000000000E+00  0.36897357741E+03  0.28679564689E+04  0.28441225020E+04 0.  0.
        3    1    3    3  502    0 -0.48100521697E+03  0.73262205571E+02  0.15319198610E+04  0.16073306568E+04  0.10100000352E+00 0. -1.
       -3    1    3    3    0  502  0.48100521697E+03 -0.73262205571E+02 -0.11629462836E+04  0.12606258121E+04  0.10100000352E+00 0.  1.
</event>
<event>
 5   0  0.2159500E-06  0.2846432E+04  0.7818609E-02  0.8288996E-01
        3   -1    0    0  501    0  0.00000000000E+00  0.00000000000E+00  0.23440985060E+04  0.23440985081E+04  0.10100000352E+00 0. -1.
       -3   -1    0    0    0  501  0.00000000000E+00  0.00000000000E+00 -0.86410342442E+03  0.86410343033E+03  0.10100000352E+00 0.  1.
    10030    2    1    2    0    0  0.00000000000E+00  0.00000000000E+00  0.14799950815E+04  0.32082019385E+04  0.28464318430E+04 0.  0.
        1    1    3    3  502    0 -0.72473558077E+03 -0.18766813430E+02  0.21203794405E+04  0.22408933101E+04  0.50400001928E-02 0. -1.
       -1    1    3    3    0  502  0.72473558077E+03  0.18766813430E+02 -0.64038435898E+03  0.96730862840E+03  0.50400001928E-02 0.  1.
</event>
<event>
 5   0  0.2508094E-06  0.2989132E+04  0.7818609E-02  0.8246841E-01
        1   -1    0    0  501    0  0.00000000000E+00  0.00000000000E+00  0.19674415509E+04  0.19674415509E+04  0.50400001928E-02 0. -1.
       -1   -1    0    0    0  501  0.00000000000E+00  0.00000000000E+00 -0.11353463580E+04  0.11353463580E+04  0.50400001928E-02 0.  1.
    10030    2    1    2    0    0  0.00000000000E+00  0.00000000000E+00  0.83209519286E+03  0.31027879089E+04  0.29891320476E+04 0.  0.
        3    1    3    3  502    0 -0.81879939617E+03  0.80494093037E+02 -0.87911892633E+03  0.12040605662E+04  0.10100000352E+00 0.  1.
       -3    1    3    3    0  502  0.81879939617E+03 -0.80494093037E+02  0.17112141192E+04  0.18987273428E+04  0.10100000352E+00 0. -1.
</event>
<event>
 5   0  0.2159500E-06  0.2857874E+04  0.7818609E-02  0.8285523E-01
        3   -1    0    0  501    0  0.00000000000E+00  0.00000000000E+00  0.13788017422E+04  0.13788017459E+04  0.10100000352E+00 0.  1.
       -3   -1    0    0    0  501  0.00000000000E+00  0.00000000000E+00 -0.14808948434E+04  0.14808948469E+04  0.10100000352E+00 0. -1.
    10030    2    1    2    0    0  0.00000000000E+00  0.00000000000E+00 -0.10209310125E+03  0.28596965928E+04  0.28578736154E+04 0.  0.
        5    1    3    3  502    0 -0.34335104217E+03 -0.13143763396E+04 -0.49445809961E+03  0.14456783884E+04  0.46999998093E+01 0. -1.
       -5    1    3    3    0  502  0.34335104217E+03  0.13143763396E+04  0.39236499836E+03  0.14140182044E+04  0.46999998093E+01 0.  1.
</event>
<event>
 5   0  0.6393633E-06  0.2852493E+04  0.7818609E-02  0.8287154E-01
       -2   -1    0    0    0  501  0.00000000000E+00  0.00000000000E+00  0.15024435141E+04  0.15024435141E+04  0.25500000920E-02 0. -1.
        2   -1    0    0  501    0  0.00000000000E+00  0.00000000000E+00 -0.13539138807E+04  0.13539138807E+04  0.25500000920E-02 0.  1.
    10030    2    1    2    0    0  0.00000000000E+00  0.00000000000E+00  0.14852963345E+03  0.28563573948E+04  0.28524930350E+04 0.  0.
        4    1    3    3  502    0 -0.12591723107E+04 -0.87999965582E+02 -0.59065177567E+03  0.13936032560E+04  0.12699999809E+01 0.  1.
       -4    1    3    3    0  502  0.12591723107E+04  0.87999965582E+02  0.73918140912E+03  0.14627541388E+04  0.12699999809E+01 0. -1.
</event>
<event>
 5   0  0.2336512E-06  0.2933381E+04  0.7818609E-02  0.8263014E-01
        1   -1    0    0  501    0  0.00000000000E+00  0.00000000000E+00  0.15693904997E+04  0.15693904997E+04  0.50400001928E-02 0. -1.
       -1   -1    0    0    0  501  0.00000000000E+00  0.00000000000E+00 -0.13707112427E+04  0.13707112427E+04  0.50400001928E-02 0.  1.
    10030    2    1    2    0    0  0.00000000000E+00  0.00000000000E+00  0.19867925699E+03  0.29401017424E+04  0.29333811223E+04 0.  0.
        4    1    3    3  502    0 -0.14095631743E+03 -0.91083846618E+03  0.12428673109E+04  0.15473254862E+04  0.12699999809E+01 0. -1.
       -4    1    3    3    0  502  0.14095631743E+03  0.91083846618E+03 -0.10441880539E+04  0.13927762562E+04  0.12699999809E+01 0.  1.
</event>
<event>
 5   0  0.2508094E-06  0.2915870E+04  0.7818609E-02  0.8268171E-01
       -1   -1    0    0    0  501  0.00000000000E+00  0.00000000000E+00  0.98320492070E+03  0.98320492071E+03  0.50400001928E-02 0. -1.
        1   -1    0    0  501    0  0.00000000000E+00  0.00000000000E+00 -0.21618831200E+04  0.21618831200E+04  0.50400001928E-02 0.  1.
    10030    2    1    2    0    0  0.00000000000E+00  0.00000000000E+00 -0.11786781993E+04  0.31450880407E+04  0.29158697650E+04 0.  0.
        3    1    3    3  502    0 -0.11873998218E+04  0.36145025392E+03 -0.14143242657E+04  0.18817220203E+04  0.10100000352E+00 0.  1.
       -3    1    3    3    0  502  0.11873998218E+04 -0.36145025392E+03  0.23564606634E+03  0.12633660205E+04  0.10100000352E+00 0. -1.
</event>
<event>
 5   0  0.6615403E-06  0.2954858E+04  0.7818609E-02  0.8256740E-01
        2   -1    0    0  501    0  0.00000000000E+00  0.00000000000E+00  0.20582823292E+04  0.20582823292E+04  0.25500000920E-02 0.  1.
       -2   -1    0    0    0  501  0.00000000000E+00  0.00000000000E+00 -0.10604943022E+04  0.10604943022E+04  0.25500000920E-02 0. -1.
    10030    2    1    2    0    0  0.00000000000E+00  0.00000000000E+00  0.99778802694E+03  0.31187766314E+04  0.29548581573E+04 0.  0.
        2    1    3    3  502    0  0.11524329679E+03 -0.10611177597E+04 -0.57931553895E+03  0.12144374875E+04  0.25500000920E-02 0. -1.
       -2    1    3    3    0  502 -0.11524329679E+03  0.10611177597E+04  0.15771035659E+04  0.19043391439E+04  0.25500000920E-02 0.  1.
</event>
<event>
 5   0  0.2508094E-06  0.2820250E+04  0.7818609E-02  0.8297009E-01
        1   -1    0    0  501    0  0.00000000000E+00  0.00000000000E+00  0.10587889700E+04  0.10587889700E+04  0.50400001928E-02 0.  1.
       -1   -1    0    0    0  501  0.00000000000E+00  0.00000000000E+00 -0.18780445277E+04  0.18780445277E+04  0.50400001928E-02 0. -1.
    10030    2    1    2    0    0  0.00000000000E+00  0.00000000000E+00 -0.81925555776E+03  0.29368334977E+04  0.28202502237E+04 0.  0.
        3    1    3    3  502    0 -0.47751951874E+03 -0.13123874382E+04 -0.20645439257E+03  0.14117397442E+04  0.10100000352E+00 0. -1.
       -3    1    3    3    0  502  0.47751951874E+03  0.13123874382E+04 -0.61280116519E+03  0.15250937535E+04  0.10100000352E+00 0.  1.
</event>
<event>
 5   0  0.6393633E-06  0.2904182E+04  0.7818609E-02  0.8271634E-01
       -2   -1    0    0    0  501  0.00000000000E+00  0.00000000000E+00  0.62507967922E+03  0.62507967922E+03  0.25500000920E-02 0.  1.
        2   -1    0    0  501    0  0.00000000000E+00  0.00000000000E+00 -0.33732787835E+04  0.33732787835E+04  0.25500000920E-02 0. -1.
    10030    2    1    2    0    0  0.00000000000E+00  0.00000000000E+00 -0.27481991043E+04  0.39983584627E+04  0.29041818262E+04 0.  0.
        4    1    3    3  502    0  0.37096743745E+02 -0.11213009667E+04 -0.26433148342E+04  0.28715513145E+04  0.12699999809E+01 0. -1.
       -4    1    3    3    0  502 -0.37096743745E+02  0.11213009667E+04 -0.10488427007E+03  0.11268071482E+04  0.12699999809E+01 0.  1.
</event>
<event>
 5   0  0.6513041E-06  0.2920641E+04  0.7818609E-02  0.8266762E-01
       -2   -1    0    0    0  501  0.00000000000E+00  0.00000000000E+00  0.96216450199E+03  0.96216450199E+03  0.25500000920E-02 0.  1.
        2   -1    0    0  501    0  0.00000000000E+00  0.00000000000E+00 -0.22163948342E+04  0.22163948342E+04  0.25500000920E-02 0. -1.
    10030    2    1    2    0    0  0.00000000000E+00  0.00000000000E+00 -0.12542303322E+04  0.31785593362E+04  0.29206413213E+04 0.  0.
        1    1    3    3  502    0 -0.96414902791E+03  0.40501429686E+03 -0.17363983269E+04  0.20269926192E+04  0.50400001928E-02 0. -1.
       -1    1    3    3    0  502  0.96414902791E+03 -0.40501429686E+03  0.48216799463E+03  0.11515667170E+04  0.50400001928E-02 0.  1.
</event>
<event>
 5   0  0.6513041E-06  0.2894166E+04  0.7818609E-02  0.8274615E-01
        2   -1    0    0  501    0  0.00000000000E+00  0.00000000000E+00  0.28837411625E+04  0.28837411625E+04  0.25500000920E-02 0. -1.
       -2   -1    0    0    0  501  0.00000000000E+00  0.00000000000E+00 -0.72615708753E+03  0.72615708753E+03  0.25500000920E-02 0.  1.
    10030    2    1    2    0    0  0.00000000000E+00  0.00000000000E+00  0.21575840750E+04  0.36098982501E+04  0.28941659135E+04 0.  0.
        1    1    3    3  502    0  0.67770606703E+03  0.39175308553E+03 -0.43927879203E+03  0.89762010365E+03  0.50400001928E-02 0.  1.
       -1    1    3    3    0  502 -0.67770606703E+03 -0.39175308553E+03  0.25968628670E+04  0.27122781464E+04  0.50400001928E-02 0. -1.
</event>
<event>
 5   0  0.6612533E-06  0.2897965E+04  0.7818609E-02  0.8273483E-01
       -2   -1    0    0    0  501  0.00000000000E+00  0.00000000000E+00  0.10409789518E+04  0.10409789518E+04  0.25500000920E-02 0. -1.
        2   -1    0    0  501    0  0.00000000000E+00  0.00000000000E+00 -0.20169005389E+04  0.20169005389E+04  0.25500000920E-02 0.  1.
    10030    2    1    2    0    0  0.00000000000E+00  0.00000000000E+00 -0.97592158718E+03  0.30578794907E+04  0.28979654993E+04 0.  0.
        3    1    3    3  502    0 -0.19754586348E+03  0.56898950993E+03 -0.18785512864E+04  0.19727464045E+04  0.10100000352E+00 0.  1.
       -3    1    3    3    0  502  0.19754586348E+03 -0.56898950993E+03  0.90262969924E+03  0.10851330862E+04  0.10100000352E+00 0. -1.
</event>
<event>
 5   0  0.6733688E-06  0.2890179E+04  0.7818609E-02  0.8275806E-01
       -2   -1    0    0    0  501  0.00000000000E+00  0.00000000000E+00  0.11644532910E+04  0.11644532910E+04  0.25500000920E-02 0.  1.
        2   -1    0    0  501    0  0.00000000000E+00  0.00000000000E+00 -0.17933595842E+04  0.17933595842E+04  0.25500000920E-02 0. -1.
    10030    2    1    2    0    0  0.00000000000E+00  0.00000000000E+00 -0.62890629325E+03  0.29578128752E+04  0.28901788662E+04 0.  0.
        5    1    3    3  502    0  0.98005177042E+02 -0.31422098529E+03 -0.17544779215E+04  0.17850923532E+04  0.46999998093E+01 0. -1.
       -5    1    3    3    0  502 -0.98005177042E+02  0.31422098529E+03  0.11255716283E+04  0.11727205220E+04  0.46999998093E+01 0.  1.
</event>
<event>
 5   0  0.2508094E-06  0.2687412E+04  0.7818609E-02  0.8339101E-01
        1   -1    0    0  501    0  0.00000000000E+00  0.00000000000E+00  0.15853478777E+04  0.15853478777E+04  0.50400001928E-02 0. -1.
       -1   -1    0    0    0  501  0.00000000000E+00  0.00000000000E+00 -0.11388954726E+04  0.11388954726E+04  0.50400001928E-02 0.  1.
    10030    2    1    2    0    0  0.00000000000E+00  0.00000000000E+00  0.44645240511E+03  0.27242433503E+04  0.26874117812E+04 0.  0.
        3    1    3    3  502    0  0.13324692244E+04 -0.50088366376E+02  0.54931498647E+02  0.13345413287E+04  0.10100000352E+00 0. -1.
       -3    1    3    3    0  502 -0.13324692244E+04  0.50088366376E+02  0.39152090646E+03  0.13897020216E+04  0.10100000352E+00 0.  1.
</event>
<event>
 5   0  0.2336512E-06  0.2893976E+04  0.7818609E-02  0.8274672E-01
        1   -1    0    0  501    0  0.00000000000E+00  0.00000000000E+00  0.11297522231E+04  0.11297522231E+04  0.50400001928E-02 0.  1.
       -1   -1    0    0    0  501  0.00000000000E+00  0.00000000000E+00 -0.18533037322E+04  0.18533037322E+04  0.50400001928E-02 0. -1.
    10030    2    1    2    0    0  0.00000000000E+00  0.00000000000E+00 -0.72355150912E+03  0.29830559552E+04  0.28939758198E+04 0.  0.
        4    1    3    3  502    0  0.91531543035E+03 -0.23395929761E+03 -0.14915200279E+04  0.17655517258E+04  0.12699999809E+01 0. -1.
       -4    1    3    3    0  502 -0.91531543035E+03  0.23395929761E+03  0.76796851878E+03  0.12175042294E+04  0.12699999809E+01 0.  1.
</event>
<event>
 5   0  0.6393633E-06  0.2903894E+04  0.7818609E-02  0.8271720E-01
       -2   -1    0    0    0  501  0.00000000000E+00  0.00000000000E+00  0.20382816376E+04  0.20382816376E+04  0.25500000920E-02 0. -1.
        2   -1    0    0  501    0  0.00000000000E+00  0.00000000000E+00 -0.10342781946E+04  0.10342781946E+04  0.25500000920E-02 0.  1.
    10030    2    1    2    0    0  0.00000000000E+00  0.00000000000E+00  0.10040034430E+04  0.30725598322E+04  0.29038941112E+04 0.  0.
        4    1    3    3  502    0  0.33874206754E+03  0.48029053290E+03  0.19067925538E+04  0.19953156743E+04  0.12699999809E+01 0. -1.
       -4    1    3    3    0  502 -0.33874206754E+03 -0.48029053290E+03 -0.90278911077E+03  0.10772441579E+04  0.12699999809E+01 0.  1.
</event>
<event>
 5   0  0.2508094E-06  0.2889336E+04  0.7818609E-02  0.8276057E-01
        1   -1    0    0  501    0  0.00000000000E+00  0.00000000000E+00  0.23503639061E+04  0.23503639061E+04  0.50400001928E-02 0.  1.
       -1   -1    0    0    0  501  0.00000000000E+00  0.00000000000E+00 -0.88797581963E+03  0.88797581964E+03  0.50400001928E-02 0. -1.
    10030    2    1    2    0    0  0.00000000000E+00  0.00000000000E+00  0.14623880864E+04  0.32383397257E+04  0.28893364747E+04 0.  0.
        3    1    3    3  502    0 -0.35677324475E+02  0.66087381859E+03  0.21704557848E+04  0.22691199615E+04  0.10100000352E+00 0.  1.
       -3    1    3    3    0  502  0.35677324475E+02 -0.66087381859E+03 -0.70806769841E+03  0.96921976420E+03  0.10100000352E+00 0. -1.
</event>
<event>
 5   0  0.2429358E-06  0.2847125E+04  0.7818609E-02  0.8288785E-01
        1   -1    0    0  501    0  0.00000000000E+00  0.00000000000E+00  0.21815437441E+04  0.21815437441E+04  0.50400001928E-02 0. -1.
       -1   -1    0    0    0  501  0.00000000000E+00  0.00000000000E+00 -0.92894334842E+03  0.92894334843E+03  0.50400001928E-02 0.  1.
    10030    2    1    2    0    0  0.00000000000E+00  0.00000000000E+00  0.12526003957E+04  0.31104870926E+04  0.28471252522E+04 0.  0.
        2    1    3    3  502    0 -0.69729328682E+03 -0.12099978546E+04  0.92791321153E+03  0.16767038093E+04  0.25500000920E-02 0.  1.
       -2    1    3    3    0  502  0.69729328682E+03  0.12099978546E+04  0.32468718418E+03  0.14337832833E+04  0.25500000920E-02 0. -1.
</event>
<event>
 5   0  0.2348684E-06  0.2765115E+04  0.7818609E-02  0.8314181E-01
        1   -1    0    0  501    0  0.00000000000E+00  0.00000000000E+00  0.11967600711E+04  0.11967600712E+04  0.50400001928E-02 0. -1.
       -1   -1    0    0    0  501  0.00000000000E+00  0.00000000000E+00 -0.15971998541E+04  0.15971998541E+04  0.50400001928E-02 0.  1.
    10030    2    1    2    0    0  0.00000000000E+00  0.00000000000E+00 -0.40043978291E+03  0.27939599252E+04  0.27651148338E+04 0.  0.
        5    1    3    3  502    0 -0.83292210718E+03 -0.84148057544E+02 -0.13119716768E+04  0.15563199873E+04  0.46999998093E+01 0.  1.
       -5    1    3    3    0  502  0.83292210718E+03  0.84148057544E+02  0.91153189391E+03  0.12376399379E+04  0.46999998093E+01 0. -1.
</event>
<event>
 5   0  0.2508094E-06  0.3205362E+04  0.7818609E-02  0.8187403E-01
        1   -1    0    0  501    0  0.00000000000E+00  0.00000000000E+00  0.22328442702E+04  0.22328442702E+04  0.50400001928E-02 0. -1.
       -1   -1    0    0    0  501  0.00000000000E+00  0.00000000000E+00 -0.11503651241E+04  0.11503651241E+04  0.50400001928E-02 0.  1.
    10030    2    1    2    0    0  0.00000000000E+00  0.00000000000E+00  0.10824791461E+04  0.33832093943E+04  0.32053618679E+04 0.  0.
        3    1    3    3  502    0 -0.35260102090E+03 -0.92844209256E+03 -0.78642971298E+03  0.12668085502E+04  0.10100000352E+00 0.  1.
       -3    1    3    3    0  502  0.35260102090E+03  0.92844209256E+03  0.18689088591E+04  0.21164008441E+04  0.10100000352E+00 0. -1.
</event>
<event>
 5   0  0.2348684E-06  0.2908614E+04  0.7818609E-02  0.8270319E-01
        1   -1    0    0  501    0  0.00000000000E+00  0.00000000000E+00  0.16299528258E+04  0.16299528258E+04  0.50400001928E-02 0. -1.
       -1   -1    0    0    0  501  0.00000000000E+00  0.00000000000E+00 -0.12975885869E+04  0.12975885869E+04  0.50400001928E-02 0.  1.
    10030    2    1    2    0    0  0.00000000000E+00  0.00000000000E+00  0.33236423888E+03  0.29275414127E+04  0.29086135418E+04 0.  0.
        5    1    3    3  502    0 -0.79525878280E+03 -0.24529293533E+03  0.13665793569E+04  0.16000519943E+04  0.46999998093E+01 0. -1.
       -5    1    3    3    0  502  0.79525878280E+03  0.24529293533E+03 -0.10342151180E+04  0.13274894184E+04  0.46999998093E+01 0.  1.
</event>
<event>
 5   0  0.2429358E-06  0.2855027E+04  0.7818609E-02  0.8286385E-01
       -1   -1    0    0    0  501  0.00000000000E+00  0.00000000000E+00  0.74734951858E+03  0.74734951860E+03  0.50400001928E-02 0. -1.
        1   -1    0    0  501    0  0.00000000000E+00  0.00000000000E+00 -0.27266957968E+04  0.27266957968E+04  0.50400001928E-02 0.  1.
    10030    2    1    2    0    0  0.00000000000E+00  0.00000000000E+00 -0.19793462782E+04  0.34740453154E+04  0.28550269989E+04 0.  0.
        2    1    3    3  502    0  0.39567114905E+03  0.13712068411E+04 -0.10287428546E+04  0.17592827288E+04  0.25500000920E-02 0. -1.
       -2    1    3    3    0  502 -0.39567114905E+03 -0.13712068411E+04 -0.95060342365E+03  0.17147625866E+04  0.25500000920E-02 0.  1.
</event>
<event>
 5   0  0.2429358E-06  0.2844887E+04  0.7818609E-02  0.8289467E-01
       -1   -1    0    0    0  501  0.00000000000E+00  0.00000000000E+00  0.11522592761E+04  0.11522592761E+04  0.50400001928E-02 0. -1.
        1   -1    0    0  501    0  0.00000000000E+00  0.00000000000E+00 -0.17559813207E+04  0.17559813207E+04  0.50400001928E-02 0.  1.
    10030    2    1    2    0    0  0.00000000000E+00  0.00000000000E+00 -0.60372204460E+03  0.29082405969E+04  0.28448871792E+04 0.  0.
        2    1    3    3  502    0  0.22292059994E+03  0.60174742390E+03  0.99587833057E+03  0.11847224170E+04  0.25500000920E-02 0. -1.
       -2    1    3    3    0  502 -0.22292059994E+03 -0.60174742390E+03 -0.15996003752E+04  0.17235181799E+04  0.25500000920E-02 0.  1.
</event>
<event>
 5   0  0.6733688E-06  0.2922157E+04  0.7818609E-02  0.8266316E-01
        2   -1    0    0  501    0  0.00000000000E+00  0.00000000000E+00  0.20473356024E+04  0.20473356024E+04  0.25500000920E-02 0.  1.
       -2   -1    0    0    0  501  0.00000000000E+00  0.00000000000E+00 -0.10426965038E+04  0.10426965038E+04  0.25500000920E-02 0. -1.
    10030    2    1    2    0    0  0.00000000000E+00  0.00000000000E+00  0.10046390985E+04  0.30900321062E+04  0.29221565151E+04 0.  0.
        5    1    3    3  502    0 -0.87241096358E+03  0.11609037970E+04  0.67259537065E+03  0.16003765613E+04  0.46999998093E+01 0.  1.
       -5    1    3    3    0  502  0.87241096358E+03 -0.11609037970E+04  0.33204372787E+03  0.14896555449E+04  0.46999998093E+01 0. -1.
</event>
<event>
 5   0  0.2508094E-06  0.2973187E+04  0.7818609E-02  0.8251429E-01
        1   -1    0    0  501    0  0.00000000000E+00  0.00000000000E+00  0.18888097052E+04  0.18888097053E+04  0.50400001928E-02 0. -1.
       -1   -1    0    0    0  501  0.00000000000E+00  0.00000000000E+00 -0.11700280912E+04  0.11700280912E+04  0.50400001928E-02 0.  1.
    10030    2    1    2    0    0  0.00000000000E+00  0.00000000000E+00  0.71878161405E+03  0.30588377965E+04  0.29731871210E+04 0.  0.
        3    1    3    3  502    0  0.88145471432E+03  0.85843100006E+03  0.12177483250E+04  0.17311202120E+04  0.10100000352E+00 0. -1.
       -3    1    3    3    0  502 -0.88145471432E+03 -0.85843100006E+03 -0.49896671093E+03  0.13277175845E+04  0.10100000352E+00 0.  1.
</event>
<event>
 5   0  0.6733688E-06  0.2925089E+04  0.7818609E-02  0.8265452E-01
        2   -1    0    0  501    0  0.00000000000E+00  0.00000000000E+00  0.25874421030E+04  0.25874421030E+04  0.25500000920E-02 0.  1.
       -2   -1    0    0    0  501  0.00000000000E+00  0.00000000000E+00 -0.82669940935E+03  0.82669940936E+03  0.25500000920E-02 0. -1.
    10030    2    1    2    0    0  0.00000000000E+00  0.00000000000E+00  0.17607426937E+04  0.34141415124E+04  0.29250893035E+04 0.  0.
        5    1    3    3  502    0 -0.51240947433E+03  0.78252387873E+03  0.21926752577E+04  0.23838527567E+04  0.46999998093E+01 0.  1.
       -5    1    3    3    0  502  0.51240947433E+03 -0.78252387873E+03 -0.43193256400E+03  0.10302887556E+04  0.46999998093E+01 0. -1.
</event>
<event>
 5   0  0.2508094E-06  0.2896105E+04  0.7818609E-02  0.8274037E-01
       -1   -1    0    0    0  501  0.00000000000E+00  0.00000000000E+00  0.10788374566E+04  0.10788374567E+04  0.50400001928E-02 0.  1.
        1   -1    0    0  501    0  0.00000000000E+00  0.00000000000E+00 -0.19436254982E+04  0.19436254982E+04  0.50400001928E-02 0. -1.
    10030    2    1    2    0    0  0.00000000000E+00  0.00000000000E+00 -0.86478804157E+03  0.30224629549E+04  0.28961049630E+04 0.  0.
        3    1    3    3  502    0  0.93002820214E+03 -0.29637035832E+03 -0.15486727085E+04  0.18306214831E+04  0.10100000352E+00 0. -1.
       -3    1    3    3    0  502 -0.93002820214E+03  0.29637035832E+03  0.68388466692E+03  0.11918414718E+04  0.10100000352E+00 0.  1.
</event>
<event>
 5   0  0.6393633E-06  0.2330684E+04  0.7818609E-02  0.8465920E-01
       -2   -1    0    0    0  501  0.00000000000E+00  0.00000000000E+00  0.70428606227E+03  0.70428606227E+03  0.25500000920E-02 0. -1.
        2   -1    0    0  501    0  0.00000000000E+00  0.00000000000E+00 -0.19282256474E+04  0.19282256474E+04  0.25500000920E-02 0.  1.
    10030    2    1    2    0    0  0.00000000000E+00  0.00000000000E+00 -0.12239395851E+04  0.26325117097E+04  0.23306844045E+04 0.  0.
        4    1    3    3  502    0  0.66080797710E+03  0.43363859961E+03  0.35526298580E+03  0.86655814557E+03  0.12699999809E+01 0. -1.
       -4    1    3    3    0  502 -0.66080797710E+03 -0.43363859961E+03 -0.15792025709E+04  0.17659535641E+04  0.12699999809E+01 0.  1.
</event>
<event>
 5   0  0.2336512E-06  0.2734784E+04  0.7818609E-02  0.8323806E-01
       -1   -1    0    0    0  501  0.00000000000E+00  0.00000000000E+00  0.87113720011E+03  0.87113720012E+03  0.50400001928E-02 0.  1.
        1   -1    0    0  501    0  0.00000000000E+00  0.00000000000E+00 -0.21463447198E+04  0.21463447198E+04  0.50400001928E-02 0. -1.
    10030    2    1    2    0    0  0.00000000000E+00  0.00000000000E+00 -0.12752075197E+04  0.30174819199E+04  0.27347838889E+04 0.  0.
        4    1    3    3  502    0  0.33937025470E+02  0.77627697048E+03 -0.18790810144E+04  0.20333973366E+04  0.12699999809E+01 0. -1.
       -4    1    3    3    0  502 -0.33937025470E+02 -0.77627697048E+03  0.60387349477E+03  0.98408458335E+03  0.12699999809E+01 0.  1.
</event>
<event>
 5   0  0.6393633E-06  0.2894943E+04  0.7818609E-02  0.8274384E-01
       -2   -1    0    0    0  501  0.00000000000E+00  0.00000000000E+00  0.10548321873E+04  0.10548321873E+04  0.25500000920E-02 0.  1.
        2   -1    0    0  501    0  0.00000000000E+00  0.00000000000E+00 -0.19862623734E+04  0.19862623734E+04  0.25500000920E-02 0. -1.
    10030    2    1    2    0    0  0.00000000000E+00  0.00000000000E+00 -0.93143018607E+03  0.30410945606E+04  0.28949428207E+04 0.  0.
        4    1    3    3  502    0 -0.51396327007E+03 -0.22800506927E+03  0.93542397438E+03  0.10914046817E+04  0.12699999809E+01 0.  1.
       -4    1    3    3    0  502  0.51396327007E+03  0.22800506927E+03 -0.18668541604E+04  0.19496898789E+04  0.12699999809E+01 0. -1.
</event>
<event>
 5   0  0.6615403E-06  0.2852629E+04  0.7818609E-02  0.8287113E-01
       -2   -1    0    0    0  501  0.00000000000E+00  0.00000000000E+00  0.17756808389E+04  0.17756808389E+04  0.25500000920E-02 0. -1.
        2   -1    0    0  501    0  0.00000000000E+00  0.00000000000E+00 -0.11456863699E+04  0.11456863699E+04  0.25500000920E-02 0.  1.
    10030    2    1    2    0    0  0.00000000000E+00  0.00000000000E+00  0.62999446899E+03  0.29213672088E+04  0.28526291974E+04 0.  0.
        2    1    3    3  502    0  0.27602412684E+03  0.10597293277E+04  0.12508878438E+04  0.16625089366E+04  0.25500000920E-02 0.  1.
       -2    1    3    3    0  502 -0.27602412684E+03 -0.10597293277E+04 -0.62089337478E+03  0.12588582722E+04  0.25500000920E-02 0. -1.
</event>
<event>
 5   0  0.2474769E-06  0.2869656E+04  0.7818609E-02  0.8281963E-01
       -1   -1    0    0    0  501  0.00000000000E+00  0.00000000000E+00  0.13018654604E+04  0.13018654604E+04  0.50400001928E-02 0. -1.
        1   -1    0    0  501    0  0.00000000000E+00  0.00000000000E+00 -0.15813707828E+04  0.15813707828E+04  0.50400001928E-02 0.  1.
    10030    2    1    2    0    0  0.00000000000E+00  0.00000000000E+00 -0.27950532245E+03  0.28832362432E+04  0.28696564270E+04 0.  0.
        1    1    3    3  502    0  0.85014377646E+03 -0.11669691590E+03 -0.12951376460E+04  0.15536229056E+04  0.50400001928E-02 0.  1.
       -1    1    3    3    0  502 -0.85014377646E+03  0.11669691590E+03  0.10156323235E+04  0.13296133376E+04  0.50400001928E-02 0. -1.
</event>
<event>
 5   0  0.2159500E-06  0.2904629E+04  0.7818609E-02  0.8271502E-01
        3   -1    0    0  501    0  0.00000000000E+00  0.00000000000E+00  0.10364381131E+04  0.10364381180E+04  0.10100000352E+00 0.  1.
       -3   -1    0    0    0  501  0.00000000000E+00  0.00000000000E+00 -0.20350635467E+04  0.20350635492E+04  0.10100000352E+00 0. -1.
    10030    2    1    2    0    0  0.00000000000E+00  0.00000000000E+00 -0.99862543362E+03  0.30715016673E+04  0.29046290185E+04 0.  0.
        5    1    3    3  502    0  0.91599600230E+03  0.10913671051E+04 -0.79665103064E+03  0.16324232873E+04  0.46999998093E+01 0. -1.
       -5    1    3    3    0  502 -0.91599600230E+03 -0.10913671051E+04 -0.20197440298E+03  0.14390783800E+04  0.46999998093E+01 0.  1.
</event>
<event>
 5   0  0.2474769E-06  0.2888061E+04  0.7818609E-02  0.8276438E-01
       -1   -1    0    0    0  501  0.00000000000E+00  0.00000000000E+00  0.13586649646E+04  0.13586649646E+04  0.50400001928E-02 0.  1.
        1   -1    0    0  501    0  0.00000000000E+00  0.00000000000E+00 -0.15347600230E+04  0.15347600230E+04  0.50400001928E-02 0. -1.
    10030    2    1    2    0    0  0.00000000000E+00  0.00000000000E+00 -0.17609505837E+03  0.28934249876E+04  0.28880614068E+04 0.  0.
        1    1    3    3  502    0  0.81793688135E+03 -0.97237797224E+03  0.59929147304E+03  0.14048807538E+04  0.50400001928E-02 0.  1.
       -1    1    3    3    0  502 -0.81793688135E+03  0.97237797224E+03 -0.77538653141E+03  0.14885442338E+04  0.50400001928E-02 0. -1.
</event>
<event>
 5   0  0.6733688E-06  0.2867101E+04  0.7818609E-02  0.8282734E-01
       -2   -1    0    0    0  501  0.00000000000E+00  0.00000000000E+00  0.13281821490E+04  0.13281821490E+04  0.25500000920E-02 0. -1.
        2   -1    0    0  501    0  0.00000000000E+00  0.00000000000E+00 -0.15472784352E+04  0.15472784352E+04  0.25500000920E-02 0.  1.
    10030    2    1    2    0    0  0.00000000000E+00  0.00000000000E+00 -0.21909628625E+03  0.28754605842E+04  0.28671013914E+04 0.  0.
        5    1    3    3  502    0 -0.57030341297E+03  0.69706354061E+03  0.10090071073E+04  0.13525017542E+04  0.46999998093E+01 0. -1.
       -5    1    3    3    0  502  0.57030341297E+03 -0.69706354061E+03 -0.12281033936E+04  0.15229588300E+04  0.46999998093E+01 0.  1.
</event>
<event>
 5   0  0.6612533E-06  0.2912438E+04  0.7818609E-02  0.8269187E-01
        2   -1    0    0  501    0  0.00000000000E+00  0.00000000000E+00  0.25051544108E+04  0.25051544108E+04  0.25500000920E-02 0.  1.
       -2   -1    0    0    0  501  0.00000000000E+00  0.00000000000E+00 -0.84648407024E+03  0.84648407025E+03  0.25500000920E-02 0. -1.
    10030    2    1    2    0    0  0.00000000000E+00  0.00000000000E+00  0.16586703406E+04  0.33516384811E+04  0.29124376747E+04 0.  0.
        3    1    3    3  502    0  0.93609203013E+03  0.23750625565E+03  0.20836013087E+04  0.22965347666E+04  0.10100000352E+00 0.  1.
       -3    1    3    3    0  502 -0.93609203013E+03 -0.23750625565E+03 -0.42493096816E+03  0.10551037145E+04  0.10100000352E+00 0. -1.
</event>
<event>
 5   0  0.6733688E-06  0.2911527E+04  0.7818609E-02  0.8269456E-01
       -2   -1    0    0    0  501  0.00000000000E+00  0.00000000000E+00  0.25529595013E+04  0.25529595013E+04  0.25500000920E-02 0. -1.
        2   -1    0    0  501    0  0.00000000000E+00  0.00000000000E+00 -0.83011387926E+03  0.83011387926E+03  0.25500000920E-02 0.  1.
    10030    2    1    2    0    0  0.00000000000E+00  0.00000000000E+00  0.17228456220E+04  0.33830733805E+04  0.29115268264E+04 0.  0.
        5    1    3    3  502    0  0.10802896054E+04  0.50366296664E+02  0.19937587621E+04  0.22681839623E+04  0.46999998093E+01 0. -1.
       -5    1    3    3    0  502 -0.10802896054E+04 -0.50366296664E+02 -0.27091314014E+03  0.11148894182E+04  0.46999998093E+01 0.  1.
</event>
<event>
 5   0  0.2429358E-06  0.2863110E+04  0.7818609E-02  0.8283939E-01
        1   -1    0    0  501    0  0.00000000000E+00  0.00000000000E+00  0.10928640156E+04  0.10928640156E+04  0.50400001928E-02 0.  1.
       -1   -1    0    0    0  501  0.00000000000E+00  0.00000000000E+00 -0.18752098324E+04  0.18752098324E+04  0.50400001928E-02 0. -1.
    10030    2    1    2    0    0  0.00000000000E+00  0.00000000000E+00 -0.78234581678E+03  0.29680738481E+04  0.28631097413E+04 0.  0.
        2    1    3    3  502    0  0.12039608746E+04 -0.10030304541E+03 -0.11872898941E+04  0.16938830483E+04  0.25500000920E-02 0. -1.
       -2    1    3    3    0  502 -0.12039608746E+04  0.10030304541E+03  0.40494407734E+03  0.12741907998E+04  0.25500000920E-02 0.  1.
</event>
<event>
 5   0  0.6393633E-06  0.2864984E+04  0.7818609E-02  0.8283373E-01
       -2   -1    0    0    0  501  0.00000000000E+00  0.00000000000E+00  0.99967258273E+03  0.99967258273E+03  0.25500000920E-02 0. -1.
        2   -1    0    0  501    0  0.00000000000E+00  0.00000000000E+00 -0.20527055458E+04  0.20527055458E+04  0.25500000920E-02 0.  1.
    10030    2    1    2    0    0  0.00000000000E+00  0.00000000000E+00 -0.10530329631E+04  0.30523781286E+04  0.28649840869E+04 0.  0.
        4    1    3    3  502    0 -0.20553413666E+03 -0.13499761241E+04 -0.65363188232E+02  0.13670968423E+04  0.12699999809E+01 0. -1.
       -4    1    3    3    0  502  0.20553413666E+03  0.13499761241E+04 -0.98766977485E+03  0.16852812863E+04  0.12699999809E+01 0.  1.
</event>
<event>
 5   0  0.2474769E-06  0.2869576E+04  0.7818609E-02  0.8281987E-01
        1   -1    0    0  501    0  0.00000000000E+00  0.00000000000E+00  0.27666065929E+04  0.27666065929E+04  0.50400001928E-02 0.  1.
       -1   -1    0    0    0  501  0.00000000000E+00  0.00000000000E+00 -0.74409438609E+03  0.74409438611E+03  0.50400001928E-02 0. -1.
    10030    2    1    2    0    0  0.00000000000E+00  0.00000000000E+00  0.20225122068E+04  0.35107009790E+04  0.28695758811E+04 0.  0.
        1    1    3    3  502    0  0.13097489298E+04 -0.60805276336E+02  0.17240783360E+04  0.21660068443E+04  0.50400001928E-02 0.  1.
       -1    1    3    3    0  502 -0.13097489298E+04  0.60805276336E+02  0.29843387079E+03  0.13446941347E+04  0.50400001928E-02 0. -1.
</event>
<event>
 5   0  0.6612533E-06  0.2903141E+04  0.7818609E-02  0.8271944E-01
       -2   -1    0    0    0  501  0.00000000000E+00  0.00000000000E+00  0.65636790092E+03  0.65636790092E+03  0.25500000920E-02 0.  1.
        2   -1    0    0  501    0  0.00000000000E+00  0.00000000000E+00 -0.32101759846E+04  0.32101759846E+04  0.25500000920E-02 0. -1.
    10030    2    1    2    0    0  0.00000000000E+00  0.00000000000E+00 -0.25538080837E+04  0.38665438855E+04  0.29031406942E+04 0.  0.
        3    1    3    3  502    0 -0.28900732100E+03 -0.74674921449E+03  0.33562136064E+03  0.86821732812E+03  0.10100000352E+00 0.  1.
       -3    1    3    3    0  502  0.28900732100E+03  0.74674921449E+03 -0.28894294443E+04  0.29983265574E+04  0.10100000352E+00 0. -1.
</event>
<event>
 5   0  0.2474769E-06  0.2869303E+04  0.7818609E-02  0.8282070E-01
       -1   -1    0    0    0  501  0.00000000000E+00  0.00000000000E+00  0.90385367947E+03  0.90385367948E+03  0.50400001928E-02 0. -1.
        1   -1    0    0  501    0  0.00000000000E+00  0.00000000000E+00 -0.22771656071E+04  0.22771656071E+04  0.50400001928E-02 0.  1.
    10030    2    1    2    0    0  0.00000000000E+00  0.00000000000E+00 -0.13733119276E+04  0.31810192866E+04  0.28693027116E+04 0.  0.
        1    1    3    3  502    0 -0.53549837387E+03  0.58871404932E+03 -0.20100200636E+04  0.21618333415E+04  0.50400001928E-02 0.  1.
       -1    1    3    3    0  502  0.53549837387E+03 -0.58871404932E+03  0.63670813596E+03  0.10191859451E+04  0.50400001928E-02 0. -1.
</event>
<event>
 5   0  0.6733688E-06  0.2888473E+04  0.7818609E-02  0.8276315E-01
        2   -1    0    0  501    0  0.00000000000E+00  0.00000000000E+00  0.18996991650E+04  0.18996991650E+04  0.25500000920E-02 0.  1.
       -2   -1    0    0    0  501  0.00000000000E+00  0.00000000000E+00 -0.10979735776E+04  0.10979735776E+04  0.25500000920E-02 0. -1.
    10030    2    1    2    0    0  0.00000000000E+00  0.00000000000E+00  0.80172558739E+03  0.29976727426E+04  0.28884732912E+04 0.  0.
        5    1    3    3  502    0  0.85511514828E+03 -0.20276340384E+02 -0.80681630844E+03  0.11758433962E+04  0.46999998093E+01 0. -1.
       -5    1    3    3    0  502 -0.85511514828E+03  0.20276340384E+02  0.16085418958E+04  0.18218293464E+04  0.46999998093E+01 0.  1.
</event>
<event>
 5   0  0.2336512E-06  0.3029932E+04  0.7818609E-02  0.8235235E-01
        1   -1    0    0  501    0  0.00000000000E+00  0.00000000000E+00  0.12847711527E+04  0.12847711527E+04  0.50400001928E-02 0. -1.
       -1   -1    0    0    0  501  0.00000000000E+00  0.00000000000E+00 -0.17864051205E+04  0.17864051205E+04  0.50400001928E-02 0.  1.
    10030    2    1    2    0    0  0.00000000000E+00  0.00000000000E+00 -0.50163396784E+03  0.30711762732E+04  0.30299318579E+04 0.  0.
        4    1    3    3  502    0  0.71535130875E+03 -0.65735630143E+03 -0.14290842426E+04  0.17280417204E+04  0.12699999809E+01 0.  1.
       -4    1    3    3    0  502 -0.71535130875E+03  0.65735630143E+03  0.92745027478E+03  0.13431345528E+04  0.12699999809E+01 0. -1.
</event>
<event>
 5   0  0.6615403E-06  0.2477661E+04  0.7818609E-02  0.8410987E-01
       -2   -1    0    0    0  501  0.00000000000E+00  0.00000000000E+00  0.11217596801E+04  0.11217596801E+04  0.25500000920E-02 0.  1.
        2   -1    0    0  501    0  0.00000000000E+00  0.00000000000E+00 -0.13681188915E+04  0.13681188915E+04  0.25500000920E-02 0. -1.
    10030    2    1    2    0    0  0.00000000000E+00  0.00000000000E+00 -0.24635921143E+03  0.24898785717E+04  0.24776606791E+04 0.  0.
        2    1    3    3  502    0  0.10455426788E+04  0.44570873080E+03 -0.61844336186E+03  0.12939427954E+04  0.25500000920E-02 0. -1.
       -2    1    3    3    0  502 -0.10455426788E+04 -0.44570873080E+03  0.37208415044E+03  0.11959357763E+04  0.25500000920E-02 0.  1.
</event>
<event>
 5   0  0.6612533E-06  0.2857938E+04  0.7818609E-02  0.8285503E-01
       -2   -1    0    0    0  501  0.00000000000E+00  0.00000000000E+00  0.13629412571E+04  0.13629412571E+04  0.25500000920E-02 0.  1.
        2   -1    0    0  501    0  0.00000000000E+00  0.00000000000E+00 -0.14981955252E+04  0.14981955252E+04  0.25500000920E-02 0. -1.
    10030    2    1    2    0    0  0.00000000000E+00  0.00000000000E+00 -0.13525426811E+03  0.28611367823E+04  0.28579380626E+04 0.  0.
        3    1    3    3  502    0  0.24036945179E+03 -0.11621677874E+04  0.72921664352E+03  0.13928992651E+04  0.10100000352E+00 0.  1.
       -3    1    3    3    0  502 -0.24036945179E+03  0.11621677874E+04 -0.86447091163E+03  0.14682375171E+04  0.10100000352E+00 0. -1.
</event>
<event>
 5   0  0.2348684E-06  0.2884910E+04  0.7818609E-02  0.8277381E-01
       -1   -1    0    0    0  501  0.00000000000E+00  0.00000000000E+00  0.28159468382E+04  0.28159468382E+04  0.50400001928E-02 0. -1.
        1   -1    0    0  501    0  0.00000000000E+00  0.00000000000E+00 -0.73889041150E+03  0.73889041151E+03  0.50400001928E-02 0.  1.
    10030    2    1    2    0    0  0.00000000000E+00  0.00000000000E+00  0.20770564267E+04  0.35548372497E+04  0.28849097858E+04 0.  0.
        5    1    3    3  502    0  0.82371355407E+03  0.27663323720E+03  0.24572514261E+04  0.26063646383E+04  0.46999998093E+01 0. -1.
       -5    1    3    3    0  502 -0.82371355407E+03 -0.27663323720E+03 -0.38019499933E+03  0.94847261141E+03  0.46999998093E+01 0.  1.
</event>
<event>
 5   0  0.2429358E-06  0.2569375E+04  0.7818609E-02  0.8378679E-01
       -1   -1    0    0    0  501  0.00000000000E+00  0.00000000000E+00  0.10467221100E+04  0.10467221100E+04  0.50400001928E-02 0.  1.
        1   -1    0    0  501    0  0.00000000000E+00  0.00000000000E+00 -0.15767532669E+04  0.15767532669E+04  0.50400001928E-02 0. -1.
    10030    2    1    2    0    0  0.00000000000E+00  0.00000000000E+00 -0.53003115687E+03  0.26234753769E+04  0.25693754155E+04 0.  0.
        2    1    3    3  502    0  0.69627936085E+03 -0.10102036187E+04  0.12393320984E+03  0.12331568189E+04  0.25500000920E-02 0. -1.
       -2    1    3    3    0  502 -0.69627936085E+03  0.10102036187E+04 -0.65396436671E+03  0.13903185579E+04  0.25500000920E-02 0.  1.
</event>
<event>
 5   0  0.6393633E-06  0.2866353E+04  0.7818609E-02  0.8282959E-01
        2   -1    0    0  501    0  0.00000000000E+00  0.00000000000E+00  0.19782141293E+04  0.19782141293E+04  0.25500000920E-02 0. -1.
       -2   -1    0    0    0  501  0.00000000000E+00  0.00000000000E+00 -0.10383080033E+04  0.10383080033E+04  0.25500000920E-02 0.  1.
    10030    2    1    2    0    0  0.00000000000E+00  0.00000000000E+00  0.93990612599E+03  0.30165221327E+04  0.28663534763E+04 0.  0.
        4    1    3    3  502    0 -0.69398563469E+03 -0.11066021882E+03 -0.84453749478E+03  0.10986841849E+04  0.12699999809E+01 0.  1.
       -4    1    3    3    0  502  0.69398563469E+03  0.11066021882E+03  0.17844436208E+04  0.19178379477E+04  0.12699999809E+01 0. -1.
</event>
<event>
 5   0  0.6615403E-06  0.2913576E+04  0.7818609E-02  0.8268850E-01
        2   -1    0    0  501    0  0.00000000000E+00  0.00000000000E+00  0.24318294411E+04  0.24318294411E+04  0.25500000920E-02 0. -1.
       -2   -1    0    0    0  501  0.00000000000E+00  0.00000000000E+00 -0.87268932564E+03  0.87268932564E+03  0.25500000920E-02 0.  1.
    10030    2    1    2    0    0  0.00000000000E+00  0.00000000000E+00  0.15591401155E+04  0.33045187668E+04  0.29135762184E+04 0.  0.
        2    1    3    3  502    0  0.25064374661E+03  0.91131895238E+03  0.20368771380E+04  0.22454827979E+04  0.25500000920E-02 0. -1.
       -2    1    3    3    0  502 -0.25064374661E+03 -0.91131895238E+03 -0.47773702246E+03  0.10590359688E+04  0.25500000920E-02 0.  1.
</event>
<event>
 5   0  0.2429358E-06  0.2902062E+04  0.7818609E-02  0.8272264E-01
       -1   -1    0    0    0  501  0.00000000000E+00  0.00000000000E+00  0.78512662195E+03  0.78512662197E+03  0.50400001928E-02 0. -1.
        1   -1    0    0  501    0  0.00000000000E+00  0.00000000000E+00 -0.26817219236E+04  0.26817219236E+04  0.50400001928E-02 0.  1.
    10030    2    1    2    0    0  0.00000000000E+00  0.00000000000E+00 -0.18965953017E+04  0.34668485456E+04  0.29020622150E+04 0.  0.
        2    1    3    3  502    0 -0.14423040518E+04  0.23300543080E+02 -0.11360742695E+04  0.18361504946E+04  0.25500000920E-02 0. -1.
       -2    1    3    3    0  502  0.14423040518E+04 -0.23300543080E+02 -0.76052103223E+03  0.16306980510E+04  0.25500000920E-02 0.  1.
</event>
<event>
 5   0  0.6393633E-06  0.2894346E+04  0.7818609E-02  0.8274562E-01
        2   -1    0    0  501    0  0.00000000000E+00  0.00000000000E+00  0.10451292755E+04  0.10451292755E+04  0.25500000920E-02 0. -1.
       -2   -1    0    0    0  501  0.00000000000E+00  0.00000000000E+00 -0.20038758322E+04  0.20038758322E+04  0.25500000920E-02 0.  1.
    10030    2    1    2    0    0  0.00000000000E+00  0.00000000000E+00 -0.95874655666E+03  0.30490051077E+04  0.28943457269E+04 0.  0.
        4    1    3    3  502    0 -0.59350482095E+03  0.65414871224E+03  0.72824611580E+03  0.11447718237E+04  0.12699999809E+01 0. -1.
       -4    1    3    3    0  502  0.59350482095E+03 -0.65414871224E+03 -0.16869926725E+04  0.19042332840E+04  0.12699999809E+01 0.  1.
</event>
<event>
 5   0  0.6733688E-06  0.2886629E+04  0.7818609E-02  0.8276867E-01
       -2   -1    0    0    0  501  0.00000000000E+00  0.00000000000E+00  0.18671845731E+04  0.18671845731E+04  0.25500000920E-02 0. -1.
        2   -1    0    0  501    0  0.00000000000E+00  0.00000000000E+00 -0.11156671803E+04  0.11156671803E+04  0.25500000920E-02 0.  1.
    10030    2    1    2    0    0  0.00000000000E+00  0.00000000000E+00  0.75151739272E+03  0.29828517534E+04  0.28866288627E+04 0.  0.
        5    1    3    3  502    0 -0.80631650377E+03 -0.27019831507E+03 -0.82929706728E+03  0.11878169680E+04  0.46999998093E+01 0. -1.
       -5    1    3    3    0  502  0.80631650377E+03  0.27019831507E+03  0.15808144600E+04  0.17950347854E+04  0.46999998093E+01 0.  1.
</event>
<event>
 5   0  0.6393633E-06  0.2901168E+04  0.7818609E-02  0.8272530E-01
       -2   -1    0    0    0  501  0.00000000000E+00  0.00000000000E+00  0.10437806016E+04  0.10437806016E+04  0.25500000920E-02 0. -1.
        2   -1    0    0  501    0  0.00000000000E+00  0.00000000000E+00 -0.20159345767E+04  0.20159345767E+04  0.25500000920E-02 0.  1.
    10030    2    1    2    0    0  0.00000000000E+00  0.00000000000E+00 -0.97215397505E+03  0.30597151783E+04  0.29011676306E+04 0.  0.
        4    1    3    3  502    0  0.92030887364E+03 -0.97805431657E+03 -0.10643415681E+04  0.17135878313E+04  0.12699999809E+01 0.  1.
       -4    1    3    3    0  502 -0.92030887364E+03  0.97805431657E+03  0.92187593067E+02  0.13461273470E+04  0.12699999809E+01 0. -1.
</event>
<event>
 5   0  0.6615403E-06  0.2874891E+04  0.7818609E-02  0.8280388E-01
        2   -1    0    0  501    0  0.00000000000E+00  0.00000000000E+00  0.10961025435E+04  0.10961025435E+04  0.25500000920E-02 0.  1.
       -2   -1    0    0    0  501  0.00000000000E+00  0.00000000000E+00 -0.18850874463E+04  0.18850874463E+04  0.25500000920E-02 0. -1.
    10030    2    1    2    0    0  0.00000000000E+00  0.00000000000E+00 -0.78898490284E+03  0.29811899899E+04  0.28748907073E+04 0.  0.
        2    1    3    3  502    0  0.65215296329E+03 -0.89466333531E+03 -0.13451917228E+04  0.17422016939E+04  0.25500000920E-02 0. -1.
       -2    1    3    3    0  502 -0.65215296329E+03  0.89466333531E+03  0.55620681993E+03  0.12389882960E+04  0.25500000920E-02 0.  1.
</event>
<event>
 5   0  0.6733688E-06  0.2880336E+04  0.7818609E-02  0.8278752E-01
       -2   -1    0    0    0  501  0.00000000000E+00  0.00000000000E+00  0.13366704251E+04  0.13366704251E+04  0.25500000920E-02 0. -1.
        2   -1    0    0  501    0  0.00000000000E+00  0.00000000000E+00 -0.15516790870E+04  0.15516790870E+04  0.25500000920E-02 0.  1.
    10030    2    1    2    0    0  0.00000000000E+00  0.00000000000E+00 -0.21500866183E+03  0.28883495121E+04  0.28803357754E+04 0.  0.
        5    1    3    3  502    0  0.40747710922E+03  0.78319870050E+03  0.10334766246E+04  0.13592401637E+04  0.46999998093E+01 0. -1.
       -5    1    3    3    0  502 -0.40747710922E+03 -0.78319870050E+03 -0.12484852864E+04  0.15291093484E+04  0.46999998093E+01 0.  1.
</event>
<event>
 5   0  0.2474769E-06  0.2899488E+04  0.7818609E-02  0.8273030E-01
       -1   -1    0    0    0  501  0.00000000000E+00  0.00000000000E+00  0.10709912669E+04  0.10709912669E+04  0.50400001928E-02 0.  1.
        1   -1    0    0  501    0  0.00000000000E+00  0.00000000000E+00 -0.19624411834E+04  0.19624411834E+04  0.50400001928E-02 0. -1.
    10030    2    1    2    0    0  0.00000000000E+00  0.00000000000E+00 -0.89144991646E+03  0.30334324503E+04  0.28994877956E+04 0.  0.
        1    1    3    3  502    0 -0.77649820201E+03 -0.38569830163E+03 -0.16613149687E+04  0.18739477215E+04  0.50400001928E-02 0. -1.
       -1    1    3    3    0  502  0.77649820201E+03  0.38569830163E+03  0.76986505225E+03  0.11594847288E+04  0.50400001928E-02 0.  1.
</event>
<event>
 5   0  0.6612533E-06  0.2890805E+04  0.7818609E-02  0.8275619E-01
       -2   -1    0    0    0  501  0.00000000000E+00  0.00000000000E+00  0.99381214120E+03  0.99381214121E+03  0.25500000920E-02 0.  1.
        2   -1    0    0  501    0  0.00000000000E+00  0.00000000000E+00 -0.21021964491E+04  0.21021964491E+04  0.25500000920E-02 0. -1.
    10030    2    1    2    0    0  0.00000000000E+00  0.00000000000E+00 -0.11083843079E+04  0.30960085904E+04  0.28908049774E+04 0.  0.
        3    1    3    3  502    0 -0.56422950060E+03 -0.60302390297E+03  0.71626667446E+03  0.10931746046E+04  0.10100000352E+00 0.  1.
       -3    1    3    3    0  502  0.56422950060E+03  0.60302390297E+03 -0.18246509824E+04  0.20028339858E+04  0.10100000352E+00 0. -1.
</event>
<event>
 5   0  0.2474769E-06  0.2893437E+04  0.7818609E-02  0.8274833E-01
        1   -1    0    0  501    0  0.00000000000E+00  0.00000000000E+00  0.10622599635E+04  0.10622599635E+04  0.50400001928E-02 0.  1.
       -1   -1    0    0    0  501  0.00000000000E+00  0.00000000000E+00 -0.19703225618E+04  0.19703225618E+04  0.50400001928E-02 0. -1.
    10030    2    1    2    0    0  0.00000000000E+00  0.00000000000E+00 -0.90806259832E+03  0.30325825254E+04  0.28934372450E+04 0.  0.
        1    1    3    3  502    0  0.51274885217E+02  0.42297236355E+03 -0.19030739617E+04  0.19501859495E+04  0.50400001928E-02 0. -1.
       -1    1    3    3    0  502 -0.51274885217E+02 -0.42297236355E+03  0.99501136334E+03  0.10823965758E+04  0.50400001928E-02 0.  1.
</event>
<event>
 5   0  0.6615403E-06  0.2886478E+04  0.7818609E-02  0.8276912E-01
       -2   -1    0    0    0  501  0.00000000000E+00  0.00000000000E+00  0.13873912633E+04  0.13873912633E+04  0.25500000920E-02 0.  1.
        2   -1    0    0  501    0  0.00000000000E+00  0.00000000000E+00 -0.15013350243E+04  0.15013350243E+04  0.25500000920E-02 0. -1.
    10030    2    1    2    0    0  0.00000000000E+00  0.00000000000E+00 -0.11394376100E+03  0.28887262875E+04  0.28864781973E+04 0.  0.
        2    1    3    3  502    0 -0.13852626899E+04  0.32868729690E+03  0.17975205988E+03  0.14350257357E+04  0.25500000920E-02 0.  1.
       -2    1    3    3    0  502  0.13852626899E+04 -0.32868729690E+03 -0.29369582088E+03  0.14537005518E+04  0.25500000920E-02 0. -1.
</event>
<event>
 5   0  0.6733688E-06  0.2889536E+04  0.7818609E-02  0.8275998E-01
       -2   -1    0    0    0  501  0.00000000000E+00  0.00000000000E+00  0.18159583415E+04  0.18159583415E+04  0.25500000920E-02 0.  1.
        2   -1    0    0  501    0  0.00000000000E+00  0.00000000000E+00 -0.11494507225E+04  0.11494507225E+04  0.25500000920E-02 0. -1.
    10030    2    1    2    0    0  0.00000000000E+00  0.00000000000E+00  0.66650761901E+03  0.29654090640E+04  0.28895360373E+04 0.  0.
        5    1    3    3  502    0  0.49843853649E+02  0.92133270562E+03 -0.80769118458E+03  0.12262648588E+04  0.46999998093E+01 0. -1.
       -5    1    3    3    0  502 -0.49843853649E+02 -0.92133270562E+03  0.14741988036E+04  0.17391442053E+04  0.46999998093E+01 0.  1.
</event>
<event>
 5   0  0.2508094E-06  0.2808186E+04  0.7818609E-02  0.8300732E-01
       -1   -1    0    0    0  501  0.00000000000E+00  0.00000000000E+00  0.72276880994E+03  0.72276880996E+03  0.50400001928E-02 0.  1.
        1   -1    0    0  501    0  0.00000000000E+00  0.00000000000E+00 -0.27276725626E+04  0.27276725626E+04  0.50400001928E-02 0. -1.
    10030    2    1    2    0    0  0.00000000000E+00  0.00000000000E+00 -0.20049037526E+04  0.34504413725E+04  0.28081856434E+04 0.  0.
        3    1    3    3  502    0 -0.26253768470E+03  0.86901139763E+03 -0.23185871977E+04  0.24899705718E+04  0.10100000352E+00 0. -1.
       -3    1    3    3    0  502  0.26253768470E+03 -0.86901139763E+03  0.31368344506E+03  0.96047080071E+03  0.10100000352E+00 0.  1.
</event>
<event>
 5   0  0.2474769E-06  0.2928367E+04  0.7818609E-02  0.8264487E-01
       -1   -1    0    0    0  501  0.00000000000E+00  0.00000000000E+00  0.94663422384E+03  0.94663422386E+03  0.50400001928E-02 0. -1.
        1   -1    0    0  501    0  0.00000000000E+00  0.00000000000E+00 -0.22646909194E+04  0.22646909194E+04  0.50400001928E-02 0.  1.
    10030    2    1    2    0    0  0.00000000000E+00  0.00000000000E+00 -0.13180566955E+04  0.32113251432E+04  0.29283674160E+04 0.  0.
        1    1    3    3  502    0  0.88614712195E+03  0.49028002947E+03  0.50060042473E+03  0.11297043924E+04  0.50400001928E-02 0.  1.
       -1    1    3    3    0  502 -0.88614712195E+03 -0.49028002947E+03 -0.18186571203E+04  0.20816207508E+04  0.50400001928E-02 0. -1.
</event>
<event>
 5   0  0.2348684E-06  0.2893790E+04  0.7818609E-02  0.8274728E-01
       -1   -1    0    0    0  501  0.00000000000E+00  0.00000000000E+00  0.11042162054E+04  0.11042162054E+04  0.50400001928E-02 0. -1.
        1   -1    0    0  501    0  0.00000000000E+00  0.00000000000E+00 -0.18959196868E+04  0.18959196868E+04  0.50400001928E-02 0.  1.
    10030    2    1    2    0    0  0.00000000000E+00  0.00000000000E+00 -0.79170348139E+03  0.30001358922E+04  0.28937900700E+04 0.  0.
        5    1    3    3  502    0 -0.73892072209E+03  0.16046498347E+03 -0.16747698880E+04  0.18375606418E+04  0.46999998093E+01 0.  1.
       -5    1    3    3    0  502  0.73892072209E+03 -0.16046498347E+03  0.88306640660E+03  0.11625752504E+04  0.46999998093E+01 0. -1.
</event>
<event>
 5   0  0.2159500E-06  0.2551450E+04  0.7818609E-02  0.8384882E-01
        3   -1    0    0  501    0  0.00000000000E+00  0.00000000000E+00  0.30120502353E+04  0.30120502370E+04  0.10100000352E+00 0. -1.
       -3   -1    0    0    0  501  0.00000000000E+00  0.00000000000E+00 -0.54032116595E+03  0.54032117539E+03  0.10100000352E+00 0.  1.
    10030    2    1    2    0    0  0.00000000000E+00  0.00000000000E+00  0.24717290693E+04  0.35523714123E+04  0.25514501875E+04 0.  0.
        1    1    3    3  502    0  0.69062606776E+03  0.86122581175E+03  0.34566605321E+03  0.11567883491E+04  0.50400001928E-02 0.  1.
       -1    1    3    3    0  502 -0.69062606776E+03 -0.86122581175E+03  0.21260630161E+04  0.23955830632E+04  0.50400001928E-02 0. -1.
</event>
<event>
 5   0  0.2508094E-06  0.2893843E+04  0.7818609E-02  0.8274712E-01
       -1   -1    0    0    0  501  0.00000000000E+00  0.00000000000E+00  0.16709679560E+04  0.16709679560E+04  0.50400001928E-02 0.  1.
        1   -1    0    0  501    0  0.00000000000E+00  0.00000000000E+00 -0.12529153028E+04  0.12529153028E+04  0.50400001928E-02 0. -1.
    10030    2    1    2    0    0  0.00000000000E+00  0.00000000000E+00  0.41805265322E+03  0.29238832587E+04  0.28938426512E+04 0.  0.
        3    1    3    3  502    0 -0.82211660580E+03  0.11159793624E+04  0.62842039733E+03  0.15219059947E+04  0.10100000352E+00 0.  1.
       -3    1    3    3    0  502  0.82211660580E+03 -0.11159793624E+04 -0.21036774412E+03  0.14019772640E+04  0.10100000352E+00 0. -1.
</event>
<event>
 5   0  0.6733688E-06  0.2880732E+04  0.7818609E-02  0.8278633E-01
       -2   -1    0    0    0  501  0.00000000000E+00  0.00000000000E+00  0.14074917566E+04  0.14074917566E+04  0.25500000920E-02 0.  1.
        2   -1    0    0  501    0  0.00000000000E+00  0.00000000000E+00 -0.14740080903E+04  0.14740080903E+04  0.25500000920E-02 0. -1.
    10030    2    1    2    0    0  0.00000000000E+00  0.00000000000E+00 -0.66516333731E+02  0.28814998468E+04  0.28807320154E+04 0.  0.
        5    1    3    3  502    0  0.60150849441E+03 -0.32529346398E+03  0.12347562718E+04  0.14114791700E+04  0.46999998093E+01 0.  1.
       -5    1    3    3    0  502 -0.60150849441E+03  0.32529346398E+03 -0.13012726055E+04  0.14700206769E+04  0.46999998093E+01 0. -1.
</event>
<event>
 5   0  0.2159500E-06  0.2868959E+04  0.7818609E-02  0.8282173E-01
        3   -1    0    0  501    0  0.00000000000E+00  0.00000000000E+00  0.99735371027E+03  0.99735371539E+03  0.10100000352E+00 0. -1.
       -3   -1    0    0    0  501  0.00000000000E+00  0.00000000000E+00 -0.20631910476E+04  0.20631910500E+04  0.10100000352E+00 0.  1.
    10030    2    1    2    0    0  0.00000000000E+00  0.00000000000E+00 -0.10658373373E+04  0.30605447654E+04  0.28689588759E+04 0.  0.
        1    1    3    3  502    0 -0.10162232648E+04 -0.64071133131E+03  0.30333700161E+03  0.12390456289E+04  0.50400001928E-02 0. -1.
       -1    1    3    3    0  502  0.10162232648E+04  0.64071133131E+03 -0.13691743389E+04  0.18214991365E+04  0.50400001928E-02 0.  1.
</event>
<event>
 5   0  0.6733688E-06  0.2899266E+04  0.7818609E-02  0.8273096E-01
       -2   -1    0    0    0  501  0.00000000000E+00  0.00000000000E+00  0.14470248562E+04  0.14470248562E+04  0.25500000920E-02 0. -1.
        2   -1    0    0  501    0  0.00000000000E+00  0.00000000000E+00 -0.14522458769E+04  0.14522458769E+04  0.25500000920E-02 0.  1.
    10030    2    1    2    0    0  0.00000000000E+00  0.00000000000E+00 -0.52210206565E+01  0.28992707331E+04  0.28992660321E+04 0.  0.
        5    1    3    3  502    0 -0.22943854660E+02 -0.72714404891E+03  0.12512451437E+04  0.14473774173E+04  0.46999998093E+01 0. -1.
       -5    1    3    3    0  502  0.22943854660E+02  0.72714404891E+03 -0.12564661644E+04  0.14518933158E+04  0.46999998093E+01 0.  1.
</event>
<event>
 5   0  0.2474769E-06  0.2872280E+04  0.7818609E-02  0.8281173E-01
        1   -1    0    0  501    0  0.00000000000E+00  0.00000000000E+00  0.21713497874E+04  0.21713497874E+04  0.50400001928E-02 0. -1.
       -1   -1    0    0    0  501  0.00000000000E+00  0.00000000000E+00 -0.94986889676E+03  0.94986889678E+03  0.50400001928E-02 0.  1.
    10030    2    1    2    0    0  0.00000000000E+00  0.00000000000E+00  0.12214808906E+04  0.31212186842E+04  0.28722796710E+04 0.  0.
        1    1    3    3  502    0  0.83956635048E+03  0.18032910120E+03  0.18616416501E+04  0.20501463058E+04  0.50400001928E-02 0. -1.
       -1    1    3    3    0  502 -0.83956635048E+03 -0.18032910120E+03 -0.64016075954E+03  0.10710723784E+04  0.50400001928E-02 0.  1.
</event>
<event>
 5   0  0.2348684E-06  0.2856824E+04  0.7818609E-02  0.8285841E-01
        1   -1    0    0  501    0  0.00000000000E+00  0.00000000000E+00  0.92830439933E+03  0.92830439934E+03  0.50400001928E-02 0.  1.
       -1   -1    0    0    0  501  0.00000000000E+00  0.00000000000E+00 -0.21979441130E+04  0.21979441130E+04  0.50400001928E-02 0. -1.
    10030    2    1    2    0    0  0.00000000000E+00  0.00000000000E+00 -0.12696397137E+04  0.31262485124E+04  0.28568242435E+04 0.  0.
        5    1    3    3  502    0  0.60735145265E+02  0.76605982304E+03 -0.19524527437E+04  0.20982445560E+04  0.46999998093E+01 0. -1.
       -5    1    3    3    0  502 -0.60735145265E+02 -0.76605982304E+03  0.68281303002E+03  0.10280039564E+04  0.46999998093E+01 0.  1.
</event>
<event>
 5   0  0.6612533E-06  0.3395152E+04  0.7818609E-02  0.8139097E-01
        2   -1    0    0  501    0  0.00000000000E+00  0.00000000000E+00  0.21604118838E+04  0.21604118838E+04  0.25500000920E-02 0. -1.
       -2   -1    0    0    0  501  0.00000000000E+00  0.00000000000E+00 -0.13338959833E+04  0.13338959833E+04  0.25500000920E-02 0.  1.
    10030    2    1    2    0    0  0.00000000000E+00  0.00000000000E+00  0.82651590048E+03  0.34943078671E+04  0.33951522700E+04 0.  0.
        3    1    3    3  502    0  0.52382007606E+03 -0.91242437617E+03 -0.95788848501E+03  0.14228338182E+04  0.10100000352E+00 0.  1.
       -3    1    3    3    0  502 -0.52382007606E+03  0.91242437617E+03  0.17844043855E+04  0.20714740489E+04  0.10100000352E+00 0. -1.
</event>
<event>
 5   0  0.6733688E-06  0.2926430E+04  0.7818609E-02  0.8265057E-01
       -2   -1    0    0    0  501  0.00000000000E+00  0.00000000000E+00  0.19960124183E+04  0.19960124183E+04  0.25500000920E-02 0.  1.
        2   -1    0    0  501    0  0.00000000000E+00  0.00000000000E+00 -0.10726375412E+04  0.10726375412E+04  0.25500000920E-02 0. -1.
    10030    2    1    2    0    0  0.00000000000E+00  0.00000000000E+00  0.92337487706E+03  0.30686499595E+04  0.29264298062E+04 0.  0.
        5    1    3    3  502    0  0.72451520544E+03  0.84526412574E+03 -0.53397440725E+03  0.12347244562E+04  0.46999998093E+01 0. -1.
       -5    1    3    3    0  502 -0.72451520544E+03 -0.84526412574E+03  0.14573492843E+04  0.18339255033E+04  0.46999998093E+01 0.  1.
</event>
<event>
 5   0  0.2159500E-06  0.2854599E+04  0.7818609E-02  0.8286515E-01
        3   -1    0    0  501    0  0.00000000000E+00  0.00000000000E+00  0.10576471677E+04  0.10576471725E+04  0.10100000352E+00 0.  1.
       -3   -1    0    0    0  501  0.00000000000E+00  0.00000000000E+00 -0.19261468968E+04  0.19261468995E+04  0.10100000352E+00 0. -1.
    10030    2    1    2    0    0  0.00000000000E+00  0.00000000000E+00 -0.86849972915E+03  0.29837940720E+04  0.28545989708E+04 0.  0.
        5    1    3    3  502    0 -0.12572746629E+04 -0.21596004360E+03  0.23486538737E+03  0.12971361372E+04  0.46999998093E+01 0.  1.
       -5    1    3    3    0  502  0.12572746629E+04  0.21596004360E+03 -0.11033651165E+04  0.16866579347E+04  0.46999998093E+01 0. -1.
</event>
<event>
 5   0  0.6393633E-06  0.2927482E+04  0.7818609E-02  0.8264747E-01
       -2   -1    0    0    0  501  0.00000000000E+00  0.00000000000E+00  0.12475185049E+04  0.12475185049E+04  0.25500000920E-02 0. -1.
        2   -1    0    0  501    0  0.00000000000E+00  0.00000000000E+00 -0.17174399248E+04  0.17174399248E+04  0.25500000920E-02 0.  1.
    10030    2    1    2    0    0  0.00000000000E+00  0.00000000000E+00 -0.46992141992E+03  0.29649584297E+04  0.29274822543E+04 0.  0.
        4    1    3    3  502    0  0.37458225812E+02 -0.14630650492E+04 -0.21069534131E+03  0.14786333544E+04  0.12699999809E+01 0. -1.
       -4    1    3    3    0  502 -0.37458225812E+02  0.14630650492E+04 -0.25922607860E+03  0.14863250754E+04  0.12699999809E+01 0.  1.
</event>
<event>
 5   0  0.2508094E-06  0.2902079E+04  0.7818609E-02  0.8272259E-01
        1   -1    0    0  501    0  0.00000000000E+00  0.00000000000E+00  0.15031615906E+04  0.15031615906E+04  0.50400001928E-02 0.  1.
       -1   -1    0    0    0  501  0.00000000000E+00  0.00000000000E+00 -0.14007249658E+04  0.14007249658E+04  0.50400001928E-02 0. -1.
    10030    2    1    2    0    0  0.00000000000E+00  0.00000000000E+00  0.10243662478E+03  0.29038865564E+04  0.29020792322E+04 0.  0.
        3    1    3    3  502    0  0.44539510645E+03 -0.92220730847E+03 -0.97736779099E+03  0.14156591856E+04  0.10100000352E+00 0. -1.
       -3    1    3    3    0  502 -0.44539510645E+03  0.92220730847E+03  0.10798044158E+04  0.14882273708E+04  0.10100000352E+00 0.  1.
</event>
<event>
 5   0  0.2336512E-06  0.2892396E+04  0.7818609E-02  0.8275143E-01
       -1   -1    0    0    0  501  0.00000000000E+00  0.00000000000E+00  0.79123855596E+03  0.79123855598E+03  0.50400001928E-02 0.  1.
        1   -1    0    0  501    0  0.00000000000E+00  0.00000000000E+00 -0.26433099850E+04  0.26433099850E+04  0.50400001928E-02 0. -1.
    10030    2    1    2    0    0  0.00000000000E+00  0.00000000000E+00 -0.18520714291E+04  0.34345485410E+04  0.28923960832E+04 0.  0.
        4    1    3    3  502    0 -0.29194784367E+03 -0.10784696743E+04  0.16431462326E+03  0.11293056673E+04  0.12699999809E+01 0.  1.
       -4    1    3    3    0  502  0.29194784367E+03  0.10784696743E+04 -0.20163860523E+04  0.23052428737E+04  0.12699999809E+01 0. -1.
</event>
<event>
 5   0  0.2336512E-06  0.2915011E+04  0.7818609E-02  0.8268425E-01
       -1   -1    0    0    0  501  0.00000000000E+00  0.00000000000E+00  0.10450742591E+04  0.10450742591E+04  0.50400001928E-02 0. -1.
        1   -1    0    0  501    0  0.00000000000E+00  0.00000000000E+00 -0.20327002546E+04  0.20327002546E+04  0.50400001928E-02 0.  1.
    10030    2    1    2    0    0  0.00000000000E+00  0.00000000000E+00 -0.98762599555E+03  0.30777745137E+04  0.29150112951E+04 0.  0.
        4    1    3    3  502    0  0.41644296928E+03 -0.17587452348E+03  0.96918306405E+03  0.10694269583E+04  0.12699999809E+01 0. -1.
       -4    1    3    3    0  502 -0.41644296928E+03  0.17587452348E+03 -0.19568090596E+04  0.20083475554E+04  0.12699999809E+01 0.  1.
</event>
<event>
 5   0  0.2336512E-06  0.2686402E+04  0.7818609E-02  0.8339430E-01
        1   -1    0    0  501    0  0.00000000000E+00  0.00000000000E+00  0.19842603287E+04  0.19842603287E+04  0.50400001928E-02 0. -1.
       -1   -1    0    0    0  501  0.00000000000E+00  0.00000000000E+00 -0.90925044695E+03  0.90925044697E+03  0.50400001928E-02 0.  1.
    10030    2    1    2    0    0  0.00000000000E+00  0.00000000000E+00  0.10750098817E+04  0.28935107756E+04  0.26864024946E+04 0.  0.
        4    1    3    3  502    0 -0.36997870747E+03 -0.91407679349E+02  0.19248051668E+04  0.19621712848E+04  0.12699999809E+01 0. -1.
       -4    1    3    3    0  502  0.36997870747E+03  0.91407679349E+02 -0.84979528507E+03  0.93133949087E+03  0.12699999809E+01 0.  1.
</event>
<event>
 5   0  0.2474769E-06  0.2919640E+04  0.7818609E-02  0.8267058E-01
       -1   -1    0    0    0  501  0.00000000000E+00  0.00000000000E+00  0.10904317045E+04  0.10904317046E+04  0.50400001928E-02 0.  1.
        1   -1    0    0  501    0  0.00000000000E+00  0.00000000000E+00 -0.19543394772E+04  0.19543394772E+04  0.50400001928E-02 0. -1.
    10030    2    1    2    0    0  0.00000000000E+00  0.00000000000E+00 -0.86390777265E+03  0.30447711817E+04  0.29196395171E+04 0.  0.
        1    1    3    3  502    0 -0.31974379437E+03  0.10320274795E+04 -0.14557398732E+04  0.18128693806E+04  0.50400001928E-02 0. -1.
       -1    1    3    3    0  502  0.31974379437E+03 -0.10320274795E+04  0.59183210056E+03  0.12319018012E+04  0.50400001928E-02 0.  1.
</event>
<event>
 5   0  0.2348684E-06  0.2710173E+04  0.7818609E-02  0.8331712E-01
        1   -1    0    0  501    0  0.00000000000E+00  0.00000000000E+00  0.16019963510E+04  0.16019963510E+04  0.50400001928E-02 0.  1.
       -1   -1    0    0    0  501  0.00000000000E+00  0.00000000000E+00 -0.11462322305E+04  0.11462322305E+04  0.50400001928E-02 0. -1.
    10030    2    1    2    0    0  0.00000000000E+00  0.00000000000E+00  0.45576412046E+03  0.27482285815E+04  0.27101733160E+04 0.  0.
        5    1    3    3  502    0 -0.98159351963E+02 -0.96458131838E+03 -0.73208142756E+03  0.12149146821E+04  0.46999998093E+01 0. -1.
       -5    1    3    3    0  502  0.98159351963E+02  0.96458131838E+03  0.11878455480E+04  0.15333138994E+04  0.46999998093E+01 0.  1.
</event>
<event>
 5   0  0.6393633E-06  0.2934118E+04  0.7818609E-02  0.8262798E-01
       -2   -1    0    0    0  501  0.00000000000E+00  0.00000000000E+00  0.11185247666E+04  0.11185247666E+04  0.25500000920E-02 0.  1.
        2   -1    0    0  501    0  0.00000000000E+00  0.00000000000E+00 -0.19241966818E+04  0.19241966818E+04  0.25500000920E-02 0. -1.
    10030    2    1    2    0    0  0.00000000000E+00  0.00000000000E+00 -0.80567191520E+03  0.30427214484E+04  0.29341176830E+04 0.  0.
        4    1    3    3  502    0 -0.13048186156E+04 -0.37398159270E+03  0.17440580010E+03  0.13685148327E+04  0.12699999809E+01 0.  1.
       -4    1    3    3    0  502  0.13048186156E+04  0.37398159270E+03 -0.98007771530E+03  0.16742066157E+04  0.12699999809E+01 0. -1.
</event>
<event>
 5   0  0.2348684E-06  0.2811344E+04  0.7818609E-02  0.8299755E-01
       -1   -1    0    0    0  501  0.00000000000E+00  0.00000000000E+00  0.12458818484E+04  0.12458818484E+04  0.50400001928E-02 0. -1.
        1   -1    0    0  501    0  0.00000000000E+00  0.00000000000E+00 -0.15859563161E+04  0.15859563162E+04  0.50400001928E-02 0.  1.
    10030    2    1    2    0    0  0.00000000000E+00  0.00000000000E+00 -0.34007446771E+03  0.28318381646E+04  0.28113442953E+04 0.  0.
        5    1    3    3  502    0  0.10995715051E+04 -0.14263518851E+03  0.70025745960E+03  0.13114056930E+04  0.46999998093E+01 0. -1.
       -5    1    3    3    0  502 -0.10995715051E+04  0.14263518851E+03 -0.10403319273E+04  0.15204324716E+04  0.46999998093E+01 0.  1.
</event>
<event>
 5   0  0.6393633E-06  0.2819514E+04  0.7818609E-02  0.8297235E-01
        2   -1    0    0  501    0  0.00000000000E+00  0.00000000000E+00  0.17950086755E+04  0.17950086755E+04  0.25500000920E-02 0.  1.
       -2   -1    0    0    0  501  0.00000000000E+00  0.00000000000E+00 -0.11071897801E+04  0.11071897801E+04  0.25500000920E-02 0. -1.
    10030    2    1    2    0    0  0.00000000000E+00  0.00000000000E+00  0.68781889543E+03  0.29021984556E+04  0.28195143274E+04 0.  0.
        4    1    3    3  502    0  0.70586146540E+03 -0.67415404928E+01  0.15999937417E+04  0.17487902799E+04  0.12699999809E+01 0.  1.
       -4    1    3    3    0  502 -0.70586146540E+03  0.67415404928E+01 -0.91217484625E+03  0.11534081757E+04  0.12699999809E+01 0. -1.
</event>
<event>
 5   0  0.2474769E-06  0.2843615E+04  0.7818609E-02  0.8289854E-01
        1   -1    0    0  501    0  0.00000000000E+00  0.00000000000E+00  0.10746430277E+04  0.10746430277E+04  0.50400001928E-02 0. -1.
       -1   -1    0    0    0  501  0.00000000000E+00  0.00000000000E+00 -0.18811234525E+04  0.18811234525E+04  0.50400001928E-02 0.  1.
    10030    2    1    2    0    0  0.00000000000E+00  0.00000000000E+00 -0.80648042479E+03  0.29557664802E+04  0.28436147435E+04 0.  0.
        1    1    3    3  502    0 -0.10022692367E+04  0.97661795681E+03 -0.14190852553E+03  0.14065789299E+04  0.50400001928E-02 0. -1.
       -1    1    3    3    0  502  0.10022692367E+04 -0.97661795681E+03 -0.66457189926E+03  0.15491875502E+04  0.50400001928E-02 0.  1.
</event>
<event>
 5   0  0.6513041E-06  0.2927244E+04  0.7818609E-02  0.8264817E-01
        2   -1    0    0  501    0  0.00000000000E+00  0.00000000000E+00  0.23151110790E+04  0.23151110790E+04  0.25500000920E-02 0.  1.
       -2   -1    0    0    0  501  0.00000000000E+00  0.00000000000E+00 -0.92530731488E+03  0.92530731489E+03  0.25500000920E-02 0. -1.
    10030    2    1    2    0    0  0.00000000000E+00  0.00000000000E+00  0.13898037641E+04  0.32404183939E+04  0.29272439025E+04 0.  0.
        1    1    3    3  502    0 -0.69779751384E+03  0.10020582683E+04  0.15881697765E+04  0.20033285757E+04  0.50400001928E-02 0.  1.
       -1    1    3    3    0  502  0.69779751384E+03 -0.10020582683E+04 -0.19836601238E+03  0.12370898182E+04  0.50400001928E-02 0. -1.
</event>
<event>
 5   0  0.2508094E-06  0.2917280E+04  0.7818609E-02  0.8267755E-01
        1   -1    0    0  501    0  0.00000000000E+00  0.00000000000E+00  0.20954562129E+04  0.20954562129E+04  0.50400001928E-02 0.  1.
       -1   -1    0    0    0  501  0.00000000000E+00  0.00000000000E+00 -0.10153544636E+04  0.10153544636E+04  0.50400001928E-02 0. -1.
    10030    2    1    2    0    0  0.00000000000E+00  0.00000000000E+00  0.10801017493E+04  0.31108106766E+04  0.29172801162E+04 0.  0.
        3    1    3    3  502    0 -0.37786979188E+02 -0.15006378625E+03 -0.10065764601E+04  0.10184022663E+04  0.10100000352E+00 0. -1.
       -3    1    3    3    0  502  0.37786979188E+02  0.15006378625E+03  0.20866782094E+04  0.20924084103E+04  0.10100000352E+00 0.  1.
</event>
<event>
 5   0  0.6615403E-06  0.3042140E+04  0.7818609E-02  0.8231799E-01
       -2   -1    0    0    0  501  0.00000000000E+00  0.00000000000E+00  0.93324770297E+03  0.93324770297E+03  0.25500000920E-02 0.  1.
        2   -1    0    0  501    0  0.00000000000E+00  0.00000000000E+00 -0.24791429883E+04  0.24791429883E+04  0.25500000920E-02 0. -1.
    10030    2    1    2    0    0  0.00000000000E+00  0.00000000000E+00 -0.15458952853E+04  0.34123906913E+04  0.30421403644E+04 0.  0.
        2    1    3    3  502    0 -0.42035122628E+03  0.93085763141E+03 -0.20372780469E+04  0.22789675127E+04  0.25500000920E-02 0.  1.
       -2    1    3    3    0  502  0.42035122628E+03 -0.93085763141E+03  0.49138276158E+03  0.11334231786E+04  0.25500000920E-02 0. -1.
</event>
<event>
 5   0  0.2474769E-06  0.2858207E+04  0.7818609E-02  0.8285422E-01
       -1   -1    0    0    0  501  0.00000000000E+00  0.00000000000E+00  0.15731119119E+04  0.15731119119E+04  0.50400001928E-02 0. -1.
        1   -1    0    0  501    0  0.00000000000E+00  0.00000000000E+00 -0.12982779057E+04  0.12982779057E+04  0.50400001928E-02 0.  1.
    10030    2    1    2    0    0  0.00000000000E+00  0.00000000000E+00  0.27483400618E+03  0.28713898176E+04  0.28582067374E+04 0.  0.
        1    1    3    3  502    0 -0.90983766703E+03  0.95268962568E+03  0.69397074134E+03  0.14889652424E+04  0.50400001928E-02 0. -1.
       -1    1    3    3    0  502  0.90983766703E+03 -0.95268962568E+03 -0.41913673516E+03  0.13824245752E+04  0.50400001928E-02 0.  1.
</event>
<event>
 5   0  0.2508094E-06  0.2891920E+04  0.7818609E-02  0.8275286E-01
       -1   -1    0    0    0  501  0.00000000000E+00  0.00000000000E+00  0.20956688694E+04  0.20956688694E+04  0.50400001928E-02 0. -1.
        1   -1    0    0  501    0  0.00000000000E+00  0.00000000000E+00 -0.99767660979E+03  0.99767660980E+03  0.50400001928E-02 0.  1.
    10030    2    1    2    0    0  0.00000000000E+00  0.00000000000E+00  0.10979922597E+04  0.30933454792E+04  0.28919196482E+04 0.  0.
        3    1    3    3  502    0 -0.53190206544E+03  0.27653092816E+03  0.19564761741E+04  0.20462620046E+04  0.10100000352E+00 0. -1.
       -3    1    3    3    0  502  0.53190206544E+03 -0.27653092816E+03 -0.85848391441E+03  0.10470834747E+04  0.10100000352E+00 0.  1.
</event>
<event>
 5   0  0.2474769E-06  0.2907090E+04  0.7818609E-02  0.8270771E-01
       -1   -1    0    0    0  501  0.00000000000E+00  0.00000000000E+00  0.15387810490E+04  0.15387810490E+04  0.50400001928E-02 0. -1.
        1   -1    0    0  501    0  0.00000000000E+00  0.00000000000E+00 -0.13730303157E+04  0.13730303157E+04  0.50400001928E-02 0.  1.
    10030    2    1    2    0    0  0.00000000000E+00  0.00000000000E+00  0.16575073336E+03  0.29118113647E+04  0.29070899742E+04 0.  0.
        1    1    3    3  502    0  0.14633919159E+03 -0.10798768194E+03  0.15273397420E+04  0.15381297689E+04  0.50400001928E-02 0. -1.
       -1    1    3    3    0  502 -0.14633919159E+03  0.10798768194E+03 -0.13615890086E+04  0.13736815959E+04  0.50400001928E-02 0.  1.
</event>
<event>
 5   0  0.6733688E-06  0.2904676E+04  0.7818609E-02  0.8271488E-01
        2   -1    0    0  501    0  0.00000000000E+00  0.00000000000E+00  0.11346031434E+04  0.11346031434E+04  0.25500000920E-02 0.  1.
       -2   -1    0    0    0  501  0.00000000000E+00  0.00000000000E+00 -0.18590515121E+04  0.18590515121E+04  0.25500000920E-02 0. -1.
    10030    2    1    2    0    0  0.00000000000E+00  0.00000000000E+00 -0.72444836872E+03  0.29936546555E+04  0.29046760159E+04 0.  0.
        5    1    3    3  502    0  0.42731946452E+03  0.86531461959E+03  0.75632938712E+03  0.12261433633E+04  0.46999998093E+01 0.  1.
       -5    1    3    3    0  502 -0.42731946452E+03 -0.86531461959E+03 -0.14807777558E+04  0.17675112921E+04  0.46999998093E+01 0. -1.
</event>
<event>
 5   0  0.6612533E-06  0.2886295E+04  0.7818609E-02  0.8276967E-01
       -2   -1    0    0    0  501  0.00000000000E+00  0.00000000000E+00  0.75729944204E+03  0.75729944204E+03  0.25500000920E-02 0.  1.
        2   -1    0    0  501    0  0.00000000000E+00  0.00000000000E+00 -0.27501333729E+04  0.27501333729E+04  0.25500000920E-02 0. -1.
    10030    2    1    2    0    0  0.00000000000E+00  0.00000000000E+00 -0.19928339309E+04  0.35074328149E+04  0.28862948351E+04 0.  0.
        3    1    3    3  502    0 -0.12621932478E+04 -0.64641924745E+03 -0.67105838141E+03  0.15688559525E+04  0.10100000352E+00 0.  1.
       -3    1    3    3    0  502  0.12621932478E+04  0.64641924745E+03 -0.13217755494E+04  0.19385768624E+04  0.10100000352E+00 0. -1.
</event>
<event>
 5   0  0.6513041E-06  0.2883719E+04  0.7818609E-02  0.8277738E-01
        2   -1    0    0  501    0  0.00000000000E+00  0.00000000000E+00  0.26904461316E+04  0.26904461316E+04  0.25500000920E-02 0. -1.
       -2   -1    0    0    0  501  0.00000000000E+00  0.00000000000E+00 -0.77271883170E+03  0.77271883170E+03  0.25500000920E-02 0.  1.
    10030    2    1    2    0    0  0.00000000000E+00  0.00000000000E+00  0.19177272999E+04  0.34631649633E+04  0.28837187044E+04 0.  0.
        1    1    3    3  502    0  0.67449080357E+03  0.99623256614E+03  0.44840752612E+01  0.12030948744E+04  0.50400001928E-02 0.  1.
       -1    1    3    3    0  502 -0.67449080357E+03 -0.99623256614E+03  0.19132432246E+04  0.22600700888E+04  0.50400001928E-02 0. -1.
</event>
<event>
 5   0  0.2429358E-06  0.2902967E+04  0.7818609E-02  0.8271995E-01
       -1   -1    0    0    0  501  0.00000000000E+00  0.00000000000E+00  0.13368367240E+04  0.13368367240E+04  0.50400001928E-02 0.  1.
        1   -1    0    0  501    0  0.00000000000E+00  0.00000000000E+00 -0.15759621606E+04  0.15759621606E+04  0.50400001928E-02 0. -1.
    10030    2    1    2    0    0  0.00000000000E+00  0.00000000000E+00 -0.23912543658E+03  0.29127988846E+04  0.29029668217E+04 0.  0.
        2    1    3    3  502    0  0.14333681007E+04 -0.21709809463E+03 -0.47707344186E+02  0.14505004948E+04  0.25500000920E-02 0.  1.
       -2    1    3    3    0  502 -0.14333681007E+04  0.21709809463E+03 -0.19141809239E+03  0.14622983898E+04  0.25500000920E-02 0. -1.
</event>
<event>
 5   0  0.2474769E-06  0.2844386E+04  0.7818609E-02  0.8289619E-01
       -1   -1    0    0    0  501  0.00000000000E+00  0.00000000000E+00  0.10238185102E+04  0.10238185102E+04  0.50400001928E-02 0.  1.
        1   -1    0    0  501    0  0.00000000000E+00  0.00000000000E+00 -0.19755779099E+04  0.19755779099E+04  0.50400001928E-02 0. -1.
    10030    2    1    2    0    0  0.00000000000E+00  0.00000000000E+00 -0.95175939975E+03  0.29993964201E+04  0.28443862132E+04 0.  0.
        1    1    3    3  502    0  0.37079525447E+03 -0.13111015364E+04 -0.90571735571E+03  0.16360929949E+04  0.50400001928E-02 0.  1.
       -1    1    3    3    0  502 -0.37079525447E+03  0.13111015364E+04 -0.46042044047E+02  0.13633034253E+04  0.50400001928E-02 0. -1.
</event>
<event>
 5   0  0.6733688E-06  0.2902891E+04  0.7818609E-02  0.8272018E-01
        2   -1    0    0  501    0  0.00000000000E+00  0.00000000000E+00  0.10766757871E+04  0.10766757871E+04  0.25500000920E-02 0. -1.
       -2   -1    0    0    0  501  0.00000000000E+00  0.00000000000E+00 -0.19566649242E+04  0.19566649243E+04  0.25500000920E-02 0.  1.
    10030    2    1    2    0    0  0.00000000000E+00  0.00000000000E+00 -0.87998913712E+03  0.30333407114E+04  0.29028907988E+04 0.  0.
        5    1    3    3  502    0 -0.45703959508E+03  0.79093658050E+03  0.73861287425E+03  0.11747497324E+04  0.46999998093E+01 0. -1.
       -5    1    3    3    0  502  0.45703959508E+03 -0.79093658050E+03 -0.16186020114E+04  0.18585909790E+04  0.46999998093E+01 0.  1.
</event>
<event>
 5   0  0.2348684E-06  0.2870911E+04  0.7818609E-02  0.8281585E-01
        1   -1    0    0  501    0  0.00000000000E+00  0.00000000000E+00  0.22223069216E+04  0.22223069216E+04  0.50400001928E-02 0. -1.
       -1   -1    0    0    0  501  0.00000000000E+00  0.00000000000E+00 -0.92720445738E+03  0.92720445739E+03  0.50400001928E-02 0.  1.
    10030    2    1    2    0    0  0.00000000000E+00  0.00000000000E+00  0.12951024642E+04  0.31495113790E+04  0.28709112723E+04 0.  0.
        5    1    3    3  502    0  0.11329139737E+04 -0.19288224304E+03 -0.29604117595E+03  0.11867434851E+04  0.46999998093E+01 0.  1.
       -5    1    3    3    0  502 -0.11329139737E+04  0.19288224304E+03  0.15911436401E+04  0.19627678938E+04  0.46999998093E+01 0. -1.
</event>
<event>
 5   0  0.2336512E-06  0.2891194E+04  0.7818609E-02  0.8275502E-01
        1   -1    0    0  501    0  0.00000000000E+00  0.00000000000E+00  0.14968196824E+04  0.14968196824E+04  0.50400001928E-02 0.  1.
       -1   -1    0    0    0  501  0.00000000000E+00  0.00000000000E+00 -0.13961273349E+04  0.13961273349E+04  0.50400001928E-02 0. -1.
    10030    2    1    2    0    0  0.00000000000E+00  0.00000000000E+00  0.10069234753E+03  0.28929470173E+04  0.28911941298E+04 0.  0.
        4    1    3    3  502    0  0.37060335091E+02 -0.59065677090E+03  0.13700470023E+04  0.14924072135E+04  0.12699999809E+01 0.  1.
       -4    1    3    3    0  502 -0.37060335091E+02  0.59065677090E+03 -0.12693546548E+04  0.14005398038E+04  0.12699999809E+01 0. -1.
</event>
<event>
 5   0  0.6733688E-06  0.3069467E+04  0.7818609E-02  0.8224168E-01
       -2   -1    0    0    0  501  0.00000000000E+00  0.00000000000E+00  0.32595412665E+04  0.32595412665E+04  0.25500000920E-02 0. -1.
        2   -1    0    0  501    0  0.00000000000E+00  0.00000000000E+00 -0.72261898546E+03  0.72261898546E+03  0.25500000920E-02 0.  1.
    10030    2    1    2    0    0  0.00000000000E+00  0.00000000000E+00  0.25369222810E+04  0.39821602519E+04  0.30694666658E+04 0.  0.
        5    1    3    3  502    0  0.35360292706E+03  0.28842746443E+03  0.31694864661E+04  0.32021698863E+04  0.46999998093E+01 0. -1.
       -5    1    3    3    0  502 -0.35360292706E+03 -0.28842746443E+03 -0.63256418505E+03  0.77999036563E+03  0.46999998093E+01 0.  1.
</event>
<event>
 5   0  0.2159500E-06  0.2891710E+04  0.7818609E-02  0.8275348E-01
        3   -1    0    0  501    0  0.00000000000E+00  0.00000000000E+00  0.22883741428E+04  0.22883741450E+04  0.10100000352E+00 0. -1.
       -3   -1    0    0    0  501  0.00000000000E+00  0.00000000000E+00 -0.91352932824E+03  0.91352933382E+03  0.10100000352E+00 0.  1.
    10030    2    1    2    0    0  0.00000000000E+00  0.00000000000E+00  0.13748448146E+04  0.32019034789E+04  0.28917101556E+04 0.  0.
        2    1    3    3  502    0  0.63368884369E+03 -0.75144105161E+03 -0.48663441211E+03  0.10968310060E+04  0.25500000920E-02 0.  1.
       -2    1    3    3    0  502 -0.63368884369E+03  0.75144105161E+03  0.18614792267E+04  0.21050724729E+04  0.25500000920E-02 0. -1.
</event>
<event>
 5   0  0.6733688E-06  0.2823264E+04  0.7818609E-02  0.8296082E-01
       -2   -1    0    0    0  501  0.00000000000E+00  0.00000000000E+00  0.11121683301E+04  0.11121683301E+04  0.25500000920E-02 0.  1.
        2   -1    0    0  501    0  0.00000000000E+00  0.00000000000E+00 -0.17917295442E+04  0.17917295442E+04  0.25500000920E-02 0. -1.
    10030    2    1    2    0    0  0.00000000000E+00  0.00000000000E+00 -0.67956121406E+03  0.29038978743E+04  0.28232639658E+04 0.  0.
        5    1    3    3  502    0  0.66144678927E+03 -0.99077212851E+03 -0.11187354421E+04  0.16342375424E+04  0.46999998093E+01 0. -1.
       -5    1    3    3    0  502 -0.66144678927E+03  0.99077212851E+03  0.43917422804E+03  0.12696603318E+04  0.46999998093E+01 0.  1.
</event>
<event>
 5   0  0.6393633E-06  0.2559855E+04  0.7818609E-02  0.8381967E-01
        2   -1    0    0  501    0  0.00000000000E+00  0.00000000000E+00  0.28177487518E+04  0.28177487518E+04  0.25500000920E-02 0.  1.
       -2   -1    0    0    0  501  0.00000000000E+00  0.00000000000E+00 -0.58139127995E+03  0.58139127996E+03  0.25500000920E-02 0. -1.
    10030    2    1    2    0    0  0.00000000000E+00  0.00000000000E+00  0.22363574719E+04  0.33991400318E+04  0.25598551158E+04 0.  0.
        4    1    3    3  502    0  0.28978133341E+03  0.12274607318E+04  0.82853422561E+03  0.15090075034E+04  0.12699999809E+01 0. -1.
       -4    1    3    3    0  502 -0.28978133341E+03 -0.12274607318E+04  0.14078232463E+04  0.18901325284E+04  0.12699999809E+01 0.  1.
</event>
<event>
 5   0  0.6513041E-06  0.2908975E+04  0.7818609E-02  0.8270212E-01
       -2   -1    0    0    0  501  0.00000000000E+00  0.00000000000E+00  0.12116020289E+04  0.12116020289E+04  0.25500000920E-02 0.  1.
        2   -1    0    0  501    0  0.00000000000E+00  0.00000000000E+00 -0.17460636289E+04  0.17460636289E+04  0.25500000920E-02 0. -1.
    10030    2    1    2    0    0  0.00000000000E+00  0.00000000000E+00 -0.53446159994E+03  0.29576656578E+04  0.29089752391E+04 0.  0.
        1    1    3    3  502    0 -0.12196216034E+04 -0.11343249202E+03  0.53023826744E+03  0.13347270905E+04  0.50400001928E-02 0.  1.
       -1    1    3    3    0  502  0.12196216034E+04  0.11343249202E+03 -0.10646998674E+04  0.16229385673E+04  0.50400001928E-02 0. -1.
</event>
<event>
 5   0  0.6513041E-06  0.2894296E+04  0.7818609E-02  0.8274577E-01
       -2   -1    0    0    0  501  0.00000000000E+00  0.00000000000E+00  0.14030947329E+04  0.14030947329E+04  0.25500000920E-02 0. -1.
        2   -1    0    0  501    0  0.00000000000E+00  0.00000000000E+00 -0.14925845714E+04  0.14925845714E+04  0.25500000920E-02 0.  1.
    10030    2    1    2    0    0  0.00000000000E+00  0.00000000000E+00 -0.89489838506E+02  0.28956793042E+04  0.28942961496E+04 0.  0.
        1    1    3    3  502    0  0.10454414185E+04  0.59914788596E+03  0.75708153114E+03  0.14230595187E+04  0.50400001928E-02 0. -1.
       -1    1    3    3    0  502 -0.10454414185E+04 -0.59914788596E+03 -0.84657136965E+03  0.14726197855E+04  0.50400001928E-02 0.  1.
</event>
<event>
 5   0  0.2429358E-06  0.2897060E+04  0.7818609E-02  0.8273753E-01
       -1   -1    0    0    0  501  0.00000000000E+00  0.00000000000E+00  0.17514451746E+04  0.17514451746E+04  0.50400001928E-02 0.  1.
        1   -1    0    0  501    0  0.00000000000E+00  0.00000000000E+00 -0.11980048375E+04  0.11980048375E+04  0.50400001928E-02 0. -1.
    10030    2    1    2    0    0  0.00000000000E+00  0.00000000000E+00  0.55344033716E+03  0.29494500121E+04  0.28970604355E+04 0.  0.
        2    1    3    3  502    0  0.85736532394E+03  0.14432645680E+03  0.14562633369E+04  0.16960567005E+04  0.25500000920E-02 0.  1.
       -2    1    3    3    0  502 -0.85736532394E+03 -0.14432645680E+03 -0.90282299972E+03  0.12533933116E+04  0.25500000920E-02 0. -1.
</event>
<event>
 5   0  0.6513041E-06  0.2861465E+04  0.7818609E-02  0.8284436E-01
       -2   -1    0    0    0  501  0.00000000000E+00  0.00000000000E+00  0.17788999328E+04  0.17788999328E+04  0.25500000920E-02 0.  1.
        2   -1    0    0  501    0  0.00000000000E+00  0.00000000000E+00 -0.11507089566E+04  0.11507089566E+04  0.25500000920E-02 0. -1.
    10030    2    1    2    0    0  0.00000000000E+00  0.00000000000E+00  0.62819097622E+03  0.29296088895E+04  0.28614654188E+04 0.  0.
        1    1    3    3  502    0  0.15495975574E+02  0.23339441768E+03  0.17591913528E+04  0.17746738561E+04  0.50400001928E-02 0.  1.
       -1    1    3    3    0  502 -0.15495975574E+02 -0.23339441768E+03 -0.11310003766E+04  0.11549350334E+04  0.50400001928E-02 0. -1.
</event>
<event>
 5   0  0.2348684E-06  0.2894730E+04  0.7818609E-02  0.8274447E-01
        1   -1    0    0  501    0  0.00000000000E+00  0.00000000000E+00  0.20798098414E+04  0.20798098414E+04  0.50400001928E-02 0.  1.
       -1   -1    0    0    0  501  0.00000000000E+00  0.00000000000E+00 -0.10072390060E+04  0.10072390061E+04  0.50400001928E-02 0. -1.
    10030    2    1    2    0    0  0.00000000000E+00  0.00000000000E+00  0.10725708353E+04  0.30870488474E+04  0.28947301065E+04 0.  0.
        5    1    3    3  502    0  0.69523538416E+03  0.10758655257E+04  0.12548496051E+04  0.17931838975E+04  0.46999998093E+01 0.  1.
       -5    1    3    3    0  502 -0.69523538416E+03 -0.10758655257E+04 -0.18227876977E+03  0.12938649499E+04  0.46999998093E+01 0. -1.
</event>
<event>
 5   0  0.2508094E-06  0.3002961E+04  0.7818609E-02  0.8242886E-01
       -1   -1    0    0    0  501  0.00000000000E+00  0.00000000000E+00  0.24054672277E+04  0.24054672277E+04  0.50400001928E-02 0.  1.
        1   -1    0    0  501    0  0.00000000000E+00  0.00000000000E+00 -0.93721653761E+03  0.93721653762E+03  0.50400001928E-02 0. -1.
    10030    2    1    2    0    0  0.00000000000E+00  0.00000000000E+00  0.14682506901E+04  0.33426837653E+04  0.30029609831E+04 0.  0.
        3    1    3    3  502    0 -0.13806010490E+04  0.58707558060E+03  0.66617281573E+03  0.16414942048E+04  0.10100000352E+00 0.  1.
       -3    1    3    3    0  502  0.13806010490E+04 -0.58707558060E+03  0.80207787432E+03  0.17011895604E+04  0.10100000352E+00 0. -1.
</event>
<event>
 5   0  0.6393633E-06  0.2897997E+04  0.7818609E-02  0.8273474E-01
        2   -1    0    0  501    0  0.00000000000E+00  0.00000000000E+00  0.12319712848E+04  0.12319712848E+04  0.25500000920E-02 0. -1.
       -2   -1    0    0    0  501  0.00000000000E+00  0.00000000000E+00 -0.17042573592E+04  0.17042573592E+04  0.25500000920E-02 0.  1.
    10030    2    1    2    0    0  0.00000000000E+00  0.00000000000E+00 -0.47228607435E+03  0.29362286440E+04  0.28979966380E+04 0.  0.
        4    1    3    3  502    0  0.11705336860E+04  0.71054749546E+03  0.24399443618E+03  0.13908852401E+04  0.12699999809E+01 0. -1.
       -4    1    3    3    0  502 -0.11705336860E+04 -0.71054749546E+03 -0.71628051053E+03  0.15453434039E+04  0.12699999809E+01 0.  1.
</event>
<event>
 5   0  0.2474769E-06  0.2915989E+04  0.7818609E-02  0.8268136E-01
       -1   -1    0    0    0  501  0.00000000000E+00  0.00000000000E+00  0.16062198078E+04  0.16062198078E+04  0.50400001928E-02 0.  1.
        1   -1    0    0  501    0  0.00000000000E+00  0.00000000000E+00 -0.13234473357E+04  0.13234473357E+04  0.50400001928E-02 0. -1.
    10030    2    1    2    0    0  0.00000000000E+00  0.00000000000E+00  0.28277247211E+03  0.29296671435E+04  0.29159885632E+04 0.  0.
        1    1    3    3  502    0 -0.91198652244E+02  0.14433635408E+04 -0.44228387512E+02  0.14469179850E+04  0.50400001928E-02 0.  1.
       -1    1    3    3    0  502  0.91198652244E+02 -0.14433635408E+04  0.32700085962E+03  0.14827491585E+04  0.50400001928E-02 0. -1.
</event>
<event>
 5   0  0.6612533E-06  0.2886116E+04  0.7818609E-02  0.8277020E-01
       -2   -1    0    0    0  501  0.00000000000E+00  0.00000000000E+00  0.91191668754E+03  0.91191668754E+03  0.25500000920E-02 0. -1.
        2   -1    0    0  501    0  0.00000000000E+00  0.00000000000E+00 -0.22835600712E+04  0.22835600712E+04  0.25500000920E-02 0.  1.
    10030    2    1    2    0    0  0.00000000000E+00  0.00000000000E+00 -0.13716433837E+04  0.31954767588E+04  0.28861161002E+04 0.  0.
        3    1    3    3  502    0 -0.10086971350E+04  0.87273110816E+03 -0.12955674443E+04  0.18594688785E+04  0.10100000352E+00 0.  1.
       -3    1    3    3    0  502  0.10086971350E+04 -0.87273110816E+03 -0.76075939396E+02  0.13360078802E+04  0.10100000352E+00 0. -1.
</event>
<event>
 5   0  0.6612533E-06  0.2904302E+04  0.7818609E-02  0.8271599E-01
       -2   -1    0    0    0  501  0.00000000000E+00  0.00000000000E+00  0.84053702777E+03  0.84053702778E+03  0.25500000920E-02 0. -1.
        2   -1    0    0  501    0  0.00000000000E+00  0.00000000000E+00 -0.25088039884E+04  0.25088039884E+04  0.25500000920E-02 0.  1.
    10030    2    1    2    0    0  0.00000000000E+00  0.00000000000E+00 -0.16682669606E+04  0.33493410161E+04  0.29043020832E+04 0.  0.
        3    1    3    3  502    0  0.12836796044E+04 -0.67705484228E+03 -0.89186494278E+03  0.17034258635E+04  0.10100000352E+00 0.  1.
       -3    1    3    3    0  502 -0.12836796044E+04  0.67705484228E+03 -0.77640201780E+03  0.16459151526E+04  0.10100000352E+00 0. -1.
</event>
<event>
 5   0  0.6612533E-06  0.2897028E+04  0.7818609E-02  0.8273762E-01
       -2   -1    0    0    0  501  0.00000000000E+00  0.00000000000E+00  0.15864410014E+04  0.15864410014E+04  0.25500000920E-02 0.  1.
        2   -1    0    0  501    0  0.00000000000E+00  0.00000000000E+00 -0.13225781708E+04  0.13225781708E+04  0.25500000920E-02 0. -1.
    10030    2    1    2    0    0  0.00000000000E+00  0.00000000000E+00  0.26386283068E+03  0.29090191722E+04  0.28970276061E+04 0.  0.
        3    1    3    3  502    0 -0.17846331303E+03 -0.12047412855E+04 -0.65549658560E+03  0.13830858625E+04  0.10100000352E+00 0. -1.
       -3    1    3    3    0  502  0.17846331303E+03  0.12047412855E+04  0.91935941627E+03  0.15259333097E+04  0.10100000352E+00 0.  1.
</event>
<event>
 5   0  0.2429358E-06  0.2891275E+04  0.7818609E-02  0.8275478E-01
        1   -1    0    0  501    0  0.00000000000E+00  0.00000000000E+00  0.22341447929E+04  0.22341447929E+04  0.50400001928E-02 0.  1.
       -1   -1    0    0    0  501  0.00000000000E+00  0.00000000000E+00 -0.93542197084E+03  0.93542197086E+03  0.50400001928E-02 0. -1.
    10030    2    1    2    0    0  0.00000000000E+00  0.00000000000E+00  0.12987228221E+04  0.31695667638E+04  0.28912752379E+04 0.  0.
        2    1    3    3  502    0  0.89203209378E+03 -0.37944661646E+03 -0.52632349951E+03  0.11030491454E+04  0.25500000920E-02 0. -1.
       -2    1    3    3    0  502 -0.89203209378E+03  0.37944661646E+03  0.18250463216E+04  0.20665176184E+04  0.25500000920E-02 0.  1.
</event>
<event>
 5   0  0.6733688E-06  0.2845550E+04  0.7818609E-02  0.8289265E-01
       -2   -1    0    0    0  501  0.00000000000E+00  0.00000000000E+00  0.13856054355E+04  0.13856054355E+04  0.25500000920E-02 0. -1.
        2   -1    0    0  501    0  0.00000000000E+00  0.00000000000E+00 -0.14609415077E+04  0.14609415077E+04  0.25500000920E-02 0.  1.
    10030    2    1    2    0    0  0.00000000000E+00  0.00000000000E+00 -0.75336072201E+02  0.28465469432E+04  0.28455498548E+04 0.  0.
        5    1    3    3  502    0 -0.84013449211E+02  0.14051789353E+04  0.16899647502E+03  0.14178039351E+04  0.46999998093E+01 0. -1.
       -5    1    3    3    0  502  0.84013449211E+02 -0.14051789353E+04 -0.24433254722E+03  0.14287430082E+04  0.46999998093E+01 0.  1.
</event>
<event>
 5   0  0.6733688E-06  0.2917053E+04  0.7818609E-02  0.8267822E-01
       -2   -1    0    0    0  501  0.00000000000E+00  0.00000000000E+00  0.75285241942E+03  0.75285241943E+03  0.25500000920E-02 0.  1.
        2   -1    0    0  501    0  0.00000000000E+00  0.00000000000E+00 -0.28256520052E+04  0.28256520052E+04  0.25500000920E-02 0. -1.
    10030    2    1    2    0    0  0.00000000000E+00  0.00000000000E+00 -0.20727995858E+04  0.35785044246E+04  0.29170525868E+04 0.  0.
        5    1    3    3  502    0  0.36442419228E+03  0.31493210860E+03 -0.27252654084E+04  0.27675044465E+04  0.46999998093E+01 0. -1.
       -5    1    3    3    0  502 -0.36442419228E+03 -0.31493210860E+03  0.65246582261E+03  0.81099997818E+03  0.46999998093E+01 0.  1.
</event>
<event>
 5   0  0.6393633E-06  0.2856079E+04  0.7818609E-02  0.8286067E-01
        2   -1    0    0  501    0  0.00000000000E+00  0.00000000000E+00  0.10398104079E+04  0.10398104079E+04  0.25500000920E-02 0. -1.
       -2   -1    0    0    0  501  0.00000000000E+00  0.00000000000E+00 -0.19612193793E+04  0.19612193793E+04  0.25500000920E-02 0.  1.
    10030    2    1    2    0    0  0.00000000000E+00  0.00000000000E+00 -0.92140897136E+03  0.30010297872E+04  0.28560786563E+04 0.  0.
        4    1    3    3  502    0 -0.31802660805E+03  0.95425467878E+03 -0.15258329807E+04  0.18275422877E+04  0.12699999809E+01 0.  1.
       -4    1    3    3    0  502  0.31802660805E+03 -0.95425467878E+03  0.60442400936E+03  0.11734874995E+04  0.12699999809E+01 0. -1.
</event>
<event>
 5   0  0.6393633E-06  0.2907684E+04  0.7818609E-02  0.8270595E-01
       -2   -1    0    0    0  501  0.00000000000E+00  0.00000000000E+00  0.71922761681E+03  0.71922761681E+03  0.25500000920E-02 0.  1.
        2   -1    0    0  501    0  0.00000000000E+00  0.00000000000E+00 -0.29387862954E+04  0.29387862954E+04  0.25500000920E-02 0. -1.
    10030    2    1    2    0    0  0.00000000000E+00  0.00000000000E+00 -0.22195586786E+04  0.36580139122E+04  0.29076837954E+04 0.  0.
        4    1    3    3  502    0  0.62221922675E+03  0.12243150337E+04 -0.17098980296E+04  0.21931386076E+04  0.12699999809E+01 0. -1.
       -4    1    3    3    0  502 -0.62221922675E+03 -0.12243150337E+04 -0.50966064899E+03  0.14648753046E+04  0.12699999809E+01 0.  1.
</event>
<event>
 5   0  0.2336512E-06  0.2976475E+04  0.7818609E-02  0.8250481E-01
       -1   -1    0    0    0  501  0.00000000000E+00  0.00000000000E+00  0.20002140550E+04  0.20002140550E+04  0.50400001928E-02 0. -1.
        1   -1    0    0  501    0  0.00000000000E+00  0.00000000000E+00 -0.11073068659E+04  0.11073068659E+04  0.50400001928E-02 0.  1.
    10030    2    1    2    0    0  0.00000000000E+00  0.00000000000E+00  0.89290718904E+03  0.31075209209E+04  0.29764749328E+04 0.  0.
        4    1    3    3  502    0 -0.43327318356E+03  0.13799067456E+03  0.19259113217E+04  0.19788640958E+04  0.12699999809E+01 0. -1.
       -4    1    3    3    0  502  0.43327318356E+03 -0.13799067456E+03 -0.10330041326E+04  0.11286568251E+04  0.12699999809E+01 0.  1.
</event>
<event>
 5   0  0.6612533E-06  0.2881423E+04  0.7818609E-02  0.8278426E-01
       -2   -1    0    0    0  501  0.00000000000E+00  0.00000000000E+00  0.17750907531E+04  0.17750907531E+04  0.25500000920E-02 0.  1.
        2   -1    0    0  501    0  0.00000000000E+00  0.00000000000E+00 -0.11693206488E+04  0.11693206488E+04  0.25500000920E-02 0. -1.
    10030    2    1    2    0    0  0.00000000000E+00  0.00000000000E+00  0.60577010421E+03  0.29444114019E+04  0.28814234476E+04 0.  0.
        3    1    3    3  502    0 -0.45323975597E+03 -0.27700397944E+03  0.16713737696E+04  0.17537524823E+04  0.10100000352E+00 0.  1.
       -3    1    3    3    0  502  0.45323975597E+03  0.27700397944E+03 -0.10656036654E+04  0.11906589197E+04  0.10100000352E+00 0. -1.
</event>
<event>
 5   0  0.2336512E-06  0.2769829E+04  0.7818609E-02  0.8312697E-01
       -1   -1    0    0    0  501  0.00000000000E+00  0.00000000000E+00  0.13140887692E+04  0.13140887692E+04  0.50400001928E-02 0.  1.
        1   -1    0    0  501    0  0.00000000000E+00  0.00000000000E+00 -0.14595576558E+04  0.14595576559E+04  0.50400001928E-02 0. -1.
    10030    2    1    2    0    0  0.00000000000E+00  0.00000000000E+00 -0.14546888668E+03  0.27736464250E+04  0.27698291092E+04 0.  0.
        4    1    3    3  502    0  0.92558150970E+03  0.34621903336E+03 -0.10443385965E+04  0.14377807438E+04  0.12699999809E+01 0. -1.
       -4    1    3    3    0  502 -0.92558150970E+03 -0.34621903336E+03  0.89886970983E+03  0.13358656812E+04  0.12699999809E+01 0.  1.
</event>
<event>
 5   0  0.6513041E-06  0.2899573E+04  0.7818609E-02  0.8273005E-01
        2   -1    0    0  501    0  0.00000000000E+00  0.00000000000E+00  0.21113131011E+04  0.21113131012E+04  0.25500000920E-02 0. -1.
       -2   -1    0    0    0  501  0.00000000000E+00  0.00000000000E+00 -0.99553252852E+03  0.99553252852E+03  0.25500000920E-02 0.  1.
    10030    2    1    2    0    0  0.00000000000E+00  0.00000000000E+00  0.11157805726E+04  0.31068456297E+04  0.28995729824E+04 0.  0.
        1    1    3    3  502    0  0.23199335416E+02  0.13415071080E+04  0.11464279353E+04  0.17647879592E+04  0.50400001928E-02 0.  1.
       -1    1    3    3    0  502 -0.23199335416E+02 -0.13415071080E+04 -0.30647362660E+02  0.13420576705E+04  0.50400001928E-02 0. -1.
</event>
<event>
 5   0  0.6615403E-06  0.2851013E+04  0.7818609E-02  0.8287604E-01
       -2   -1    0    0    0  501  0.00000000000E+00  0.00000000000E+00  0.16211079919E+04  0.16211079919E+04  0.25500000920E-02 0.  1.
        2   -1    0    0  501    0  0.00000000000E+00  0.00000000000E+00 -0.12535057112E+04  0.12535057112E+04  0.25500000920E-02 0. -1.
    10030    2    1    2    0    0  0.00000000000E+00  0.00000000000E+00  0.36760228071E+03  0.28746137031E+04  0.28510125403E+04 0.  0.
        2    1    3    3  502    0 -0.15130862627E+03 -0.87650681630E+03 -0.93938165084E+03  0.12936755333E+04  0.25500000920E-02 0. -1.
       -2    1    3    3    0  502  0.15130862627E+03  0.87650681630E+03  0.13069839316E+04  0.15809381698E+04  0.25500000920E-02 0.  1.
</event>
<event>
 5   0  0.2336512E-06  0.2906695E+04  0.7818609E-02  0.8270888E-01
       -1   -1    0    0    0  501  0.00000000000E+00  0.00000000000E+00  0.11756899440E+04  0.11756899440E+04  0.50400001928E-02 0. -1.
        1   -1    0    0  501    0  0.00000000000E+00  0.00000000000E+00 -0.17965779690E+04  0.17965779690E+04  0.50400001928E-02 0.  1.
    10030    2    1    2    0    0  0.00000000000E+00  0.00000000000E+00 -0.62088802502E+03  0.29722679131E+04  0.29066947909E+04 0.  0.
        4    1    3    3  502    0 -0.48963098972E+03  0.13412885621E+04 -0.58752462537E+03  0.15440143494E+04  0.12699999809E+01 0. -1.
       -4    1    3    3    0  502  0.48963098972E+03 -0.13412885621E+04 -0.33363399650E+02  0.14282535637E+04  0.12699999809E+01 0.  1.
</event>
<event>
 5   0  0.2429358E-06  0.2965139E+04  0.7818609E-02  0.8253756E-01
        1   -1    0    0  501    0  0.00000000000E+00  0.00000000000E+00  0.11347207499E+04  0.11347207499E+04  0.50400001928E-02 0.  1.
       -1   -1    0    0    0  501  0.00000000000E+00  0.00000000000E+00 -0.19370516837E+04  0.19370516837E+04  0.50400001928E-02 0. -1.
    10030    2    1    2    0    0  0.00000000000E+00  0.00000000000E+00 -0.80233093379E+03  0.30717724336E+04  0.29651392812E+04 0.  0.
        2    1    3    3  502    0 -0.20595182934E+03  0.44383624836E+03 -0.18509967862E+04  0.19145745934E+04  0.25500000920E-02 0. -1.
       -2    1    3    3    0  502  0.20595182934E+03 -0.44383624836E+03  0.10486658524E+04  0.11571978402E+04  0.25500000920E-02 0.  1.
</event>
<event>
 5   0  0.6393633E-06  0.2897874E+04  0.7818609E-02  0.8273510E-01
        2   -1    0    0  501    0  0.00000000000E+00  0.00000000000E+00  0.16707008791E+04  0.16707008791E+04  0.25500000920E-02 0. -1.
       -2   -1    0    0    0  501  0.00000000000E+00  0.00000000000E+00 -0.12566096442E+04  0.12566096442E+04  0.25500000920E-02 0.  1.
    10030    2    1    2    0    0  0.00000000000E+00  0.00000000000E+00  0.41409123485E+03  0.29273105233E+04  0.28978742811E+04 0.  0.
        4    1    3    3  502    0 -0.39833154862E+03 -0.12945524867E+04  0.72694146245E+03  0.15371986424E+04  0.12699999809E+01 0. -1.
       -4    1    3    3    0  502  0.39833154862E+03  0.12945524867E+04 -0.31285022759E+03  0.13901118809E+04  0.12699999809E+01 0.  1.
</event>
<event>
 5   0  0.6393633E-06  0.2921789E+04  0.7818609E-02  0.8266424E-01
        2   -1    0    0  501    0  0.00000000000E+00  0.00000000000E+00  0.13968604478E+04  0.13968604478E+04  0.25500000920E-02 0. -1.
       -2   -1    0    0    0  501  0.00000000000E+00  0.00000000000E+00 -0.15278643864E+04  0.15278643864E+04  0.25500000920E-02 0.  1.
    10030    2    1    2    0    0  0.00000000000E+00  0.00000000000E+00 -0.13100393859E+03  0.29247248343E+04  0.29217894045E+04 0.  0.
        4    1    3    3  502    0  0.73061126895E+03  0.82563377958E+03 -0.10249782614E+04  0.15053391689E+04  0.12699999809E+01 0.  1.
       -4    1    3    3    0  502 -0.73061126895E+03 -0.82563377958E+03  0.89397432279E+03  0.14193856654E+04  0.12699999809E+01 0. -1.
</event>
<event>
 5   0  0.2336512E-06  0.2935494E+04  0.7818609E-02  0.8262395E-01
        1   -1    0    0  501    0  0.00000000000E+00  0.00000000000E+00  0.16573923399E+04  0.16573923399E+04  0.50400001928E-02 0.  1.
       -1   -1    0    0    0  501  0.00000000000E+00  0.00000000000E+00 -0.12998016229E+04  0.12998016229E+04  0.50400001928E-02 0. -1.
    10030    2    1    2    0    0  0.00000000000E+00  0.00000000000E+00  0.35759071695E+03  0.29571939628E+04  0.29354939981E+04 0.  0.
        4    1    3    3  502    0 -0.80128149594E+03 -0.12294791902E+04  0.20364602470E+03  0.14816019813E+04  0.12699999809E+01 0.  1.
       -4    1    3    3    0  502  0.80128149594E+03  0.12294791902E+04  0.15394469225E+03  0.14755919815E+04  0.12699999809E+01 0. -1.
</event>
<event>
 5   0  0.2429358E-06  0.2768896E+04  0.7818609E-02  0.8312990E-01
        1   -1    0    0  501    0  0.00000000000E+00  0.00000000000E+00  0.17731416104E+04  0.17731416104E+04  0.50400001928E-02 0. -1.
       -1   -1    0    0    0  501  0.00000000000E+00  0.00000000000E+00 -0.10809606490E+04  0.10809606490E+04  0.50400001928E-02 0.  1.
    10030    2    1    2    0    0  0.00000000000E+00  0.00000000000E+00  0.69218096135E+03  0.28541022594E+04  0.27688960298E+04 0.  0.
        2    1    3    3  502    0  0.10075154036E+03 -0.10529279061E+04  0.12668239231E+04  0.16503487208E+04  0.25500000920E-02 0. -1.
       -2    1    3    3    0  502 -0.10075154036E+03  0.10529279061E+04 -0.57464296172E+03  0.12037535386E+04  0.25500000920E-02 0.  1.
</event>
<event>
 5   0  0.6733688E-06  0.2909322E+04  0.7818609E-02  0.8270109E-01
       -2   -1    0    0    0  501  0.00000000000E+00  0.00000000000E+00  0.19548449536E+04  0.19548449536E+04  0.25500000920E-02 0.  1.
        2   -1    0    0  501    0  0.00000000000E+00  0.00000000000E+00 -0.10824583028E+04  0.10824583028E+04  0.25500000920E-02 0. -1.
    10030    2    1    2    0    0  0.00000000000E+00  0.00000000000E+00  0.87238665082E+03  0.30373032564E+04  0.29093216740E+04 0.  0.
        5    1    3    3  502    0 -0.13646127927E+04 -0.47510149603E+03  0.26110600925E+03  0.14683623339E+04  0.46999998093E+01 0. -1.
       -5    1    3    3    0  502  0.13646127927E+04  0.47510149603E+03  0.61128064157E+03  0.15689409225E+04  0.46999998093E+01 0.  1.
</event>
<event>
 5   0  0.6733688E-06  0.2865536E+04  0.7818609E-02  0.8283206E-01
        2   -1    0    0  501    0  0.00000000000E+00  0.00000000000E+00  0.22225509930E+04  0.22225509930E+04  0.25500000920E-02 0.  1.
       -2   -1    0    0    0  501  0.00000000000E+00  0.00000000000E+00 -0.92363441208E+03  0.92363441208E+03  0.25500000920E-02 0. -1.
    10030    2    1    2    0    0  0.00000000000E+00  0.00000000000E+00  0.12989165809E+04  0.31461854050E+04  0.28655363056E+04 0.  0.
        5    1    3    3  502    0  0.24096353122E+03 -0.53438316772E+03  0.20848535152E+04  0.21657019793E+04  0.46999998093E+01 0.  1.
       -5    1    3    3    0  502 -0.24096353122E+03  0.53438316772E+03 -0.78593693435E+03  0.98048342571E+03  0.46999998093E+01 0. -1.
</event>
<event>
 5   0  0.2348684E-06  0.2866884E+04  0.7818609E-02  0.8282799E-01
        1   -1    0    0  501    0  0.00000000000E+00  0.00000000000E+00  0.14153000799E+04  0.14153000799E+04  0.50400001928E-02 0. -1.
       -1   -1    0    0    0  501  0.00000000000E+00  0.00000000000E+00 -0.14518161376E+04  0.14518161376E+04  0.50400001928E-02 0.  1.
    10030    2    1    2    0    0  0.00000000000E+00  0.00000000000E+00 -0.36516057694E+02  0.28671162174E+04  0.28668836708E+04 0.  0.
        5    1    3    3  502    0 -0.13355337698E+03 -0.22817053551E+03 -0.14272140678E+04  0.14515028016E+04  0.46999998093E+01 0.  1.
       -5    1    3    3    0  502  0.13355337698E+03  0.22817053551E+03  0.13906980101E+04  0.14156134158E+04  0.46999998093E+01 0. -1.
</event>
<event>
 5   0  0.6615403E-06  0.2868162E+04  0.7818609E-02  0.8282414E-01
        2   -1    0    0  501    0  0.00000000000E+00  0.00000000000E+00  0.23811748657E+04  0.23811748657E+04  0.25500000920E-02 0. -1.
       -2   -1    0    0    0  501  0.00000000000E+00  0.00000000000E+00 -0.86368653345E+03  0.86368653345E+03  0.25500000920E-02 0.  1.
    10030    2    1    2    0    0  0.00000000000E+00  0.00000000000E+00  0.15174883322E+04  0.32448613991E+04  0.28681622446E+04 0.  0.
        2    1    3    3  502    0 -0.16097369686E+02 -0.17428246596E+03  0.23690462361E+04  0.23755028040E+04  0.25500000920E-02 0. -1.
       -2    1    3    3    0  502  0.16097369686E+02  0.17428246596E+03 -0.85155790385E+03  0.86935859510E+03  0.25500000920E-02 0.  1.
</event>
<event>
 5   0  0.2336512E-06  0.2673395E+04  0.7818609E-02  0.8343689E-01
       -1   -1    0    0    0  501  0.00000000000E+00  0.00000000000E+00  0.18473699155E+04  0.18473699155E+04  0.50400001928E-02 0.  1.
        1   -1    0    0  501    0  0.00000000000E+00  0.00000000000E+00 -0.96719106035E+03  0.96719106037E+03  0.50400001928E-02 0. -1.
    10030    2    1    2    0    0  0.00000000000E+00  0.00000000000E+00  0.88017885516E+03  0.28145609759E+04  0.26733945967E+04 0.  0.
        4    1    3    3  502    0 -0.26086525143E+03 -0.24625421786E+03 -0.91556355416E+03  0.98333618555E+03  0.12699999809E+01 0. -1.
       -4    1    3    3    0  502  0.26086525143E+03  0.24625421786E+03  0.17957424093E+04  0.18312247903E+04  0.12699999809E+01 0.  1.
</event>
<event>
 5   0  0.6612533E-06  0.2879208E+04  0.7818609E-02  0.8279091E-01
        2   -1    0    0  501    0  0.00000000000E+00  0.00000000000E+00  0.17176609992E+04  0.17176609992E+04  0.25500000920E-02 0. -1.
       -2   -1    0    0    0  501  0.00000000000E+00  0.00000000000E+00 -0.12065595564E+04  0.12065595564E+04  0.25500000920E-02 0.  1.
    10030    2    1    2    0    0  0.00000000000E+00  0.00000000000E+00  0.51110144276E+03  0.29242205557E+04  0.28792084282E+04 0.  0.
        3    1    3    3  502    0 -0.61777152062E+03  0.10404919045E+04 -0.53651008735E+03  0.13236722174E+04  0.10100000352E+00 0.  1.
       -3    1    3    3    0  502  0.61777152062E+03 -0.10404919045E+04  0.10476115301E+04  0.16005483383E+04  0.10100000352E+00 0. -1.
</event>
<event>
 5   0  0.2159500E-06  0.2906842E+04  0.7818609E-02  0.8270845E-01
       -4   -1    0    0    0  501  0.00000000000E+00  0.00000000000E+00  0.94204410576E+03  0.94204496182E+03  0.12699999809E+01 0.  1.
        4   -1    0    0  501    0  0.00000000000E+00  0.00000000000E+00 -0.22423904482E+04  0.22423908079E+04  0.12699999809E+01 0. -1.
    10030    2    1    2    0    0  0.00000000000E+00  0.00000000000E+00 -0.13003463425E+04  0.31844357697E+04  0.29068420254E+04 0.  0.
        5    1    3    3  502    0 -0.11689953649E+04  0.70678967095E+03 -0.10648362628E+03  0.13702053331E+04  0.46999998093E+01 0.  1.
       -5    1    3    3    0  502  0.11689953649E+04 -0.70678967095E+03 -0.11938627162E+04  0.18142304366E+04  0.46999998093E+01 0. -1.
</event>
<event>
 5   0  0.6615403E-06  0.2893514E+04  0.7818609E-02  0.8274810E-01
        2   -1    0    0  501    0  0.00000000000E+00  0.00000000000E+00  0.93848061808E+03  0.93848061808E+03  0.25500000920E-02 0.  1.
       -2   -1    0    0    0  501  0.00000000000E+00  0.00000000000E+00 -0.22303138882E+04  0.22303138882E+04  0.25500000920E-02 0. -1.
    10030    2    1    2    0    0  0.00000000000E+00  0.00000000000E+00 -0.12918332702E+04  0.31687945063E+04  0.28935143728E+04 0.  0.
        2    1    3    3  502    0 -0.19869739194E+03 -0.12260533875E+04  0.16656781826E+03  0.12531689434E+04  0.25500000920E-02 0.  1.
       -2    1    3    3    0  502  0.19869739194E+03  0.12260533875E+04 -0.14584010884E+04  0.19156255629E+04  0.25500000920E-02 0. -1.
</event>
<event>
 5   0  0.2508094E-06  0.2890984E+04  0.7818609E-02  0.8275565E-01
        1   -1    0    0  501    0  0.00000000000E+00  0.00000000000E+00  0.10190976142E+04  0.10190976142E+04  0.50400001928E-02 0.  1.
       -1   -1    0    0    0  501  0.00000000000E+00  0.00000000000E+00 -0.20502909882E+04  0.20502909882E+04  0.50400001928E-02 0. -1.
    10030    2    1    2    0    0  0.00000000000E+00  0.00000000000E+00 -0.10311933740E+04  0.30693886023E+04  0.28909836765E+04 0.  0.
        3    1    3    3  502    0  0.54220215963E+02  0.13317006780E+04  0.78468331931E+02  0.13351119118E+04  0.10100000352E+00 0.  1.
       -3    1    3    3    0  502 -0.54220215963E+02 -0.13317006780E+04 -0.11096617059E+04  0.17342766906E+04  0.10100000352E+00 0. -1.
</event>
<event>
 5   0  0.6615403E-06  0.2896970E+04  0.7818609E-02  0.8273780E-01
        2   -1    0    0  501    0  0.00000000000E+00  0.00000000000E+00  0.23208711294E+04  0.23208711294E+04  0.25500000920E-02 0.  1.
       -2   -1    0    0    0  501  0.00000000000E+00  0.00000000000E+00 -0.90401759320E+03  0.90401759321E+03  0.25500000920E-02 0. -1.
    10030    2    1    2    0    0  0.00000000000E+00  0.00000000000E+00  0.14168535362E+04  0.32248887226E+04  0.28969696806E+04 0.  0.
        2    1    3    3  502    0  0.11634663126E+04 -0.70913248937E+03  0.12555766273E+04  0.18528344273E+04  0.25500000920E-02 0.  1.
       -2    1    3    3    0  502 -0.11634663126E+04  0.70913248937E+03  0.16127690898E+03  0.13720542954E+04  0.25500000920E-02 0. -1.
</event>
<event>
 5   0  0.2348684E-06  0.2892926E+04  0.7818609E-02  0.8274985E-01
       -1   -1    0    0    0  501  0.00000000000E+00  0.00000000000E+00  0.97841069433E+03  0.97841069434E+03  0.50400001928E-02 0. -1.
        1   -1    0    0  501    0  0.00000000000E+00  0.00000000000E+00 -0.21384219258E+04  0.21384219258E+04  0.50400001928E-02 0.  1.
    10030    2    1    2    0    0  0.00000000000E+00  0.00000000000E+00 -0.11600112314E+04  0.31168326201E+04  0.28929257724E+04 0.  0.
        5    1    3    3  502    0 -0.62512178512E+03 -0.12927776648E+04 -0.39283129267E+03  0.14887544631E+04  0.46999998093E+01 0. -1.
       -5    1    3    3    0  502  0.62512178512E+03  0.12927776648E+04 -0.76717993875E+03  0.16280781570E+04  0.46999998093E+01 0.  1.
</event>
<event>
 5   0  0.2336512E-06  0.2917231E+04  0.7818609E-02  0.8267769E-01
       -1   -1    0    0    0  501  0.00000000000E+00  0.00000000000E+00  0.14655798682E+04  0.14655798682E+04  0.50400001928E-02 0. -1.
        1   -1    0    0  501    0  0.00000000000E+00  0.00000000000E+00 -0.14516843925E+04  0.14516843925E+04  0.50400001928E-02 0.  1.
    10030    2    1    2    0    0  0.00000000000E+00  0.00000000000E+00  0.13895475744E+02  0.29172642607E+04  0.29172311672E+04 0.  0.
        4    1    3    3  502    0 -0.93533778068E+03  0.99941820973E+03  0.51080292107E+03  0.14610320869E+04  0.12699999809E+01 0. -1.
       -4    1    3    3    0  502  0.93533778068E+03 -0.99941820973E+03 -0.49690744533E+03  0.14562321738E+04  0.12699999809E+01 0.  1.
</event>
<event>
 5   0  0.6612533E-06  0.2899885E+04  0.7818609E-02  0.8272912E-01
       -2   -1    0    0    0  501  0.00000000000E+00  0.00000000000E+00  0.14175218162E+04  0.14175218162E+04  0.25500000920E-02 0. -1.
        2   -1    0    0  501    0  0.00000000000E+00  0.00000000000E+00 -0.14831046966E+04  0.14831046966E+04  0.25500000920E-02 0.  1.
    10030    2    1    2    0    0  0.00000000000E+00  0.00000000000E+00 -0.65582880373E+02  0.29006265129E+04  0.28998850068E+04 0.  0.
        3    1    3    3  502    0  0.79190069511E+03 -0.57292465198E+02  0.11807558269E+04  0.14228750720E+04  0.10100000352E+00 0. -1.
       -3    1    3    3    0  502 -0.79190069511E+03  0.57292465198E+02 -0.12463387073E+04  0.14777514409E+04  0.10100000352E+00 0.  1.
</event>
<event>
 5   0  0.2508094E-06  0.2980381E+04  0.7818609E-02  0.8249355E-01
        1   -1    0    0  501    0  0.00000000000E+00  0.00000000000E+00  0.12225747305E+04  0.12225747305E+04  0.50400001928E-02 0. -1.
       -1   -1    0    0    0  501  0.00000000000E+00  0.00000000000E+00 -0.18163862662E+04  0.18163862662E+04  0.50400001928E-02 0.  1.
    10030    2    1    2    0    0  0.00000000000E+00  0.00000000000E+00 -0.59381153573E+03  0.30389609967E+04  0.29803811500E+04 0.  0.
        3    1    3    3  502    0 -0.12229553043E+04 -0.57281960158E+03 -0.93930952774E+03  0.16450058880E+04  0.10100000352E+00 0.  1.
       -3    1    3    3    0  502  0.12229553043E+04  0.57281960158E+03  0.34549799201E+03  0.13939551087E+04  0.10100000352E+00 0. -1.
</event>
<event>
 5   0  0.2429358E-06  0.2494947E+04  0.7818609E-02  0.8404788E-01
        1   -1    0    0  501    0  0.00000000000E+00  0.00000000000E+00  0.90075077651E+03  0.90075077653E+03  0.50400001928E-02 0. -1.
       -1   -1    0    0    0  501  0.00000000000E+00  0.00000000000E+00 -0.17276583581E+04  0.17276583581E+04  0.50400001928E-02 0.  1.
    10030    2    1    2    0    0  0.00000000000E+00  0.00000000000E+00 -0.82690758159E+03  0.26284091346E+04  0.24949465787E+04 0.  0.
        2    1    3    3  502    0  0.61180159903E+02 -0.10896486279E+04  0.22311456517E+03  0.11139377242E+04  0.25500000920E-02 0.  1.
       -2    1    3    3    0  502 -0.61180159903E+02  0.10896486279E+04 -0.10500221468E+04  0.15144714104E+04  0.25500000920E-02 0. -1.
</event>
<event>
 5   0  0.2429358E-06  0.2883942E+04  0.7818609E-02  0.8277671E-01
        1   -1    0    0  501    0  0.00000000000E+00  0.00000000000E+00  0.17001940827E+04  0.17001940827E+04  0.50400001928E-02 0.  1.
       -1   -1    0    0    0  501  0.00000000000E+00  0.00000000000E+00 -0.12229667891E+04  0.12229667891E+04  0.50400001928E-02 0. -1.
    10030    2    1    2    0    0  0.00000000000E+00  0.00000000000E+00  0.47722729366E+03  0.29231608718E+04  0.28839423698E+04 0.  0.
        2    1    3    3  502    0 -0.26868919465E+02 -0.31070819122E+03  0.16656008793E+04  0.16945464904E+04  0.25500000920E-02 0.  1.
       -2    1    3    3    0  502  0.26868919465E+02  0.31070819122E+03 -0.11883735857E+04  0.12286143814E+04  0.25500000920E-02 0. -1.
</event>
<event>
 5   0  0.6393633E-06  0.2888215E+04  0.7818609E-02  0.8276393E-01
       -2   -1    0    0    0  501  0.00000000000E+00  0.00000000000E+00  0.16192620993E+04  0.16192620993E+04  0.25500000920E-02 0.  1.
        2   -1    0    0  501    0  0.00000000000E+00  0.00000000000E+00 -0.12878989352E+04  0.12878989352E+04  0.25500000920E-02 0. -1.
    10030    2    1    2    0    0  0.00000000000E+00  0.00000000000E+00  0.33136316409E+03  0.29071610345E+04  0.28882146274E+04 0.  0.
        4    1    3    3  502    0  0.10848169662E+04 -0.90816822284E+02  0.11207837668E+04  0.15624446903E+04  0.12699999809E+01 0.  1.
       -4    1    3    3    0  502 -0.10848169662E+04  0.90816822284E+02 -0.78942060274E+03  0.13447163442E+04  0.12699999809E+01 0. -1.
</event>
<event>
 5   0  0.2474769E-06  0.2899736E+04  0.7818609E-02  0.8272956E-01
       -1   -1    0    0    0  501  0.00000000000E+00  0.00000000000E+00  0.20237051812E+04  0.20237051812E+04  0.50400001928E-02 0. -1.
        1   -1    0    0  501    0  0.00000000000E+00  0.00000000000E+00 -0.10387466993E+04  0.10387466993E+04  0.50400001928E-02 0.  1.
    10030    2    1    2    0    0  0.00000000000E+00  0.00000000000E+00  0.98495848188E+03  0.30624518806E+04  0.28997359034E+04 0.  0.
        1    1    3    3  502    0  0.10777559054E+04 -0.63571052257E+03 -0.28103431697E+03  0.12824453000E+04  0.50400001928E-02 0.  1.
       -1    1    3    3    0  502 -0.10777559054E+04  0.63571052257E+03  0.12659927989E+04  0.17800065806E+04  0.50400001928E-02 0. -1.
</event>
<event>
 5   0  0.2474769E-06  0.2874842E+04  0.7818609E-02  0.8280402E-01
        1   -1    0    0  501    0  0.00000000000E+00  0.00000000000E+00  0.20638879754E+04  0.20638879754E+04  0.50400001928E-02 0.  1.
       -1   -1    0    0    0  501  0.00000000000E+00  0.00000000000E+00 -0.10011103547E+04  0.10011103547E+04  0.50400001928E-02 0. -1.
    10030    2    1    2    0    0  0.00000000000E+00  0.00000000000E+00  0.10627776207E+04  0.30649983301E+04  0.28748423422E+04 0.  0.
        1    1    3    3  502    0 -0.10659191525E+04  0.80332271448E+03  0.11002233934E+04  0.17297405987E+04  0.50400001928E-02 0.  1.
       -1    1    3    3    0  502  0.10659191525E+04 -0.80332271448E+03 -0.37445772753E+02  0.13352577314E+04  0.50400001928E-02 0. -1.
</event>
<event>
 5   0  0.6733688E-06  0.2547124E+04  0.7818609E-02  0.8386387E-01
       -2   -1    0    0    0  501  0.00000000000E+00  0.00000000000E+00  0.69775046596E+03  0.69775046597E+03  0.25500000920E-02 0.  1.
        2   -1    0    0  501    0  0.00000000000E+00  0.00000000000E+00 -0.23245565326E+04  0.23245565326E+04  0.25500000920E-02 0. -1.
    10030    2    1    2    0    0  0.00000000000E+00  0.00000000000E+00 -0.16268060666E+04  0.30223069985E+04  0.25471241852E+04 0.  0.
        5    1    3    3  502    0 -0.38114930685E+03  0.80196748776E+03  0.26988588180E+03  0.92805556123E+03  0.46999998093E+01 0.  1.
       -5    1    3    3    0  502  0.38114930685E+03 -0.80196748776E+03 -0.18966919484E+04  0.20942514373E+04  0.46999998093E+01 0. -1.
</event>
<event>
 5   0  0.6513041E-06  0.2903084E+04  0.7818609E-02  0.8271960E-01
        2   -1    0    0  501    0  0.00000000000E+00  0.00000000000E+00  0.17453866249E+04  0.17453866249E+04  0.25500000920E-02 0.  1.
       -2   -1    0    0    0  501  0.00000000000E+00  0.00000000000E+00 -0.12071679040E+04  0.12071679040E+04  0.25500000920E-02 0. -1.
    10030    2    1    2    0    0  0.00000000000E+00  0.00000000000E+00  0.53821872090E+03  0.29525545289E+04  0.29030843692E+04 0.  0.
        1    1    3    3  502    0 -0.43897016340E+03  0.55140760007E+02 -0.11369246152E+04  0.12199724950E+04  0.50400001928E-02 0. -1.
       -1    1    3    3    0  502  0.43897016340E+03 -0.55140760007E+02  0.16751433361E+04  0.17325820339E+04  0.50400001928E-02 0.  1.
</event>
<event>
 5   0  0.6513041E-06  0.2899741E+04  0.7818609E-02  0.8272955E-01
       -2   -1    0    0    0  501  0.00000000000E+00  0.00000000000E+00  0.11141979173E+04  0.11141979173E+04  0.25500000920E-02 0.  1.
        2   -1    0    0  501    0  0.00000000000E+00  0.00000000000E+00 -0.18866700323E+04  0.18866700323E+04  0.25500000920E-02 0. -1.
    10030    2    1    2    0    0  0.00000000000E+00  0.00000000000E+00 -0.77247211503E+03  0.30008679495E+04  0.28997405543E+04 0.  0.
        1    1    3    3  502    0 -0.36057258861E+03 -0.11575131889E+04  0.43665161764E+03  0.12886093315E+04  0.50400001928E-02 0.  1.
       -1    1    3    3    0  502  0.36057258861E+03  0.11575131889E+04 -0.12091237327E+04  0.17122586180E+04  0.50400001928E-02 0. -1.
</event>
<event>
 5   0  0.2508094E-06  0.2909471E+04  0.7818609E-02  0.8270065E-01
       -1   -1    0    0    0  501  0.00000000000E+00  0.00000000000E+00  0.14773009722E+04  0.14773009722E+04  0.50400001928E-02 0. -1.
        1   -1    0    0  501    0  0.00000000000E+00  0.00000000000E+00 -0.14325145181E+04  0.14325145181E+04  0.50400001928E-02 0.  1.
    10030    2    1    2    0    0  0.00000000000E+00  0.00000000000E+00  0.44786454120E+02  0.29098154903E+04  0.29094708043E+04 0.  0.
        3    1    3    3  502    0 -0.23316496606E+03  0.99783440558E+03 -0.10103063045E+04  0.14390129400E+04  0.10100000352E+00 0.  1.
       -3    1    3    3    0  502  0.23316496606E+03 -0.99783440558E+03  0.10550927587E+04  0.14708025503E+04  0.10100000352E+00 0. -1.
</event>
<event>
 5   0  0.6733688E-06  0.2952594E+04  0.7818609E-02  0.8257399E-01
        2   -1    0    0  501    0  0.00000000000E+00  0.00000000000E+00  0.16567244219E+04  0.16567244219E+04  0.25500000920E-02 0. -1.
       -2   -1    0    0    0  501  0.00000000000E+00  0.00000000000E+00 -0.13155190436E+04  0.13155190436E+04  0.25500000920E-02 0.  1.
    10030    2    1    2    0    0  0.00000000000E+00  0.00000000000E+00  0.34120537833E+03  0.29722434655E+04  0.29525937932E+04 0.  0.
        5    1    3    3  502    0 -0.18071125755E+03  0.56559393988E+03 -0.11900126944E+04  0.13299268274E+04  0.46999998093E+01 0.  1.
       -5    1    3    3    0  502  0.18071125755E+03 -0.56559393988E+03  0.15312180727E+04  0.16423166381E+04  0.46999998093E+01 0. -1.
</event>
<event>
 5   0  0.6615403E-06  0.2956857E+04  0.7818609E-02  0.8256159E-01
        2   -1    0    0  501    0  0.00000000000E+00  0.00000000000E+00  0.17573686085E+04  0.17573686085E+04  0.25500000920E-02 0.  1.
       -2   -1    0    0    0  501  0.00000000000E+00  0.00000000000E+00 -0.12437636423E+04  0.12437636423E+04  0.25500000920E-02 0. -1.
    10030    2    1    2    0    0  0.00000000000E+00  0.00000000000E+00  0.51360496622E+03  0.30011322508E+04  0.29568572380E+04 0.  0.
        2    1    3    3  502    0  0.11504822252E+04  0.84387510246E+03 -0.13631693628E+03  0.14332888216E+04  0.25500000920E-02 0. -1.
       -2    1    3    3    0  502 -0.11504822252E+04 -0.84387510246E+03  0.64992190250E+03  0.15678434292E+04  0.25500000920E-02 0.  1.
</event>
<event>
 5   0  0.2348684E-06  0.2425747E+04  0.7818609E-02  0.8429927E-01
       -1   -1    0    0    0  501  0.00000000000E+00  0.00000000000E+00  0.10564138709E+04  0.10564138709E+04  0.50400001928E-02 0.  1.
        1   -1    0    0  501    0  0.00000000000E+00  0.00000000000E+00 -0.13925050136E+04  0.13925050136E+04  0.50400001928E-02 0. -1.
    10030    2    1    2    0    0  0.00000000000E+00  0.00000000000E+00 -0.33609114265E+03  0.24489188845E+04  0.24257465751E+04 0.  0.
        5    1    3    3  502    0  0.43399287036E+03  0.39655825080E+03 -0.12390430812E+04  0.13714438031E+04  0.46999998093E+01 0. -1.
       -5    1    3    3    0  502 -0.43399287036E+03 -0.39655825080E+03  0.90295193858E+03  0.10774750815E+04  0.46999998093E+01 0.  1.
</event>
<event>
 5   0  0.6513041E-06  0.2928087E+04  0.7818609E-02  0.8264569E-01
       -2   -1    0    0    0  501  0.00000000000E+00  0.00000000000E+00  0.11752147038E+04  0.11752147038E+04  0.25500000920E-02 0. -1.
        2   -1    0    0  501    0  0.00000000000E+00  0.00000000000E+00 -0.18238574296E+04  0.18238574296E+04  0.25500000920E-02 0.  1.
    10030    2    1    2    0    0  0.00000000000E+00  0.00000000000E+00 -0.64864272574E+03  0.29990721334E+04  0.29280874775E+04 0.  0.
        1    1    3    3  502    0 -0.10042213627E+04  0.55305969740E+03 -0.12569383218E+04  0.17012435213E+04  0.50400001928E-02 0.  1.
       -1    1    3    3    0  502  0.10042213627E+04 -0.55305969740E+03  0.60829559602E+03  0.12978286121E+04  0.50400001928E-02 0. -1.
</event>
<event>
 5   0  0.6393633E-06  0.3140172E+04  0.7818609E-02  0.8204799E-01
       -2   -1    0    0    0  501  0.00000000000E+00  0.00000000000E+00  0.25362509010E+04  0.25362509010E+04  0.25500000920E-02 0. -1.
        2   -1    0    0  501    0  0.00000000000E+00  0.00000000000E+00 -0.97197431530E+03  0.97197431531E+03  0.25500000920E-02 0.  1.
    10030    2    1    2    0    0  0.00000000000E+00  0.00000000000E+00  0.15642765857E+04  0.35082252163E+04  0.31401724366E+04 0.  0.
        4    1    3    3  502    0  0.55166241346E+03  0.46939435608E+03  0.23384319063E+04  0.24480457253E+04  0.12699999809E+01 0. -1.
       -4    1    3    3    0  502 -0.55166241346E+03 -0.46939435608E+03 -0.77415532056E+03  0.10601794910E+04  0.12699999809E+01 0.  1.
</event>
<event>
 5   0  0.6513041E-06  0.2872776E+04  0.7818609E-02  0.8281024E-01
        2   -1    0    0  501    0  0.00000000000E+00  0.00000000000E+00  0.20500496939E+04  0.20500496939E+04  0.25500000920E-02 0. -1.
       -2   -1    0    0    0  501  0.00000000000E+00  0.00000000000E+00 -0.10064194946E+04  0.10064194946E+04  0.25500000920E-02 0.  1.
    10030    2    1    2    0    0  0.00000000000E+00  0.00000000000E+00  0.10436301993E+04  0.30564691885E+04  0.28727756451E+04 0.  0.
        1    1    3    3  502    0 -0.18496095732E+03  0.10711265823E+04 -0.47720815137E+03  0.11871184991E+04  0.50400001928E-02 0.  1.
       -1    1    3    3    0  502  0.18496095732E+03 -0.10711265823E+04  0.15208383507E+04  0.18693506894E+04  0.50400001928E-02 0. -1.
</event>
<event>
 5   0  0.6615403E-06  0.2946081E+04  0.7818609E-02  0.8259298E-01
        2   -1    0    0  501    0  0.00000000000E+00  0.00000000000E+00  0.24413954937E+04  0.24413954937E+04  0.25500000920E-02 0.  1.
       -2   -1    0    0    0  501  0.00000000000E+00  0.00000000000E+00 -0.88877353093E+03  0.88877353093E+03  0.25500000920E-02 0. -1.
    10030    2    1    2    0    0  0.00000000000E+00  0.00000000000E+00  0.15526219627E+04  0.33301690246E+04  0.29460805782E+04 0.  0.
        2    1    3    3  502    0 -0.52718878402E+03 -0.61310187548E+03 -0.61548297929E+03  0.10161895598E+04  0.25500000920E-02 0. -1.
       -2    1    3    3    0  502  0.52718878402E+03  0.61310187548E+03  0.21681049420E+04  0.23139794648E+04  0.25500000920E-02 0.  1.
</event>
<event>
 5   0  0.2429358E-06  0.2885997E+04  0.7818609E-02  0.8277056E-01
       -1   -1    0    0    0  501  0.00000000000E+00  0.00000000000E+00  0.20736076782E+04  0.20736076782E+04  0.50400001928E-02 0. -1.
        1   -1    0    0  501    0  0.00000000000E+00  0.00000000000E+00 -0.10041651916E+04  0.10041651916E+04  0.50400001928E-02 0.  1.
    10030    2    1    2    0    0  0.00000000000E+00  0.00000000000E+00  0.10694424866E+04  0.30777728698E+04  0.28859969865E+04 0.  0.
        2    1    3    3  502    0  0.14684327373E+03  0.11898666316E+04  0.13911408086E+04  0.18364689753E+04  0.25500000920E-02 0. -1.
       -2    1    3    3    0  502 -0.14684327373E+03 -0.11898666316E+04 -0.32169832198E+03  0.12413038945E+04  0.25500000920E-02 0.  1.
</event>
<event>
 5   0  0.2429358E-06  0.2887541E+04  0.7818609E-02  0.8276594E-01
       -1   -1    0    0    0  501  0.00000000000E+00  0.00000000000E+00  0.10443712838E+04  0.10443712838E+04  0.50400001928E-02 0. -1.
        1   -1    0    0  501    0  0.00000000000E+00  0.00000000000E+00 -0.19959120875E+04  0.19959120875E+04  0.50400001928E-02 0.  1.
    10030    2    1    2    0    0  0.00000000000E+00  0.00000000000E+00 -0.95154080376E+03  0.30402833713E+04  0.28875410086E+04 0.  0.
        2    1    3    3  502    0 -0.10322545240E+04 -0.35145966466E+03 -0.14720802917E+04  0.18319644329E+04  0.25500000920E-02 0.  1.
       -2    1    3    3    0  502  0.10322545240E+04  0.35145966466E+03  0.52053948798E+03  0.12083189384E+04  0.25500000920E-02 0. -1.
</event>
<event>
 5   0  0.6513041E-06  0.2876601E+04  0.7818609E-02  0.8279874E-01
        2   -1    0    0  501    0  0.00000000000E+00  0.00000000000E+00  0.20953771053E+04  0.20953771053E+04  0.25500000920E-02 0.  1.
       -2   -1    0    0    0  501  0.00000000000E+00  0.00000000000E+00 -0.98727266974E+03  0.98727266974E+03  0.25500000920E-02 0. -1.
    10030    2    1    2    0    0  0.00000000000E+00  0.00000000000E+00  0.11081044356E+04  0.30826497751E+04  0.28766011534E+04 0.  0.
        1    1    3    3  502    0 -0.14247592156E+03 -0.11549950522E+04  0.14598138472E+04  0.18669144136E+04  0.50400001928E-02 0.  1.
       -1    1    3    3    0  502  0.14247592156E+03  0.11549950522E+04 -0.35170941168E+03  0.12157353615E+04  0.50400001928E-02 0. -1.
</event>
<event>
 5   0  0.2474769E-06  0.2917305E+04  0.7818609E-02  0.8267747E-01
        1   -1    0    0  501    0  0.00000000000E+00  0.00000000000E+00  0.24669359525E+04  0.24669359525E+04  0.50400001928E-02 0.  1.
       -1   -1    0    0    0  501  0.00000000000E+00  0.00000000000E+00 -0.86247337263E+03  0.86247337265E+03  0.50400001928E-02 0. -1.
    10030    2    1    2    0    0  0.00000000000E+00  0.00000000000E+00  0.16044625799E+04  0.33294093251E+04  0.29173046266E+04 0.  0.
        1    1    3    3  502    0 -0.61008864263E+03 -0.49808575132E+03 -0.59895281193E+03  0.98946553173E+03  0.50400001928E-02 0. -1.
       -1    1    3    3    0  502  0.61008864263E+03  0.49808575132E+03  0.22034153918E+04  0.23399437934E+04  0.50400001928E-02 0.  1.
</event>
<event>
 5   0  0.2348684E-06  0.2913752E+04  0.7818609E-02  0.8268798E-01
        1   -1    0    0  501    0  0.00000000000E+00  0.00000000000E+00  0.12736508242E+04  0.12736508242E+04  0.50400001928E-02 0.  1.
       -1   -1    0    0    0  501  0.00000000000E+00  0.00000000000E+00 -0.16664595622E+04  0.16664595622E+04  0.50400001928E-02 0. -1.
    10030    2    1    2    0    0  0.00000000000E+00  0.00000000000E+00 -0.39280873805E+03  0.29401103864E+04  0.29137519420E+04 0.  0.
        5    1    3    3  502    0 -0.58344816357E+03  0.74835618212E+03  0.91904443778E+03  0.13210274424E+04  0.46999998093E+01 0.  1.
       -5    1    3    3    0  502  0.58344816357E+03 -0.74835618212E+03 -0.13118531758E+04  0.16190829441E+04  0.46999998093E+01 0. -1.
</event>
<event>
 5   0  0.6513041E-06  0.3086087E+04  0.7818609E-02  0.8219567E-01
        2   -1    0    0  501    0  0.00000000000E+00  0.00000000000E+00  0.17510174062E+04  0.17510174062E+04  0.25500000920E-02 0. -1.
       -2   -1    0    0    0  501  0.00000000000E+00  0.00000000000E+00 -0.13597714313E+04  0.13597714313E+04  0.25500000920E-02 0.  1.
    10030    2    1    2    0    0  0.00000000000E+00  0.00000000000E+00  0.39124597496E+03  0.31107888375E+04  0.30860871307E+04 0.  0.
        1    1    3    3  502    0 -0.14158095325E+04 -0.12983427663E+03 -0.40885174482E+03  0.14793692308E+04  0.50400001928E-02 0.  1.
       -1    1    3    3    0  502  0.14158095325E+04  0.12983427663E+03  0.80009771978E+03  0.16314196067E+04  0.50400001928E-02 0. -1.
</event>
<event>
 5   0  0.2336512E-06  0.2897828E+04  0.7818609E-02  0.8273524E-01
       -1   -1    0    0    0  501  0.00000000000E+00  0.00000000000E+00  0.17906382028E+04  0.17906382028E+04  0.50400001928E-02 0.  1.
        1   -1    0    0  501    0  0.00000000000E+00  0.00000000000E+00 -0.11724039483E+04  0.11724039483E+04  0.50400001928E-02 0. -1.
    10030    2    1    2    0    0  0.00000000000E+00  0.00000000000E+00  0.61823425452E+03  0.29630421511E+04  0.28978276684E+04 0.  0.
        4    1    3    3  502    0  0.11854534532E+04 -0.81308669442E+03  0.12353937522E+03  0.14428005588E+04  0.12699999809E+01 0.  1.
       -4    1    3    3    0  502 -0.11854534532E+04  0.81308669442E+03  0.49469487930E+03  0.15202415923E+04  0.12699999809E+01 0. -1.
</event>
<event>
 5   0  0.6615403E-06  0.2909405E+04  0.7818609E-02  0.8270085E-01
       -2   -1    0    0    0  501  0.00000000000E+00  0.00000000000E+00  0.91689459294E+03  0.91689459294E+03  0.25500000920E-02 0.  1.
        2   -1    0    0  501    0  0.00000000000E+00  0.00000000000E+00 -0.23079642920E+04  0.23079642920E+04  0.25500000920E-02 0. -1.
    10030    2    1    2    0    0  0.00000000000E+00  0.00000000000E+00 -0.13910696991E+04  0.32248588850E+04  0.29094054238E+04 0.  0.
        2    1    3    3  502    0 -0.12303062190E+04  0.63877696982E+03 -0.20673235329E+03  0.14015804207E+04  0.25500000920E-02 0.  1.
       -2    1    3    3    0  502  0.12303062190E+04 -0.63877696982E+03 -0.11843373458E+04  0.18232784643E+04  0.25500000920E-02 0. -1.
</event>
<event>
 5   0  0.2336512E-06  0.3086092E+04  0.7818609E-02  0.8219565E-01
       -1   -1    0    0    0  501  0.00000000000E+00  0.00000000000E+00  0.10209136351E+04  0.10209136351E+04  0.50400001928E-02 0.  1.
        1   -1    0    0  501    0  0.00000000000E+00  0.00000000000E+00 -0.23322158661E+04  0.23322158662E+04  0.50400001928E-02 0. -1.
    10030    2    1    2    0    0  0.00000000000E+00  0.00000000000E+00 -0.13113022311E+04  0.33531295013E+04  0.30860920127E+04 0.  0.
        4    1    3    3  502    0  0.10457536669E+04  0.26543288113E+03  0.54295081253E+03  0.12078296833E+04  0.12699999809E+01 0.  1.
       -4    1    3    3    0  502 -0.10457536669E+04 -0.26543288113E+03 -0.18542530436E+04  0.21452998179E+04  0.12699999809E+01 0. -1.
</event>
<event>
 5   0  0.2474769E-06  0.2929344E+04  0.7818609E-02  0.8264200E-01
       -1   -1    0    0    0  501  0.00000000000E+00  0.00000000000E+00  0.14794775954E+04  0.14794775954E+04  0.50400001928E-02 0. -1.
        1   -1    0    0  501    0  0.00000000000E+00  0.00000000000E+00 -0.14500143558E+04  0.14500143558E+04  0.50400001928E-02 0.  1.
    10030    2    1    2    0    0  0.00000000000E+00  0.00000000000E+00  0.29463239523E+02  0.29294919512E+04  0.29293437848E+04 0.  0.
        1    1    3    3  502    0  0.85565997082E+03  0.88800337902E+03 -0.77559929052E+03  0.14567972564E+04  0.50400001928E-02 0.  1.
       -1    1    3    3    0  502 -0.85565997082E+03 -0.88800337902E+03  0.80506253005E+03  0.14726946948E+04  0.50400001928E-02 0. -1.
</event>
<event>
 5   0  0.6733688E-06  0.2897635E+04  0.7818609E-02  0.8273582E-01
        2   -1    0    0  501    0  0.00000000000E+00  0.00000000000E+00  0.14383953272E+04  0.14383953272E+04  0.25500000920E-02 0.  1.
       -2   -1    0    0    0  501  0.00000000000E+00  0.00000000000E+00 -0.14593149834E+04  0.14593149834E+04  0.25500000920E-02 0. -1.
    10030    2    1    2    0    0  0.00000000000E+00  0.00000000000E+00 -0.20919656148E+02  0.28977103106E+04  0.28976347962E+04 0.  0.
        5    1    3    3  502    0  0.29477791502E+02  0.66802152924E+03  0.12748472019E+04  0.14395760424E+04  0.46999998093E+01 0.  1.
       -5    1    3    3    0  502 -0.29477791502E+02 -0.66802152924E+03 -0.12957668581E+04  0.14581342682E+04  0.46999998093E+01 0. -1.
</event>
<event>
 5   0  0.2508094E-06  0.2935123E+04  0.7818609E-02  0.8262503E-01
       -1   -1    0    0    0  501  0.00000000000E+00  0.00000000000E+00  0.20917364459E+04  0.20917364459E+04  0.50400001928E-02 0.  1.
        1   -1    0    0  501    0  0.00000000000E+00  0.00000000000E+00 -0.10296408244E+04  0.10296408244E+04  0.50400001928E-02 0. -1.
    10030    2    1    2    0    0  0.00000000000E+00  0.00000000000E+00  0.10620956215E+04  0.31213772703E+04  0.29351233286E+04 0.  0.
        3    1    3    3  502    0  0.59741916199E+03 -0.69492937920E+03  0.17500407399E+04  0.19754693363E+04  0.10100000352E+00 0.  1.
       -3    1    3    3    0  502 -0.59741916199E+03  0.69492937920E+03 -0.68794511835E+03  0.11459079340E+04  0.10100000352E+00 0. -1.
</event>
<event>
 5   0  0.2348684E-06  0.2947405E+04  0.7818609E-02  0.8258911E-01
        1   -1    0    0  501    0  0.00000000000E+00  0.00000000000E+00  0.16253265455E+04  0.16253265455E+04  0.50400001928E-02 0. -1.
       -1   -1    0    0    0  501  0.00000000000E+00  0.00000000000E+00 -0.13362234446E+04  0.13362234446E+04  0.50400001928E-02 0.  1.
    10030    2    1    2    0    0  0.00000000000E+00  0.00000000000E+00  0.28910310087E+03  0.29615499902E+04  0.29474052557E+04 0.  0.
        5    1    3    3  502    0 -0.47515887544E+03 -0.59263235378E+02  0.15449722681E+04  0.16174824535E+04  0.46999998093E+01 0. -1.
       -5    1    3    3    0  502  0.47515887544E+03  0.59263235378E+02 -0.12558691672E+04  0.13440675367E+04  0.46999998093E+01 0.  1.
</event>
<event>
 5   0  0.6615403E-06  0.2880201E+04  0.7818609E-02  0.8278793E-01
       -2   -1    0    0    0  501  0.00000000000E+00  0.00000000000E+00  0.17052540429E+04  0.17052540429E+04  0.25500000920E-02 0.  1.
        2   -1    0    0  501    0  0.00000000000E+00  0.00000000000E+00 -0.12161758324E+04  0.12161758324E+04  0.25500000920E-02 0. -1.
    10030    2    1    2    0    0  0.00000000000E+00  0.00000000000E+00  0.48907821049E+03  0.29214298754E+04  0.28802005175E+04 0.  0.
        2    1    3    3  502    0 -0.10010760633E+03 -0.45604129555E+03  0.16263521058E+04  0.16920450255E+04  0.25500000920E-02 0.  1.
       -2    1    3    3    0  502  0.10010760633E+03  0.45604129555E+03 -0.11372738954E+04  0.12293848499E+04  0.25500000920E-02 0. -1.
</event>
<event>
 5   0  0.6393633E-06  0.2907924E+04  0.7818609E-02  0.8270524E-01
        2   -1    0    0  501    0  0.00000000000E+00  0.00000000000E+00  0.10178338934E+04  0.10178338934E+04  0.25500000920E-02 0.  1.
       -2   -1    0    0    0  501  0.00000000000E+00  0.00000000000E+00 -0.20769649130E+04  0.20769649130E+04  0.25500000920E-02 0. -1.
    10030    2    1    2    0    0  0.00000000000E+00  0.00000000000E+00 -0.10591310196E+04  0.30947988064E+04  0.29079238532E+04 0.  0.
        4    1    3    3  502    0 -0.37630791962E+03 -0.12816863781E+04 -0.11406385013E+04  0.17565265230E+04  0.12699999809E+01 0. -1.
       -4    1    3    3    0  502  0.37630791962E+03  0.12816863781E+04  0.81507481722E+02  0.13382722835E+04  0.12699999809E+01 0.  1.
</event>
<event>
 5   0  0.2508094E-06  0.2880431E+04  0.7818609E-02  0.8278724E-01
        1   -1    0    0  501    0  0.00000000000E+00  0.00000000000E+00  0.13128457302E+04  0.13128457302E+04  0.50400001928E-02 0.  1.
       -1   -1    0    0    0  501  0.00000000000E+00  0.00000000000E+00 -0.15799424992E+04  0.15799424992E+04  0.50400001928E-02 0. -1.
    10030    2    1    2    0    0  0.00000000000E+00  0.00000000000E+00 -0.26709676903E+03  0.28927882294E+04  0.28804310539E+04 0.  0.
        3    1    3    3  502    0 -0.24742796148E+03  0.12163576926E+03  0.12860946856E+04  0.13153157062E+04  0.10100000352E+00 0.  1.
       -3    1    3    3    0  502  0.24742796148E+03 -0.12163576926E+03 -0.15531914546E+04  0.15774725232E+04  0.10100000352E+00 0. -1.
</event>
<event>
 5   0  0.6615403E-06  0.2414392E+04  0.7818609E-02  0.8434135E-01
        2   -1    0    0  501    0  0.00000000000E+00  0.00000000000E+00  0.16082069478E+04  0.16082069478E+04  0.25500000920E-02 0.  1.
       -2   -1    0    0    0  501  0.00000000000E+00  0.00000000000E+00 -0.90617849575E+03  0.90617849575E+03  0.25500000920E-02 0. -1.
    10030    2    1    2    0    0  0.00000000000E+00  0.00000000000E+00  0.70202845201E+03  0.25143854435E+04  0.24143923068E+04 0.  0.
        2    1    3    3  502    0 -0.39394761702E+03 -0.26158424462E+03 -0.80570795465E+03  0.93423035178E+03  0.25500000920E-02 0. -1.
       -2    1    3    3    0  502  0.39394761702E+03  0.26158424462E+03  0.15077364067E+04  0.15801550917E+04  0.25500000920E-02 0.  1.
</event>
<event>
 5   0  0.6393633E-06  0.3014999E+04  0.7818609E-02  0.8239461E-01
        2   -1    0    0  501    0  0.00000000000E+00  0.00000000000E+00  0.24097393289E+04  0.24097393289E+04  0.25500000920E-02 0. -1.
       -2   -1    0    0    0  501  0.00000000000E+00  0.00000000000E+00 -0.94307081579E+03  0.94307081579E+03  0.25500000920E-02 0.  1.
    10030    2    1    2    0    0  0.00000000000E+00  0.00000000000E+00  0.14666685131E+04  0.33528101447E+04  0.30149990612E+04 0.  0.
        4    1    3    3  502    0  0.11834033349E+04  0.92784058087E+03  0.61553307042E+03  0.16248735859E+04  0.12699999809E+01 0. -1.
       -4    1    3    3    0  502 -0.11834033349E+04 -0.92784058087E+03  0.85113544268E+03  0.17279365588E+04  0.12699999809E+01 0.  1.
</event>
<event>
 5   0  0.6612533E-06  0.2888885E+04  0.7818609E-02  0.8276192E-01
       -2   -1    0    0    0  501  0.00000000000E+00  0.00000000000E+00  0.83975876588E+03  0.83975876589E+03  0.25500000920E-02 0. -1.
        2   -1    0    0  501    0  0.00000000000E+00  0.00000000000E+00 -0.24845402485E+04  0.24845402485E+04  0.25500000920E-02 0.  1.
    10030    2    1    2    0    0  0.00000000000E+00  0.00000000000E+00 -0.16447814826E+04  0.33242990144E+04  0.28888852195E+04 0.  0.
        3    1    3    3  502    0 -0.11213337772E+04 -0.27194239027E+03 -0.18223080230E+04  0.21568840127E+04  0.10100000352E+00 0.  1.
       -3    1    3    3    0  502  0.11213337772E+04  0.27194239027E+03  0.17752654035E+03  0.11674150017E+04  0.10100000352E+00 0. -1.
</event>
<event>
 5   0  0.2348684E-06  0.3264388E+04  0.7818609E-02  0.8172016E-01
        1   -1    0    0  501    0  0.00000000000E+00  0.00000000000E+00  0.20863131455E+04  0.20863131455E+04  0.50400001928E-02 0. -1.
       -1   -1    0    0    0  501  0.00000000000E+00  0.00000000000E+00 -0.12769209779E+04  0.12769209779E+04  0.50400001928E-02 0.  1.
    10030    2    1    2    0    0  0.00000000000E+00  0.00000000000E+00  0.80939216754E+03  0.33632341234E+04  0.32643878581E+04 0.  0.
        5    1    3    3  502    0  0.12187619210E+04 -0.93614411327E+03 -0.16175989858E+03  0.15452943977E+04  0.46999998093E+01 0.  1.
       -5    1    3    3    0  502 -0.12187619210E+04  0.93614411327E+03  0.97115206612E+03  0.18179397257E+04  0.46999998093E+01 0. -1.
</event>
<event>
 5   0  0.6615403E-06  0.2942778E+04  0.7818609E-02  0.8260262E-01
       -2   -1    0    0    0  501  0.00000000000E+00  0.00000000000E+00  0.18229146389E+04  0.18229146389E+04  0.25500000920E-02 0. -1.
        2   -1    0    0  501    0  0.00000000000E+00  0.00000000000E+00 -0.11876508472E+04  0.11876508472E+04  0.25500000920E-02 0.  1.
    10030    2    1    2    0    0  0.00000000000E+00  0.00000000000E+00  0.63526379170E+03  0.30105654861E+04  0.29427783574E+04 0.  0.
        2    1    3    3  502    0  0.85289354908E+03  0.81141486889E+03  0.12206680476E+04  0.16958337118E+04  0.25500000920E-02 0. -1.
       -2    1    3    3    0  502 -0.85289354908E+03 -0.81141486889E+03 -0.58540425591E+03  0.13147317743E+04  0.25500000920E-02 0.  1.
</event>
<event>
 5   0  0.2159500E-06  0.2886765E+04  0.7818609E-02  0.8276826E-01
       -3   -1    0    0    0  501  0.00000000000E+00  0.00000000000E+00  0.14263078384E+04  0.14263078420E+04  0.10100000352E+00 0.  1.
        3   -1    0    0  501    0  0.00000000000E+00  0.00000000000E+00 -0.14606618056E+04  0.14606618091E+04  0.10100000352E+00 0. -1.
    10030    2    1    2    0    0  0.00000000000E+00  0.00000000000E+00 -0.34353967134E+02  0.28869696511E+04  0.28867652435E+04 0.  0.
        4    1    3    3  502    0  0.11965587348E+04  0.68187910409E+03 -0.44922593201E+03  0.14486260626E+04  0.12699999809E+01 0.  1.
       -4    1    3    3    0  502 -0.11965587348E+04 -0.68187910409E+03  0.41487196487E+03  0.14383435885E+04  0.12699999809E+01 0. -1.
</event>
<event>
 5   0  0.2336512E-06  0.2916365E+04  0.7818609E-02  0.8268025E-01
        1   -1    0    0  501    0  0.00000000000E+00  0.00000000000E+00  0.10188406540E+04  0.10188406540E+04  0.50400001928E-02 0.  1.
       -1   -1    0    0    0  501  0.00000000000E+00  0.00000000000E+00 -0.20869766797E+04  0.20869766797E+04  0.50400001928E-02 0. -1.
    10030    2    1    2    0    0  0.00000000000E+00  0.00000000000E+00 -0.10681360257E+04  0.31058173337E+04  0.29163653305E+04 0.  0.
        4    1    3    3  502    0  0.13801747509E+04  0.28537562039E+03 -0.13563357386E+03  0.14158812334E+04  0.12699999809E+01 0.  1.
       -4    1    3    3    0  502 -0.13801747509E+04 -0.28537562039E+03 -0.93250245182E+03  0.16899361004E+04  0.12699999809E+01 0. -1.
</event>
<event>
 5   0  0.6615403E-06  0.2966504E+04  0.7818609E-02  0.8253361E-01
       -2   -1    0    0    0  501  0.00000000000E+00  0.00000000000E+00  0.13903527758E+04  0.13903527758E+04  0.25500000920E-02 0.  1.
        2   -1    0    0  501    0  0.00000000000E+00  0.00000000000E+00 -0.15823584958E+04  0.15823584958E+04  0.25500000920E-02 0. -1.
    10030    2    1    2    0    0  0.00000000000E+00  0.00000000000E+00 -0.19200571994E+03  0.29727112716E+04  0.29665040212E+04 0.  0.
        2    1    3    3  502    0 -0.61647653958E+03  0.13485735496E+04 -0.59284894046E+02  0.14839840434E+04  0.25500000920E-02 0.  1.
       -2    1    3    3    0  502  0.61647653958E+03 -0.13485735496E+04 -0.13272082590E+03  0.14887272282E+04  0.25500000920E-02 0. -1.
</event>
<event>
 5   0  0.2348684E-06  0.2953347E+04  0.7818609E-02  0.8257180E-01
        1   -1    0    0  501    0  0.00000000000E+00  0.00000000000E+00  0.12104205168E+04  0.12104205168E+04  0.50400001928E-02 0.  1.
       -1   -1    0    0    0  501  0.00000000000E+00  0.00000000000E+00 -0.18014940229E+04  0.18014940229E+04  0.50400001928E-02 0. -1.
    10030    2    1    2    0    0  0.00000000000E+00  0.00000000000E+00 -0.59107350615E+03  0.30119145397E+04  0.29533474744E+04 0.  0.
        5    1    3    3  502    0 -0.39781869516E+02 -0.26642938588E+03  0.11851422966E+04  0.12153812439E+04  0.46999998093E+01 0.  1.
       -5    1    3    3    0  502  0.39781869516E+02  0.26642938588E+03 -0.17762158028E+04  0.17965332958E+04  0.46999998093E+01 0. -1.
</event>
<event>
 5   0  0.2348684E-06  0.2893913E+04  0.7818609E-02  0.8274691E-01
        1   -1    0    0  501    0  0.00000000000E+00  0.00000000000E+00  0.15768712493E+04  0.15768712493E+04  0.50400001928E-02 0.  1.
       -1   -1    0    0    0  501  0.00000000000E+00  0.00000000000E+00 -0.13277450930E+04  0.13277450930E+04  0.50400001928E-02 0. -1.
    10030    2    1    2    0    0  0.00000000000E+00  0.00000000000E+00  0.24912615632E+03  0.29046163423E+04  0.28939129659E+04 0.  0.
        5    1    3    3  502    0 -0.20707002682E+03 -0.12727973733E+02  0.15618583889E+04  0.15755836107E+04  0.46999998093E+01 0.  1.
       -5    1    3    3    0  502  0.20707002682E+03  0.12727973733E+02 -0.13127322326E+04  0.13290327316E+04  0.46999998093E+01 0. -1.
</event>
<event>
 5   0  0.2508094E-06  0.2918032E+04  0.7818609E-02  0.8267532E-01
        1   -1    0    0  501    0  0.00000000000E+00  0.00000000000E+00  0.16617091650E+04  0.16617091651E+04  0.50400001928E-02 0. -1.
       -1   -1    0    0    0  501  0.00000000000E+00  0.00000000000E+00 -0.12810474478E+04  0.12810474478E+04  0.50400001928E-02 0.  1.
    10030    2    1    2    0    0  0.00000000000E+00  0.00000000000E+00  0.38066171723E+03  0.29427566129E+04  0.29180324089E+04 0.  0.
        3    1    3    3  502    0  0.92716055322E+03 -0.21401415665E+03  0.13057308496E+04  0.16156614164E+04  0.10100000352E+00 0. -1.
       -3    1    3    3    0  502 -0.92716055322E+03  0.21401415665E+03 -0.92506913235E+03  0.13270951965E+04  0.10100000352E+00 0.  1.
</event>
<event>
 5   0  0.2429358E-06  0.2865639E+04  0.7818609E-02  0.8283175E-01
       -1   -1    0    0    0  501  0.00000000000E+00  0.00000000000E+00  0.17936704285E+04  0.17936704285E+04  0.50400001928E-02 0.  1.
        1   -1    0    0  501    0  0.00000000000E+00  0.00000000000E+00 -0.11445648619E+04  0.11445648619E+04  0.50400001928E-02 0. -1.
    10030    2    1    2    0    0  0.00000000000E+00  0.00000000000E+00  0.64910556660E+03  0.29382352903E+04  0.28656392977E+04 0.  0.
        2    1    3    3  502    0  0.33031050746E+03 -0.51229076897E+03  0.16541002079E+04  0.17628370206E+04  0.25500000920E-02 0.  1.
       -2    1    3    3    0  502 -0.33031050746E+03  0.51229076897E+03 -0.10049946413E+04  0.11753982697E+04  0.25500000920E-02 0. -1.
</event>
<event>
 5   0  0.6733688E-06  0.2915528E+04  0.7818609E-02  0.8268272E-01
        2   -1    0    0  501    0  0.00000000000E+00  0.00000000000E+00  0.26155517049E+04  0.26155517049E+04  0.25500000920E-02 0.  1.
       -2   -1    0    0    0  501  0.00000000000E+00  0.00000000000E+00 -0.81247697348E+03  0.81247697348E+03  0.25500000920E-02 0. -1.
    10030    2    1    2    0    0  0.00000000000E+00  0.00000000000E+00  0.18030747314E+04  0.34280286783E+04  0.29155277623E+04 0.  0.
        5    1    3    3  502    0 -0.92662408212E+03  0.24800773077E+03  0.21921775590E+04  0.23928653460E+04  0.46999998093E+01 0.  1.
       -5    1    3    3    0  502  0.92662408212E+03 -0.24800773077E+03 -0.38910282762E+03  0.10351633323E+04  0.46999998093E+01 0. -1.
</event>
<event>
 5   0  0.2336512E-06  0.2903424E+04  0.7818609E-02  0.8271859E-01
        1   -1    0    0  501    0  0.00000000000E+00  0.00000000000E+00  0.14325515741E+04  0.14325515742E+04  0.50400001928E-02 0. -1.
       -1   -1    0    0    0  501  0.00000000000E+00  0.00000000000E+00 -0.14711289982E+04  0.14711289982E+04  0.50400001928E-02 0.  1.
    10030    2    1    2    0    0  0.00000000000E+00  0.00000000000E+00 -0.38577424097E+02  0.29036805724E+04  0.29034242971E+04 0.  0.
        4    1    3    3  502    0 -0.11492924917E+04  0.35139959750E+03 -0.83367726002E+03  0.14626600068E+04  0.12699999809E+01 0.  1.
       -4    1    3    3    0  502  0.11492924917E+04 -0.35139959750E+03  0.79509983593E+03  0.14410205656E+04  0.12699999809E+01 0. -1.
</event>
<event>
 5   0  0.2348684E-06  0.2487811E+04  0.7818609E-02  0.8407341E-01
       -1   -1    0    0    0  501  0.00000000000E+00  0.00000000000E+00  0.12290396278E+04  0.12290396278E+04  0.50400001928E-02 0. -1.
        1   -1    0    0  501    0  0.00000000000E+00  0.00000000000E+00 -0.12589516863E+04  0.12589516863E+04  0.50400001928E-02 0.  1.
    10030    2    1    2    0    0  0.00000000000E+00  0.00000000000E+00 -0.29912058571E+02  0.24879913141E+04  0.24878114976E+04 0.  0.
        5    1    3    3  502    0  0.11068311964E+04  0.53510434217E+03  0.17444474348E+03  0.12417185723E+04  0.46999998093E+01 0. -1.
       -5    1    3    3    0  502 -0.11068311964E+04 -0.53510434217E+03 -0.20435680205E+03  0.12462727418E+04  0.46999998093E+01 0.  1.
</event>
<event>
 5   0  0.6615403E-06  0.2961938E+04  0.7818609E-02  0.8254684E-01
       -2   -1    0    0    0  501  0.00000000000E+00  0.00000000000E+00  0.28833662724E+04  0.28833662724E+04  0.25500000920E-02 0. -1.
        2   -1    0    0  501    0  0.00000000000E+00  0.00000000000E+00 -0.76066260381E+03  0.76066260381E+03  0.25500000920E-02 0.  1.
    10030    2    1    2    0    0  0.00000000000E+00  0.00000000000E+00  0.21227036686E+04  0.36440288762E+04  0.29619378093E+04 0.  0.
        2    1    3    3  502    0 -0.40966721458E+03 -0.30254626615E+03 -0.64954457489E+03  0.82539058914E+03  0.25500000920E-02 0.  1.
       -2    1    3    3    0  502  0.40966721458E+03  0.30254626615E+03  0.27722482434E+04  0.28186382870E+04  0.25500000920E-02 0. -1.
</event>
<event>
 5   0  0.2429358E-06  0.2896473E+04  0.7818609E-02  0.8273928E-01
        1   -1    0    0  501    0  0.00000000000E+00  0.00000000000E+00  0.14721828691E+04  0.14721828691E+04  0.50400001928E-02 0. -1.
       -1   -1    0    0    0  501  0.00000000000E+00  0.00000000000E+00 -0.14246798725E+04  0.14246798725E+04  0.50400001928E-02 0.  1.
    10030    2    1    2    0    0  0.00000000000E+00  0.00000000000E+00  0.47502996610E+02  0.28968627416E+04  0.28964732363E+04 0.  0.
        2    1    3    3  502    0 -0.12630622857E+04  0.60134439499E+03 -0.35106266816E+03  0.14422851368E+04  0.25500000920E-02 0.  1.
       -2    1    3    3    0  502  0.12630622857E+04 -0.60134439499E+03  0.39856566477E+03  0.14545776047E+04  0.25500000920E-02 0. -1.
</event>
<event>
 5   0  0.6733688E-06  0.2920531E+04  0.7818609E-02  0.8266795E-01
        2   -1    0    0  501    0  0.00000000000E+00  0.00000000000E+00  0.11320992966E+04  0.11320992966E+04  0.25500000920E-02 0.  1.
       -2   -1    0    0    0  501  0.00000000000E+00  0.00000000000E+00 -0.18835580828E+04  0.18835580828E+04  0.25500000920E-02 0. -1.
    10030    2    1    2    0    0  0.00000000000E+00  0.00000000000E+00 -0.75145878622E+03  0.30156573794E+04  0.29205306235E+04 0.  0.
        5    1    3    3  502    0  0.12013753684E+04  0.26753197446E+03 -0.11871209249E+04  0.17100158811E+04  0.46999998093E+01 0. -1.
       -5    1    3    3    0  502 -0.12013753684E+04 -0.26753197446E+03  0.43566213869E+03  0.13056414984E+04  0.46999998093E+01 0.  1.
</event>
<event>
 5   0  0.2474769E-06  0.2904981E+04  0.7818609E-02  0.8271397E-01
        1   -1    0    0  501    0  0.00000000000E+00  0.00000000000E+00  0.21937472929E+04  0.21937472929E+04  0.50400001928E-02 0.  1.
       -1   -1    0    0    0  501  0.00000000000E+00  0.00000000000E+00 -0.96170069586E+03  0.96170069588E+03  0.50400001928E-02 0. -1.
    10030    2    1    2    0    0  0.00000000000E+00  0.00000000000E+00  0.12320465970E+04  0.31554479887E+04  0.29049807560E+04 0.  0.
        1    1    3    3  502    0 -0.39839364283E+03 -0.12085643729E+04  0.13766743181E+04  0.18747206502E+04  0.50400001928E-02 0.  1.
       -1    1    3    3    0  502  0.39839364283E+03  0.12085643729E+04 -0.14462772114E+03  0.12807273386E+04  0.50400001928E-02 0. -1.
</event>
<event>
 5   0  0.6612533E-06  0.2908290E+04  0.7818609E-02  0.8270415E-01
       -2   -1    0    0    0  501  0.00000000000E+00  0.00000000000E+00  0.12446473170E+04  0.12446473170E+04  0.25500000920E-02 0.  1.
        2   -1    0    0  501    0  0.00000000000E+00  0.00000000000E+00 -0.16989047529E+04  0.16989047529E+04  0.25500000920E-02 0. -1.
    10030    2    1    2    0    0  0.00000000000E+00  0.00000000000E+00 -0.45425743595E+03  0.29435520700E+04  0.29082896985E+04 0.  0.
        3    1    3    3  502    0  0.87078689160E+02 -0.14146109583E+04  0.10213146631E+03  0.14209636547E+04  0.10100000352E+00 0.  1.
       -3    1    3    3    0  502 -0.87078689160E+02  0.14146109583E+04 -0.55638890226E+03  0.15225884152E+04  0.10100000352E+00 0. -1.
</event>
<event>
 5   0  0.6733688E-06  0.3030750E+04  0.7818609E-02  0.8235004E-01
        2   -1    0    0  501    0  0.00000000000E+00  0.00000000000E+00  0.26034147992E+04  0.26034147992E+04  0.25500000920E-02 0. -1.
       -2   -1    0    0    0  501  0.00000000000E+00  0.00000000000E+00 -0.88205726330E+03  0.88205726331E+03  0.25500000920E-02 0.  1.
    10030    2    1    2    0    0  0.00000000000E+00  0.00000000000E+00  0.17213575359E+04  0.34854720625E+04  0.30307496981E+04 0.  0.
        5    1    3    3  502    0 -0.12532151952E+04 -0.57528245810E+03  0.13803802613E+03  0.13858480504E+04  0.46999998093E+01 0.  1.
       -5    1    3    3    0  502  0.12532151952E+04  0.57528245810E+03  0.15833195098E+04  0.20996240121E+04  0.46999998093E+01 0. -1.
</event>
<event>
 5   0  0.2474769E-06  0.2872440E+04  0.7818609E-02  0.8281125E-01
       -1   -1    0    0    0  501  0.00000000000E+00  0.00000000000E+00  0.10023494807E+04  0.10023494808E+04  0.50400001928E-02 0.  1.
        1   -1    0    0  501    0  0.00000000000E+00  0.00000000000E+00 -0.20578928751E+04  0.20578928751E+04  0.50400001928E-02 0. -1.
    10030    2    1    2    0    0  0.00000000000E+00  0.00000000000E+00 -0.10555433943E+04  0.30602423559E+04  0.28724399766E+04 0.  0.
        1    1    3    3  502    0 -0.48519863384E+02 -0.14312007237E+04 -0.41087963299E+03  0.14898025914E+04  0.50400001928E-02 0.  1.
       -1    1    3    3    0  502  0.48519863384E+02  0.14312007237E+04 -0.64466376135E+03  0.15704397644E+04  0.50400001928E-02 0. -1.
</event>
<event>
 5   0  0.6615403E-06  0.2885981E+04  0.7818609E-02  0.8277061E-01
       -2   -1    0    0    0  501  0.00000000000E+00  0.00000000000E+00  0.16115027565E+04  0.16115027565E+04  0.25500000920E-02 0.  1.
        2   -1    0    0  501    0  0.00000000000E+00  0.00000000000E+00 -0.12920995982E+04  0.12920995982E+04  0.25500000920E-02 0. -1.
    10030    2    1    2    0    0  0.00000000000E+00  0.00000000000E+00  0.31940315830E+03  0.29036023546E+04  0.28859813333E+04 0.  0.
        2    1    3    3  502    0 -0.55903367787E+03 -0.19358124432E+03 -0.11644764083E+04  0.13061384523E+04  0.25500000920E-02 0. -1.
       -2    1    3    3    0  502  0.55903367787E+03  0.19358124432E+03  0.14838795666E+04  0.15974639023E+04  0.25500000920E-02 0.  1.
</event>
<event>
 5   0  0.6733688E-06  0.2875004E+04  0.7818609E-02  0.8280354E-01
       -2   -1    0    0    0  501  0.00000000000E+00  0.00000000000E+00  0.18991276949E+04  0.18991276949E+04  0.25500000920E-02 0. -1.
        2   -1    0    0  501    0  0.00000000000E+00  0.00000000000E+00 -0.10880845357E+04  0.10880845357E+04  0.25500000920E-02 0.  1.
    10030    2    1    2    0    0  0.00000000000E+00  0.00000000000E+00  0.81104315921E+03  0.29872122307E+04  0.28750036356E+04 0.  0.
        5    1    3    3  502    0  0.45200464423E+03 -0.10946041837E+04  0.12521376241E+04  0.17234666335E+04  0.46999998093E+01 0. -1.
       -5    1    3    3    0  502 -0.45200464423E+03  0.10946041837E+04 -0.44109446485E+03  0.12637455971E+04  0.46999998093E+01 0.  1.
</event>
<event>
 5   0  0.2429358E-06  0.2883671E+04  0.7818609E-02  0.8277752E-01
       -1   -1    0    0    0  501  0.00000000000E+00  0.00000000000E+00  0.96580816024E+03  0.96580816025E+03  0.50400001928E-02 0.  1.
        1   -1    0    0  501    0  0.00000000000E+00  0.00000000000E+00 -0.21524878389E+04  0.21524878389E+04  0.50400001928E-02 0. -1.
    10030    2    1    2    0    0  0.00000000000E+00  0.00000000000E+00 -0.11866796786E+04  0.31182959991E+04  0.28836714928E+04 0.  0.
        2    1    3    3  502    0  0.17730685215E+03 -0.99750077878E+03  0.51601687407E+03  0.11369779848E+04  0.25500000920E-02 0.  1.
       -2    1    3    3    0  502 -0.17730685215E+03  0.99750077878E+03 -0.17026965527E+04  0.19813180144E+04  0.25500000920E-02 0. -1.
</event>
<event>
 5   0  0.6733688E-06  0.2949885E+04  0.7818609E-02  0.8258188E-01
        2   -1    0    0  501    0  0.00000000000E+00  0.00000000000E+00  0.21252950482E+04  0.21252950482E+04  0.25500000920E-02 0. -1.
       -2   -1    0    0    0  501  0.00000000000E+00  0.00000000000E+00 -0.10236014578E+04  0.10236014578E+04  0.25500000920E-02 0.  1.
    10030    2    1    2    0    0  0.00000000000E+00  0.00000000000E+00  0.11016935904E+04  0.31488965060E+04  0.29498848178E+04 0.  0.
        5    1    3    3  502    0  0.14100830669E+04 -0.34587870948E+03  0.27357990865E+03  0.14774418410E+04  0.46999998093E+01 0.  1.
       -5    1    3    3    0  502 -0.14100830669E+04  0.34587870948E+03  0.82811368170E+03  0.16714546650E+04  0.46999998093E+01 0. -1.
</event>
<event>
 5   0  0.2336512E-06  0.2902391E+04  0.7818609E-02  0.8272166E-01
        1   -1    0    0  501    0  0.00000000000E+00  0.00000000000E+00  0.22900619638E+04  0.22900619638E+04  0.50400001928E-02 0.  1.
       -1   -1    0    0    0  501  0.00000000000E+00  0.00000000000E+00 -0.91961208844E+03  0.91961208845E+03  0.50400001928E-02 0. -1.
    10030    2    1    2    0    0  0.00000000000E+00  0.00000000000E+00  0.13704498753E+04  0.32096740522E+04  0.29023911971E+04 0.  0.
        4    1    3    3  502    0  0.29506483558E+03 -0.11003320753E+04  0.16793869943E+04  0.20293191525E+04  0.12699999809E+01 0.  1.
       -4    1    3    3    0  502 -0.29506483558E+03  0.11003320753E+04 -0.30893711895E+03  0.11803548998E+04  0.12699999809E+01 0. -1.
</event>
<event>
 5   0  0.2348684E-06  0.2877333E+04  0.7818609E-02  0.8279654E-01
       -1   -1    0    0    0  501  0.00000000000E+00  0.00000000000E+00  0.15405096100E+04  0.15405096100E+04  0.50400001928E-02 0. -1.
        1   -1    0    0  501    0  0.00000000000E+00  0.00000000000E+00 -0.13435563336E+04  0.13435563336E+04  0.50400001928E-02 0.  1.
    10030    2    1    2    0    0  0.00000000000E+00  0.00000000000E+00  0.19695327642E+03  0.28840659436E+04  0.28773331010E+04 0.  0.
        5    1    3    3  502    0 -0.42070127585E+03  0.13564289900E+04 -0.13195298022E+03  0.14262969002E+04  0.46999998093E+01 0. -1.
       -5    1    3    3    0  502  0.42070127585E+03 -0.13564289900E+04  0.32890625664E+03  0.14577690435E+04  0.46999998093E+01 0.  1.
</event>
<event>
 5   0  0.2348684E-06  0.2596581E+04  0.7818609E-02  0.8369363E-01
        1   -1    0    0  501    0  0.00000000000E+00  0.00000000000E+00  0.18903556391E+04  0.18903556391E+04  0.50400001928E-02 0. -1.
       -1   -1    0    0    0  501  0.00000000000E+00  0.00000000000E+00 -0.89166205325E+03  0.89166205327E+03  0.50400001928E-02 0.  1.
    10030    2    1    2    0    0  0.00000000000E+00  0.00000000000E+00  0.99869358586E+03  0.27820176924E+04  0.25965811295E+04 0.  0.
        5    1    3    3  502    0 -0.59259160717E+03  0.11003370833E+04  0.87606755707E+03  0.15262447262E+04  0.46999998093E+01 0. -1.
       -5    1    3    3    0  502  0.59259160717E+03 -0.11003370833E+04  0.12262602878E+03  0.12557729662E+04  0.46999998093E+01 0.  1.
</event>
<event>
 5   0  0.2159500E-06  0.2921682E+04  0.7818609E-02  0.8266455E-01
        3   -1    0    0  501    0  0.00000000000E+00  0.00000000000E+00  0.18459444240E+04  0.18459444268E+04  0.10100000352E+00 0.  1.
       -3   -1    0    0    0  501  0.00000000000E+00  0.00000000000E+00 -0.11560786533E+04  0.11560786577E+04  0.10100000352E+00 0. -1.
    10030    2    1    2    0    0  0.00000000000E+00  0.00000000000E+00  0.68986577072E+03  0.30020230845E+04  0.29216823610E+04 0.  0.
        1    1    3    3  502    0 -0.28681587488E+03  0.11254180860E+04 -0.56556479932E+03  0.12917789117E+04  0.50400001928E-02 0. -1.
       -1    1    3    3    0  502  0.28681587488E+03 -0.11254180860E+04  0.12554305700E+04  0.17102441728E+04  0.50400001928E-02 0.  1.
</event>
<event>
 5   0  0.6612533E-06  0.2892028E+04  0.7818609E-02  0.8275253E-01
       -2   -1    0    0    0  501  0.00000000000E+00  0.00000000000E+00  0.16733512569E+04  0.16733512569E+04  0.25500000920E-02 0. -1.
        2   -1    0    0  501    0  0.00000000000E+00  0.00000000000E+00 -0.12495625559E+04  0.12495625559E+04  0.25500000920E-02 0.  1.
    10030    2    1    2    0    0  0.00000000000E+00  0.00000000000E+00  0.42378870097E+03  0.29229138128E+04  0.28920284048E+04 0.  0.
        3    1    3    3  502    0  0.14082820177E+04  0.12164782117E+03 -0.96156763945E+02  0.14167930573E+04  0.10100000352E+00 0.  1.
       -3    1    3    3    0  502 -0.14082820177E+04 -0.12164782117E+03  0.51994546491E+03  0.15061207556E+04  0.10100000352E+00 0. -1.
</event>
<event>
 5   0  0.2348684E-06  0.2891156E+04  0.7818609E-02  0.8275514E-01
       -1   -1    0    0    0  501  0.00000000000E+00  0.00000000000E+00  0.75588385335E+03  0.75588385337E+03  0.50400001928E-02 0. -1.
        1   -1    0    0  501    0  0.00000000000E+00  0.00000000000E+00 -0.27645733005E+04  0.27645733005E+04  0.50400001928E-02 0.  1.
    10030    2    1    2    0    0  0.00000000000E+00  0.00000000000E+00 -0.20086894471E+04  0.35204571538E+04  0.28911563910E+04 0.  0.
        5    1    3    3  502    0  0.55485285623E+03 -0.75391914754E+03 -0.23456658861E+04  0.25255546544E+04  0.46999998093E+01 0.  1.
       -5    1    3    3    0  502 -0.55485285623E+03  0.75391914754E+03  0.33697643894E+03  0.99490249949E+03  0.46999998093E+01 0. -1.
</event>
<event>
 5   0  0.2348684E-06  0.2863088E+04  0.7818609E-02  0.8283945E-01
       -1   -1    0    0    0  501  0.00000000000E+00  0.00000000000E+00  0.77329263732E+03  0.77329263733E+03  0.50400001928E-02 0.  1.
        1   -1    0    0  501    0  0.00000000000E+00  0.00000000000E+00 -0.26501198242E+04  0.26501198242E+04  0.50400001928E-02 0. -1.
    10030    2    1    2    0    0  0.00000000000E+00  0.00000000000E+00 -0.18768271869E+04  0.34234124615E+04  0.28630879470E+04 0.  0.
        5    1    3    3  502    0  0.10838249290E+04  0.80913928761E+03 -0.37768825432E+03  0.14042981774E+04  0.46999998093E+01 0.  1.
       -5    1    3    3    0  502 -0.10838249290E+04 -0.80913928761E+03 -0.14991389326E+04  0.20191142842E+04  0.46999998093E+01 0. -1.
</event>
<event>
 5   0  0.6612533E-06  0.2903711E+04  0.7818609E-02  0.8271774E-01
       -2   -1    0    0    0  501  0.00000000000E+00  0.00000000000E+00  0.15401529433E+04  0.15401529433E+04  0.25500000920E-02 0. -1.
        2   -1    0    0  501    0  0.00000000000E+00  0.00000000000E+00 -0.13686204238E+04  0.13686204238E+04  0.25500000920E-02 0.  1.
    10030    2    1    2    0    0  0.00000000000E+00  0.00000000000E+00  0.17153251949E+03  0.29087733670E+04  0.29037112624E+04 0.  0.
        3    1    3    3  502    0  0.58963887703E+03  0.13251322267E+04  0.20573314803E+02  0.14505422073E+04  0.10100000352E+00 0.  1.
       -3    1    3    3    0  502 -0.58963887703E+03 -0.13251322267E+04  0.15095920469E+03  0.14582311597E+04  0.10100000352E+00 0. -1.
</event>
<event>
 5   0  0.6513041E-06  0.2842166E+04  0.7818609E-02  0.8290296E-01
       -2   -1    0    0    0  501  0.00000000000E+00  0.00000000000E+00  0.10158231250E+04  0.10158231250E+04  0.25500000920E-02 0.  1.
        2   -1    0    0  501    0  0.00000000000E+00  0.00000000000E+00 -0.19880205074E+04  0.19880205074E+04  0.25500000920E-02 0. -1.
    10030    2    1    2    0    0  0.00000000000E+00  0.00000000000E+00 -0.97219738237E+03  0.30038436325E+04  0.28421662193E+04 0.  0.
        1    1    3    3  502    0  0.11191764500E+04  0.63029197214E+03  0.15647826444E+03  0.12939510592E+04  0.50400001928E-02 0.  1.
       -1    1    3    3    0  502 -0.11191764500E+04 -0.63029197214E+03 -0.11286756468E+04  0.17098925733E+04  0.50400001928E-02 0. -1.
</event>
<event>
 5   0  0.6393633E-06  0.3143596E+04  0.7818609E-02  0.8203874E-01
       -2   -1    0    0    0  501  0.00000000000E+00  0.00000000000E+00  0.13040635471E+04  0.13040635471E+04  0.25500000920E-02 0. -1.
        2   -1    0    0  501    0  0.00000000000E+00  0.00000000000E+00 -0.18944999955E+04  0.18944999955E+04  0.25500000920E-02 0.  1.
    10030    2    1    2    0    0  0.00000000000E+00  0.00000000000E+00 -0.59043644840E+03  0.31985635427E+04  0.31435956383E+04 0.  0.
        4    1    3    3  502    0  0.15651663323E+04 -0.11756039558E+03 -0.21020684172E+03  0.15835891587E+04  0.12699999809E+01 0. -1.
       -4    1    3    3    0  502 -0.15651663323E+04  0.11756039558E+03 -0.38022960668E+03  0.16149743840E+04  0.12699999809E+01 0.  1.
</event>
<event>
 5   0  0.2429358E-06  0.2915885E+04  0.7818609E-02  0.8268167E-01
       -1   -1    0    0    0  501  0.00000000000E+00  0.00000000000E+00  0.16596187173E+04  0.16596187173E+04  0.50400001928E-02 0.  1.
        1   -1    0    0  501    0  0.00000000000E+00  0.00000000000E+00 -0.12807739940E+04  0.12807739940E+04  0.50400001928E-02 0. -1.
    10030    2    1    2    0    0  0.00000000000E+00  0.00000000000E+00  0.37884472331E+03  0.29403927114E+04  0.29158851097E+04 0.  0.
        2    1    3    3  502    0 -0.82950029063E+03 -0.24495488587E+03 -0.99412144610E+03  0.13177067496E+04  0.25500000920E-02 0. -1.
       -2    1    3    3    0  502  0.82950029063E+03  0.24495488587E+03  0.13729661694E+04  0.16226859618E+04  0.25500000920E-02 0.  1.
</event>
<event>
 5   0  0.6733688E-06  0.2895144E+04  0.7818609E-02  0.8274324E-01
        2   -1    0    0  501    0  0.00000000000E+00  0.00000000000E+00  0.25730665029E+04  0.25730665029E+04  0.25500000920E-02 0.  1.
       -2   -1    0    0    0  501  0.00000000000E+00  0.00000000000E+00 -0.81438397930E+03  0.81438397930E+03  0.25500000920E-02 0. -1.
    10030    2    1    2    0    0  0.00000000000E+00  0.00000000000E+00  0.17586825236E+04  0.33874504822E+04  0.28951436149E+04 0.  0.
        5    1    3    3  502    0  0.12961624600E+04  0.27809595118E+03  0.19903479786E+03  0.13405265464E+04  0.46999998093E+01 0.  1.
       -5    1    3    3    0  502 -0.12961624600E+04 -0.27809595118E+03  0.15596477258E+04  0.20469239359E+04  0.46999998093E+01 0. -1.
</event>
<event>
 5   0  0.2336512E-06  0.2875758E+04  0.7818609E-02  0.8280127E-01
       -1   -1    0    0    0  501  0.00000000000E+00  0.00000000000E+00  0.14742984536E+04  0.14742984536E+04  0.50400001928E-02 0. -1.
        1   -1    0    0  501    0  0.00000000000E+00  0.00000000000E+00 -0.14023595697E+04  0.14023595697E+04  0.50400001928E-02 0.  1.
    10030    2    1    2    0    0  0.00000000000E+00  0.00000000000E+00  0.71938883849E+02  0.28766580233E+04  0.28757583660E+04 0.  0.
        4    1    3    3  502    0  0.89893633525E+03  0.10986625400E+03 -0.10812227368E+04  0.14103904949E+04  0.12699999809E+01 0.  1.
       -4    1    3    3    0  502 -0.89893633525E+03 -0.10986625400E+03  0.11531616206E+04  0.14662675284E+04  0.12699999809E+01 0. -1.
</event>
<event>
 5   0  0.6513041E-06  0.2918381E+04  0.7818609E-02  0.8267430E-01
        2   -1    0    0  501    0  0.00000000000E+00  0.00000000000E+00  0.16721884086E+04  0.16721884086E+04  0.25500000920E-02 0. -1.
       -2   -1    0    0    0  501  0.00000000000E+00  0.00000000000E+00 -0.12733231861E+04  0.12733231861E+04  0.25500000920E-02 0.  1.
    10030    2    1    2    0    0  0.00000000000E+00  0.00000000000E+00  0.39886522250E+03  0.29455115948E+04  0.29183805594E+04 0.  0.
        1    1    3    3  502    0  0.10983145112E+04  0.43183208797E+02  0.11680822376E+04  0.16039250820E+04  0.50400001928E-02 0. -1.
       -1    1    3    3    0  502 -0.10983145112E+04 -0.43183208797E+02 -0.76921701507E+03  0.13415865128E+04  0.50400001928E-02 0.  1.
</event>
<event>
 5   0  0.6733688E-06  0.2912464E+04  0.7818609E-02  0.8269179E-01
       -2   -1    0    0    0  501  0.00000000000E+00  0.00000000000E+00  0.12614728575E+04  0.12614728575E+04  0.25500000920E-02 0.  1.
        2   -1    0    0  501    0  0.00000000000E+00  0.00000000000E+00 -0.16810603594E+04  0.16810603594E+04  0.25500000920E-02 0. -1.
    10030    2    1    2    0    0  0.00000000000E+00  0.00000000000E+00 -0.41958750188E+03  0.29425332169E+04  0.29124642591E+04 0.  0.
        5    1    3    3  502    0  0.49844768302E+03  0.12798173687E+04 -0.69873988422E+03  0.15409873801E+04  0.46999998093E+01 0. -1.
       -5    1    3    3    0  502 -0.49844768302E+03 -0.12798173687E+04  0.27915238233E+03  0.14015458367E+04  0.46999998093E+01 0.  1.
</event>
<event>
 5   0  0.6615403E-06  0.2876881E+04  0.7818609E-02  0.8279789E-01
       -2   -1    0    0    0  501  0.00000000000E+00  0.00000000000E+00  0.64368971163E+03  0.64368971164E+03  0.25500000920E-02 0.  1.
        2   -1    0    0  501    0  0.00000000000E+00  0.00000000000E+00 -0.32144550333E+04  0.32144550333E+04  0.25500000920E-02 0. -1.
    10030    2    1    2    0    0  0.00000000000E+00  0.00000000000E+00 -0.25707653217E+04  0.38581447449E+04  0.28768813903E+04 0.  0.
        2    1    3    3  502    0  0.11173586057E+04 -0.15005680210E+02 -0.25000808456E+04  0.27384520552E+04  0.25500000920E-02 0. -1.
       -2    1    3    3    0  502 -0.11173586057E+04  0.15005680210E+02 -0.70684476074E+02  0.11196926897E+04  0.25500000920E-02 0.  1.
</event>
<event>
 5   0  0.2474769E-06  0.2873135E+04  0.7818609E-02  0.8280916E-01
        1   -1    0    0  501    0  0.00000000000E+00  0.00000000000E+00  0.18593807099E+04  0.18593807099E+04  0.50400001928E-02 0.  1.
       -1   -1    0    0    0  501  0.00000000000E+00  0.00000000000E+00 -0.11098993745E+04  0.11098993745E+04  0.50400001928E-02 0. -1.
    10030    2    1    2    0    0  0.00000000000E+00  0.00000000000E+00  0.74948133545E+03  0.29692800844E+04  0.28731345161E+04 0.  0.
        1    1    3    3  502    0  0.24944660655E+03 -0.11472153201E+04 -0.48085170280E+03  0.12686784306E+04  0.50400001928E-02 0. -1.
       -1    1    3    3    0  502 -0.24944660655E+03  0.11472153201E+04  0.12303330382E+04  0.17006016539E+04  0.50400001928E-02 0.  1.
</event>
<event>
 5   0  0.2336512E-06  0.2893635E+04  0.7818609E-02  0.8274774E-01
        1   -1    0    0  501    0  0.00000000000E+00  0.00000000000E+00  0.15316070914E+04  0.15316070914E+04  0.50400001928E-02 0.  1.
       -1   -1    0    0    0  501  0.00000000000E+00  0.00000000000E+00 -0.13667213944E+04  0.13667213944E+04  0.50400001928E-02 0. -1.
    10030    2    1    2    0    0  0.00000000000E+00  0.00000000000E+00  0.16488569700E+03  0.28983284858E+04  0.28936345171E+04 0.  0.
        4    1    3    3  502    0 -0.82228982298E+03  0.64315216832E+03  0.10858029795E+04  0.15062453279E+04  0.12699999809E+01 0.  1.
       -4    1    3    3    0  502  0.82228982298E+03 -0.64315216832E+03 -0.92091728247E+03  0.13920831579E+04  0.12699999809E+01 0. -1.
</event>
<event>
 5   0  0.6615403E-06  0.2949083E+04  0.7818609E-02  0.8258422E-01
        2   -1    0    0  501    0  0.00000000000E+00  0.00000000000E+00  0.27582517884E+04  0.27582517884E+04  0.25500000920E-02 0.  1.
       -2   -1    0    0    0  501  0.00000000000E+00  0.00000000000E+00 -0.78827911246E+03  0.78827911246E+03  0.25500000920E-02 0. -1.
    10030    2    1    2    0    0  0.00000000000E+00  0.00000000000E+00  0.19699726759E+04  0.35465309008E+04  0.29490827534E+04 0.  0.
        2    1    3    3  502    0 -0.35285060169E+03  0.94082664389E+02 -0.73303866220E+03  0.81896323186E+03  0.25500000920E-02 0. -1.
       -2    1    3    3    0  502  0.35285060169E+03 -0.94082664389E+02  0.27030113381E+04  0.27275676690E+04  0.25500000920E-02 0.  1.
</event>
<event>
 5   0  0.6733688E-06  0.2896087E+04  0.7818609E-02  0.8274043E-01
       -2   -1    0    0    0  501  0.00000000000E+00  0.00000000000E+00  0.18767916807E+04  0.18767916807E+04  0.25500000920E-02 0.  1.
        2   -1    0    0  501    0  0.00000000000E+00  0.00000000000E+00 -0.11172420604E+04  0.11172420604E+04  0.25500000920E-02 0. -1.
    10030    2    1    2    0    0  0.00000000000E+00  0.00000000000E+00  0.75954962038E+03  0.29940337411E+04  0.28960874326E+04 0.  0.
        5    1    3    3  502    0 -0.29363826732E+03 -0.10896386530E+04 -0.55825550759E+03  0.12590500895E+04  0.46999998093E+01 0. -1.
       -5    1    3    3    0  502  0.29363826732E+03  0.10896386530E+04  0.13178051280E+04  0.17349836516E+04  0.46999998093E+01 0.  1.
</event>
<event>
 5   0  0.2336512E-06  0.2906300E+04  0.7818609E-02  0.8271005E-01
        1   -1    0    0  501    0  0.00000000000E+00  0.00000000000E+00  0.13428697941E+04  0.13428697941E+04  0.50400001928E-02 0.  1.
       -1   -1    0    0    0  501  0.00000000000E+00  0.00000000000E+00 -0.15724871086E+04  0.15724871086E+04  0.50400001928E-02 0. -1.
    10030    2    1    2    0    0  0.00000000000E+00  0.00000000000E+00 -0.22961731454E+03  0.29153569027E+04  0.29063003560E+04 0.  0.
        4    1    3    3  502    0 -0.13625450249E+03 -0.20689331789E+03 -0.15511483225E+04  0.15708064380E+04  0.12699999809E+01 0. -1.
       -4    1    3    3    0  502  0.13625450249E+03  0.20689331789E+03  0.13215310079E+04  0.13445504647E+04  0.12699999809E+01 0.  1.
</event>
<event>
 5   0  0.2429358E-06  0.2910332E+04  0.7818609E-02  0.8269810E-01
       -1   -1    0    0    0  501  0.00000000000E+00  0.00000000000E+00  0.11429394363E+04  0.11429394363E+04  0.50400001928E-02 0.  1.
        1   -1    0    0  501    0  0.00000000000E+00  0.00000000000E+00 -0.18526858566E+04  0.18526858566E+04  0.50400001928E-02 0. -1.
    10030    2    1    2    0    0  0.00000000000E+00  0.00000000000E+00 -0.70974642029E+03  0.29956252929E+04  0.29103317533E+04 0.  0.
        2    1    3    3  502    0 -0.88497093882E+02 -0.73642442767E+03 -0.16435045390E+04  0.18031250214E+04  0.25500000920E-02 0. -1.
       -2    1    3    3    0  502  0.88497093882E+02  0.73642442767E+03  0.93375811867E+03  0.11925002715E+04  0.25500000920E-02 0.  1.
</event>
<event>
 5   0  0.6393633E-06  0.2495635E+04  0.7818609E-02  0.8404542E-01
       -2   -1    0    0    0  501  0.00000000000E+00  0.00000000000E+00  0.24973790804E+04  0.24973790804E+04  0.25500000920E-02 0.  1.
        2   -1    0    0  501    0  0.00000000000E+00  0.00000000000E+00 -0.62347289584E+03  0.62347289584E+03  0.25500000920E-02 0. -1.
    10030    2    1    2    0    0  0.00000000000E+00  0.00000000000E+00  0.18739061846E+04  0.31208519762E+04  0.24956347227E+04 0.  0.
        4    1    3    3  502    0 -0.11243598524E+04 -0.22744606542E+03  0.32288354369E+03  0.11917097742E+04  0.12699999809E+01 0. -1.
       -4    1    3    3    0  502  0.11243598524E+04  0.22744606542E+03  0.15510226409E+04  0.19291422020E+04  0.12699999809E+01 0.  1.
</event>
<event>
 5   0  0.2159500E-06  0.2965113E+04  0.7818609E-02  0.8253764E-01
       -3   -1    0    0    0  501  0.00000000000E+00  0.00000000000E+00  0.11084597367E+04  0.11084597413E+04  0.10100000352E+00 0.  1.
        3   -1    0    0  501    0  0.00000000000E+00  0.00000000000E+00 -0.19829085248E+04  0.19829085274E+04  0.10100000352E+00 0. -1.
    10030    2    1    2    0    0  0.00000000000E+00  0.00000000000E+00 -0.87444878815E+03  0.30913682687E+04  0.29651133350E+04 0.  0.
        2    1    3    3  502    0  0.18525636693E+03  0.19198717845E+03  0.10832261212E+04  0.11155975206E+04  0.25500000920E-02 0.  1.
       -2    1    3    3    0  502 -0.18525636693E+03 -0.19198717845E+03 -0.19576749094E+04  0.19757707481E+04  0.25500000920E-02 0. -1.
</event>
<event>
 5   0  0.6393633E-06  0.2898971E+04  0.7818609E-02  0.8273184E-01
       -2   -1    0    0    0  501  0.00000000000E+00  0.00000000000E+00  0.16882420129E+04  0.16882420129E+04  0.25500000920E-02 0.  1.
        2   -1    0    0  501    0  0.00000000000E+00  0.00000000000E+00 -0.12444945412E+04  0.12444945412E+04  0.25500000920E-02 0. -1.
    10030    2    1    2    0    0  0.00000000000E+00  0.00000000000E+00  0.44374747169E+03  0.29327365540E+04  0.28989708306E+04 0.  0.
        4    1    3    3  502    0 -0.69972574835E+03 -0.48175457424E+03  0.14099901888E+04  0.16461401939E+04  0.12699999809E+01 0.  1.
       -4    1    3    3    0  502  0.69972574835E+03  0.48175457424E+03 -0.96624271707E+03  0.12865963601E+04  0.12699999809E+01 0. -1.
</event>
<event>
 5   0  0.6393633E-06  0.2921397E+04  0.7818609E-02  0.8266540E-01
        2   -1    0    0  501    0  0.00000000000E+00  0.00000000000E+00  0.11614947281E+04  0.11614947281E+04  0.25500000920E-02 0.  1.
       -2   -1    0    0    0  501  0.00000000000E+00  0.00000000000E+00 -0.18369773050E+04  0.18369773050E+04  0.25500000920E-02 0. -1.
    10030    2    1    2    0    0  0.00000000000E+00  0.00000000000E+00 -0.67548257691E+03  0.29984720332E+04  0.29213965534E+04 0.  0.
        4    1    3    3  502    0  0.14161920504E+03 -0.17669901021E+03 -0.18188513210E+04  0.18328939632E+04  0.12699999809E+01 0. -1.
       -4    1    3    3    0  502 -0.14161920504E+03  0.17669901021E+03  0.11433687441E+04  0.11655780700E+04  0.12699999809E+01 0.  1.
</event>
<event>
 5   0  0.6612533E-06  0.2935392E+04  0.7818609E-02  0.8262425E-01
        2   -1    0    0  501    0  0.00000000000E+00  0.00000000000E+00  0.97195761787E+03  0.97195761788E+03  0.25500000920E-02 0.  1.
       -2   -1    0    0    0  501  0.00000000000E+00  0.00000000000E+00 -0.22162810696E+04  0.22162810696E+04  0.25500000920E-02 0. -1.
    10030    2    1    2    0    0  0.00000000000E+00  0.00000000000E+00 -0.12443234518E+04  0.31882386875E+04  0.29353918096E+04 0.  0.
        3    1    3    3  502    0  0.13732377209E+04  0.19896058437E+02 -0.11843923806E+04  0.18135498374E+04  0.10100000352E+00 0. -1.
       -3    1    3    3    0  502 -0.13732377209E+04 -0.19896058437E+02 -0.59931071141E+02  0.13746888501E+04  0.10100000352E+00 0.  1.
</event>
<event>
 5   0  0.2429358E-06  0.2856926E+04  0.7818609E-02  0.8285810E-01
        1   -1    0    0  501    0  0.00000000000E+00  0.00000000000E+00  0.14586991865E+04  0.14586991865E+04  0.50400001928E-02 0.  1.
       -1   -1    0    0    0  501  0.00000000000E+00  0.00000000000E+00 -0.13988538382E+04  0.13988538382E+04  0.50400001928E-02 0. -1.
    10030    2    1    2    0    0  0.00000000000E+00  0.00000000000E+00  0.59845348253E+02  0.28575530247E+04  0.28569262894E+04 0.  0.
        2    1    3    3  502    0  0.10098754485E+04  0.98892146553E+03  0.23659053024E+03  0.14331047294E+04  0.25500000920E-02 0. -1.
       -2    1    3    3    0  502 -0.10098754485E+04 -0.98892146553E+03 -0.17674518199E+03  0.14244482953E+04  0.25500000920E-02 0.  1.
</event>
<event>
 5   0  0.2474769E-06  0.2839552E+04  0.7818609E-02  0.8291093E-01
       -1   -1    0    0    0  501  0.00000000000E+00  0.00000000000E+00  0.19026820025E+04  0.19026820025E+04  0.50400001928E-02 0.  1.
        1   -1    0    0  501    0  0.00000000000E+00  0.00000000000E+00 -0.10594327307E+04  0.10594327307E+04  0.50400001928E-02 0. -1.
    10030    2    1    2    0    0  0.00000000000E+00  0.00000000000E+00  0.84324927182E+03  0.29621147332E+04  0.28395517882E+04 0.  0.
        1    1    3    3  502    0  0.13308265216E+02  0.15247376317E+03  0.18940511080E+04  0.19002249756E+04  0.50400001928E-02 0.  1.
       -1    1    3    3    0  502 -0.13308265216E+02 -0.15247376317E+03 -0.10508018361E+04  0.10618897576E+04  0.50400001928E-02 0. -1.
</event>
<event>
 5   0  0.2348684E-06  0.2784595E+04  0.7818609E-02  0.8308067E-01
        1   -1    0    0  501    0  0.00000000000E+00  0.00000000000E+00  0.16714902729E+04  0.16714902729E+04  0.50400001928E-02 0.  1.
       -1   -1    0    0    0  501  0.00000000000E+00  0.00000000000E+00 -0.11597387472E+04  0.11597387472E+04  0.50400001928E-02 0. -1.
    10030    2    1    2    0    0  0.00000000000E+00  0.00000000000E+00  0.51175152573E+03  0.28312290201E+04  0.27845947892E+04 0.  0.
        5    1    3    3  502    0  0.60998060542E+03  0.80159275882E+03  0.12331399867E+04  0.15922573934E+04  0.46999998093E+01 0.  1.
       -5    1    3    3    0  502 -0.60998060542E+03 -0.80159275882E+03 -0.72138846102E+03  0.12389716267E+04  0.46999998093E+01 0. -1.
</event>
<event>
 5   0  0.6513041E-06  0.2906336E+04  0.7818609E-02  0.8270995E-01
        2   -1    0    0  501    0  0.00000000000E+00  0.00000000000E+00  0.18961412041E+04  0.18961412041E+04  0.25500000920E-02 0. -1.
       -2   -1    0    0    0  501  0.00000000000E+00  0.00000000000E+00 -0.11136814646E+04  0.11136814646E+04  0.25500000920E-02 0.  1.
    10030    2    1    2    0    0  0.00000000000E+00  0.00000000000E+00  0.78245973949E+03  0.30098226686E+04  0.29063360530E+04 0.  0.
        1    1    3    3  502    0  0.28592140915E+03 -0.14132524859E+04  0.57839613882E+03  0.15535687093E+04  0.50400001928E-02 0. -1.
       -1    1    3    3    0  502 -0.28592140915E+03  0.14132524859E+04  0.20406360067E+03  0.14562539594E+04  0.50400001928E-02 0.  1.
</event>
<event>
 5   0  0.6733688E-06  0.2886389E+04  0.7818609E-02  0.8276939E-01
        2   -1    0    0  501    0  0.00000000000E+00  0.00000000000E+00  0.12145795284E+04  0.12145795284E+04  0.25500000920E-02 0. -1.
       -2   -1    0    0    0  501  0.00000000000E+00  0.00000000000E+00 -0.17148405583E+04  0.17148405583E+04  0.25500000920E-02 0.  1.
    10030    2    1    2    0    0  0.00000000000E+00  0.00000000000E+00 -0.50026102986E+03  0.29294200867E+04  0.28863889111E+04 0.  0.
        5    1    3    3  502    0 -0.16218109492E+03 -0.88089394720E+02  0.12025453302E+04  0.12166346247E+04  0.46999998093E+01 0. -1.
       -5    1    3    3    0  502  0.16218109492E+03  0.88089394720E+02 -0.17028063600E+04  0.17127854620E+04  0.46999998093E+01 0.  1.
</event>
<event>
 5   0  0.6393633E-06  0.2895200E+04  0.7818609E-02  0.8274307E-01
       -2   -1    0    0    0  501  0.00000000000E+00  0.00000000000E+00  0.10046472838E+04  0.10046472838E+04  0.25500000920E-02 0.  1.
        2   -1    0    0  501    0  0.00000000000E+00  0.00000000000E+00 -0.20858518174E+04  0.20858518174E+04  0.25500000920E-02 0. -1.
    10030    2    1    2    0    0  0.00000000000E+00  0.00000000000E+00 -0.10812045336E+04  0.30904991011E+04  0.28951997255E+04 0.  0.
        4    1    3    3  502    0  0.55162052728E+03  0.98584972749E+03 -0.15068470661E+04  0.18832882373E+04  0.12699999809E+01 0. -1.
       -4    1    3    3    0  502 -0.55162052728E+03 -0.98584972749E+03  0.42564253251E+03  0.12072108638E+04  0.12699999809E+01 0.  1.
</event>
<event>
 5   0  0.2348684E-06  0.2896797E+04  0.7818609E-02  0.8273831E-01
        1   -1    0    0  501    0  0.00000000000E+00  0.00000000000E+00  0.25090870644E+04  0.25090870644E+04  0.50400001928E-02 0. -1.
       -1   -1    0    0    0  501  0.00000000000E+00  0.00000000000E+00 -0.83610444183E+03  0.83610444184E+03  0.50400001928E-02 0.  1.
    10030    2    1    2    0    0  0.00000000000E+00  0.00000000000E+00  0.16729826226E+04  0.33451915062E+04  0.28967974313E+04 0.  0.
        5    1    3    3  502    0  0.84006289783E+03  0.10711962917E+04  0.14076974269E+04  0.19582648706E+04  0.46999998093E+01 0.  1.
       -5    1    3    3    0  502 -0.84006289783E+03 -0.10711962917E+04  0.26528519571E+03  0.13869266357E+04  0.46999998093E+01 0. -1.
</event>
<event>
 5   0  0.2474769E-06  0.2985629E+04  0.7818609E-02  0.8247847E-01
       -1   -1    0    0    0  501  0.00000000000E+00  0.00000000000E+00  0.10883784116E+04  0.10883784117E+04  0.50400001928E-02 0.  1.
        1   -1    0    0  501    0  0.00000000000E+00  0.00000000000E+00 -0.20475370145E+04  0.20475370145E+04  0.50400001928E-02 0. -1.
    10030    2    1    2    0    0  0.00000000000E+00  0.00000000000E+00 -0.95915860281E+03  0.31359154261E+04  0.29856289680E+04 0.  0.
        1    1    3    3  502    0  0.11415869069E+04  0.73755204703E+02  0.52777761721E+03  0.12598451133E+04  0.50400001928E-02 0.  1.
       -1    1    3    3    0  502 -0.11415869069E+04 -0.73755204703E+02 -0.14869362200E+04  0.18760703128E+04  0.50400001928E-02 0. -1.
</event>
<event>
 5   0  0.2429358E-06  0.2904413E+04  0.7818609E-02  0.8271566E-01
        1   -1    0    0  501    0  0.00000000000E+00  0.00000000000E+00  0.21244393634E+04  0.21244393634E+04  0.50400001928E-02 0.  1.
       -1   -1    0    0    0  501  0.00000000000E+00  0.00000000000E+00 -0.99268716312E+03  0.99268716313E+03  0.50400001928E-02 0. -1.
    10030    2    1    2    0    0  0.00000000000E+00  0.00000000000E+00  0.11317522002E+04  0.31171265265E+04  0.29044129767E+04 0.  0.
        2    1    3    3  502    0  0.15855247473E+02  0.65272665877E+03 -0.82627550102E+03  0.10531071567E+04  0.25500000920E-02 0. -1.
       -2    1    3    3    0  502 -0.15855247473E+02 -0.65272665877E+03  0.19580277013E+04  0.20640193698E+04  0.25500000920E-02 0.  1.
</event>
<event>
 5   0  0.2429358E-06  0.2882173E+04  0.7818609E-02  0.8278201E-01
       -1   -1    0    0    0  501  0.00000000000E+00  0.00000000000E+00  0.80850913779E+03  0.80850913781E+03  0.50400001928E-02 0. -1.
        1   -1    0    0  501    0  0.00000000000E+00  0.00000000000E+00 -0.25685920622E+04  0.25685920622E+04  0.50400001928E-02 0.  1.
    10030    2    1    2    0    0  0.00000000000E+00  0.00000000000E+00 -0.17600829244E+04  0.33771012000E+04  0.28821728981E+04 0.  0.
        2    1    3    3  502    0  0.36262382642E+03  0.15733821513E+02  0.75407252559E+03  0.83688049713E+03  0.25500000920E-02 0. -1.
       -2    1    3    3    0  502 -0.36262382642E+03 -0.15733821513E+02 -0.25141554500E+04  0.25402207029E+04  0.25500000920E-02 0.  1.
</event>
<event>
 5   0  0.2348684E-06  0.2891035E+04  0.7818609E-02  0.8275550E-01
       -1   -1    0    0    0  501  0.00000000000E+00  0.00000000000E+00  0.28386935377E+04  0.28386935377E+04  0.50400001928E-02 0. -1.
        1   -1    0    0  501    0  0.00000000000E+00  0.00000000000E+00 -0.73608539416E+03  0.73608539417E+03  0.50400001928E-02 0.  1.
    10030    2    1    2    0    0  0.00000000000E+00  0.00000000000E+00  0.21026081435E+04  0.35747789319E+04  0.28910350061E+04 0.  0.
        5    1    3    3  502    0  0.13845966014E+04 -0.41368365601E+03  0.10074674758E+04  0.17616057223E+04  0.46999998093E+01 0.  1.
       -5    1    3    3    0  502 -0.13845966014E+04  0.41368365601E+03  0.10951406678E+04  0.18131732096E+04  0.46999998093E+01 0. -1.
</event>
<event>
 5   0  0.6513041E-06  0.2918654E+04  0.7818609E-02  0.8267349E-01
       -2   -1    0    0    0  501  0.00000000000E+00  0.00000000000E+00  0.10031345757E+04  0.10031345757E+04  0.25500000920E-02 0.  1.
        2   -1    0    0  501    0  0.00000000000E+00  0.00000000000E+00 -0.21229809601E+04  0.21229809601E+04  0.25500000920E-02 0. -1.
    10030    2    1    2    0    0  0.00000000000E+00  0.00000000000E+00 -0.11198463844E+04  0.31261155358E+04  0.29186542136E+04 0.  0.
        1    1    3    3  502    0  0.76423602173E+02  0.12840925384E+04  0.17819192502E+03  0.12986479802E+04  0.50400001928E-02 0.  1.
       -1    1    3    3    0  502 -0.76423602173E+02 -0.12840925384E+04 -0.12980383094E+04  0.18274675557E+04  0.50400001928E-02 0. -1.
</event>
<event>
 5   0  0.2336512E-06  0.2898880E+04  0.7818609E-02  0.8273211E-01
        1   -1    0    0  501    0  0.00000000000E+00  0.00000000000E+00  0.17115888559E+04  0.17115888559E+04  0.50400001928E-02 0.  1.
       -1   -1    0    0    0  501  0.00000000000E+00  0.00000000000E+00 -0.12274420268E+04  0.12274420268E+04  0.50400001928E-02 0. -1.
    10030    2    1    2    0    0  0.00000000000E+00  0.00000000000E+00  0.48414682916E+03  0.29390308827E+04  0.28988798487E+04 0.  0.
        4    1    3    3  502    0  0.64935164761E+03 -0.12769040219E+04  0.18260224396E+02  0.14326466738E+04  0.12699999809E+01 0.  1.
       -4    1    3    3    0  502 -0.64935164761E+03  0.12769040219E+04  0.46588660476E+03  0.15063842089E+04  0.12699999809E+01 0. -1.
</event>
<event>
 5   0  0.2474769E-06  0.2900264E+04  0.7818609E-02  0.8272799E-01
       -1   -1    0    0    0  501  0.00000000000E+00  0.00000000000E+00  0.12216295480E+04  0.12216295480E+04  0.50400001928E-02 0.  1.
        1   -1    0    0  501    0  0.00000000000E+00  0.00000000000E+00 -0.17213753665E+04  0.17213753665E+04  0.50400001928E-02 0. -1.
    10030    2    1    2    0    0  0.00000000000E+00  0.00000000000E+00 -0.49974581842E+03  0.29430049145E+04  0.29002641335E+04 0.  0.
        1    1    3    3  502    0 -0.14760753825E+03 -0.63577542614E+03 -0.15639021449E+04  0.16946351515E+04  0.50400001928E-02 0. -1.
       -1    1    3    3    0  502  0.14760753825E+03  0.63577542614E+03  0.10641563265E+04  0.12483697630E+04  0.50400001928E-02 0.  1.
</event>
<event>
 5   0  0.6393633E-06  0.2898264E+04  0.7818609E-02  0.8273394E-01
        2   -1    0    0  501    0  0.00000000000E+00  0.00000000000E+00  0.16230833845E+04  0.16230833845E+04  0.25500000920E-02 0. -1.
       -2   -1    0    0    0  501  0.00000000000E+00  0.00000000000E+00 -0.12938232115E+04  0.12938232115E+04  0.25500000920E-02 0.  1.
    10030    2    1    2    0    0  0.00000000000E+00  0.00000000000E+00  0.32926017304E+03  0.29169065959E+04  0.28982635884E+04 0.  0.
        4    1    3    3  502    0  0.81605975861E+03  0.34004170662E+03 -0.99097155151E+03  0.13280090815E+04  0.12699999809E+01 0.  1.
       -4    1    3    3    0  502 -0.81605975861E+03 -0.34004170662E+03  0.13202317245E+04  0.15888975144E+04  0.12699999809E+01 0. -1.
</event>
<event>
 5   0  0.2348684E-06  0.2870438E+04  0.7818609E-02  0.8281728E-01
       -1   -1    0    0    0  501  0.00000000000E+00  0.00000000000E+00  0.12303993223E+04  0.12303993224E+04  0.50400001928E-02 0.  1.
        1   -1    0    0  501    0  0.00000000000E+00  0.00000000000E+00 -0.16741345908E+04  0.16741345908E+04  0.50400001928E-02 0. -1.
    10030    2    1    2    0    0  0.00000000000E+00  0.00000000000E+00 -0.44373526849E+03  0.29045339132E+04  0.28704383401E+04 0.  0.
        5    1    3    3  502    0 -0.13655101206E+04 -0.25895028723E+03  0.14037745387E+03  0.13969255744E+04  0.46999998093E+01 0.  1.
       -5    1    3    3    0  502  0.13655101206E+04  0.25895028723E+03 -0.58411272236E+03  0.15076083388E+04  0.46999998093E+01 0. -1.
</event>
<event>
 5   0  0.2348684E-06  0.2913937E+04  0.7818609E-02  0.8268743E-01
       -1   -1    0    0    0  501  0.00000000000E+00  0.00000000000E+00  0.13896161220E+04  0.13896161220E+04  0.50400001928E-02 0.  1.
        1   -1    0    0  501    0  0.00000000000E+00  0.00000000000E+00 -0.15275851794E+04  0.15275851794E+04  0.50400001928E-02 0. -1.
    10030    2    1    2    0    0  0.00000000000E+00  0.00000000000E+00 -0.13796905739E+03  0.29172013013E+04  0.29139368510E+04 0.  0.
        5    1    3    3  502    0  0.85170764106E+03  0.11815081206E+04 -0.31962592250E+02  0.14568496979E+04  0.46999998093E+01 0.  1.
       -5    1    3    3    0  502 -0.85170764106E+03 -0.11815081206E+04 -0.10600646514E+03  0.14603516034E+04  0.46999998093E+01 0. -1.
</event>
<event>
 5   0  0.2336512E-06  0.2912334E+04  0.7818609E-02  0.8269217E-01
       -1   -1    0    0    0  501  0.00000000000E+00  0.00000000000E+00  0.13073549576E+04  0.13073549576E+04  0.50400001928E-02 0.  1.
        1   -1    0    0  501    0  0.00000000000E+00  0.00000000000E+00 -0.16219180517E+04  0.16219180517E+04  0.50400001928E-02 0. -1.
    10030    2    1    2    0    0  0.00000000000E+00  0.00000000000E+00 -0.31456309411E+03  0.29292730093E+04  0.29123341880E+04 0.  0.
        4    1    3    3  502    0 -0.38763052464E+03  0.51640398815E+03 -0.14700511081E+04  0.16056096586E+04  0.12699999809E+01 0. -1.
       -4    1    3    3    0  502  0.38763052464E+03 -0.51640398815E+03  0.11554880139E+04  0.13236633507E+04  0.12699999809E+01 0.  1.
</event>
<event>
 5   0  0.6513041E-06  0.2600560E+04  0.7818609E-02  0.8368011E-01
       -2   -1    0    0    0  501  0.00000000000E+00  0.00000000000E+00  0.92988260008E+03  0.92988260008E+03  0.25500000920E-02 0. -1.
        2   -1    0    0  501    0  0.00000000000E+00  0.00000000000E+00 -0.18182171265E+04  0.18182171265E+04  0.25500000920E-02 0.  1.
    10030    2    1    2    0    0  0.00000000000E+00  0.00000000000E+00 -0.88833452638E+03  0.27480997265E+04  0.26005603004E+04 0.  0.
        1    1    3    3  502    0  0.12336439136E+02 -0.10930675066E+03  0.92495689232E+03  0.93147485535E+03  0.50400001928E-02 0. -1.
       -1    1    3    3    0  502 -0.12336439136E+02  0.10930675066E+03 -0.18132914187E+04  0.18166248712E+04  0.50400001928E-02 0.  1.
</event>
<event>
 5   0  0.2336512E-06  0.2883483E+04  0.7818609E-02  0.8277809E-01
        1   -1    0    0  501    0  0.00000000000E+00  0.00000000000E+00  0.20822812805E+04  0.20822812805E+04  0.50400001928E-02 0.  1.
       -1   -1    0    0    0  501  0.00000000000E+00  0.00000000000E+00 -0.99824099096E+03  0.99824099097E+03  0.50400001928E-02 0. -1.
    10030    2    1    2    0    0  0.00000000000E+00  0.00000000000E+00  0.10840402895E+04  0.30805222715E+04  0.28834829834E+04 0.  0.
        4    1    3    3  502    0 -0.10494641082E+04  0.96439597776E+03  0.77407837348E+03  0.16219227656E+04  0.12699999809E+01 0.  1.
       -4    1    3    3    0  502  0.10494641082E+04 -0.96439597776E+03  0.30996191603E+03  0.14585995059E+04  0.12699999809E+01 0. -1.
</event>
<event>
 5   0  0.6513041E-06  0.2833688E+04  0.7818609E-02  0.8292885E-01
        2   -1    0    0  501    0  0.00000000000E+00  0.00000000000E+00  0.19232297526E+04  0.19232297526E+04  0.25500000920E-02 0. -1.
       -2   -1    0    0    0  501  0.00000000000E+00  0.00000000000E+00 -0.10437891553E+04  0.10437891553E+04  0.25500000920E-02 0.  1.
    10030    2    1    2    0    0  0.00000000000E+00  0.00000000000E+00  0.87944059734E+03  0.29670189080E+04  0.28336876038E+04 0.  0.
        1    1    3    3  502    0  0.29919524145E+03  0.79214125604E+03 -0.74970558727E+03  0.11309571299E+04  0.50400001928E-02 0.  1.
       -1    1    3    3    0  502 -0.29919524145E+03 -0.79214125604E+03  0.16291461846E+04  0.18360617781E+04  0.50400001928E-02 0. -1.
</event>
<event>
 5   0  0.6612533E-06  0.2871155E+04  0.7818609E-02  0.8281512E-01
        2   -1    0    0  501    0  0.00000000000E+00  0.00000000000E+00  0.14851905283E+04  0.14851905283E+04  0.25500000920E-02 0. -1.
       -2   -1    0    0    0  501  0.00000000000E+00  0.00000000000E+00 -0.13876214537E+04  0.13876214537E+04  0.25500000920E-02 0.  1.
    10030    2    1    2    0    0  0.00000000000E+00  0.00000000000E+00  0.97569074630E+02  0.28728119820E+04  0.28711546388E+04 0.  0.
        3    1    3    3  502    0 -0.90472740630E+03 -0.64474189067E+03  0.95851695915E+03  0.14673031577E+04  0.10100000352E+00 0. -1.
       -3    1    3    3    0  502  0.90472740630E+03  0.64474189067E+03 -0.86094788452E+03  0.14055088244E+04  0.10100000352E+00 0.  1.
</event>
<event>
 5   0  0.6612533E-06  0.2914872E+04  0.7818609E-02  0.8268466E-01
        2   -1    0    0  501    0  0.00000000000E+00  0.00000000000E+00  0.21256308258E+04  0.21256308258E+04  0.25500000920E-02 0.  1.
       -2   -1    0    0    0  501  0.00000000000E+00  0.00000000000E+00 -0.99928926414E+03  0.99928926414E+03  0.25500000920E-02 0. -1.
    10030    2    1    2    0    0  0.00000000000E+00  0.00000000000E+00  0.11263415617E+04  0.31249200900E+04  0.29148722537E+04 0.  0.
        3    1    3    3  502    0 -0.13633429235E+04  0.47541642761E+03  0.77595619446E+03  0.16391561038E+04  0.10100000352E+00 0. -1.
       -3    1    3    3    0  502  0.13633429235E+04 -0.47541642761E+03  0.35038536723E+03  0.14857639862E+04  0.10100000352E+00 0.  1.
</event>
<event>
 5   0  0.2474769E-06  0.2886073E+04  0.7818609E-02  0.8277033E-01
        1   -1    0    0  501    0  0.00000000000E+00  0.00000000000E+00  0.16629596827E+04  0.16629596827E+04  0.50400001928E-02 0. -1.
       -1   -1    0    0    0  501  0.00000000000E+00  0.00000000000E+00 -0.12521975804E+04  0.12521975804E+04  0.50400001928E-02 0.  1.
    10030    2    1    2    0    0  0.00000000000E+00  0.00000000000E+00  0.41076210236E+03  0.29151572631E+04  0.28860728272E+04 0.  0.
        1    1    3    3  502    0  0.89209121719E+03  0.10377468216E+04 -0.25706337238E+03  0.13924176037E+04  0.50400001928E-02 0.  1.
       -1    1    3    3    0  502 -0.89209121719E+03 -0.10377468216E+04  0.66782547474E+03  0.15227396594E+04  0.50400001928E-02 0. -1.
</event>
<event>
 5   0  0.2348684E-06  0.2867088E+04  0.7818609E-02  0.8282738E-01
       -1   -1    0    0    0  501  0.00000000000E+00  0.00000000000E+00  0.82150129234E+03  0.82150129236E+03  0.50400001928E-02 0. -1.
        1   -1    0    0  501    0  0.00000000000E+00  0.00000000000E+00 -0.25015772809E+04  0.25015772809E+04  0.50400001928E-02 0.  1.
    10030    2    1    2    0    0  0.00000000000E+00  0.00000000000E+00 -0.16800759886E+04  0.33230785733E+04  0.28670883971E+04 0.  0.
        5    1    3    3  502    0 -0.55938177655E+03 -0.95772295388E+01  0.68973500360E+03  0.88811945168E+03  0.46999998093E+01 0. -1.
       -5    1    3    3    0  502  0.55938177655E+03  0.95772295388E+01 -0.23698109922E+04  0.24349591216E+04  0.46999998093E+01 0.  1.
</event>
<event>
 5   0  0.6612533E-06  0.2897104E+04  0.7818609E-02  0.8273740E-01
       -2   -1    0    0    0  501  0.00000000000E+00  0.00000000000E+00  0.99930954222E+03  0.99930954222E+03  0.25500000920E-02 0. -1.
        2   -1    0    0  501    0  0.00000000000E+00  0.00000000000E+00 -0.20997530068E+04  0.20997530068E+04  0.25500000920E-02 0.  1.
    10030    2    1    2    0    0  0.00000000000E+00  0.00000000000E+00 -0.11004434646E+04  0.30990625490E+04  0.28971042204E+04 0.  0.
        3    1    3    3  502    0  0.15889422858E+03  0.86896532579E+03 -0.17782730890E+04  0.19855989783E+04  0.10100000352E+00 0.  1.
       -3    1    3    3    0  502 -0.15889422858E+03 -0.86896532579E+03  0.67782962445E+03  0.11134635707E+04  0.10100000352E+00 0. -1.
</event>
<event>
 5   0  0.2348684E-06  0.2906807E+04  0.7818609E-02  0.8270855E-01
        1   -1    0    0  501    0  0.00000000000E+00  0.00000000000E+00  0.13360801442E+04  0.13360801442E+04  0.50400001928E-02 0. -1.
       -1   -1    0    0    0  501  0.00000000000E+00  0.00000000000E+00 -0.15810289721E+04  0.15810289721E+04  0.50400001928E-02 0.  1.
    10030    2    1    2    0    0  0.00000000000E+00  0.00000000000E+00 -0.24494882791E+03  0.29171091163E+04  0.29068067820E+04 0.  0.
        5    1    3    3  502    0 -0.14237875360E+04 -0.23154429161E+02 -0.41445620416E+03  0.14830721865E+04  0.46999998093E+01 0. -1.
       -5    1    3    3    0  502  0.14237875360E+04  0.23154429161E+02  0.16950737625E+03  0.14340369298E+04  0.46999998093E+01 0.  1.
</event>
<event>
 5   0  0.6615403E-06  0.2906550E+04  0.7818609E-02  0.8270931E-01
       -2   -1    0    0    0  501  0.00000000000E+00  0.00000000000E+00  0.13936135497E+04  0.13936135497E+04  0.25500000920E-02 0.  1.
        2   -1    0    0  501    0  0.00000000000E+00  0.00000000000E+00 -0.15154911009E+04  0.15154911010E+04  0.25500000920E-02 0. -1.
    10030    2    1    2    0    0  0.00000000000E+00  0.00000000000E+00 -0.12187755124E+03  0.29091046507E+04  0.29065504866E+04 0.  0.
        2    1    3    3  502    0 -0.12676890234E+04  0.71061430666E+03 -0.61822577837E+02  0.14545893524E+04  0.25500000920E-02 0. -1.
       -2    1    3    3    0  502  0.12676890234E+04 -0.71061430666E+03 -0.60054973406E+02  0.14545152982E+04  0.25500000920E-02 0.  1.
</event>
<event>
 5   0  0.2508094E-06  0.2903687E+04  0.7818609E-02  0.8271781E-01
        1   -1    0    0  501    0  0.00000000000E+00  0.00000000000E+00  0.17190612946E+04  0.17190612946E+04  0.50400001928E-02 0.  1.
       -1   -1    0    0    0  501  0.00000000000E+00  0.00000000000E+00 -0.12261629668E+04  0.12261629668E+04  0.50400001928E-02 0. -1.
    10030    2    1    2    0    0  0.00000000000E+00  0.00000000000E+00  0.49289832778E+03  0.29452242614E+04  0.29036868269E+04 0.  0.
        3    1    3    3  502    0  0.27097285734E+03  0.12407588997E+04  0.96003303578E+03  0.15920340375E+04  0.10100000352E+00 0. -1.
       -3    1    3    3    0  502 -0.27097285734E+03 -0.12407588997E+04 -0.46713470801E+03  0.13531902239E+04  0.10100000352E+00 0.  1.
</event>
<event>
 5   0  0.2474769E-06  0.2877186E+04  0.7818609E-02  0.8279698E-01
       -1   -1    0    0    0  501  0.00000000000E+00  0.00000000000E+00  0.96086788353E+03  0.96086788354E+03  0.50400001928E-02 0. -1.
        1   -1    0    0  501    0  0.00000000000E+00  0.00000000000E+00 -0.21538335979E+04  0.21538335979E+04  0.50400001928E-02 0.  1.
    10030    2    1    2    0    0  0.00000000000E+00  0.00000000000E+00 -0.11929657144E+04  0.31147014814E+04  0.28771857992E+04 0.  0.
        1    1    3    3  502    0  0.97108100960E+03  0.10385746225E+04 -0.83344531237E+03  0.16481100274E+04  0.50400001928E-02 0.  1.
       -1    1    3    3    0  502 -0.97108100960E+03 -0.10385746225E+04 -0.35952040200E+03  0.14665914541E+04  0.50400001928E-02 0. -1.
</event>
<event>
 5   0  0.2336512E-06  0.2900768E+04  0.7818609E-02  0.8272649E-01
        1   -1    0    0  501    0  0.00000000000E+00  0.00000000000E+00  0.18460727683E+04  0.18460727683E+04  0.50400001928E-02 0. -1.
       -1   -1    0    0    0  501  0.00000000000E+00  0.00000000000E+00 -0.11395076354E+04  0.11395076354E+04  0.50400001928E-02 0.  1.
    10030    2    1    2    0    0  0.00000000000E+00  0.00000000000E+00  0.70656513284E+03  0.29855804037E+04  0.29007681845E+04 0.  0.
        4    1    3    3  502    0 -0.12158941628E+04  0.19916133096E+03  0.11408671444E+04  0.16791793546E+04  0.12699999809E+01 0. -1.
       -4    1    3    3    0  502  0.12158941628E+04 -0.19916133096E+03 -0.43430201155E+03  0.13064010491E+04  0.12699999809E+01 0.  1.
</event>
<event>
 5   0  0.6393633E-06  0.2932262E+04  0.7818609E-02  0.8263343E-01
       -2   -1    0    0    0  501  0.00000000000E+00  0.00000000000E+00  0.19835723933E+04  0.19835723933E+04  0.25500000920E-02 0.  1.
        2   -1    0    0  501    0  0.00000000000E+00  0.00000000000E+00 -0.10836712332E+04  0.10836712332E+04  0.25500000920E-02 0. -1.
    10030    2    1    2    0    0  0.00000000000E+00  0.00000000000E+00  0.89990116017E+03  0.30672436265E+04  0.29322621585E+04 0.  0.
        4    1    3    3  502    0 -0.96008981409E+03 -0.30082091730E+03 -0.66557067947E+03  0.12063381026E+04  0.12699999809E+01 0. -1.
       -4    1    3    3    0  502  0.96008981409E+03  0.30082091730E+03  0.15654718396E+04  0.18609055239E+04  0.12699999809E+01 0.  1.
</event>
<event>
 5   0  0.2508094E-06  0.2899342E+04  0.7818609E-02  0.8273073E-01
        1   -1    0    0  501    0  0.00000000000E+00  0.00000000000E+00  0.19240087065E+04  0.19240087065E+04  0.50400001928E-02 0.  1.
       -1   -1    0    0    0  501  0.00000000000E+00  0.00000000000E+00 -0.10922748500E+04  0.10922748500E+04  0.50400001928E-02 0. -1.
    10030    2    1    2    0    0  0.00000000000E+00  0.00000000000E+00  0.83173385649E+03  0.30162835565E+04  0.28993422160E+04 0.  0.
        3    1    3    3  502    0 -0.14142583098E+04 -0.26413593362E+03  0.23078119547E+03  0.14571047761E+04  0.10100000352E+00 0. -1.
       -3    1    3    3    0  502  0.14142583098E+04  0.26413593362E+03  0.60095266102E+03  0.15591787804E+04  0.10100000352E+00 0.  1.
</event>
<event>
 5   0  0.2348684E-06  0.2951176E+04  0.7818609E-02  0.8257812E-01
       -1   -1    0    0    0  501  0.00000000000E+00  0.00000000000E+00  0.25491941271E+04  0.25491941272E+04  0.50400001928E-02 0.  1.
        1   -1    0    0  501    0  0.00000000000E+00  0.00000000000E+00 -0.85413648930E+03  0.85413648931E+03  0.50400001928E-02 0. -1.
    10030    2    1    2    0    0  0.00000000000E+00  0.00000000000E+00  0.16950576379E+04  0.34033306165E+04  0.29511758486E+04 0.  0.
        5    1    3    3  502    0 -0.16330788353E+03  0.61005807476E+03 -0.69039796052E+03  0.93568785035E+03  0.46999998093E+01 0. -1.
       -5    1    3    3    0  502  0.16330788353E+03 -0.61005807476E+03  0.23854555984E+04  0.24676427661E+04  0.46999998093E+01 0.  1.
</event>
<event>
 5   0  0.2336512E-06  0.2876153E+04  0.7818609E-02  0.8280008E-01
        1   -1    0    0  501    0  0.00000000000E+00  0.00000000000E+00  0.16811960381E+04  0.16811960381E+04  0.50400001928E-02 0.  1.
       -1   -1    0    0    0  501  0.00000000000E+00  0.00000000000E+00 -0.12301143136E+04  0.12301143136E+04  0.50400001928E-02 0. -1.
    10030    2    1    2    0    0  0.00000000000E+00  0.00000000000E+00  0.45108172448E+03  0.29113103518E+04  0.28761525068E+04 0.  0.
        4    1    3    3  502    0 -0.98661565747E+03  0.10321210715E+04  0.39903419808E+03  0.14825364299E+04  0.12699999809E+01 0.  1.
       -4    1    3    3    0  502  0.98661565747E+03 -0.10321210715E+04  0.52047526392E+02  0.14287739219E+04  0.12699999809E+01 0. -1.
</event>
<event>
 5   0  0.6615403E-06  0.2881463E+04  0.7818609E-02  0.8278414E-01
       -2   -1    0    0    0  501  0.00000000000E+00  0.00000000000E+00  0.13881217196E+04  0.13881217196E+04  0.25500000920E-02 0. -1.
        2   -1    0    0  501    0  0.00000000000E+00  0.00000000000E+00 -0.14953349385E+04  0.14953349385E+04  0.25500000920E-02 0.  1.
    10030    2    1    2    0    0  0.00000000000E+00  0.00000000000E+00 -0.10721321892E+03  0.28834566580E+04  0.28814627578E+04 0.  0.
        2    1    3    3  502    0  0.69706545840E+03  0.77757171380E+03  0.93964703722E+03  0.14047969882E+04  0.25500000920E-02 0. -1.
       -2    1    3    3    0  502 -0.69706545840E+03 -0.77757171380E+03 -0.10468602561E+04  0.14786596699E+04  0.25500000920E-02 0.  1.
</event>
<event>
 5   0  0.6393633E-06  0.2888865E+04  0.7818609E-02  0.8276198E-01
        2   -1    0    0  501    0  0.00000000000E+00  0.00000000000E+00  0.15451895283E+04  0.15451895283E+04  0.25500000920E-02 0. -1.
       -2   -1    0    0    0  501  0.00000000000E+00  0.00000000000E+00 -0.13502452497E+04  0.13502452497E+04  0.25500000920E-02 0.  1.
    10030    2    1    2    0    0  0.00000000000E+00  0.00000000000E+00  0.19494427854E+03  0.28954347780E+04  0.28888647046E+04 0.  0.
        4    1    3    3  502    0  0.17956960355E+03  0.98328761209E+03  0.11425724331E+04  0.15180820625E+04  0.12699999809E+01 0. -1.
       -4    1    3    3    0  502 -0.17956960355E+03 -0.98328761209E+03 -0.94762815458E+03  0.13773527155E+04  0.12699999809E+01 0.  1.
</event>
<event>
 5   0  0.6393633E-06  0.2951463E+04  0.7818609E-02  0.8257728E-01
        2   -1    0    0  501    0  0.00000000000E+00  0.00000000000E+00  0.10140673927E+04  0.10140673927E+04  0.25500000920E-02 0.  1.
       -2   -1    0    0    0  501  0.00000000000E+00  0.00000000000E+00 -0.21475722049E+04  0.21475722049E+04  0.25500000920E-02 0. -1.
    10030    2    1    2    0    0  0.00000000000E+00  0.00000000000E+00 -0.11335048122E+04  0.31616395976E+04  0.29514626519E+04 0.  0.
        4    1    3    3  502    0 -0.69465050136E+03 -0.17437675774E+03 -0.19489197818E+04  0.20763517287E+04  0.12699999809E+01 0. -1.
       -4    1    3    3    0  502  0.69465050136E+03  0.17437675774E+03  0.81541496963E+03  0.10852878688E+04  0.12699999809E+01 0.  1.
</event>
<event>
 5   0  0.2336512E-06  0.2898821E+04  0.7818609E-02  0.8273228E-01
       -1   -1    0    0    0  501  0.00000000000E+00  0.00000000000E+00  0.15559970582E+04  0.15559970582E+04  0.50400001928E-02 0. -1.
        1   -1    0    0  501    0  0.00000000000E+00  0.00000000000E+00 -0.13501252587E+04  0.13501252587E+04  0.50400001928E-02 0.  1.
    10030    2    1    2    0    0  0.00000000000E+00  0.00000000000E+00  0.20587179944E+03  0.29061223169E+04  0.28988210919E+04 0.  0.
        4    1    3    3  502    0  0.12365278675E+04  0.73086831645E+03  0.29738228740E+03  0.14668358807E+04  0.12699999809E+01 0.  1.
       -4    1    3    3    0  502 -0.12365278675E+04 -0.73086831645E+03 -0.91510487965E+02  0.14392864362E+04  0.12699999809E+01 0. -1.
</event>
<event>
 5   0  0.6615403E-06  0.3068542E+04  0.7818609E-02  0.8224425E-01
        2   -1    0    0  501    0  0.00000000000E+00  0.00000000000E+00  0.25280320779E+04  0.25280320779E+04  0.25500000920E-02 0.  1.
       -2   -1    0    0    0  501  0.00000000000E+00  0.00000000000E+00 -0.93115383571E+03  0.93115383571E+03  0.25500000920E-02 0. -1.
    10030    2    1    2    0    0  0.00000000000E+00  0.00000000000E+00  0.15968782422E+04  0.34591859136E+04  0.30685415207E+04 0.  0.
        2    1    3    3  502    0 -0.11280996640E+03 -0.80365839431E+03  0.22662739991E+04  0.24071956177E+04  0.25500000920E-02 0.  1.
       -2    1    3    3    0  502  0.11280996640E+03  0.80365839431E+03 -0.66939575687E+03  0.10519902959E+04  0.25500000920E-02 0. -1.
</event>
<event>
 5   0  0.6393633E-06  0.2894908E+04  0.7818609E-02  0.8274394E-01
        2   -1    0    0  501    0  0.00000000000E+00  0.00000000000E+00  0.25548197953E+04  0.25548197953E+04  0.25500000920E-02 0.  1.
       -2   -1    0    0    0  501  0.00000000000E+00  0.00000000000E+00 -0.82006692099E+03  0.82006692100E+03  0.25500000920E-02 0. -1.
    10030    2    1    2    0    0  0.00000000000E+00  0.00000000000E+00  0.17347528743E+04  0.33748867163E+04  0.28949080837E+04 0.  0.
        4    1    3    3  502    0 -0.12846635370E+04  0.64417813036E+03  0.66614242452E+03  0.15840054323E+04  0.12699999809E+01 0. -1.
       -4    1    3    3    0  502  0.12846635370E+04 -0.64417813036E+03  0.10686104498E+04  0.17908812840E+04  0.12699999809E+01 0.  1.
</event>
<event>
 5   0  0.6733688E-06  0.2909981E+04  0.7818609E-02  0.8269914E-01
        2   -1    0    0  501    0  0.00000000000E+00  0.00000000000E+00  0.11966618724E+04  0.11966618724E+04  0.25500000920E-02 0.  1.
       -2   -1    0    0    0  501  0.00000000000E+00  0.00000000000E+00 -0.17690854202E+04  0.17690854202E+04  0.25500000920E-02 0. -1.
    10030    2    1    2    0    0  0.00000000000E+00  0.00000000000E+00 -0.57242354773E+03  0.29657472926E+04  0.29099808050E+04 0.  0.
        5    1    3    3  502    0  0.10825292237E+04 -0.55986602571E+03  0.52378661946E+03  0.13265345829E+04  0.46999998093E+01 0.  1.
       -5    1    3    3    0  502 -0.10825292237E+04  0.55986602571E+03 -0.10962101672E+04  0.16392127097E+04  0.46999998093E+01 0. -1.
</event>
<event>
 5   0  0.2429358E-06  0.3008575E+04  0.7818609E-02  0.8241287E-01
        1   -1    0    0  501    0  0.00000000000E+00  0.00000000000E+00  0.13881646859E+04  0.13881646859E+04  0.50400001928E-02 0.  1.
       -1   -1    0    0    0  501  0.00000000000E+00  0.00000000000E+00 -0.16301237668E+04  0.16301237668E+04  0.50400001928E-02 0. -1.
    10030    2    1    2    0    0  0.00000000000E+00  0.00000000000E+00 -0.24195908090E+03  0.30182884527E+04  0.30085745773E+04 0.  0.
        2    1    3    3  502    0 -0.68937603578E+03  0.54068533696E+03 -0.13477524309E+04  0.16074876570E+04  0.25500000920E-02 0. -1.
       -2    1    3    3    0  502  0.68937603578E+03 -0.54068533696E+03  0.11057933500E+04  0.14108007957E+04  0.25500000920E-02 0.  1.
</event>
<event>
 5   0  0.6733688E-06  0.2855308E+04  0.7818609E-02  0.8286300E-01
       -2   -1    0    0    0  501  0.00000000000E+00  0.00000000000E+00  0.15643510171E+04  0.15643510171E+04  0.25500000920E-02 0.  1.
        2   -1    0    0  501    0  0.00000000000E+00  0.00000000000E+00 -0.13029016764E+04  0.13029016764E+04  0.25500000920E-02 0. -1.
    10030    2    1    2    0    0  0.00000000000E+00  0.00000000000E+00  0.26144934065E+03  0.28672526935E+04  0.28553077331E+04 0.  0.
        5    1    3    3  502    0 -0.27635694442E+03 -0.22197381212E+03 -0.12580025301E+04  0.13069957879E+04  0.46999998093E+01 0. -1.
       -5    1    3    3    0  502  0.27635694442E+03  0.22197381212E+03  0.15194518707E+04  0.15602569056E+04  0.46999998093E+01 0.  1.
</event>
<event>
 5   0  0.2348684E-06  0.2859048E+04  0.7818609E-02  0.8285167E-01
       -1   -1    0    0    0  501  0.00000000000E+00  0.00000000000E+00  0.88126665471E+03  0.88126665472E+03  0.50400001928E-02 0. -1.
        1   -1    0    0  501    0  0.00000000000E+00  0.00000000000E+00 -0.23188656700E+04  0.23188656700E+04  0.50400001928E-02 0.  1.
    10030    2    1    2    0    0  0.00000000000E+00  0.00000000000E+00 -0.14375990152E+04  0.32001323247E+04  0.28590480875E+04 0.  0.
        5    1    3    3  502    0  0.61316084257E+03 -0.79692532486E+03 -0.18561209925E+04  0.21109863621E+04  0.46999998093E+01 0.  1.
       -5    1    3    3    0  502 -0.61316084257E+03  0.79692532486E+03  0.41852197728E+03  0.10891459625E+04  0.46999998093E+01 0. -1.
</event>
<event>
 5   0  0.2429358E-06  0.2882847E+04  0.7818609E-02  0.8277999E-01
       -1   -1    0    0    0  501  0.00000000000E+00  0.00000000000E+00  0.14039268057E+04  0.14039268058E+04  0.50400001928E-02 0. -1.
        1   -1    0    0  501    0  0.00000000000E+00  0.00000000000E+00 -0.14799214048E+04  0.14799214048E+04  0.50400001928E-02 0.  1.
    10030    2    1    2    0    0  0.00000000000E+00  0.00000000000E+00 -0.75994599036E+02  0.28838482106E+04  0.28828467393E+04 0.  0.
        2    1    3    3  502    0 -0.13882783431E+04  0.14471216468E+03  0.32190951072E+03  0.14324399120E+04  0.25500000920E-02 0. -1.
       -2    1    3    3    0  502  0.13882783431E+04 -0.14471216468E+03 -0.39790410976E+03  0.14514082985E+04  0.25500000920E-02 0.  1.
</event>
<event>
 5   0  0.6513041E-06  0.2896049E+04  0.7818609E-02  0.8274054E-01
       -2   -1    0    0    0  501  0.00000000000E+00  0.00000000000E+00  0.15279424207E+04  0.15279424207E+04  0.25500000920E-02 0. -1.
        2   -1    0    0  501    0  0.00000000000E+00  0.00000000000E+00 -0.13722861907E+04  0.13722861907E+04  0.25500000920E-02 0.  1.
    10030    2    1    2    0    0  0.00000000000E+00  0.00000000000E+00  0.15565622996E+03  0.29002286114E+04  0.28960485383E+04 0.  0.
        1    1    3    3  502    0 -0.29487030948E+03  0.23158234826E+03  0.14784874269E+04  0.15252881548E+04  0.50400001928E-02 0. -1.
       -1    1    3    3    0  502  0.29487030948E+03 -0.23158234826E+03 -0.13228311970E+04  0.13749404566E+04  0.50400001928E-02 0.  1.
</event>
<event>
 5   0  0.2336512E-06  0.2889849E+04  0.7818609E-02  0.8275904E-01
       -1   -1    0    0    0  501  0.00000000000E+00  0.00000000000E+00  0.20166652274E+04  0.20166652274E+04  0.50400001928E-02 0.  1.
        1   -1    0    0  501    0  0.00000000000E+00  0.00000000000E+00 -0.10352765796E+04  0.10352765796E+04  0.50400001928E-02 0. -1.
    10030    2    1    2    0    0  0.00000000000E+00  0.00000000000E+00  0.98138864776E+03  0.30519418070E+04  0.28898486319E+04 0.  0.
        4    1    3    3  502    0  0.49034992632E+03  0.97650673538E+03  0.14891307288E+04  0.18470301554E+04  0.12699999809E+01 0.  1.
       -4    1    3    3    0  502 -0.49034992632E+03 -0.97650673538E+03 -0.50774208101E+03  0.12049116516E+04  0.12699999809E+01 0. -1.
</event>
<event>
 5   0  0.6612533E-06  0.2917682E+04  0.7818609E-02  0.8267636E-01
       -2   -1    0    0    0  501  0.00000000000E+00  0.00000000000E+00  0.12521888327E+04  0.12521888327E+04  0.25500000920E-02 0.  1.
        2   -1    0    0  501    0  0.00000000000E+00  0.00000000000E+00 -0.16995978605E+04  0.16995978605E+04  0.25500000920E-02 0. -1.
    10030    2    1    2    0    0  0.00000000000E+00  0.00000000000E+00 -0.44740902780E+03  0.29517866932E+04  0.29176822726E+04 0.  0.
        3    1    3    3  502    0 -0.58929344480E+03 -0.12496313008E+04  0.25014219339E+03  0.14040713226E+04  0.10100000352E+00 0.  1.
       -3    1    3    3    0  502  0.58929344480E+03  0.12496313008E+04 -0.69755122120E+03  0.15477153706E+04  0.10100000352E+00 0. -1.
</event>
<event>
 5   0  0.2348684E-06  0.2889296E+04  0.7818609E-02  0.8276069E-01
        1   -1    0    0  501    0  0.00000000000E+00  0.00000000000E+00  0.18421187347E+04  0.18421187347E+04  0.50400001928E-02 0. -1.
       -1   -1    0    0    0  501  0.00000000000E+00  0.00000000000E+00 -0.11329386765E+04  0.11329386765E+04  0.50400001928E-02 0.  1.
    10030    2    1    2    0    0  0.00000000000E+00  0.00000000000E+00  0.70918005822E+03  0.29750574112E+04  0.28892958043E+04 0.  0.
        5    1    3    3  502    0 -0.25042254696E+03  0.13228704730E+04  0.89386036927E+03  0.16160774085E+04  0.46999998093E+01 0.  1.
       -5    1    3    3    0  502  0.25042254696E+03 -0.13228704730E+04 -0.18468031105E+03  0.13589800027E+04  0.46999998093E+01 0. -1.
</event>
<event>
 5   0  0.2508094E-06  0.2897110E+04  0.7818609E-02  0.8273738E-01
       -1   -1    0    0    0  501  0.00000000000E+00  0.00000000000E+00  0.18535884691E+04  0.18535884691E+04  0.50400001928E-02 0.  1.
        1   -1    0    0  501    0  0.00000000000E+00  0.00000000000E+00 -0.11320270385E+04  0.11320270385E+04  0.50400001928E-02 0. -1.
    10030    2    1    2    0    0  0.00000000000E+00  0.00000000000E+00  0.72156143063E+03  0.29856155076E+04  0.28971104675E+04 0.  0.
        3    1    3    3  502    0 -0.77973526459E+03  0.69408088799E+03 -0.67417872341E+03  0.12426794934E+04  0.10100000352E+00 0. -1.
       -3    1    3    3    0  502  0.77973526459E+03 -0.69408088799E+03  0.13957401540E+04  0.17429360142E+04  0.10100000352E+00 0.  1.
</event>
<event>
 5   0  0.2159500E-06  0.2864307E+04  0.7818609E-02  0.8283577E-01
        3   -1    0    0  501    0  0.00000000000E+00  0.00000000000E+00  0.19189173847E+04  0.19189173874E+04  0.10100000352E+00 0. -1.
       -3   -1    0    0    0  501  0.00000000000E+00  0.00000000000E+00 -0.10688648206E+04  0.10688648254E+04  0.10100000352E+00 0.  1.
    10030    2    1    2    0    0  0.00000000000E+00  0.00000000000E+00  0.85005256411E+03  0.29877822128E+04  0.28643067555E+04 0.  0.
        3    1    3    3  502    0 -0.78257702026E+03 -0.82879800326E+03 -0.47937351577E+03  0.12365807295E+04  0.10100000352E+00 0.  1.
       -3    1    3    3    0  502  0.78257702026E+03  0.82879800326E+03  0.13294260799E+04  0.17512014833E+04  0.10100000352E+00 0. -1.
</event>
<event>
 5   0  0.6615403E-06  0.2914719E+04  0.7818609E-02  0.8268512E-01
       -2   -1    0    0    0  501  0.00000000000E+00  0.00000000000E+00  0.75154071519E+03  0.75154071519E+03  0.25500000920E-02 0.  1.
        2   -1    0    0  501    0  0.00000000000E+00  0.00000000000E+00 -0.28260568478E+04  0.28260568478E+04  0.25500000920E-02 0. -1.
    10030    2    1    2    0    0  0.00000000000E+00  0.00000000000E+00 -0.20745161326E+04  0.35775975630E+04  0.29147190496E+04 0.  0.
        2    1    3    3  502    0 -0.12532568260E+03  0.64499681476E+03 -0.26339337122E+04  0.27146517674E+04  0.25500000920E-02 0. -1.
       -2    1    3    3    0  502  0.12532568260E+03 -0.64499681476E+03  0.55941757962E+03  0.86294579561E+03  0.25500000920E-02 0.  1.
</event>
<event>
 5   0  0.6733688E-06  0.2924151E+04  0.7818609E-02  0.8265728E-01
       -2   -1    0    0    0  501  0.00000000000E+00  0.00000000000E+00  0.13264583597E+04  0.13264583597E+04  0.25500000920E-02 0. -1.
        2   -1    0    0  501    0  0.00000000000E+00  0.00000000000E+00 -0.16115586511E+04  0.16115586511E+04  0.25500000920E-02 0.  1.
    10030    2    1    2    0    0  0.00000000000E+00  0.00000000000E+00 -0.28510029141E+03  0.29380170108E+04  0.29241514632E+04 0.  0.
        5    1    3    3  502    0  0.25819393696E+03  0.19638082769E+03  0.12898373171E+04  0.13300120049E+04  0.46999998093E+01 0. -1.
       -5    1    3    3    0  502 -0.25819393696E+03 -0.19638082769E+03 -0.15749376085E+04  0.16080050059E+04  0.46999998093E+01 0.  1.
</event>
<event>
 5   0  0.2336512E-06  0.2842541E+04  0.7818609E-02  0.8290182E-01
       -1   -1    0    0    0  501  0.00000000000E+00  0.00000000000E+00  0.10356682648E+04  0.10356682648E+04  0.50400001928E-02 0.  1.
        1   -1    0    0  501    0  0.00000000000E+00  0.00000000000E+00 -0.19504406978E+04  0.19504406978E+04  0.50400001928E-02 0. -1.
    10030    2    1    2    0    0  0.00000000000E+00  0.00000000000E+00 -0.91477243301E+03  0.29861089625E+04  0.28425407881E+04 0.  0.
        4    1    3    3  502    0  0.73280675917E+03  0.12174989220E+04 -0.48515119287E+03  0.15015600768E+04  0.12699999809E+01 0.  1.
       -4    1    3    3    0  502 -0.73280675917E+03 -0.12174989220E+04 -0.42962124013E+03  0.14845488858E+04  0.12699999809E+01 0. -1.
</event>
<event>
 5   0  0.6393633E-06  0.2903342E+04  0.7818609E-02  0.8271884E-01
        2   -1    0    0  501    0  0.00000000000E+00  0.00000000000E+00  0.29803886024E+04  0.29803886024E+04  0.25500000920E-02 0.  1.
       -2   -1    0    0    0  501  0.00000000000E+00  0.00000000000E+00 -0.70707187932E+03  0.70707187933E+03  0.25500000920E-02 0. -1.
    10030    2    1    2    0    0  0.00000000000E+00  0.00000000000E+00  0.22733167231E+04  0.36874604818E+04  0.29033421915E+04 0.  0.
        4    1    3    3  502    0  0.41425636092E+03 -0.34284548336E+03  0.28492329607E+04  0.28995312441E+04  0.12699999809E+01 0.  1.
       -4    1    3    3    0  502 -0.41425636092E+03  0.34284548336E+03 -0.57591623758E+03  0.78792923771E+03  0.12699999809E+01 0. -1.
</event>
<event>
 5   0  0.2348684E-06  0.2701846E+04  0.7818609E-02  0.8334406E-01
        1   -1    0    0  501    0  0.00000000000E+00  0.00000000000E+00  0.15078113921E+04  0.15078113922E+04  0.50400001928E-02 0. -1.
       -1   -1    0    0    0  501  0.00000000000E+00  0.00000000000E+00 -0.12103589183E+04  0.12103589184E+04  0.50400001928E-02 0.  1.
    10030    2    1    2    0    0  0.00000000000E+00  0.00000000000E+00  0.29745247380E+03  0.27181703105E+04  0.27018460102E+04 0.  0.
        5    1    3    3  502    0 -0.10131166759E+03 -0.10881066865E+04 -0.65025769048E+03  0.12716514338E+04  0.46999998093E+01 0.  1.
       -5    1    3    3    0  502  0.10131166759E+03  0.10881066865E+04  0.94771016428E+03  0.14465188767E+04  0.46999998093E+01 0. -1.
</event>
<event>
 5   0  0.6615403E-06  0.2765272E+04  0.7818609E-02  0.8314132E-01
        2   -1    0    0  501    0  0.00000000000E+00  0.00000000000E+00  0.26802475560E+04  0.26802475560E+04  0.25500000920E-02 0. -1.
       -2   -1    0    0    0  501  0.00000000000E+00  0.00000000000E+00 -0.71324838100E+03  0.71324838101E+03  0.25500000920E-02 0.  1.
    10030    2    1    2    0    0  0.00000000000E+00  0.00000000000E+00  0.19669991750E+04  0.33934959370E+04  0.27652719432E+04 0.  0.
        2    1    3    3  502    0 -0.89592815495E+03  0.64732861212E+03 -0.35846462121E+02  0.11058962699E+04  0.25500000920E-02 0.  1.
       -2    1    3    3    0  502  0.89592815495E+03 -0.64732861212E+03  0.20028456371E+04  0.22875996671E+04  0.25500000920E-02 0. -1.
</event>
<event>
 5   0  0.6612533E-06  0.2908349E+04  0.7818609E-02  0.8270398E-01
       -2   -1    0    0    0  501  0.00000000000E+00  0.00000000000E+00  0.89402060714E+03  0.89402060714E+03  0.25500000920E-02 0. -1.
        2   -1    0    0  501    0  0.00000000000E+00  0.00000000000E+00 -0.23652967323E+04  0.23652967323E+04  0.25500000920E-02 0.  1.
    10030    2    1    2    0    0  0.00000000000E+00  0.00000000000E+00 -0.14712761252E+04  0.32593173395E+04  0.29083493743E+04 0.  0.
        3    1    3    3  502    0 -0.83403329955E+03 -0.11610585714E+04 -0.10341577506E+04  0.17644123142E+04  0.10100000352E+00 0.  1.
       -3    1    3    3    0  502  0.83403329955E+03  0.11610585714E+04 -0.43711837456E+03  0.14949050253E+04  0.10100000352E+00 0. -1.
</event>
<event>
 5   0  0.2429358E-06  0.2867614E+04  0.7818609E-02  0.8282579E-01
        1   -1    0    0  501    0  0.00000000000E+00  0.00000000000E+00  0.17305698845E+04  0.17305698845E+04  0.50400001928E-02 0. -1.
       -1   -1    0    0    0  501  0.00000000000E+00  0.00000000000E+00 -0.11879336184E+04  0.11879336184E+04  0.50400001928E-02 0.  1.
    10030    2    1    2    0    0  0.00000000000E+00  0.00000000000E+00  0.54263626614E+03  0.29185035029E+04  0.28676137430E+04 0.  0.
        2    1    3    3  502    0 -0.78516476320E+03 -0.40658766759E+03  0.14200670538E+04  0.16728382092E+04  0.25500000920E-02 0. -1.
       -2    1    3    3    0  502  0.78516476320E+03  0.40658766759E+03 -0.87743078764E+03  0.12456652937E+04  0.25500000920E-02 0.  1.
</event>
<event>
 5   0  0.2348684E-06  0.2915899E+04  0.7818609E-02  0.8268163E-01
        1   -1    0    0  501    0  0.00000000000E+00  0.00000000000E+00  0.16156079168E+04  0.16156079169E+04  0.50400001928E-02 0.  1.
       -1   -1    0    0    0  501  0.00000000000E+00  0.00000000000E+00 -0.13156761855E+04  0.13156761855E+04  0.50400001928E-02 0. -1.
    10030    2    1    2    0    0  0.00000000000E+00  0.00000000000E+00  0.29993173132E+03  0.29312841024E+04  0.29158990801E+04 0.  0.
        5    1    3    3  502    0 -0.50273373044E+01 -0.40205783723E+03  0.15587589428E+04  0.16097910767E+04  0.46999998093E+01 0.  1.
       -5    1    3    3    0  502  0.50273373044E+01  0.40205783723E+03 -0.12588272115E+04  0.13214930257E+04  0.46999998093E+01 0. -1.
</event>
<event>
 5   0  0.6612533E-06  0.2954002E+04  0.7818609E-02  0.8256989E-01
        2   -1    0    0  501    0  0.00000000000E+00  0.00000000000E+00  0.14365321938E+04  0.14365321938E+04  0.25500000920E-02 0.  1.
       -2   -1    0    0    0  501  0.00000000000E+00  0.00000000000E+00 -0.15186102764E+04  0.15186102764E+04  0.25500000920E-02 0. -1.
    10030    2    1    2    0    0  0.00000000000E+00  0.00000000000E+00 -0.82078082656E+02  0.29551424702E+04  0.29540024048E+04 0.  0.
        3    1    3    3  502    0  0.89531056727E+03  0.11497301100E+04  0.20003571342E+03  0.14708754653E+04  0.10100000352E+00 0.  1.
       -3    1    3    3    0  502 -0.89531056727E+03 -0.11497301100E+04 -0.28211379608E+03  0.14842670049E+04  0.10100000352E+00 0. -1.
</event>
<event>
 5   0  0.6612533E-06  0.2885696E+04  0.7818609E-02  0.8277146E-01
        2   -1    0    0  501    0  0.00000000000E+00  0.00000000000E+00  0.11754422967E+04  0.11754422967E+04  0.25500000920E-02 0. -1.
       -2   -1    0    0    0  501  0.00000000000E+00  0.00000000000E+00 -0.17710872427E+04  0.17710872427E+04  0.25500000920E-02 0.  1.
    10030    2    1    2    0    0  0.00000000000E+00  0.00000000000E+00 -0.59564494595E+03  0.29465295394E+04  0.28856963501E+04 0.  0.
        3    1    3    3  502    0  0.98799817734E+03 -0.94871965924E+03  0.16516928704E+03  0.13796703569E+04  0.10100000352E+00 0.  1.
       -3    1    3    3    0  502 -0.98799817734E+03  0.94871965924E+03 -0.76081423299E+03  0.15668591824E+04  0.10100000352E+00 0. -1.
</event>
<event>
 5   0  0.6615403E-06  0.2864815E+04  0.7818609E-02  0.8283424E-01
       -2   -1    0    0    0  501  0.00000000000E+00  0.00000000000E+00  0.14904166344E+04  0.14904166344E+04  0.25500000920E-02 0.  1.
        2   -1    0    0  501    0  0.00000000000E+00  0.00000000000E+00 -0.13766558006E+04  0.13766558007E+04  0.25500000920E-02 0. -1.
    10030    2    1    2    0    0  0.00000000000E+00  0.00000000000E+00  0.11376083379E+03  0.28670724351E+04  0.28648146224E+04 0.  0.
        2    1    3    3  502    0 -0.66318463646E+00  0.64693137271E+03 -0.12221213418E+04  0.13827874800E+04  0.25500000920E-02 0. -1.
       -2    1    3    3    0  502  0.66318463646E+00 -0.64693137271E+03  0.13358821756E+04  0.14842849551E+04  0.25500000920E-02 0.  1.
</event>
<event>
 5   0  0.2474769E-06  0.2913090E+04  0.7818609E-02  0.8268993E-01
        1   -1    0    0  501    0  0.00000000000E+00  0.00000000000E+00  0.11987160171E+04  0.11987160171E+04  0.50400001928E-02 0. -1.
       -1   -1    0    0    0  501  0.00000000000E+00  0.00000000000E+00 -0.17698297269E+04  0.17698297269E+04  0.50400001928E-02 0.  1.
    10030    2    1    2    0    0  0.00000000000E+00  0.00000000000E+00 -0.57111370986E+03  0.29685457440E+04  0.29130899342E+04 0.  0.
        1    1    3    3  502    0 -0.71396589677E+03 -0.97570774892E+03  0.54216847015E+03  0.13250281367E+04  0.50400001928E-02 0. -1.
       -1    1    3    3    0  502  0.71396589677E+03  0.97570774892E+03 -0.11132821800E+04  0.16435176073E+04  0.50400001928E-02 0.  1.
</event>
<event>
 5   0  0.6393633E-06  0.2886470E+04  0.7818609E-02  0.8276914E-01
        2   -1    0    0  501    0  0.00000000000E+00  0.00000000000E+00  0.21713862996E+04  0.21713862996E+04  0.25500000920E-02 0.  1.
       -2   -1    0    0    0  501  0.00000000000E+00  0.00000000000E+00 -0.95926148659E+03  0.95926148659E+03  0.25500000920E-02 0. -1.
    10030    2    1    2    0    0  0.00000000000E+00  0.00000000000E+00  0.12121248130E+04  0.31306477862E+04  0.28864699893E+04 0.  0.
        4    1    3    3  502    0 -0.10027330066E+04  0.76755683929E+03  0.13639667108E+04  0.18587694277E+04  0.12699999809E+01 0.  1.
       -4    1    3    3    0  502  0.10027330066E+04 -0.76755683929E+03 -0.15184189779E+03  0.12718783585E+04  0.12699999809E+01 0. -1.
</event>
<event>
 5   0  0.6612533E-06  0.2867933E+04  0.7818609E-02  0.8282483E-01
        2   -1    0    0  501    0  0.00000000000E+00  0.00000000000E+00  0.12407886011E+04  0.12407886011E+04  0.25500000920E-02 0.  1.
       -2   -1    0    0    0  501  0.00000000000E+00  0.00000000000E+00 -0.16572206235E+04  0.16572206235E+04  0.25500000920E-02 0. -1.
    10030    2    1    2    0    0  0.00000000000E+00  0.00000000000E+00 -0.41643202242E+03  0.28980092247E+04  0.28679333739E+04 0.  0.
        3    1    3    3  502    0  0.84190917610E+03  0.57234212761E+03  0.81226267797E+03  0.13023660162E+04  0.10100000352E+00 0.  1.
       -3    1    3    3    0  502 -0.84190917610E+03 -0.57234212761E+03 -0.12286947004E+04  0.15956432085E+04  0.10100000352E+00 0. -1.
</event>
<event>
 5   0  0.2429358E-06  0.2785138E+04  0.7818609E-02  0.8307897E-01
        1   -1    0    0  501    0  0.00000000000E+00  0.00000000000E+00  0.31916536399E+04  0.31916536399E+04  0.50400001928E-02 0. -1.
       -1   -1    0    0    0  501  0.00000000000E+00  0.00000000000E+00 -0.60759990742E+03  0.60759990744E+03  0.50400001928E-02 0.  1.
    10030    2    1    2    0    0  0.00000000000E+00  0.00000000000E+00  0.25840537325E+04  0.37992535473E+04  0.27851380261E+04 0.  0.
        2    1    3    3  502    0 -0.26830422552E+03 -0.94188159008E+03 -0.58462790170E+02  0.98109427937E+03  0.25500000920E-02 0.  1.
       -2    1    3    3    0  502  0.26830422552E+03  0.94188159008E+03  0.26425165227E+04  0.28181592680E+04  0.25500000920E-02 0. -1.
</event>
<event>
 5   0  0.2474769E-06  0.2933173E+04  0.7818609E-02  0.8263075E-01
        1   -1    0    0  501    0  0.00000000000E+00  0.00000000000E+00  0.16724224311E+04  0.16724224311E+04  0.50400001928E-02 0.  1.
       -1   -1    0    0    0  501  0.00000000000E+00  0.00000000000E+00 -0.12860840660E+04  0.12860840660E+04  0.50400001928E-02 0. -1.
    10030    2    1    2    0    0  0.00000000000E+00  0.00000000000E+00  0.38633836514E+03  0.29585064971E+04  0.29331729170E+04 0.  0.
        1    1    3    3  502    0  0.53132095036E+03 -0.19338461688E+03 -0.11717280016E+04  0.13010173220E+04  0.50400001928E-02 0. -1.
       -1    1    3    3    0  502 -0.53132095036E+03  0.19338461688E+03  0.15580663668E+04  0.16574891751E+04  0.50400001928E-02 0.  1.
</event>
<event>
 5   0  0.6513041E-06  0.2879897E+04  0.7818609E-02  0.8278884E-01
        2   -1    0    0  501    0  0.00000000000E+00  0.00000000000E+00  0.31574752885E+04  0.31574752885E+04  0.25500000920E-02 0.  1.
       -2   -1    0    0    0  501  0.00000000000E+00  0.00000000000E+00 -0.65668034943E+03  0.65668034944E+03  0.25500000920E-02 0. -1.
    10030    2    1    2    0    0  0.00000000000E+00  0.00000000000E+00  0.25007949391E+04  0.38141556380E+04  0.28798972036E+04 0.  0.
        1    1    3    3  502    0  0.81872899469E+03  0.16148835100E+03  0.28045630126E+04  0.29260843026E+04  0.50400001928E-02 0.  1.
       -1    1    3    3    0  502 -0.81872899469E+03 -0.16148835100E+03 -0.30376807347E+03  0.88807133539E+03  0.50400001928E-02 0. -1.
</event>
<event>
 5   0  0.2348684E-06  0.2791595E+04  0.7818609E-02  0.8305883E-01
        1   -1    0    0  501    0  0.00000000000E+00  0.00000000000E+00  0.10939591293E+04  0.10939591293E+04  0.50400001928E-02 0.  1.
       -1   -1    0    0    0  501  0.00000000000E+00  0.00000000000E+00 -0.17809172266E+04  0.17809172266E+04  0.50400001928E-02 0. -1.
    10030    2    1    2    0    0  0.00000000000E+00  0.00000000000E+00 -0.68695809729E+03  0.28748763560E+04  0.27915949983E+04 0.  0.
        5    1    3    3  502    0  0.11895776181E+04 -0.13065785598E+03 -0.10832849264E+04  0.16142164374E+04  0.46999998093E+01 0. -1.
       -5    1    3    3    0  502 -0.11895776181E+04  0.13065785598E+03  0.39632682913E+03  0.12606599186E+04  0.46999998093E+01 0.  1.
</event>
<event>
 5   0  0.2474769E-06  0.2907799E+04  0.7818609E-02  0.8270561E-01
        1   -1    0    0  501    0  0.00000000000E+00  0.00000000000E+00  0.18072036992E+04  0.18072036992E+04  0.50400001928E-02 0.  1.
       -1   -1    0    0    0  501  0.00000000000E+00  0.00000000000E+00 -0.11696652304E+04  0.11696652304E+04  0.50400001928E-02 0. -1.
    10030    2    1    2    0    0  0.00000000000E+00  0.00000000000E+00  0.63753846881E+03  0.29768689296E+04  0.29077987078E+04 0.  0.
        1    1    3    3  502    0 -0.53603904837E+02 -0.62833218697E+03 -0.10223667680E+04  0.12012112737E+04  0.50400001928E-02 0. -1.
       -1    1    3    3    0  502  0.53603904837E+02  0.62833218697E+03  0.16599052368E+04  0.17756576559E+04  0.50400001928E-02 0.  1.
</event>
<event>
 5   0  0.6612533E-06  0.2937596E+04  0.7818609E-02  0.8261779E-01
       -2   -1    0    0    0  501  0.00000000000E+00  0.00000000000E+00  0.13017469589E+04  0.13017469589E+04  0.25500000920E-02 0. -1.
        2   -1    0    0  501    0  0.00000000000E+00  0.00000000000E+00 -0.16572867871E+04  0.16572867871E+04  0.25500000920E-02 0.  1.
    10030    2    1    2    0    0  0.00000000000E+00  0.00000000000E+00 -0.35553982825E+03  0.29590337460E+04  0.29375963202E+04 0.  0.
        3    1    3    3  502    0 -0.34295129169E+03  0.12633550271E+04 -0.84872881063E+03  0.15601352881E+04  0.10100000352E+00 0.  1.
       -3    1    3    3    0  502  0.34295129169E+03 -0.12633550271E+04  0.49318898238E+03  0.13988984579E+04  0.10100000352E+00 0. -1.
</event>
<event>
 5   0  0.2474769E-06  0.2894244E+04  0.7818609E-02  0.8274592E-01
        1   -1    0    0  501    0  0.00000000000E+00  0.00000000000E+00  0.19910725475E+04  0.19910725475E+04  0.50400001928E-02 0.  1.
       -1   -1    0    0    0  501  0.00000000000E+00  0.00000000000E+00 -0.10517762211E+04  0.10517762211E+04  0.50400001928E-02 0. -1.
    10030    2    1    2    0    0  0.00000000000E+00  0.00000000000E+00  0.93929632642E+03  0.30428487686E+04  0.28942444679E+04 0.  0.
        1    1    3    3  502    0  0.46268941099E+03 -0.45594291565E+03  0.18291785494E+04  0.19410975244E+04  0.50400001928E-02 0.  1.
       -1    1    3    3    0  502 -0.46268941099E+03  0.45594291565E+03 -0.88988222301E+03  0.11017512443E+04  0.50400001928E-02 0. -1.
</event>
<event>
 5   0  0.2474769E-06  0.2930594E+04  0.7818609E-02  0.8263833E-01
       -1   -1    0    0    0  501  0.00000000000E+00  0.00000000000E+00  0.71782266908E+03  0.71782266910E+03  0.50400001928E-02 0.  1.
        1   -1    0    0  501    0  0.00000000000E+00  0.00000000000E+00 -0.29911216853E+04  0.29911216853E+04  0.50400001928E-02 0. -1.
    10030    2    1    2    0    0  0.00000000000E+00  0.00000000000E+00 -0.22732990162E+04  0.37089443544E+04  0.29305937635E+04 0.  0.
        1    1    3    3  502    0 -0.11875159853E+04 -0.30281484939E+03 -0.12006569647E+03  0.12313841074E+04  0.50400001928E-02 0.  1.
       -1    1    3    3    0  502  0.11875159853E+04  0.30281484939E+03 -0.21532333198E+04  0.24775602470E+04  0.50400001928E-02 0. -1.
</event>
<event>
 5   0  0.2429358E-06  0.2961780E+04  0.7818609E-02  0.8254730E-01
       -1   -1    0    0    0  501  0.00000000000E+00  0.00000000000E+00  0.10140304447E+04  0.10140304447E+04  0.50400001928E-02 0. -1.
        1   -1    0    0  501    0  0.00000000000E+00  0.00000000000E+00 -0.21626922037E+04  0.21626922037E+04  0.50400001928E-02 0.  1.
    10030    2    1    2    0    0  0.00000000000E+00  0.00000000000E+00 -0.11486617591E+04  0.31767226484E+04  0.29617803680E+04 0.  0.
        2    1    3    3  502    0 -0.76621967155E+03  0.48192098037E+03 -0.18314361832E+04  0.20429143177E+04  0.25500000920E-02 0.  1.
       -2    1    3    3    0  502  0.76621967155E+03 -0.48192098037E+03  0.68277442418E+03  0.11338083307E+04  0.25500000920E-02 0. -1.
</event>
<event>
 5   0  0.6513041E-06  0.2950586E+04  0.7818609E-02  0.8257984E-01
       -2   -1    0    0    0  501  0.00000000000E+00  0.00000000000E+00  0.94867030697E+03  0.94867030697E+03  0.25500000920E-02 0. -1.
        2   -1    0    0  501    0  0.00000000000E+00  0.00000000000E+00 -0.22942525399E+04  0.22942525399E+04  0.25500000920E-02 0.  1.
    10030    2    1    2    0    0  0.00000000000E+00  0.00000000000E+00 -0.13455822329E+04  0.32429228469E+04  0.29505858817E+04 0.  0.
        1    1    3    3  502    0 -0.69406554423E+03 -0.12575912578E+03  0.75132971751E+03  0.10305526099E+04  0.50400001928E-02 0. -1.
       -1    1    3    3    0  502  0.69406554423E+03  0.12575912578E+03 -0.20969119504E+04  0.22123702369E+04  0.50400001928E-02 0.  1.
</event>
<event>
 5   0  0.2159500E-06  0.2855781E+04  0.7818609E-02  0.8286157E-01
        3   -1    0    0  501    0  0.00000000000E+00  0.00000000000E+00  0.13078527821E+04  0.13078527860E+04  0.10100000352E+00 0. -1.
       -3   -1    0    0    0  501  0.00000000000E+00  0.00000000000E+00 -0.15589450132E+04  0.15589450165E+04  0.10100000352E+00 0.  1.
    10030    2    1    2    0    0  0.00000000000E+00  0.00000000000E+00 -0.25109223108E+03  0.28667978025E+04  0.28557805119E+04 0.  0.
        3    1    3    3  502    0 -0.78612381302E+03 -0.65378737219E+03 -0.11261069400E+04  0.15210343283E+04  0.10100000352E+00 0. -1.
       -3    1    3    3    0  502  0.78612381302E+03  0.65378737219E+03  0.87501470893E+03  0.13457634742E+04  0.10100000352E+00 0.  1.
</event>
<event>
 5   0  0.6612533E-06  0.2933630E+04  0.7818609E-02  0.8262941E-01
       -2   -1    0    0    0  501  0.00000000000E+00  0.00000000000E+00  0.89890546384E+03  0.89890546384E+03  0.25500000920E-02 0.  1.
        2   -1    0    0  501    0  0.00000000000E+00  0.00000000000E+00 -0.23935178791E+04  0.23935178791E+04  0.25500000920E-02 0. -1.
    10030    2    1    2    0    0  0.00000000000E+00  0.00000000000E+00 -0.14946124152E+04  0.32924233429E+04  0.29336300375E+04 0.  0.
        3    1    3    3  502    0 -0.26291891527E+03 -0.12868564319E+04 -0.14801802570E+04  0.19789035944E+04  0.10100000352E+00 0. -1.
       -3    1    3    3    0  502  0.26291891527E+03  0.12868564319E+04 -0.14432158254E+02  0.13135197485E+04  0.10100000352E+00 0.  1.
</event>
<event>
 5   0  0.6615403E-06  0.2891473E+04  0.7818609E-02  0.8275419E-01
       -2   -1    0    0    0  501  0.00000000000E+00  0.00000000000E+00  0.14891499296E+04  0.14891499296E+04  0.25500000920E-02 0. -1.
        2   -1    0    0  501    0  0.00000000000E+00  0.00000000000E+00 -0.14035883154E+04  0.14035883154E+04  0.25500000920E-02 0.  1.
    10030    2    1    2    0    0  0.00000000000E+00  0.00000000000E+00  0.85561614181E+02  0.28927382450E+04  0.28914725944E+04 0.  0.
        2    1    3    3  502    0 -0.11924651403E+04  0.74900470275E+03  0.37029588836E+03  0.14560563865E+04  0.25500000920E-02 0. -1.
       -2    1    3    3    0  502  0.11924651403E+04 -0.74900470275E+03 -0.28473427417E+03  0.14366818585E+04  0.25500000920E-02 0.  1.
</event>
<event>
 5   0  0.6393633E-06  0.2853605E+04  0.7818609E-02  0.8286817E-01
        2   -1    0    0  501    0  0.00000000000E+00  0.00000000000E+00  0.17941599223E+04  0.17941599223E+04  0.25500000920E-02 0. -1.
       -2   -1    0    0    0  501  0.00000000000E+00  0.00000000000E+00 -0.11346624508E+04  0.11346624508E+04  0.25500000920E-02 0.  1.
    10030    2    1    2    0    0  0.00000000000E+00  0.00000000000E+00  0.65949747148E+03  0.29288223731E+04  0.28536053648E+04 0.  0.
        4    1    3    3  502    0 -0.34285737597E+03  0.13796880786E+04  0.20541986066E+03  0.14364154366E+04  0.12699999809E+01 0.  1.
       -4    1    3    3    0  502  0.34285737597E+03 -0.13796880786E+04  0.45407761083E+03  0.14924069365E+04  0.12699999809E+01 0. -1.
</event>
<event>
 5   0  0.6612533E-06  0.2951260E+04  0.7818609E-02  0.8257788E-01
        2   -1    0    0  501    0  0.00000000000E+00  0.00000000000E+00  0.16860079474E+04  0.16860079474E+04  0.25500000920E-02 0.  1.
       -2   -1    0    0    0  501  0.00000000000E+00  0.00000000000E+00 -0.12915024076E+04  0.12915024076E+04  0.25500000920E-02 0. -1.
    10030    2    1    2    0    0  0.00000000000E+00  0.00000000000E+00  0.39450553978E+03  0.29775103550E+04  0.29512596112E+04 0.  0.
        3    1    3    3  502    0  0.54306506641E+03  0.68202166881E+03  0.13983927592E+04  0.16479003435E+04  0.10100000352E+00 0.  1.
       -3    1    3    3    0  502 -0.54306506641E+03 -0.68202166881E+03 -0.10038872194E+04  0.13296100114E+04  0.10100000352E+00 0. -1.
</event>
<event>
 5   0  0.2474769E-06  0.2955555E+04  0.7818609E-02  0.8256537E-01
        1   -1    0    0  501    0  0.00000000000E+00  0.00000000000E+00  0.13783781304E+04  0.13783781304E+04  0.50400001928E-02 0.  1.
       -1   -1    0    0    0  501  0.00000000000E+00  0.00000000000E+00 -0.15843449203E+04  0.15843449203E+04  0.50400001928E-02 0. -1.
    10030    2    1    2    0    0  0.00000000000E+00  0.00000000000E+00 -0.20596678987E+03  0.29627230507E+04  0.29555550336E+04 0.  0.
        1    1    3    3  502    0 -0.10865729322E+03 -0.13695029974E+04 -0.64880512474E+03  0.15193067357E+04  0.50400001928E-02 0. -1.
       -1    1    3    3    0  502  0.10865729322E+03  0.13695029974E+04  0.44283833487E+03  0.14434163149E+04  0.50400001928E-02 0.  1.
</event>
<event>
 5   0  0.2159500E-06  0.2896908E+04  0.7818609E-02  0.8273798E-01
       -3   -1    0    0    0  501  0.00000000000E+00  0.00000000000E+00  0.15931100045E+04  0.15931100077E+04  0.10100000352E+00 0.  1.
        3   -1    0    0  501    0  0.00000000000E+00  0.00000000000E+00 -0.13169328866E+04  0.13169328905E+04  0.10100000352E+00 0. -1.
    10030    2    1    2    0    0  0.00000000000E+00  0.00000000000E+00  0.27617711789E+03  0.29100428982E+04  0.28969079842E+04 0.  0.
        1    1    3    3  502    0 -0.10163266883E+04  0.10182195199E+04 -0.30983930577E+02  0.14389756537E+04  0.50400001928E-02 0. -1.
       -1    1    3    3    0  502  0.10163266883E+04 -0.10182195199E+04  0.30716104846E+03  0.14710672445E+04  0.50400001928E-02 0.  1.
</event>
<event>
 5   0  0.6393633E-06  0.2917002E+04  0.7818609E-02  0.8267837E-01
        2   -1    0    0  501    0  0.00000000000E+00  0.00000000000E+00  0.17138235445E+04  0.17138235445E+04  0.25500000920E-02 0. -1.
       -2   -1    0    0    0  501  0.00000000000E+00  0.00000000000E+00 -0.12412157284E+04  0.12412157284E+04  0.25500000920E-02 0.  1.
    10030    2    1    2    0    0  0.00000000000E+00  0.00000000000E+00  0.47260781614E+03  0.29550392729E+04  0.29170017067E+04 0.  0.
        4    1    3    3  502    0 -0.59568002607E+03  0.12120728488E+04 -0.32157475864E+03  0.13882965183E+04  0.12699999809E+01 0.  1.
       -4    1    3    3    0  502  0.59568002607E+03 -0.12120728488E+04  0.79418257478E+03  0.15667427547E+04  0.12699999809E+01 0. -1.
</event>
<event>
 5   0  0.6615403E-06  0.2889615E+04  0.7818609E-02  0.8275974E-01
       -2   -1    0    0    0  501  0.00000000000E+00  0.00000000000E+00  0.18043895032E+04  0.18043895032E+04  0.25500000920E-02 0. -1.
        2   -1    0    0  501    0  0.00000000000E+00  0.00000000000E+00 -0.11568838587E+04  0.11568838587E+04  0.25500000920E-02 0.  1.
    10030    2    1    2    0    0  0.00000000000E+00  0.00000000000E+00  0.64750564443E+03  0.29612733619E+04  0.28896152623E+04 0.  0.
        2    1    3    3  502    0  0.10626729796E+04 -0.61928662988E+03  0.11006280161E+04  0.16505065347E+04  0.25500000920E-02 0. -1.
       -2    1    3    3    0  502 -0.10626729796E+04  0.61928662988E+03 -0.45312237162E+03  0.13107668271E+04  0.25500000920E-02 0.  1.
</event>
<event>
 5   0  0.2429358E-06  0.2753885E+04  0.7818609E-02  0.8317730E-01
       -1   -1    0    0    0  501  0.00000000000E+00  0.00000000000E+00  0.93580316868E+03  0.93580316870E+03  0.50400001928E-02 0.  1.
        1   -1    0    0  501    0  0.00000000000E+00  0.00000000000E+00 -0.20260360378E+04  0.20260360378E+04  0.50400001928E-02 0. -1.
    10030    2    1    2    0    0  0.00000000000E+00  0.00000000000E+00 -0.10902328691E+04  0.29618392065E+04  0.27538852148E+04 0.  0.
        2    1    3    3  502    0 -0.57688450175E+03 -0.11995652544E+04 -0.16605584216E+03  0.13413899771E+04  0.25500000920E-02 0.  1.
       -2    1    3    3    0  502  0.57688450175E+03  0.11995652544E+04 -0.92417702699E+03  0.16204492294E+04  0.25500000920E-02 0. -1.
</event>
<event>
 5   0  0.2429358E-06  0.2699871E+04  0.7818609E-02  0.8335047E-01
        1   -1    0    0  501    0  0.00000000000E+00  0.00000000000E+00  0.15282540612E+04  0.15282540612E+04  0.50400001928E-02 0. -1.
       -1   -1    0    0    0  501  0.00000000000E+00  0.00000000000E+00 -0.11924229427E+04  0.11924229427E+04  0.50400001928E-02 0.  1.
    10030    2    1    2    0    0  0.00000000000E+00  0.00000000000E+00  0.33583111852E+03  0.27206770038E+04  0.26998705190E+04 0.  0.
        2    1    3    3  502    0  0.22933460096E+03  0.55859715677E+03 -0.10487413739E+04  0.12101585070E+04  0.25500000920E-02 0.  1.
       -2    1    3    3    0  502 -0.22933460096E+03 -0.55859715677E+03  0.13845724924E+04  0.15105184969E+04  0.25500000920E-02 0. -1.
</event>
<event>
 5   0  0.6513041E-06  0.2904396E+04  0.7818609E-02  0.8271571E-01
        2   -1    0    0  501    0  0.00000000000E+00  0.00000000000E+00  0.20269674732E+04  0.20269674733E+04  0.25500000920E-02 0. -1.
       -2   -1    0    0    0  501  0.00000000000E+00  0.00000000000E+00 -0.10404106475E+04  0.10404106475E+04  0.25500000920E-02 0.  1.
    10030    2    1    2    0    0  0.00000000000E+00  0.00000000000E+00  0.98655682571E+03  0.30673781208E+04  0.29043956627E+04 0.  0.
        1    1    3    3  502    0 -0.31809752255E+03  0.45715855537E+03 -0.92313727998E+03  0.10781291278E+04  0.50400001928E-02 0.  1.
       -1    1    3    3    0  502  0.31809752255E+03 -0.45715855537E+03  0.19096941057E+04  0.19892489929E+04  0.50400001928E-02 0. -1.
</event>
<event>
 5   0  0.2474769E-06  0.2842268E+04  0.7818609E-02  0.8290265E-01
        1   -1    0    0  501    0  0.00000000000E+00  0.00000000000E+00  0.19935946653E+04  0.19935946653E+04  0.50400001928E-02 0. -1.
       -1   -1    0    0    0  501  0.00000000000E+00  0.00000000000E+00 -0.10130556735E+04  0.10130556735E+04  0.50400001928E-02 0.  1.
    10030    2    1    2    0    0  0.00000000000E+00  0.00000000000E+00  0.98053899177E+03  0.30066503388E+04  0.28422683802E+04 0.  0.
        1    1    3    3  502    0  0.68181790374E+03  0.90932480555E+03 -0.41222857275E+03  0.12089994425E+04  0.50400001928E-02 0.  1.
       -1    1    3    3    0  502 -0.68181790374E+03 -0.90932480555E+03  0.13927675645E+04  0.17976508962E+04  0.50400001928E-02 0. -1.
</event>
<event>
 5   0  0.2348684E-06  0.2756458E+04  0.7818609E-02  0.8316915E-01
       -1   -1    0    0    0  501  0.00000000000E+00  0.00000000000E+00  0.13178040762E+04  0.13178040762E+04  0.50400001928E-02 0. -1.
        1   -1    0    0  501    0  0.00000000000E+00  0.00000000000E+00 -0.14414246868E+04  0.14414246868E+04  0.50400001928E-02 0.  1.
    10030    2    1    2    0    0  0.00000000000E+00  0.00000000000E+00 -0.12362061063E+03  0.27592287630E+04  0.27564581098E+04 0.  0.
        5    1    3    3  502    0 -0.10620313201E+03 -0.98622470543E+03  0.89600829328E+03  0.13367016221E+04  0.46999998093E+01 0. -1.
       -5    1    3    3    0  502  0.10620313201E+03  0.98622470543E+03 -0.10196289039E+04  0.14225271409E+04  0.46999998093E+01 0.  1.
</event>
<event>
 5   0  0.2474769E-06  0.2910353E+04  0.7818609E-02  0.8269804E-01
       -1   -1    0    0    0  501  0.00000000000E+00  0.00000000000E+00  0.11030023626E+04  0.11030023627E+04  0.50400001928E-02 0.  1.
        1   -1    0    0  501    0  0.00000000000E+00  0.00000000000E+00 -0.19197957760E+04  0.19197957760E+04  0.50400001928E-02 0. -1.
    10030    2    1    2    0    0  0.00000000000E+00  0.00000000000E+00 -0.81679341335E+03  0.30227981386E+04  0.29103534333E+04 0.  0.
        1    1    3    3  502    0  0.18063586782E+03  0.71422382876E+03  0.89499612414E+03  0.11592079436E+04  0.50400001928E-02 0.  1.
       -1    1    3    3    0  502 -0.18063586782E+03 -0.71422382876E+03 -0.17117895375E+04  0.18635901950E+04  0.50400001928E-02 0. -1.
</event>
<event>
 5   0  0.2508094E-06  0.2907589E+04  0.7818609E-02  0.8270623E-01
        1   -1    0    0  501    0  0.00000000000E+00  0.00000000000E+00  0.16182963669E+04  0.16182963669E+04  0.50400001928E-02 0.  1.
       -1   -1    0    0    0  501  0.00000000000E+00  0.00000000000E+00 -0.13060143881E+04  0.13060143881E+04  0.50400001928E-02 0. -1.
    10030    2    1    2    0    0  0.00000000000E+00  0.00000000000E+00  0.31228197883E+03  0.29243107551E+04  0.29075889252E+04 0.  0.
        3    1    3    3  502    0  0.91731409092E+03 -0.10838830221E+04 -0.15750307061E+03  0.14286618825E+04  0.10100000352E+00 0. -1.
       -3    1    3    3    0  502 -0.91731409092E+03  0.10838830221E+04  0.46978504944E+03  0.14956488726E+04  0.10100000352E+00 0.  1.
</event>
<event>
 5   0  0.6612533E-06  0.2899365E+04  0.7818609E-02  0.8273066E-01
        2   -1    0    0  501    0  0.00000000000E+00  0.00000000000E+00  0.21878285627E+04  0.21878285627E+04  0.25500000920E-02 0.  1.
       -2   -1    0    0    0  501  0.00000000000E+00  0.00000000000E+00 -0.96057780463E+03  0.96057780463E+03  0.25500000920E-02 0. -1.
    10030    2    1    2    0    0  0.00000000000E+00  0.00000000000E+00  0.12272507581E+04  0.31484063673E+04  0.28993651427E+04 0.  0.
        3    1    3    3  502    0 -0.75850184671E+03 -0.11285058315E+04  0.67722379528E+02  0.13614098553E+04  0.10100000352E+00 0. -1.
       -3    1    3    3    0  502  0.75850184671E+03  0.11285058315E+04  0.11595283785E+04  0.17869965120E+04  0.10100000352E+00 0.  1.
</event>
<event>
 5   0  0.6513041E-06  0.2848864E+04  0.7818609E-02  0.8288256E-01
        2   -1    0    0  501    0  0.00000000000E+00  0.00000000000E+00  0.20044098943E+04  0.20044098943E+04  0.25500000920E-02 0. -1.
       -2   -1    0    0    0  501  0.00000000000E+00  0.00000000000E+00 -0.10122715328E+04  0.10122715328E+04  0.25500000920E-02 0.  1.
    10030    2    1    2    0    0  0.00000000000E+00  0.00000000000E+00  0.99213836154E+03  0.30166814271E+04  0.28488643886E+04 0.  0.
        1    1    3    3  502    0 -0.43242101377E+03 -0.10984724180E+04  0.13401296972E+04  0.17859387424E+04  0.50400001928E-02 0. -1.
       -1    1    3    3    0  502  0.43242101377E+03  0.10984724180E+04 -0.34799133566E+03  0.12307426847E+04  0.50400001928E-02 0.  1.
</event>
<event>
 5   0  0.2159500E-06  0.2930334E+04  0.7818609E-02  0.8263909E-01
       -3   -1    0    0    0  501  0.00000000000E+00  0.00000000000E+00  0.16341659803E+04  0.16341659834E+04  0.10100000352E+00 0.  1.
        3   -1    0    0  501    0  0.00000000000E+00  0.00000000000E+00 -0.13136451310E+04  0.13136451349E+04  0.10100000352E+00 0. -1.
    10030    2    1    2    0    0  0.00000000000E+00  0.00000000000E+00  0.32052084929E+03  0.29478111182E+04  0.29303339014E+04 0.  0.
        5    1    3    3  502    0  0.84303909809E+03 -0.10146716781E+04  0.80157234709E+03  0.15436365676E+04  0.46999998093E+01 0.  1.
       -5    1    3    3    0  502 -0.84303909809E+03  0.10146716781E+04 -0.48105149781E+03  0.14041745506E+04  0.46999998093E+01 0. -1.
</event>
<event>
 5   0  0.6393633E-06  0.2912251E+04  0.7818609E-02  0.8269242E-01
        2   -1    0    0  501    0  0.00000000000E+00  0.00000000000E+00  0.21134982572E+04  0.21134982572E+04  0.25500000920E-02 0. -1.
       -2   -1    0    0    0  501  0.00000000000E+00  0.00000000000E+00 -0.10032190572E+04  0.10032190572E+04  0.25500000920E-02 0.  1.
    10030    2    1    2    0    0  0.00000000000E+00  0.00000000000E+00  0.11102792001E+04  0.31167173144E+04  0.29122511766E+04 0.  0.
        4    1    3    3  502    0  0.27665690505E+03  0.14286528830E+04  0.49940634034E+03  0.15385046016E+04  0.12699999809E+01 0.  1.
       -4    1    3    3    0  502 -0.27665690505E+03 -0.14286528830E+04  0.61087285973E+03  0.15782127128E+04  0.12699999809E+01 0. -1.
</event>
<event>
 5   0  0.2429358E-06  0.2979471E+04  0.7818609E-02  0.8249618E-01
       -1   -1    0    0    0  501  0.00000000000E+00  0.00000000000E+00  0.11100394605E+04  0.11100394606E+04  0.50400001928E-02 0. -1.
        1   -1    0    0  501    0  0.00000000000E+00  0.00000000000E+00 -0.19993084918E+04  0.19993084918E+04  0.50400001928E-02 0.  1.
    10030    2    1    2    0    0  0.00000000000E+00  0.00000000000E+00 -0.88926903127E+03  0.31093479524E+04  0.29794706374E+04 0.  0.
        2    1    3    3  502    0 -0.10181853709E+04  0.11948655552E+03 -0.15726459594E+04  0.18772836227E+04  0.25500000920E-02 0.  1.
       -2    1    3    3    0  502  0.10181853709E+04 -0.11948655552E+03  0.68337692817E+03  0.12320643296E+04  0.25500000920E-02 0. -1.
</event>
<event>
 5   0  0.6733688E-06  0.2893836E+04  0.7818609E-02  0.8274714E-01
       -2   -1    0    0    0  501  0.00000000000E+00  0.00000000000E+00  0.17100804584E+04  0.17100804584E+04  0.25500000920E-02 0.  1.
        2   -1    0    0  501    0  0.00000000000E+00  0.00000000000E+00 -0.12242533449E+04  0.12242533449E+04  0.25500000920E-02 0. -1.
    10030    2    1    2    0    0  0.00000000000E+00  0.00000000000E+00  0.48582711351E+03  0.29343338033E+04  0.28938360156E+04 0.  0.
        5    1    3    3  502    0  0.38203966729E+02 -0.32422280074E+03 -0.11864121924E+04  0.12305185687E+04  0.46999998093E+01 0. -1.
       -5    1    3    3    0  502 -0.38203966729E+02  0.32422280074E+03  0.16722393059E+04  0.17038152346E+04  0.46999998093E+01 0.  1.
</event>
<event>
 5   0  0.6733688E-06  0.2896130E+04  0.7818609E-02  0.8274030E-01
       -2   -1    0    0    0  501  0.00000000000E+00  0.00000000000E+00  0.87750920545E+03  0.87750920545E+03  0.25500000920E-02 0.  1.
        2   -1    0    0  501    0  0.00000000000E+00  0.00000000000E+00 -0.23895953938E+04  0.23895953938E+04  0.25500000920E-02 0. -1.
    10030    2    1    2    0    0  0.00000000000E+00  0.00000000000E+00 -0.15120861884E+04  0.32671045993E+04  0.28961298005E+04 0.  0.
        5    1    3    3  502    0 -0.10789094261E+04  0.87215371505E+03 -0.28795612909E+03  0.14169115973E+04  0.46999998093E+01 0.  1.
       -5    1    3    3    0  502  0.10789094261E+04 -0.87215371505E+03 -0.12241300593E+04  0.18501930020E+04  0.46999998093E+01 0. -1.
</event>
<event>
 5   0  0.6612533E-06  0.2902484E+04  0.7818609E-02  0.8272139E-01
       -2   -1    0    0    0  501  0.00000000000E+00  0.00000000000E+00  0.99215534341E+03  0.99215534341E+03  0.25500000920E-02 0. -1.
        2   -1    0    0  501    0  0.00000000000E+00  0.00000000000E+00 -0.21227561115E+04  0.21227561115E+04  0.25500000920E-02 0.  1.
    10030    2    1    2    0    0  0.00000000000E+00  0.00000000000E+00 -0.11306007681E+04  0.31149114549E+04  0.29024843281E+04 0.  0.
        3    1    3    3  502    0 -0.10991036061E+03  0.49726969031E+03  0.89310900011E+03  0.10281056018E+04  0.10100000352E+00 0. -1.
       -3    1    3    3    0  502  0.10991036061E+03 -0.49726969031E+03 -0.20237097682E+04  0.20868058530E+04  0.10100000352E+00 0.  1.
</event>
<event>
 5   0  0.6733688E-06  0.2918674E+04  0.7818609E-02  0.8267343E-01
       -2   -1    0    0    0  501  0.00000000000E+00  0.00000000000E+00  0.22371288542E+04  0.22371288542E+04  0.25500000920E-02 0.  1.
        2   -1    0    0  501    0  0.00000000000E+00  0.00000000000E+00 -0.95196343081E+03  0.95196343081E+03  0.25500000920E-02 0. -1.
    10030    2    1    2    0    0  0.00000000000E+00  0.00000000000E+00  0.12851654234E+04  0.31890922850E+04  0.29186742601E+04 0.  0.
        5    1    3    3  502    0 -0.50018569773E+03  0.88552797448E+01  0.21405026444E+04  0.21981896663E+04  0.46999998093E+01 0.  1.
       -5    1    3    3    0  502  0.50018569773E+03 -0.88552797448E+01 -0.85533722101E+03  0.99090261874E+03  0.46999998093E+01 0. -1.
</event>
<event>
 5   0  0.6615403E-06  0.2915517E+04  0.7818609E-02  0.8268276E-01
       -2   -1    0    0    0  501  0.00000000000E+00  0.00000000000E+00  0.22954859223E+04  0.22954859223E+04  0.25500000920E-02 0. -1.
        2   -1    0    0  501    0  0.00000000000E+00  0.00000000000E+00 -0.92575577271E+03  0.92575577271E+03  0.25500000920E-02 0.  1.
    10030    2    1    2    0    0  0.00000000000E+00  0.00000000000E+00  0.13697301496E+04  0.32212416950E+04  0.29155166566E+04 0.  0.
        2    1    3    3  502    0 -0.13865442848E+04  0.37662671545E+03  0.95708867012E+03  0.17263752370E+04  0.25500000920E-02 0. -1.
       -2    1    3    3    0  502  0.13865442848E+04 -0.37662671545E+03  0.41264147949E+03  0.14948664580E+04  0.25500000920E-02 0.  1.
</event>
<event>
 5   0  0.6733688E-06  0.2909106E+04  0.7818609E-02  0.8270173E-01
       -2   -1    0    0    0  501  0.00000000000E+00  0.00000000000E+00  0.10915703442E+04  0.10915703442E+04  0.25500000920E-02 0. -1.
        2   -1    0    0  501    0  0.00000000000E+00  0.00000000000E+00 -0.19382387996E+04  0.19382387996E+04  0.25500000920E-02 0.  1.
    10030    2    1    2    0    0  0.00000000000E+00  0.00000000000E+00 -0.84666845541E+03  0.30298091438E+04  0.29091057001E+04 0.  0.
        5    1    3    3  502    0  0.91620388230E+02  0.62642941239E+03 -0.17872086526E+04  0.18960340088E+04  0.46999998093E+01 0.  1.
       -5    1    3    3    0  502 -0.91620388230E+02 -0.62642941239E+03  0.94054019723E+03  0.11337751351E+04  0.46999998093E+01 0. -1.
</event>
<event>
 5   0  0.6615403E-06  0.2869895E+04  0.7818609E-02  0.8281891E-01
       -2   -1    0    0    0  501  0.00000000000E+00  0.00000000000E+00  0.14940049677E+04  0.14940049677E+04  0.25500000920E-02 0. -1.
        2   -1    0    0  501    0  0.00000000000E+00  0.00000000000E+00 -0.13782247513E+04  0.13782247513E+04  0.25500000920E-02 0.  1.
    10030    2    1    2    0    0  0.00000000000E+00  0.00000000000E+00  0.11578021639E+03  0.28722297189E+04  0.28698952071E+04 0.  0.
        2    1    3    3  502    0  0.12657966311E+04  0.67452629761E+03  0.10091097336E+03  0.14378490401E+04  0.25500000920E-02 0. -1.
       -2    1    3    3    0  502 -0.12657966311E+04 -0.67452629761E+03  0.14869243026E+02  0.14343806789E+04  0.25500000920E-02 0.  1.
</event>
<event>
 5   0  0.6393633E-06  0.2872272E+04  0.7818609E-02  0.8281175E-01
       -2   -1    0    0    0  501  0.00000000000E+00  0.00000000000E+00  0.13845952779E+04  0.13845952779E+04  0.25500000920E-02 0. -1.
        2   -1    0    0  501    0  0.00000000000E+00  0.00000000000E+00 -0.14895954715E+04  0.14895954715E+04  0.25500000920E-02 0.  1.
    10030    2    1    2    0    0  0.00000000000E+00  0.00000000000E+00 -0.10500019363E+03  0.28741907494E+04  0.28722721708E+04 0.  0.
        4    1    3    3  502    0  0.11504952324E+04  0.85646261910E+03  0.20471485001E+02  0.14344295703E+04  0.12699999809E+01 0. -1.
       -4    1    3    3    0  502 -0.11504952324E+04 -0.85646261910E+03 -0.12547167863E+03  0.14397611790E+04  0.12699999809E+01 0.  1.
</event>
<event>
 5   0  0.6513041E-06  0.2840614E+04  0.7818609E-02  0.8290769E-01
        2   -1    0    0  501    0  0.00000000000E+00  0.00000000000E+00  0.22094366593E+04  0.22094366593E+04  0.25500000920E-02 0. -1.
       -2   -1    0    0    0  501  0.00000000000E+00  0.00000000000E+00 -0.91302556377E+03  0.91302556377E+03  0.25500000920E-02 0.  1.
    10030    2    1    2    0    0  0.00000000000E+00  0.00000000000E+00  0.12964110955E+04  0.31224622230E+04  0.28406141248E+04 0.  0.
        1    1    3    3  502    0 -0.40966369631E+03  0.59832471377E+03  0.19906306914E+04  0.21185908894E+04  0.50400001928E-02 0. -1.
       -1    1    3    3    0  502  0.40966369631E+03 -0.59832471377E+03 -0.69421959588E+03  0.10038713336E+04  0.50400001928E-02 0.  1.
</event>
<event>
 5   0  0.2474769E-06  0.2946588E+04  0.7818609E-02  0.8259150E-01
       -1   -1    0    0    0  501  0.00000000000E+00  0.00000000000E+00  0.13498760455E+04  0.13498760455E+04  0.50400001928E-02 0. -1.
        1   -1    0    0  501    0  0.00000000000E+00  0.00000000000E+00 -0.16079962016E+04  0.16079962016E+04  0.50400001928E-02 0.  1.
    10030    2    1    2    0    0  0.00000000000E+00  0.00000000000E+00 -0.25812015616E+03  0.29578722471E+04  0.29465882331E+04 0.  0.
        1    1    3    3  502    0  0.66333712029E+03 -0.71160392196E+03  0.98161242879E+03  0.13820127486E+04  0.50400001928E-02 0. -1.
       -1    1    3    3    0  502 -0.66333712029E+03  0.71160392196E+03 -0.12397325850E+04  0.15758594985E+04  0.50400001928E-02 0.  1.
</event>
<event>
 5   0  0.2348684E-06  0.2910968E+04  0.7818609E-02  0.8269622E-01
        1   -1    0    0  501    0  0.00000000000E+00  0.00000000000E+00  0.14404617352E+04  0.14404617352E+04  0.50400001928E-02 0.  1.
       -1   -1    0    0    0  501  0.00000000000E+00  0.00000000000E+00 -0.14706625208E+04  0.14706625208E+04  0.50400001928E-02 0. -1.
    10030    2    1    2    0    0  0.00000000000E+00  0.00000000000E+00 -0.30200785533E+02  0.29111242560E+04  0.29109675963E+04 0.  0.
        5    1    3    3  502    0  0.10452206748E+04 -0.12711817879E+03  0.98982467627E+03  0.14451367652E+04  0.46999998093E+01 0. -1.
       -5    1    3    3    0  502 -0.10452206748E+04  0.12711817879E+03 -0.10200254618E+04  0.14659874908E+04  0.46999998093E+01 0.  1.
</event>
<event>
 5   0  0.2429358E-06  0.2893078E+04  0.7818609E-02  0.8274940E-01
        1   -1    0    0  501    0  0.00000000000E+00  0.00000000000E+00  0.18133533000E+04  0.18133533000E+04  0.50400001928E-02 0. -1.
       -1   -1    0    0    0  501  0.00000000000E+00  0.00000000000E+00 -0.11539257503E+04  0.11539257503E+04  0.50400001928E-02 0.  1.
    10030    2    1    2    0    0  0.00000000000E+00  0.00000000000E+00  0.65942754963E+03  0.29672790503E+04  0.28930779922E+04 0.  0.
        2    1    3    3  502    0  0.73760508910E+03  0.54017569602E+03 -0.82002962914E+03  0.12281285123E+04  0.25500000920E-02 0.  1.
       -2    1    3    3    0  502 -0.73760508910E+03 -0.54017569602E+03  0.14794571788E+04  0.17391505380E+04  0.25500000920E-02 0. -1.
</event>
<event>
 5   0  0.2348684E-06  0.2820669E+04  0.7818609E-02  0.8296880E-01
       -1   -1    0    0    0  501  0.00000000000E+00  0.00000000000E+00  0.81166389587E+03  0.81166389588E+03  0.50400001928E-02 0. -1.
        1   -1    0    0  501    0  0.00000000000E+00  0.00000000000E+00 -0.24505758331E+04  0.24505758331E+04  0.50400001928E-02 0.  1.
    10030    2    1    2    0    0  0.00000000000E+00  0.00000000000E+00 -0.16389119372E+04  0.32622397290E+04  0.28206693729E+04 0.  0.
        5    1    3    3  502    0  0.11015268772E+04  0.88065938290E+03 -0.80792361350E+03  0.16253261412E+04  0.46999998093E+01 0.  1.
       -5    1    3    3    0  502 -0.11015268772E+04 -0.88065938290E+03 -0.83098832374E+03  0.16369135878E+04  0.46999998093E+01 0. -1.
</event>
<event>
 5   0  0.6513041E-06  0.2885129E+04  0.7818609E-02  0.8277316E-01
        2   -1    0    0  501    0  0.00000000000E+00  0.00000000000E+00  0.16962379684E+04  0.16962379684E+04  0.25500000920E-02 0. -1.
       -2   -1    0    0    0  501  0.00000000000E+00  0.00000000000E+00 -0.12268283907E+04  0.12268283907E+04  0.25500000920E-02 0.  1.
    10030    2    1    2    0    0  0.00000000000E+00  0.00000000000E+00  0.46940957770E+03  0.29230663591E+04  0.28851293884E+04 0.  0.
        1    1    3    3  502    0 -0.11034334924E+04  0.23370078205E+03 -0.67646015822E+03  0.13152109616E+04  0.50400001928E-02 0.  1.
       -1    1    3    3    0  502  0.11034334924E+04 -0.23370078205E+03  0.11458697359E+04  0.16078553975E+04  0.50400001928E-02 0. -1.
</event>
<event>
 5   0  0.6393633E-06  0.2892398E+04  0.7818609E-02  0.8275143E-01
        2   -1    0    0  501    0  0.00000000000E+00  0.00000000000E+00  0.13719270353E+04  0.13719270353E+04  0.25500000920E-02 0. -1.
       -2   -1    0    0    0  501  0.00000000000E+00  0.00000000000E+00 -0.15244917953E+04  0.15244917953E+04  0.25500000920E-02 0.  1.
    10030    2    1    2    0    0  0.00000000000E+00  0.00000000000E+00 -0.15256475994E+03  0.28964188306E+04  0.28923979733E+04 0.  0.
        4    1    3    3  502    0  0.13219832612E+04  0.24527605402E+03  0.45708344169E+03  0.14201151260E+04  0.12699999809E+01 0. -1.
       -4    1    3    3    0  502 -0.13219832612E+04 -0.24527605402E+03 -0.60964820164E+03  0.14763037046E+04  0.12699999809E+01 0.  1.
</event>
<event>
 5   0  0.2336512E-06  0.2886839E+04  0.7818609E-02  0.8276804E-01
        1   -1    0    0  501    0  0.00000000000E+00  0.00000000000E+00  0.16084050389E+04  0.16084050389E+04  0.50400001928E-02 0.  1.
       -1   -1    0    0    0  501  0.00000000000E+00  0.00000000000E+00 -0.12953573602E+04  0.12953573602E+04  0.50400001928E-02 0. -1.
    10030    2    1    2    0    0  0.00000000000E+00  0.00000000000E+00  0.31304767870E+03  0.29037623991E+04  0.28868386206E+04 0.  0.
        4    1    3    3  502    0 -0.70153356486E+03  0.12358521212E+04  0.41094516313E+03  0.14793097539E+04  0.12699999809E+01 0.  1.
       -4    1    3    3    0  502  0.70153356486E+03 -0.12358521212E+04 -0.97897484429E+02  0.14244526452E+04  0.12699999809E+01 0. -1.
</event>
<event>
 5   0  0.2429358E-06  0.3048058E+04  0.7818609E-02  0.8230139E-01
       -1   -1    0    0    0  501  0.00000000000E+00  0.00000000000E+00  0.19086315827E+04  0.19086315827E+04  0.50400001928E-02 0.  1.
        1   -1    0    0  501    0  0.00000000000E+00  0.00000000000E+00 -0.12169261379E+04  0.12169261379E+04  0.50400001928E-02 0. -1.
    10030    2    1    2    0    0  0.00000000000E+00  0.00000000000E+00  0.69170544479E+03  0.31255577207E+04  0.30480575196E+04 0.  0.
        2    1    3    3  502    0  0.56085860213E+03  0.97699401319E+03 -0.70668809333E+03  0.13298450040E+04  0.25500000920E-02 0. -1.
       -2    1    3    3    0  502 -0.56085860213E+03 -0.97699401319E+03  0.13983935381E+04  0.17957127167E+04  0.25500000920E-02 0.  1.
</event>
<event>
 5   0  0.2429358E-06  0.2888093E+04  0.7818609E-02  0.8276429E-01
        1   -1    0    0  501    0  0.00000000000E+00  0.00000000000E+00  0.17426169427E+04  0.17426169427E+04  0.50400001928E-02 0.  1.
       -1   -1    0    0    0  501  0.00000000000E+00  0.00000000000E+00 -0.11966316519E+04  0.11966316520E+04  0.50400001928E-02 0. -1.
    10030    2    1    2    0    0  0.00000000000E+00  0.00000000000E+00  0.54598529077E+03  0.29392485947E+04  0.28880932055E+04 0.  0.
        2    1    3    3  502    0 -0.11979997162E+03  0.88789957110E+03 -0.87956527484E+03  0.12555288743E+04  0.25500000920E-02 0. -1.
       -2    1    3    3    0  502  0.11979997162E+03 -0.88789957110E+03  0.14255505656E+04  0.16837197203E+04  0.25500000920E-02 0.  1.
</event>
<event>
 5   0  0.6615403E-06  0.2857053E+04  0.7818609E-02  0.8285771E-01
       -2   -1    0    0    0  501  0.00000000000E+00  0.00000000000E+00  0.11504850433E+04  0.11504850433E+04  0.25500000920E-02 0.  1.
        2   -1    0    0  501    0  0.00000000000E+00  0.00000000000E+00 -0.17737625249E+04  0.17737625249E+04  0.25500000920E-02 0. -1.
    10030    2    1    2    0    0  0.00000000000E+00  0.00000000000E+00 -0.62327748166E+03  0.29242475682E+04  0.28570525058E+04 0.  0.
        2    1    3    3  502    0  0.58905755192E+03 -0.82031178188E+03  0.72246352247E+03  0.12417140413E+04  0.25500000920E-02 0.  1.
       -2    1    3    3    0  502 -0.58905755192E+03  0.82031178188E+03 -0.13457410041E+04  0.16825335269E+04  0.25500000920E-02 0. -1.
</event>
<event>
 5   0  0.2474769E-06  0.2887287E+04  0.7818609E-02  0.8276670E-01
       -1   -1    0    0    0  501  0.00000000000E+00  0.00000000000E+00  0.23916341234E+04  0.23916341234E+04  0.50400001928E-02 0.  1.
        1   -1    0    0  501    0  0.00000000000E+00  0.00000000000E+00 -0.87141549051E+03  0.87141549052E+03  0.50400001928E-02 0. -1.
    10030    2    1    2    0    0  0.00000000000E+00  0.00000000000E+00  0.15202186329E+04  0.32630496139E+04  0.28872873240E+04 0.  0.
        1    1    3    3  502    0  0.21934076539E+03  0.13682344814E+04  0.30253220736E+03  0.14183447057E+04  0.50400001928E-02 0. -1.
       -1    1    3    3    0  502 -0.21934076539E+03 -0.13682344814E+04  0.12176864255E+04  0.18447049082E+04  0.50400001928E-02 0.  1.
</event>
<event>
 5   0  0.2336512E-06  0.2822424E+04  0.7818609E-02  0.8296340E-01
        1   -1    0    0  501    0  0.00000000000E+00  0.00000000000E+00  0.27784684994E+04  0.27784684994E+04  0.50400001928E-02 0. -1.
       -1   -1    0    0    0  501  0.00000000000E+00  0.00000000000E+00 -0.71676859823E+03  0.71676859825E+03  0.50400001928E-02 0.  1.
    10030    2    1    2    0    0  0.00000000000E+00  0.00000000000E+00  0.20616999012E+04  0.34952370977E+04  0.28224237610E+04 0.  0.
        4    1    3    3  502    0 -0.87330133727E+03 -0.41862606032E+03 -0.24029553976E+03  0.99782090747E+03  0.12699999809E+01 0.  1.
       -4    1    3    3    0  502  0.87330133727E+03  0.41862606032E+03  0.23019954410E+04  0.24974161902E+04  0.12699999809E+01 0. -1.
</event>
<event>
 5   0  0.2508094E-06  0.2859074E+04  0.7818609E-02  0.8285159E-01
       -1   -1    0    0    0  501  0.00000000000E+00  0.00000000000E+00  0.13539685032E+04  0.13539685032E+04  0.50400001928E-02 0. -1.
        1   -1    0    0  501    0  0.00000000000E+00  0.00000000000E+00 -0.15093230979E+04  0.15093230979E+04  0.50400001928E-02 0.  1.
    10030    2    1    2    0    0  0.00000000000E+00  0.00000000000E+00 -0.15535459472E+03  0.28632916011E+04  0.28590739310E+04 0.  0.
        3    1    3    3  502    0 -0.13580578414E+04 -0.12462475922E+03 -0.50693939373E+03  0.14549364214E+04  0.10100000352E+00 0.  1.
       -3    1    3    3    0  502  0.13580578414E+04  0.12462475922E+03  0.35158479901E+03  0.14083551797E+04  0.10100000352E+00 0. -1.
</event>
<event>
 5   0  0.2336512E-06  0.2881662E+04  0.7818609E-02  0.8278354E-01
       -1   -1    0    0    0  501  0.00000000000E+00  0.00000000000E+00  0.14764151228E+04  0.14764151228E+04  0.50400001928E-02 0. -1.
        1   -1    0    0  501    0  0.00000000000E+00  0.00000000000E+00 -0.14061049153E+04  0.14061049153E+04  0.50400001928E-02 0.  1.
    10030    2    1    2    0    0  0.00000000000E+00  0.00000000000E+00  0.70310207510E+02  0.28825200381E+04  0.28816624100E+04 0.  0.
        4    1    3    3  502    0 -0.93510255397E+03 -0.80805120270E+03 -0.70576056341E+03  0.14231876610E+04  0.12699999809E+01 0.  1.
       -4    1    3    3    0  502  0.93510255397E+03  0.80805120270E+03  0.77607077092E+03  0.14593323772E+04  0.12699999809E+01 0. -1.
</event>
<event>
 5   0  0.6393633E-06  0.2868249E+04  0.7818609E-02  0.8282387E-01
        2   -1    0    0  501    0  0.00000000000E+00  0.00000000000E+00  0.21240473512E+04  0.21240473512E+04  0.25500000920E-02 0. -1.
       -2   -1    0    0    0  501  0.00000000000E+00  0.00000000000E+00 -0.96829911872E+03  0.96829911872E+03  0.25500000920E-02 0.  1.
    10030    2    1    2    0    0  0.00000000000E+00  0.00000000000E+00  0.11557482325E+04  0.30923464699E+04  0.28682490675E+04 0.  0.
        4    1    3    3  502    0  0.13362595069E+04 -0.17854479091E+03  0.11052152882E+04  0.17432642250E+04  0.12699999809E+01 0. -1.
       -4    1    3    3    0  502 -0.13362595069E+04  0.17854479091E+03  0.50532944309E+02  0.13490822449E+04  0.12699999809E+01 0.  1.
</event>
<event>
 5   0  0.6615403E-06  0.2900504E+04  0.7818609E-02  0.8272727E-01
        2   -1    0    0  501    0  0.00000000000E+00  0.00000000000E+00  0.18024043621E+04  0.18024043621E+04  0.25500000920E-02 0.  1.
       -2   -1    0    0    0  501  0.00000000000E+00  0.00000000000E+00 -0.11669031810E+04  0.11669031810E+04  0.25500000920E-02 0. -1.
    10030    2    1    2    0    0  0.00000000000E+00  0.00000000000E+00  0.63550118115E+03  0.29693075431E+04  0.29005043586E+04 0.  0.
        2    1    3    3  502    0  0.44164371552E+03  0.98569525496E+03 -0.67298038037E+03  0.12726141990E+04  0.25500000920E-02 0. -1.
       -2    1    3    3    0  502 -0.44164371552E+03 -0.98569525496E+03  0.13084815615E+04  0.16966933441E+04  0.25500000920E-02 0.  1.
</event>
<event>
 5   0  0.6733688E-06  0.2893727E+04  0.7818609E-02  0.8274746E-01
        2   -1    0    0  501    0  0.00000000000E+00  0.00000000000E+00  0.19089469857E+04  0.19089469857E+04  0.25500000920E-02 0.  1.
       -2   -1    0    0    0  501  0.00000000000E+00  0.00000000000E+00 -0.10966326007E+04  0.10966326007E+04  0.25500000920E-02 0. -1.
    10030    2    1    2    0    0  0.00000000000E+00  0.00000000000E+00  0.81231438501E+03  0.30055795864E+04  0.28937266613E+04 0.  0.
        5    1    3    3  502    0 -0.62335229322E+03 -0.10841074578E+04 -0.34966178761E+03  0.12985155052E+04  0.46999998093E+01 0. -1.
       -5    1    3    3    0  502  0.62335229322E+03  0.10841074578E+04  0.11619761726E+04  0.17070640812E+04  0.46999998093E+01 0.  1.
</event>
<event>
 5   0  0.6612533E-06  0.2950737E+04  0.7818609E-02  0.8257940E-01
        2   -1    0    0  501    0  0.00000000000E+00  0.00000000000E+00  0.14384966716E+04  0.14384966716E+04  0.25500000920E-02 0.  1.
       -2   -1    0    0    0  501  0.00000000000E+00  0.00000000000E+00 -0.15131853618E+04  0.15131853618E+04  0.25500000920E-02 0. -1.
    10030    2    1    2    0    0  0.00000000000E+00  0.00000000000E+00 -0.74688690195E+02  0.29516820334E+04  0.29507369293E+04 0.  0.
        3    1    3    3  502    0  0.87434462470E+02 -0.65757336028E+03 -0.13555921414E+04  0.15091976588E+04  0.10100000352E+00 0. -1.
       -3    1    3    3    0  502 -0.87434462470E+02  0.65757336028E+03  0.12809034512E+04  0.14424843746E+04  0.10100000352E+00 0.  1.
</event>
<event>
 5   0  0.6513041E-06  0.2916404E+04  0.7818609E-02  0.8268013E-01
        2   -1    0    0  501    0  0.00000000000E+00  0.00000000000E+00  0.10806280316E+04  0.10806280316E+04  0.25500000920E-02 0. -1.
       -2   -1    0    0    0  501  0.00000000000E+00  0.00000000000E+00 -0.19677016465E+04  0.19677016465E+04  0.25500000920E-02 0.  1.
    10030    2    1    2    0    0  0.00000000000E+00  0.00000000000E+00 -0.88707361495E+03  0.30483296781E+04  0.29164043321E+04 0.  0.
        1    1    3    3  502    0  0.54657900904E+03 -0.85970004111E+03 -0.15340541144E+04  0.18415088378E+04  0.50400001928E-02 0.  1.
       -1    1    3    3    0  502 -0.54657900904E+03  0.85970004111E+03  0.64698049947E+03  0.12068208403E+04  0.50400001928E-02 0. -1.
</event>
<event>
 5   0  0.2508094E-06  0.3037469E+04  0.7818609E-02  0.8233112E-01
       -1   -1    0    0    0  501  0.00000000000E+00  0.00000000000E+00  0.13137200987E+04  0.13137200987E+04  0.50400001928E-02 0. -1.
        1   -1    0    0  501    0  0.00000000000E+00  0.00000000000E+00 -0.17557421981E+04  0.17557421981E+04  0.50400001928E-02 0.  1.
    10030    2    1    2    0    0  0.00000000000E+00  0.00000000000E+00 -0.44202209936E+03  0.30694622968E+04  0.30374685604E+04 0.  0.
        3    1    3    3  502    0  0.12426457667E+04 -0.22919742433E+03  0.63039156702E+03  0.14121237548E+04  0.10100000352E+00 0. -1.
       -3    1    3    3    0  502 -0.12426457667E+04  0.22919742433E+03 -0.10724136664E+04  0.16573385420E+04  0.10100000352E+00 0.  1.
</event>
<event>
 5   0  0.2508094E-06  0.2889688E+04  0.7818609E-02  0.8275952E-01
        1   -1    0    0  501    0  0.00000000000E+00  0.00000000000E+00  0.16638545428E+04  0.16638545428E+04  0.50400001928E-02 0.  1.
       -1   -1    0    0    0  501  0.00000000000E+00  0.00000000000E+00 -0.12546617677E+04  0.12546617677E+04  0.50400001928E-02 0. -1.
    10030    2    1    2    0    0  0.00000000000E+00  0.00000000000E+00  0.40919277508E+03  0.29185163105E+04  0.28896883444E+04 0.  0.
        3    1    3    3  502    0 -0.13007388789E+04  0.14083320746E+03 -0.41456022108E+03  0.13724488371E+04  0.10100000352E+00 0. -1.
       -3    1    3    3    0  502  0.13007388789E+04 -0.14083320746E+03  0.82375299616E+03  0.15460674734E+04  0.10100000352E+00 0.  1.
</event>
<event>
 5   0  0.6733688E-06  0.2888378E+04  0.7818609E-02  0.8276344E-01
        2   -1    0    0  501    0  0.00000000000E+00  0.00000000000E+00  0.16776293679E+04  0.16776293679E+04  0.25500000920E-02 0.  1.
       -2   -1    0    0    0  501  0.00000000000E+00  0.00000000000E+00 -0.12432318243E+04  0.12432318243E+04  0.25500000920E-02 0. -1.
    10030    2    1    2    0    0  0.00000000000E+00  0.00000000000E+00  0.43439754355E+03  0.29208611922E+04  0.28883782436E+04 0.  0.
        5    1    3    3  502    0 -0.89298363417E+03 -0.72895254012E+03  0.10969645896E+04  0.15912714971E+04  0.46999998093E+01 0.  1.
       -5    1    3    3    0  502  0.89298363417E+03  0.72895254012E+03 -0.66256704608E+03  0.13295896951E+04  0.46999998093E+01 0. -1.
</event>
<event>
 5   0  0.2336512E-06  0.2949452E+04  0.7818609E-02  0.8258314E-01
       -1   -1    0    0    0  501  0.00000000000E+00  0.00000000000E+00  0.13661262433E+04  0.13661262433E+04  0.50400001928E-02 0. -1.
        1   -1    0    0  501    0  0.00000000000E+00  0.00000000000E+00 -0.15919585387E+04  0.15919585387E+04  0.50400001928E-02 0.  1.
    10030    2    1    2    0    0  0.00000000000E+00  0.00000000000E+00 -0.22583229543E+03  0.29580847820E+04  0.29494517036E+04 0.  0.
        4    1    3    3  502    0 -0.72958038022E+03 -0.95170790536E+03  0.74795474357E+03  0.14133199849E+04  0.12699999809E+01 0. -1.
       -4    1    3    3    0  502  0.72958038022E+03  0.95170790536E+03 -0.97378703900E+03  0.15447647972E+04  0.12699999809E+01 0.  1.
</event>
<event>
 5   0  0.6513041E-06  0.2872147E+04  0.7818609E-02  0.8281213E-01
        2   -1    0    0  501    0  0.00000000000E+00  0.00000000000E+00  0.13285952965E+04  0.13285952965E+04  0.25500000920E-02 0.  1.
       -2   -1    0    0    0  501  0.00000000000E+00  0.00000000000E+00 -0.15522459926E+04  0.15522459926E+04  0.25500000920E-02 0. -1.
    10030    2    1    2    0    0  0.00000000000E+00  0.00000000000E+00 -0.22365069612E+03  0.28808412891E+04  0.28721467406E+04 0.  0.
        1    1    3    3  502    0  0.81471399883E+03  0.11253029577E+04  0.25292515478E+03  0.14121036720E+04  0.50400001928E-02 0. -1.
       -1    1    3    3    0  502 -0.81471399883E+03 -0.11253029577E+04 -0.47657585090E+03  0.14687376172E+04  0.50400001928E-02 0.  1.
</event>
<event>
 5   0  0.6612533E-06  0.2920169E+04  0.7818609E-02  0.8266902E-01
        2   -1    0    0  501    0  0.00000000000E+00  0.00000000000E+00  0.29924165816E+04  0.29924165816E+04  0.25500000920E-02 0.  1.
       -2   -1    0    0    0  501  0.00000000000E+00  0.00000000000E+00 -0.71241641181E+03  0.71241641182E+03  0.25500000920E-02 0. -1.
    10030    2    1    2    0    0  0.00000000000E+00  0.00000000000E+00  0.22800001698E+04  0.37048329934E+04  0.29201689566E+04 0.  0.
        3    1    3    3  502    0  0.93458171522E+03 -0.55051871558E+03 -0.10004652159E+03  0.10892764366E+04  0.10100000352E+00 0. -1.
       -3    1    3    3    0  502 -0.93458171522E+03  0.55051871558E+03  0.23800466914E+04  0.26155565568E+04  0.10100000352E+00 0.  1.
</event>
<event>
 5   0  0.2508094E-06  0.2889887E+04  0.7818609E-02  0.8275893E-01
       -1   -1    0    0    0  501  0.00000000000E+00  0.00000000000E+00  0.17162691026E+04  0.17162691026E+04  0.50400001928E-02 0. -1.
        1   -1    0    0  501    0  0.00000000000E+00  0.00000000000E+00 -0.12165115677E+04  0.12165115677E+04  0.50400001928E-02 0.  1.
    10030    2    1    2    0    0  0.00000000000E+00  0.00000000000E+00  0.49975753497E+03  0.29327806703E+04  0.28898866529E+04 0.  0.
        3    1    3    3  502    0  0.10521980490E+04  0.26471391235E+03 -0.71857430132E+03  0.13013620658E+04  0.10100000352E+00 0.  1.
       -3    1    3    3    0  502 -0.10521980490E+04 -0.26471391235E+03  0.12183318363E+04  0.16314186045E+04  0.10100000352E+00 0. -1.
</event>
<event>
 5   0  0.6612533E-06  0.2914696E+04  0.7818609E-02  0.8268518E-01
       -2   -1    0    0    0  501  0.00000000000E+00  0.00000000000E+00  0.12019716460E+04  0.12019716460E+04  0.25500000920E-02 0.  1.
        2   -1    0    0  501    0  0.00000000000E+00  0.00000000000E+00 -0.17669833273E+04  0.17669833273E+04  0.25500000920E-02 0. -1.
    10030    2    1    2    0    0  0.00000000000E+00  0.00000000000E+00 -0.56501168125E+03  0.29689549733E+04  0.29146964565E+04 0.  0.
        3    1    3    3  502    0 -0.40935786099E+03 -0.21930726472E+03 -0.16895948696E+04  0.17522557942E+04  0.10100000352E+00 0. -1.
       -3    1    3    3    0  502  0.40935786099E+03  0.21930726472E+03  0.11245831883E+04  0.12166991791E+04  0.10100000352E+00 0.  1.
</event>
<event>
 5   0  0.6513041E-06  0.2717516E+04  0.7818609E-02  0.8329344E-01
       -2   -1    0    0    0  501  0.00000000000E+00  0.00000000000E+00  0.13938357638E+04  0.13938357638E+04  0.25500000920E-02 0.  1.
        2   -1    0    0  501    0  0.00000000000E+00  0.00000000000E+00 -0.13245627858E+04  0.13245627858E+04  0.25500000920E-02 0. -1.
    10030    2    1    2    0    0  0.00000000000E+00  0.00000000000E+00  0.69272978062E+02  0.27183985496E+04  0.27175157642E+04 0.  0.
        1    1    3    3  502    0  0.37846656571E+03 -0.41636919804E+03  0.12718174335E+04  0.13907263695E+04  0.50400001928E-02 0.  1.
       -1    1    3    3    0  502 -0.37846656571E+03  0.41636919804E+03 -0.12025444555E+04  0.13276721801E+04  0.50400001928E-02 0. -1.
</event>
<event>
 5   0  0.2429358E-06  0.2860203E+04  0.7818609E-02  0.8284818E-01
        1   -1    0    0  501    0  0.00000000000E+00  0.00000000000E+00  0.13268512463E+04  0.13268512463E+04  0.50400001928E-02 0. -1.
       -1   -1    0    0    0  501  0.00000000000E+00  0.00000000000E+00 -0.15413866572E+04  0.15413866572E+04  0.50400001928E-02 0.  1.
    10030    2    1    2    0    0  0.00000000000E+00  0.00000000000E+00 -0.21453541087E+03  0.28682379035E+04  0.28602033544E+04 0.  0.
        2    1    3    3  502    0  0.11888070365E+04  0.59391687990E+03 -0.63713761737E+03  0.14737515984E+04  0.25500000920E-02 0.  1.
       -2    1    3    3    0  502 -0.11888070365E+04 -0.59391687990E+03  0.42260220650E+03  0.13944863051E+04  0.25500000920E-02 0. -1.
</event>
<event>
 5   0  0.6393633E-06  0.2913943E+04  0.7818609E-02  0.8268741E-01
        2   -1    0    0  501    0  0.00000000000E+00  0.00000000000E+00  0.25808364436E+04  0.25808364436E+04  0.25500000920E-02 0. -1.
       -2   -1    0    0    0  501  0.00000000000E+00  0.00000000000E+00 -0.82251057034E+03  0.82251057035E+03  0.25500000920E-02 0.  1.
    10030    2    1    2    0    0  0.00000000000E+00  0.00000000000E+00  0.17583258733E+04  0.34033470140E+04  0.29139425219E+04 0.  0.
        4    1    3    3  502    0 -0.12784556714E+04  0.69210849877E+03  0.99179963341E+03  0.17598668142E+04  0.12699999809E+01 0.  1.
       -4    1    3    3    0  502  0.12784556714E+04 -0.69210849877E+03  0.76652623987E+03  0.16434801998E+04  0.12699999809E+01 0. -1.
</event>
<event>
 5   0  0.6615403E-06  0.2905316E+04  0.7818609E-02  0.8271298E-01
       -2   -1    0    0    0  501  0.00000000000E+00  0.00000000000E+00  0.11711825768E+04  0.11711825768E+04  0.25500000920E-02 0. -1.
        2   -1    0    0  501    0  0.00000000000E+00  0.00000000000E+00 -0.18017819104E+04  0.18017819104E+04  0.25500000920E-02 0.  1.
    10030    2    1    2    0    0  0.00000000000E+00  0.00000000000E+00 -0.63059933352E+03  0.29729644872E+04  0.29053162173E+04 0.  0.
        2    1    3    3  502    0 -0.18428908413E+03  0.90666626479E+03 -0.14612910142E+04  0.17295599470E+04  0.25500000920E-02 0.  1.
       -2    1    3    3    0  502  0.18428908413E+03 -0.90666626479E+03  0.83069168064E+03  0.12434045402E+04  0.25500000920E-02 0. -1.
</event>
<event>
 5   0  0.2508094E-06  0.2826573E+04  0.7818609E-02  0.8295066E-01
        1   -1    0    0  501    0  0.00000000000E+00  0.00000000000E+00  0.15615590080E+04  0.15615590080E+04  0.50400001928E-02 0. -1.
       -1   -1    0    0    0  501  0.00000000000E+00  0.00000000000E+00 -0.12790927956E+04  0.12790927956E+04  0.50400001928E-02 0.  1.
    10030    2    1    2    0    0  0.00000000000E+00  0.00000000000E+00  0.28246621241E+03  0.28406518036E+04  0.28265731032E+04 0.  0.
        3    1    3    3  502    0 -0.11948557627E+04 -0.75477440793E+03  0.13745056027E+03  0.14199497763E+04  0.10100000352E+00 0. -1.
       -3    1    3    3    0  502  0.11948557627E+04  0.75477440793E+03  0.14501565214E+03  0.14207020272E+04  0.10100000352E+00 0.  1.
</event>
<event>
 5   0  0.2336512E-06  0.2880280E+04  0.7818609E-02  0.8278769E-01
        1   -1    0    0  501    0  0.00000000000E+00  0.00000000000E+00  0.23785282382E+04  0.23785282382E+04  0.50400001928E-02 0.  1.
       -1   -1    0    0    0  501  0.00000000000E+00  0.00000000000E+00 -0.87196902535E+03  0.87196902536E+03  0.50400001928E-02 0. -1.
    10030    2    1    2    0    0  0.00000000000E+00  0.00000000000E+00  0.15065592129E+04  0.32504972636E+04  0.28802798126E+04 0.  0.
        4    1    3    3  502    0 -0.85736510794E+03 -0.90445106023E+03 -0.61218518025E+02  0.12477403450E+04  0.12699999809E+01 0. -1.
       -4    1    3    3    0  502  0.85736510794E+03  0.90445106023E+03  0.15677777309E+04  0.20027569186E+04  0.12699999809E+01 0.  1.
</event>
<event>
 5   0  0.2348684E-06  0.2897089E+04  0.7818609E-02  0.8273744E-01
        1   -1    0    0  501    0  0.00000000000E+00  0.00000000000E+00  0.11432513753E+04  0.11432513753E+04  0.50400001928E-02 0.  1.
       -1   -1    0    0    0  501  0.00000000000E+00  0.00000000000E+00 -0.18353629146E+04  0.18353629146E+04  0.50400001928E-02 0. -1.
    10030    2    1    2    0    0  0.00000000000E+00  0.00000000000E+00 -0.69211153928E+03  0.29786142900E+04  0.28970890055E+04 0.  0.
        5    1    3    3  502    0 -0.76623837086E+03  0.14279736493E+03 -0.16013755366E+04  0.17809935507E+04  0.46999998093E+01 0. -1.
       -5    1    3    3    0  502  0.76623837086E+03 -0.14279736493E+03  0.90926399730E+03  0.11976207393E+04  0.46999998093E+01 0.  1.
</event>
<event>
 5   0  0.2336512E-06  0.2717242E+04  0.7818609E-02  0.8329432E-01
        1   -1    0    0  501    0  0.00000000000E+00  0.00000000000E+00  0.14132921965E+04  0.14132921965E+04  0.50400001928E-02 0.  1.
       -1   -1    0    0    0  501  0.00000000000E+00  0.00000000000E+00 -0.13060648411E+04  0.13060648412E+04  0.50400001928E-02 0. -1.
    10030    2    1    2    0    0  0.00000000000E+00  0.00000000000E+00  0.10722735538E+03  0.27193570377E+04  0.27172421667E+04 0.  0.
        4    1    3    3  502    0 -0.60993548327E+03  0.11731679552E+04  0.36611508428E+03  0.13720008064E+04  0.12699999809E+01 0. -1.
       -4    1    3    3    0  502  0.60993548327E+03 -0.11731679552E+04 -0.25888772890E+03  0.13473562313E+04  0.12699999809E+01 0.  1.
</event>
<event>
 5   0  0.2474769E-06  0.2886201E+04  0.7818609E-02  0.8276995E-01
        1   -1    0    0  501    0  0.00000000000E+00  0.00000000000E+00  0.18282214741E+04  0.18282214741E+04  0.50400001928E-02 0. -1.
       -1   -1    0    0    0  501  0.00000000000E+00  0.00000000000E+00 -0.11391065875E+04  0.11391065875E+04  0.50400001928E-02 0.  1.
    10030    2    1    2    0    0  0.00000000000E+00  0.00000000000E+00  0.68911488660E+03  0.29673280616E+04  0.28862010495E+04 0.  0.
        1    1    3    3  502    0 -0.39370772988E+03 -0.12079552895E+04 -0.35906054469E+03  0.13202599110E+04  0.50400001928E-02 0. -1.
       -1    1    3    3    0  502  0.39370772988E+03  0.12079552895E+04  0.10481754313E+04  0.16470681506E+04  0.50400001928E-02 0.  1.
</event>
<event>
 5   0  0.6733688E-06  0.2803098E+04  0.7818609E-02  0.8302307E-01
       -2   -1    0    0    0  501  0.00000000000E+00  0.00000000000E+00  0.13615929394E+04  0.13615929394E+04  0.25500000920E-02 0.  1.
        2   -1    0    0  501    0  0.00000000000E+00  0.00000000000E+00 -0.14426780426E+04  0.14426780426E+04  0.25500000920E-02 0. -1.
    10030    2    1    2    0    0  0.00000000000E+00  0.00000000000E+00 -0.81085103198E+02  0.28042709820E+04  0.28030984546E+04 0.  0.
        5    1    3    3  502    0 -0.10331771274E+04  0.67559502541E+03  0.62338746990E+03  0.13829380473E+04  0.46999998093E+01 0.  1.
       -5    1    3    3    0  502  0.10331771274E+04 -0.67559502541E+03 -0.70447257310E+03  0.14213329347E+04  0.46999998093E+01 0. -1.
</event>
<event>
 5   0  0.2336512E-06  0.2890707E+04  0.7818609E-02  0.8275648E-01
        1   -1    0    0  501    0  0.00000000000E+00  0.00000000000E+00  0.19072651442E+04  0.19072651442E+04  0.50400001928E-02 0.  1.
       -1   -1    0    0    0  501  0.00000000000E+00  0.00000000000E+00 -0.10953099688E+04  0.10953099688E+04  0.50400001928E-02 0. -1.
    10030    2    1    2    0    0  0.00000000000E+00  0.00000000000E+00  0.81195517540E+03  0.30025751130E+04  0.28907068517E+04 0.  0.
        4    1    3    3  502    0  0.21423559426E+03  0.13676762081E+04  0.83751909034E+03  0.16179848391E+04  0.12699999809E+01 0.  1.
       -4    1    3    3    0  502 -0.21423559426E+03 -0.13676762081E+04 -0.25563914941E+02  0.13845902739E+04  0.12699999809E+01 0. -1.
</event>
<event>
 5   0  0.2429358E-06  0.2879096E+04  0.7818609E-02  0.8279124E-01
        1   -1    0    0  501    0  0.00000000000E+00  0.00000000000E+00  0.18107412316E+04  0.18107412316E+04  0.50400001928E-02 0. -1.
       -1   -1    0    0    0  501  0.00000000000E+00  0.00000000000E+00 -0.11444477700E+04  0.11444477700E+04  0.50400001928E-02 0.  1.
    10030    2    1    2    0    0  0.00000000000E+00  0.00000000000E+00  0.66629346160E+03  0.29551890016E+04  0.28790962225E+04 0.  0.
        2    1    3    3  502    0 -0.67700598890E+03 -0.12184178397E+04 -0.36110618926E+02  0.13943396709E+04  0.25500000920E-02 0. -1.
       -2    1    3    3    0  502  0.67700598890E+03  0.12184178397E+04  0.70240408053E+03  0.15608493308E+04  0.25500000920E-02 0.  1.
</event>
<event>
 5   0  0.6612533E-06  0.2922262E+04  0.7818609E-02  0.8266285E-01
        2   -1    0    0  501    0  0.00000000000E+00  0.00000000000E+00  0.11541763052E+04  0.11541763052E+04  0.25500000920E-02 0. -1.
       -2   -1    0    0    0  501  0.00000000000E+00  0.00000000000E+00 -0.18497207018E+04  0.18497207018E+04  0.25500000920E-02 0.  1.
    10030    2    1    2    0    0  0.00000000000E+00  0.00000000000E+00 -0.69554439656E+03  0.30038970070E+04  0.29222620042E+04 0.  0.
        3    1    3    3  502    0 -0.48818213851E+03 -0.39150009273E+03 -0.17050012796E+04  0.18162113029E+04  0.10100000352E+00 0.  1.
       -3    1    3    3    0  502  0.48818213851E+03  0.39150009273E+03  0.10094568830E+04  0.11876857042E+04  0.10100000352E+00 0. -1.
</event>
<event>
 5   0  0.6612533E-06  0.2905132E+04  0.7818609E-02  0.8271352E-01
        2   -1    0    0  501    0  0.00000000000E+00  0.00000000000E+00  0.19299963928E+04  0.19299963928E+04  0.25500000920E-02 0. -1.
       -2   -1    0    0    0  501  0.00000000000E+00  0.00000000000E+00 -0.10932390682E+04  0.10932390682E+04  0.25500000920E-02 0.  1.
    10030    2    1    2    0    0  0.00000000000E+00  0.00000000000E+00  0.83675732460E+03  0.30232354610E+04  0.29051316377E+04 0.  0.
        3    1    3    3  502    0  0.25218626266E+03  0.94298737467E+03  0.15378066814E+04  0.18214479129E+04  0.10100000352E+00 0. -1.
       -3    1    3    3    0  502 -0.25218626266E+03 -0.94298737467E+03 -0.70104935679E+03  0.12017875481E+04  0.10100000352E+00 0.  1.
</event>
<event>
 5   0  0.2348684E-06  0.2895670E+04  0.7818609E-02  0.8274167E-01
       -1   -1    0    0    0  501  0.00000000000E+00  0.00000000000E+00  0.82468001998E+03  0.82468002000E+03  0.50400001928E-02 0.  1.
        1   -1    0    0  501    0  0.00000000000E+00  0.00000000000E+00 -0.25418662660E+04  0.25418662660E+04  0.50400001928E-02 0. -1.
    10030    2    1    2    0    0  0.00000000000E+00  0.00000000000E+00 -0.17171862460E+04  0.33665462860E+04  0.28956700938E+04 0.  0.
        5    1    3    3  502    0  0.11346491288E+04  0.86715581709E+03 -0.11357159339E+04  0.18246261614E+04  0.46999998093E+01 0. -1.
       -5    1    3    3    0  502 -0.11346491288E+04 -0.86715581709E+03 -0.58147031210E+03  0.15419201245E+04  0.46999998093E+01 0.  1.
</event>
<event>
 5   0  0.6733688E-06  0.2906586E+04  0.7818609E-02  0.8270921E-01
       -2   -1    0    0    0  501  0.00000000000E+00  0.00000000000E+00  0.97754657717E+03  0.97754657718E+03  0.25500000920E-02 0.  1.
        2   -1    0    0  501    0  0.00000000000E+00  0.00000000000E+00 -0.21605726391E+04  0.21605726391E+04  0.25500000920E-02 0. -1.
    10030    2    1    2    0    0  0.00000000000E+00  0.00000000000E+00 -0.11830260619E+04  0.31381192163E+04  0.29065858928E+04 0.  0.
        5    1    3    3  502    0 -0.61868447445E+03  0.96029183606E+03 -0.15614688300E+04  0.19347190717E+04  0.46999998093E+01 0. -1.
       -5    1    3    3    0  502  0.61868447445E+03 -0.96029183606E+03  0.37844276805E+03  0.12034001446E+04  0.46999998093E+01 0.  1.
</event>
<event>
 5   0  0.6612533E-06  0.2904637E+04  0.7818609E-02  0.8271499E-01
        2   -1    0    0  501    0  0.00000000000E+00  0.00000000000E+00  0.24748805730E+04  0.24748805730E+04  0.25500000920E-02 0. -1.
       -2   -1    0    0    0  501  0.00000000000E+00  0.00000000000E+00 -0.85225513939E+03  0.85225513939E+03  0.25500000920E-02 0.  1.
    10030    2    1    2    0    0  0.00000000000E+00  0.00000000000E+00  0.16226254336E+04  0.33271357124E+04  0.29046374560E+04 0.  0.
        3    1    3    3  502    0  0.83689999572E+03 -0.87119883238E+03  0.17346960390E+04  0.21138967255E+04  0.10100000352E+00 0. -1.
       -3    1    3    3    0  502 -0.83689999572E+03  0.87119883238E+03 -0.11207060540E+03  0.12132389868E+04  0.10100000352E+00 0.  1.
</event>
<event>
 5   0  0.2508094E-06  0.2856128E+04  0.7818609E-02  0.8286052E-01
       -1   -1    0    0    0  501  0.00000000000E+00  0.00000000000E+00  0.14491424394E+04  0.14491424394E+04  0.50400001928E-02 0. -1.
        1   -1    0    0  501    0  0.00000000000E+00  0.00000000000E+00 -0.14072921257E+04  0.14072921257E+04  0.50400001928E-02 0.  1.
    10030    2    1    2    0    0  0.00000000000E+00  0.00000000000E+00  0.41850313659E+02  0.28564345651E+04  0.28561279691E+04 0.  0.
        3    1    3    3  502    0  0.99792971966E+03 -0.34667428723E+03  0.98192369396E+03  0.14422971045E+04  0.10100000352E+00 0. -1.
       -3    1    3    3    0  502 -0.99792971966E+03  0.34667428723E+03 -0.94007338030E+03  0.14141374606E+04  0.10100000352E+00 0.  1.
</event>
<event>
 5   0  0.2508094E-06  0.2901929E+04  0.7818609E-02  0.8272304E-01
       -1   -1    0    0    0  501  0.00000000000E+00  0.00000000000E+00  0.11183101677E+04  0.11183101677E+04  0.50400001928E-02 0.  1.
        1   -1    0    0  501    0  0.00000000000E+00  0.00000000000E+00 -0.18825706253E+04  0.18825706253E+04  0.50400001928E-02 0. -1.
    10030    2    1    2    0    0  0.00000000000E+00  0.00000000000E+00 -0.76426045758E+03  0.30008807930E+04  0.29019289252E+04 0.  0.
        3    1    3    3  502    0  0.11539841715E+04  0.74772341041E+03  0.96835082079E+02  0.13784581277E+04  0.10100000352E+00 0.  1.
       -3    1    3    3    0  502 -0.11539841715E+04 -0.74772341041E+03 -0.86109553966E+03  0.16224226654E+04  0.10100000352E+00 0. -1.
</event>
<event>
 5   0  0.2336512E-06  0.2886927E+04  0.7818609E-02  0.8276778E-01
       -1   -1    0    0    0  501  0.00000000000E+00  0.00000000000E+00  0.13728262094E+04  0.13728262095E+04  0.50400001928E-02 0. -1.
        1   -1    0    0  501    0  0.00000000000E+00  0.00000000000E+00 -0.15177355785E+04  0.15177355785E+04  0.50400001928E-02 0.  1.
    10030    2    1    2    0    0  0.00000000000E+00  0.00000000000E+00 -0.14490936904E+03  0.28905617880E+04  0.28869272115E+04 0.  0.
        4    1    3    3  502    0 -0.84902113100E+03  0.26379240451E+03 -0.12110592817E+04  0.15023613115E+04  0.12699999809E+01 0.  1.
       -4    1    3    3    0  502  0.84902113100E+03 -0.26379240451E+03  0.10661499127E+04  0.13882004764E+04  0.12699999809E+01 0. -1.
</event>
<event>
 5   0  0.6513041E-06  0.2903783E+04  0.7818609E-02  0.8271753E-01
       -2   -1    0    0    0  501  0.00000000000E+00  0.00000000000E+00  0.19025536657E+04  0.19025536657E+04  0.25500000920E-02 0.  1.
        2   -1    0    0  501    0  0.00000000000E+00  0.00000000000E+00 -0.11079790003E+04  0.11079790003E+04  0.25500000920E-02 0. -1.
    10030    2    1    2    0    0  0.00000000000E+00  0.00000000000E+00  0.79457466546E+03  0.30105326660E+04  0.29037834000E+04 0.  0.
        1    1    3    3  502    0  0.10453439736E+04  0.14138935657E+03 -0.63701191393E+03  0.12322820910E+04  0.50400001928E-02 0. -1.
       -1    1    3    3    0  502 -0.10453439736E+04 -0.14138935657E+03  0.14315865794E+04  0.17782505750E+04  0.50400001928E-02 0.  1.
</event>
<event>
 5   0  0.2159500E-06  0.2889912E+04  0.7818609E-02  0.8275885E-01
        4   -1    0    0  501    0  0.00000000000E+00  0.00000000000E+00  0.20106494925E+04  0.20106498936E+04  0.12699999809E+01 0. -1.
       -4   -1    0    0    0  501  0.00000000000E+00  0.00000000000E+00 -0.10384185936E+04  0.10384193702E+04  0.12699999809E+01 0.  1.
    10030    2    1    2    0    0  0.00000000000E+00  0.00000000000E+00  0.97223089893E+03  0.30490692637E+04  0.28899118420E+04 0.  0.
        3    1    3    3  502    0  0.58945997577E+03  0.44839169914E+02 -0.90499159106E+03  0.10809641087E+04  0.10100000352E+00 0.  1.
       -3    1    3    3    0  502 -0.58945997577E+03 -0.44839169914E+02  0.18772224900E+04  0.19681051550E+04  0.10100000352E+00 0. -1.
</event>
<event>
 5   0  0.6615403E-06  0.2885157E+04  0.7818609E-02  0.8277308E-01
        2   -1    0    0  501    0  0.00000000000E+00  0.00000000000E+00  0.16629091900E+04  0.16629091900E+04  0.25500000920E-02 0. -1.
       -2   -1    0    0    0  501  0.00000000000E+00  0.00000000000E+00 -0.12514407025E+04  0.12514407025E+04  0.25500000920E-02 0.  1.
    10030    2    1    2    0    0  0.00000000000E+00  0.00000000000E+00  0.41146848745E+03  0.29143498925E+04  0.28851566647E+04 0.  0.
        2    1    3    3  502    0  0.12876055963E+04  0.64193609466E+03  0.99685645135E+02  0.14422022566E+04  0.25500000920E-02 0. -1.
       -2    1    3    3    0  502 -0.12876055963E+04 -0.64193609466E+03  0.31178284232E+03  0.14721476359E+04  0.25500000920E-02 0.  1.
</event>
<event>
 5   0  0.6612533E-06  0.2923869E+04  0.7818609E-02  0.8265811E-01
        2   -1    0    0  501    0  0.00000000000E+00  0.00000000000E+00  0.18762052516E+04  0.18762052516E+04  0.25500000920E-02 0. -1.
       -2   -1    0    0    0  501  0.00000000000E+00  0.00000000000E+00 -0.11391353669E+04  0.11391353669E+04  0.25500000920E-02 0.  1.
    10030    2    1    2    0    0  0.00000000000E+00  0.00000000000E+00  0.73706988469E+03  0.30153406185E+04  0.29238685043E+04 0.  0.
        3    1    3    3  502    0 -0.45972393187E+03 -0.11844837535E+04  0.11142784443E+04  0.16899598568E+04  0.10100000352E+00 0. -1.
       -3    1    3    3    0  502  0.45972393187E+03  0.11844837535E+04 -0.37720855958E+03  0.13253807617E+04  0.10100000352E+00 0.  1.
</event>
<event>
 5   0  0.2336512E-06  0.2897765E+04  0.7818609E-02  0.8273543E-01
        1   -1    0    0  501    0  0.00000000000E+00  0.00000000000E+00  0.18050486091E+04  0.18050486091E+04  0.50400001928E-02 0.  1.
       -1   -1    0    0    0  501  0.00000000000E+00  0.00000000000E+00 -0.11629937276E+04  0.11629937276E+04  0.50400001928E-02 0. -1.
    10030    2    1    2    0    0  0.00000000000E+00  0.00000000000E+00  0.64205488149E+03  0.29680423367E+04  0.28977648010E+04 0.  0.
        4    1    3    3  502    0 -0.22352605512E+02  0.10308515375E+04 -0.72155077867E+03  0.12584878507E+04  0.12699999809E+01 0. -1.
       -4    1    3    3    0  502  0.22352605512E+02 -0.10308515375E+04  0.13636056602E+04  0.17095544860E+04  0.12699999809E+01 0.  1.
</event>
<event>
 5   0  0.2474769E-06  0.2889592E+04  0.7818609E-02  0.8275981E-01
       -1   -1    0    0    0  501  0.00000000000E+00  0.00000000000E+00  0.10978322055E+04  0.10978322055E+04  0.50400001928E-02 0.  1.
        1   -1    0    0  501    0  0.00000000000E+00  0.00000000000E+00 -0.19014161291E+04  0.19014161291E+04  0.50400001928E-02 0. -1.
    10030    2    1    2    0    0  0.00000000000E+00  0.00000000000E+00 -0.80358392360E+03  0.29992483346E+04  0.28895922637E+04 0.  0.
        1    1    3    3  502    0 -0.72563743904E+03  0.80689173760E+03 -0.13918295086E+04  0.17648833815E+04  0.50400001928E-02 0. -1.
       -1    1    3    3    0  502  0.72563743904E+03 -0.80689173760E+03  0.58824558505E+03  0.12343649531E+04  0.50400001928E-02 0.  1.
</event>
<event>
 5   0  0.6612533E-06  0.2863365E+04  0.7818609E-02  0.8283862E-01
       -2   -1    0    0    0  501  0.00000000000E+00  0.00000000000E+00  0.11067061730E+04  0.11067061730E+04  0.25500000920E-02 0. -1.
        2   -1    0    0  501    0  0.00000000000E+00  0.00000000000E+00 -0.18520852948E+04  0.18520852948E+04  0.25500000920E-02 0.  1.
    10030    2    1    2    0    0  0.00000000000E+00  0.00000000000E+00 -0.74537912180E+03  0.29587914678E+04  0.28633646144E+04 0.  0.
        3    1    3    3  502    0 -0.16522329061E+03 -0.13876370028E+04 -0.69431663340E+03  0.15604200668E+04  0.10100000352E+00 0. -1.
       -3    1    3    3    0  502  0.16522329061E+03  0.13876370028E+04 -0.51062488406E+02  0.13983714010E+04  0.10100000352E+00 0.  1.
</event>
<event>
 5   0  0.6733688E-06  0.2900725E+04  0.7818609E-02  0.8272662E-01
       -2   -1    0    0    0  501  0.00000000000E+00  0.00000000000E+00  0.11418005482E+04  0.11418005482E+04  0.25500000920E-02 0. -1.
        2   -1    0    0  501    0  0.00000000000E+00  0.00000000000E+00 -0.18423104295E+04  0.18423104295E+04  0.25500000920E-02 0.  1.
    10030    2    1    2    0    0  0.00000000000E+00  0.00000000000E+00 -0.70050988133E+03  0.29841109777E+04  0.29007247772E+04 0.  0.
        5    1    3    3  502    0  0.10848052565E+04 -0.12351269554E+03  0.63189977511E+03  0.12614980168E+04  0.46999998093E+01 0. -1.
       -5    1    3    3    0  502 -0.10848052565E+04  0.12351269554E+03 -0.13324096564E+04  0.17226129609E+04  0.46999998093E+01 0.  1.
</event>
<event>
 5   0  0.2508094E-06  0.2962159E+04  0.7818609E-02  0.8254620E-01
       -1   -1    0    0    0  501  0.00000000000E+00  0.00000000000E+00  0.16401930394E+04  0.16401930394E+04  0.50400001928E-02 0. -1.
        1   -1    0    0  501    0  0.00000000000E+00  0.00000000000E+00 -0.13374012052E+04  0.13374012052E+04  0.50400001928E-02 0.  1.
    10030    2    1    2    0    0  0.00000000000E+00  0.00000000000E+00  0.30279183422E+03  0.29775942446E+04  0.29621587720E+04 0.  0.
        3    1    3    3  502    0 -0.10098077598E+04 -0.10829468243E+04  0.11789657286E+03  0.14853905709E+04  0.10100000352E+00 0. -1.
       -3    1    3    3    0  502  0.10098077598E+04  0.10829468243E+04  0.18489526136E+03  0.14922036737E+04  0.10100000352E+00 0.  1.
</event>
<event>
 5   0  0.2336512E-06  0.2922632E+04  0.7818609E-02  0.8266175E-01
        1   -1    0    0  501    0  0.00000000000E+00  0.00000000000E+00  0.15004546533E+04  0.15004546533E+04  0.50400001928E-02 0.  1.
       -1   -1    0    0    0  501  0.00000000000E+00  0.00000000000E+00 -0.14231985405E+04  0.14231985405E+04  0.50400001928E-02 0. -1.
    10030    2    1    2    0    0  0.00000000000E+00  0.00000000000E+00  0.77256112864E+02  0.29236531938E+04  0.29226322880E+04 0.  0.
        4    1    3    3  502    0 -0.70538345560E+03  0.52812456001E+03  0.12047804711E+04  0.14926416070E+04  0.12699999809E+01 0. -1.
       -4    1    3    3    0  502  0.70538345560E+03 -0.52812456001E+03 -0.11275243583E+04  0.14310115869E+04  0.12699999809E+01 0.  1.
</event>
<event>
 5   0  0.2429358E-06  0.2925018E+04  0.7818609E-02  0.8265473E-01
        1   -1    0    0  501    0  0.00000000000E+00  0.00000000000E+00  0.11504586989E+04  0.11504586989E+04  0.50400001928E-02 0.  1.
       -1   -1    0    0    0  501  0.00000000000E+00  0.00000000000E+00 -0.18591996862E+04  0.18591996862E+04  0.50400001928E-02 0. -1.
    10030    2    1    2    0    0  0.00000000000E+00  0.00000000000E+00 -0.70874098734E+03  0.30096583851E+04  0.29250179158E+04 0.  0.
        2    1    3    3  502    0 -0.79905884852E+03 -0.83870948988E+03  0.56421349001E+03  0.12885129080E+04  0.25500000920E-02 0.  1.
       -2    1    3    3    0  502  0.79905884852E+03  0.83870948988E+03 -0.12729544774E+04  0.17211454771E+04  0.25500000920E-02 0. -1.
</event>
<event>
 5   0  0.6393633E-06  0.2896012E+04  0.7818609E-02  0.8274065E-01
        2   -1    0    0  501    0  0.00000000000E+00  0.00000000000E+00  0.18031792389E+04  0.18031792389E+04  0.25500000920E-02 0. -1.
       -2   -1    0    0    0  501  0.00000000000E+00  0.00000000000E+00 -0.11627914373E+04  0.11627914373E+04  0.25500000920E-02 0.  1.
    10030    2    1    2    0    0  0.00000000000E+00  0.00000000000E+00  0.64038780161E+03  0.29659706762E+04  0.28960120020E+04 0.  0.
        4    1    3    3  502    0 -0.13120663653E+04 -0.43621422978E+03 -0.12021591273E+03  0.13878957020E+04  0.12699999809E+01 0.  1.
       -4    1    3    3    0  502  0.13120663653E+04  0.43621422978E+03  0.76060371434E+03  0.15780749742E+04  0.12699999809E+01 0. -1.
</event>
<event>
 5   0  0.2348684E-06  0.2895957E+04  0.7818609E-02  0.8274081E-01
        1   -1    0    0  501    0  0.00000000000E+00  0.00000000000E+00  0.20736096065E+04  0.20736096065E+04  0.50400001928E-02 0. -1.
       -1   -1    0    0    0  501  0.00000000000E+00  0.00000000000E+00 -0.10111073037E+04  0.10111073038E+04  0.50400001928E-02 0.  1.
    10030    2    1    2    0    0  0.00000000000E+00  0.00000000000E+00  0.10625023028E+04  0.30847169103E+04  0.28959570565E+04 0.  0.
        5    1    3    3  502    0  0.12047156883E+04 -0.44208000687E+03  0.12456729491E+04  0.17884344573E+04  0.46999998093E+01 0. -1.
       -5    1    3    3    0  502 -0.12047156883E+04  0.44208000687E+03 -0.18317064635E+03  0.12962824529E+04  0.46999998093E+01 0.  1.
</event>
<event>
 5   0  0.6733688E-06  0.2930495E+04  0.7818609E-02  0.8263862E-01
       -2   -1    0    0    0  501  0.00000000000E+00  0.00000000000E+00  0.11069690264E+04  0.11069690264E+04  0.25500000920E-02 0.  1.
        2   -1    0    0  501    0  0.00000000000E+00  0.00000000000E+00 -0.19394856005E+04  0.19394856005E+04  0.25500000920E-02 0. -1.
    10030    2    1    2    0    0  0.00000000000E+00  0.00000000000E+00 -0.83251657412E+03  0.30464546269E+04  0.29304951711E+04 0.  0.
        5    1    3    3  502    0 -0.37196967195E+03 -0.64761323335E+03 -0.17267614440E+04  0.18813536381E+04  0.46999998093E+01 0. -1.
       -5    1    3    3    0  502  0.37196967195E+03  0.64761323335E+03  0.89424486992E+03  0.11651009889E+04  0.46999998093E+01 0.  1.
</event>
<event>
 5   0  0.2429358E-06  0.2884237E+04  0.7818609E-02  0.8277583E-01
       -1   -1    0    0    0  501  0.00000000000E+00  0.00000000000E+00  0.15703153899E+04  0.15703153899E+04  0.50400001928E-02 0.  1.
        1   -1    0    0  501    0  0.00000000000E+00  0.00000000000E+00 -0.13243869098E+04  0.13243869098E+04  0.50400001928E-02 0. -1.
    10030    2    1    2    0    0  0.00000000000E+00  0.00000000000E+00  0.24592848012E+03  0.28947022997E+04  0.28842365691E+04 0.  0.
        2    1    3    3  502    0 -0.81822937931E+02 -0.11086340286E+04 -0.79903169094E+03  0.13690201042E+04  0.25500000920E-02 0. -1.
       -2    1    3    3    0  502  0.81822937931E+02  0.11086340286E+04  0.10449601711E+04  0.15256821955E+04  0.25500000920E-02 0.  1.
</event>
<event>
 5   0  0.6513041E-06  0.2815615E+04  0.7818609E-02  0.8298437E-01
       -2   -1    0    0    0  501  0.00000000000E+00  0.00000000000E+00  0.17865175879E+04  0.17865175879E+04  0.25500000920E-02 0.  1.
        2   -1    0    0  501    0  0.00000000000E+00  0.00000000000E+00 -0.11093774641E+04  0.11093774641E+04  0.25500000920E-02 0. -1.
    10030    2    1    2    0    0  0.00000000000E+00  0.00000000000E+00  0.67714012377E+03  0.28958950520E+04  0.28156152800E+04 0.  0.
        1    1    3    3  502    0  0.42650514340E+03 -0.65222247389E+03  0.15444417002E+04  0.17299135696E+04  0.50400001928E-02 0.  1.
       -1    1    3    3    0  502 -0.42650514340E+03  0.65222247389E+03 -0.86730157644E+03  0.11659814824E+04  0.50400001928E-02 0. -1.
</event>
<event>
 5   0  0.2348684E-06  0.2908927E+04  0.7818609E-02  0.8270226E-01
       -1   -1    0    0    0  501  0.00000000000E+00  0.00000000000E+00  0.18486251034E+04  0.18486251034E+04  0.50400001928E-02 0. -1.
        1   -1    0    0  501    0  0.00000000000E+00  0.00000000000E+00 -0.11443445500E+04  0.11443445500E+04  0.50400001928E-02 0.  1.
    10030    2    1    2    0    0  0.00000000000E+00  0.00000000000E+00  0.70428055340E+03  0.29929696534E+04  0.29089269926E+04 0.  0.
        5    1    3    3  502    0 -0.14051135865E+04 -0.35633510215E+03  0.22986627108E+03  0.14677123317E+04  0.46999998093E+01 0. -1.
       -5    1    3    3    0  502  0.14051135865E+04  0.35633510215E+03  0.47441428232E+03  0.15252573217E+04  0.46999998093E+01 0.  1.
</event>
<event>
 5   0  0.2429358E-06  0.2783426E+04  0.7818609E-02  0.8308433E-01
       -1   -1    0    0    0  501  0.00000000000E+00  0.00000000000E+00  0.82691092401E+03  0.82691092403E+03  0.50400001928E-02 0.  1.
        1   -1    0    0  501    0  0.00000000000E+00  0.00000000000E+00 -0.23422892761E+04  0.23422892761E+04  0.50400001928E-02 0. -1.
    10030    2    1    2    0    0  0.00000000000E+00  0.00000000000E+00 -0.15153783521E+04  0.31692002001E+04  0.27834256517E+04 0.  0.
        2    1    3    3  502    0 -0.39974078798E+03 -0.11216626570E+04  0.62531327826E+02  0.11924051244E+04  0.25500000920E-02 0.  1.
       -2    1    3    3    0  502  0.39974078798E+03  0.11216626570E+04 -0.15779096799E+04  0.19767950758E+04  0.25500000920E-02 0. -1.
</event>
<event>
 5   0  0.6615403E-06  0.2757880E+04  0.7818609E-02  0.8316466E-01
        2   -1    0    0  501    0  0.00000000000E+00  0.00000000000E+00  0.16704029230E+04  0.16704029230E+04  0.25500000920E-02 0. -1.
       -2   -1    0    0    0  501  0.00000000000E+00  0.00000000000E+00 -0.11383334548E+04  0.11383334548E+04  0.25500000920E-02 0.  1.
    10030    2    1    2    0    0  0.00000000000E+00  0.00000000000E+00  0.53206946823E+03  0.28087363777E+04  0.27578800048E+04 0.  0.
        2    1    3    3  502    0 -0.94380138296E+03  0.96275259553E+03 -0.28824283236E+02  0.13485119391E+04  0.25500000920E-02 0.  1.
       -2    1    3    3    0  502  0.94380138296E+03 -0.96275259553E+03  0.56089375146E+03  0.14602244386E+04  0.25500000920E-02 0. -1.
</event>
<event>
 5   0  0.6615403E-06  0.2894197E+04  0.7818609E-02  0.8274606E-01
       -2   -1    0    0    0  501  0.00000000000E+00  0.00000000000E+00  0.14040283572E+04  0.14040283572E+04  0.25500000920E-02 0. -1.
        2   -1    0    0  501    0  0.00000000000E+00  0.00000000000E+00 -0.14914900303E+04  0.14914900303E+04  0.25500000920E-02 0.  1.
    10030    2    1    2    0    0  0.00000000000E+00  0.00000000000E+00 -0.87461673067E+02  0.28955183875E+04  0.28941971578E+04 0.  0.
        2    1    3    3  502    0 -0.88606975934E+03  0.87732171570E+03  0.69096214195E+03  0.14255671478E+04  0.25500000920E-02 0. -1.
       -2    1    3    3    0  502  0.88606975934E+03 -0.87732171570E+03 -0.77842381502E+03  0.14699512397E+04  0.25500000920E-02 0.  1.
</event>
<event>
 5   0  0.6393633E-06  0.2891835E+04  0.7818609E-02  0.8275311E-01
        2   -1    0    0  501    0  0.00000000000E+00  0.00000000000E+00  0.17541284824E+04  0.17541284824E+04  0.25500000920E-02 0. -1.
       -2   -1    0    0    0  501  0.00000000000E+00  0.00000000000E+00 -0.11918608368E+04  0.11918608368E+04  0.25500000920E-02 0.  1.
    10030    2    1    2    0    0  0.00000000000E+00  0.00000000000E+00  0.56226764565E+03  0.29459893192E+04  0.28918347400E+04 0.  0.
        4    1    3    3  502    0 -0.13771303801E+04  0.21980735379E+03  0.67021818131E+03  0.15472547884E+04  0.12699999809E+01 0. -1.
       -4    1    3    3    0  502  0.13771303801E+04 -0.21980735379E+03 -0.10795053566E+03  0.13987345308E+04  0.12699999809E+01 0.  1.
</event>
<event>
 5   0  0.6615403E-06  0.2927184E+04  0.7818609E-02  0.8264835E-01
       -2   -1    0    0    0  501  0.00000000000E+00  0.00000000000E+00  0.20377765145E+04  0.20377765145E+04  0.25500000920E-02 0. -1.
        2   -1    0    0  501    0  0.00000000000E+00  0.00000000000E+00 -0.10511958109E+04  0.10511958109E+04  0.25500000920E-02 0.  1.
    10030    2    1    2    0    0  0.00000000000E+00  0.00000000000E+00  0.98658070358E+03  0.30889723254E+04  0.29271844052E+04 0.  0.
        2    1    3    3  502    0  0.11421580667E+04 -0.85196045671E+03  0.14053860369E+03  0.14318214862E+04  0.25500000920E-02 0.  1.
       -2    1    3    3    0  502 -0.11421580667E+04  0.85196045671E+03  0.84604209989E+03  0.16571508392E+04  0.25500000920E-02 0. -1.
</event>
<event>
 5   0  0.6615403E-06  0.2885265E+04  0.7818609E-02  0.8277275E-01
        2   -1    0    0  501    0  0.00000000000E+00  0.00000000000E+00  0.16207098242E+04  0.16207098242E+04  0.25500000920E-02 0.  1.
       -2   -1    0    0    0  501  0.00000000000E+00  0.00000000000E+00 -0.12841219413E+04  0.12841219413E+04  0.25500000920E-02 0. -1.
    10030    2    1    2    0    0  0.00000000000E+00  0.00000000000E+00  0.33658788289E+03  0.29048317655E+04  0.28852653575E+04 0.  0.
        2    1    3    3  502    0 -0.46218269488E+03 -0.15344409670E+03  0.15354539488E+04  0.16108310784E+04  0.25500000920E-02 0.  1.
       -2    1    3    3    0  502  0.46218269488E+03  0.15344409670E+03 -0.11988660659E+04  0.12940006871E+04  0.25500000920E-02 0. -1.
</event>
<event>
 5   0  0.6612533E-06  0.2900184E+04  0.7818609E-02  0.8272823E-01
        2   -1    0    0  501    0  0.00000000000E+00  0.00000000000E+00  0.13518517453E+04  0.13518517453E+04  0.25500000920E-02 0. -1.
       -2   -1    0    0    0  501  0.00000000000E+00  0.00000000000E+00 -0.15554714663E+04  0.15554714663E+04  0.25500000920E-02 0.  1.
    10030    2    1    2    0    0  0.00000000000E+00  0.00000000000E+00 -0.20361972099E+03  0.29073232116E+04  0.29001840055E+04 0.  0.
        3    1    3    3  502    0 -0.11687036578E+04  0.77398236339E+03  0.27038548620E+03  0.14275942211E+04  0.10100000352E+00 0. -1.
       -3    1    3    3    0  502  0.11687036578E+04 -0.77398236339E+03 -0.47400520719E+03  0.14797289905E+04  0.10100000352E+00 0.  1.
</event>
<event>
 5   0  0.2336512E-06  0.2782865E+04  0.7818609E-02  0.8308608E-01
        1   -1    0    0  501    0  0.00000000000E+00  0.00000000000E+00  0.21221954943E+04  0.21221954943E+04  0.50400001928E-02 0. -1.
       -1   -1    0    0    0  501  0.00000000000E+00  0.00000000000E+00 -0.91230274769E+03  0.91230274771E+03  0.50400001928E-02 0.  1.
    10030    2    1    2    0    0  0.00000000000E+00  0.00000000000E+00  0.12098927466E+04  0.30344982420E+04  0.27828652721E+04 0.  0.
        4    1    3    3  502    0 -0.12618436523E+03  0.21254263515E+03 -0.88817034647E+03  0.92192464064E+03  0.12699999809E+01 0.  1.
       -4    1    3    3    0  502  0.12618436523E+03 -0.21254263515E+03  0.20980630931E+04  0.21125736014E+04  0.12699999809E+01 0. -1.
</event>
<event>
 5   0  0.2474769E-06  0.2879023E+04  0.7818609E-02  0.8279146E-01
        1   -1    0    0  501    0  0.00000000000E+00  0.00000000000E+00  0.14547858971E+04  0.14547858971E+04  0.50400001928E-02 0.  1.
       -1   -1    0    0    0  501  0.00000000000E+00  0.00000000000E+00 -0.14243970525E+04  0.14243970525E+04  0.50400001928E-02 0. -1.
    10030    2    1    2    0    0  0.00000000000E+00  0.00000000000E+00  0.30388844620E+02  0.28791829496E+04  0.28790225729E+04 0.  0.
        1    1    3    3  502    0 -0.75014454371E+03 -0.93598458112E+03  0.81110857697E+03  0.14479920912E+04  0.50400001928E-02 0.  1.
       -1    1    3    3    0  502  0.75014454371E+03  0.93598458112E+03 -0.78071973235E+03  0.14311908584E+04  0.50400001928E-02 0. -1.
</event>
<event>
 5   0  0.2508094E-06  0.2898715E+04  0.7818609E-02  0.8273260E-01
        1   -1    0    0  501    0  0.00000000000E+00  0.00000000000E+00  0.10576985544E+04  0.10576985544E+04  0.50400001928E-02 0.  1.
       -1   -1    0    0    0  501  0.00000000000E+00  0.00000000000E+00 -0.19860449012E+04  0.19860449013E+04  0.50400001928E-02 0. -1.
    10030    2    1    2    0    0  0.00000000000E+00  0.00000000000E+00 -0.92834634684E+03  0.30437434557E+04  0.28987147642E+04 0.  0.
        3    1    3    3  502    0 -0.57871480907E+03  0.39030802146E+03 -0.17979146417E+04  0.19286648882E+04  0.10100000352E+00 0. -1.
       -3    1    3    3    0  502  0.57871480907E+03 -0.39030802146E+03  0.86956829490E+03  0.11150785674E+04  0.10100000352E+00 0.  1.
</event>
<event>
 5   0  0.2429358E-06  0.2866590E+04  0.7818609E-02  0.8282888E-01
        1   -1    0    0  501    0  0.00000000000E+00  0.00000000000E+00  0.18521984882E+04  0.18521984882E+04  0.50400001928E-02 0.  1.
       -1   -1    0    0    0  501  0.00000000000E+00  0.00000000000E+00 -0.11091329135E+04  0.11091329135E+04  0.50400001928E-02 0. -1.
    10030    2    1    2    0    0  0.00000000000E+00  0.00000000000E+00  0.74306557466E+03  0.29613314017E+04  0.28665898246E+04 0.  0.
        2    1    3    3  502    0  0.77333578885E+03 -0.10715586234E+04  0.94489726171E+03  0.16245359217E+04  0.25500000920E-02 0.  1.
       -2    1    3    3    0  502 -0.77333578885E+03  0.10715586234E+04 -0.20183168705E+03  0.13367954801E+04  0.25500000920E-02 0. -1.
</event>
<event>
 5   0  0.2508094E-06  0.2883430E+04  0.7818609E-02  0.8277825E-01
       -1   -1    0    0    0  501  0.00000000000E+00  0.00000000000E+00  0.16549881637E+04  0.16549881637E+04  0.50400001928E-02 0. -1.
        1   -1    0    0  501    0  0.00000000000E+00  0.00000000000E+00 -0.12559255786E+04  0.12559255786E+04  0.50400001928E-02 0.  1.
    10030    2    1    2    0    0  0.00000000000E+00  0.00000000000E+00  0.39906258513E+03  0.29109137423E+04  0.28834298792E+04 0.  0.
        3    1    3    3  502    0  0.10018092063E+03  0.13932306373E+04  0.55988478920E+03  0.15048584030E+04  0.10100000352E+00 0. -1.
       -3    1    3    3    0  502 -0.10018092063E+03 -0.13932306373E+04 -0.16082220407E+03  0.14060553393E+04  0.10100000352E+00 0.  1.
</event>
<event>
 5   0  0.6393633E-06  0.2959124E+04  0.7818609E-02  0.8255500E-01
        2   -1    0    0  501    0  0.00000000000E+00  0.00000000000E+00  0.15689148798E+04  0.15689148798E+04  0.25500000920E-02 0. -1.
       -2   -1    0    0    0  501  0.00000000000E+00  0.00000000000E+00 -0.13952982861E+04  0.13952982861E+04  0.25500000920E-02 0.  1.
    10030    2    1    2    0    0  0.00000000000E+00  0.00000000000E+00  0.17361659378E+03  0.29642131659E+04  0.29591243589E+04 0.  0.
        4    1    3    3  502    0 -0.88212030224E+03  0.10215012580E+04  0.69406989975E+03  0.15176744336E+04  0.12699999809E+01 0. -1.
       -4    1    3    3    0  502  0.88212030224E+03 -0.10215012580E+04 -0.52045330597E+03  0.14465387324E+04  0.12699999809E+01 0.  1.
</event>
<event>
 5   0  0.6393633E-06  0.2892865E+04  0.7818609E-02  0.8275004E-01
        2   -1    0    0  501    0  0.00000000000E+00  0.00000000000E+00  0.24865278085E+04  0.24865278085E+04  0.25500000920E-02 0. -1.
       -2   -1    0    0    0  501  0.00000000000E+00  0.00000000000E+00 -0.84140095099E+03  0.84140095100E+03  0.25500000920E-02 0.  1.
    10030    2    1    2    0    0  0.00000000000E+00  0.00000000000E+00  0.16451268575E+04  0.33279287595E+04  0.28928649210E+04 0.  0.
        4    1    3    3  502    0 -0.13508673259E+04 -0.26026053138E+03  0.13365031438E+04  0.19180251153E+04  0.12699999809E+01 0. -1.
       -4    1    3    3    0  502  0.13508673259E+04  0.26026053138E+03  0.30862371363E+03  0.14099036442E+04  0.12699999809E+01 0.  1.
</event>
<event>
 5   0  0.6615403E-06  0.2928765E+04  0.7818609E-02  0.8264370E-01
       -2   -1    0    0    0  501  0.00000000000E+00  0.00000000000E+00  0.11838030567E+04  0.11838030567E+04  0.25500000920E-02 0.  1.
        2   -1    0    0  501    0  0.00000000000E+00  0.00000000000E+00 -0.18114629806E+04  0.18114629806E+04  0.25500000920E-02 0. -1.
    10030    2    1    2    0    0  0.00000000000E+00  0.00000000000E+00 -0.62765992392E+03  0.29952660373E+04  0.29287645269E+04 0.  0.
        2    1    3    3  502    0 -0.57098681972E+03  0.12393070126E+04 -0.85741314129E+03  0.16115412234E+04  0.25500000920E-02 0. -1.
       -2    1    3    3    0  502  0.57098681972E+03 -0.12393070126E+04  0.22975321737E+03  0.13837248139E+04  0.25500000920E-02 0.  1.
</event>
<event>
 5   0  0.2159500E-06  0.2885966E+04  0.7818609E-02  0.8277065E-01
        3   -1    0    0  501    0  0.00000000000E+00  0.00000000000E+00  0.20680915454E+04  0.20680915479E+04  0.10100000352E+00 0. -1.
       -3   -1    0    0    0  501  0.00000000000E+00  0.00000000000E+00 -0.10068222429E+04  0.10068222480E+04  0.10100000352E+00 0.  1.
    10030    2    1    2    0    0  0.00000000000E+00  0.00000000000E+00  0.10612693025E+04  0.30749137958E+04  0.28859664446E+04 0.  0.
        4    1    3    3  502    0 -0.96345401332E+03  0.82579981199E+03 -0.20137577752E+03  0.12848123528E+04  0.12699999809E+01 0.  1.
       -4    1    3    3    0  502  0.96345401332E+03 -0.82579981199E+03  0.12626450800E+04  0.17901014430E+04  0.12699999809E+01 0. -1.
</event>
<event>
 5   0  0.2336512E-06  0.2877078E+04  0.7818609E-02  0.8279730E-01
       -1   -1    0    0    0  501  0.00000000000E+00  0.00000000000E+00  0.13217354319E+04  0.13217354319E+04  0.50400001928E-02 0. -1.
        1   -1    0    0  501    0  0.00000000000E+00  0.00000000000E+00 -0.15656642810E+04  0.15656642811E+04  0.50400001928E-02 0.  1.
    10030    2    1    2    0    0  0.00000000000E+00  0.00000000000E+00 -0.24392884913E+03  0.28873997130E+04  0.28770776526E+04 0.  0.
        4    1    3    3  502    0  0.78838129327E+03  0.16989707075E+03 -0.13174485369E+04  0.15446949014E+04  0.12699999809E+01 0.  1.
       -4    1    3    3    0  502 -0.78838129327E+03 -0.16989707075E+03  0.10735196877E+04  0.13427048116E+04  0.12699999809E+01 0. -1.
</event>
<event>
 5   0  0.2508094E-06  0.2852631E+04  0.7818609E-02  0.8287112E-01
       -1   -1    0    0    0  501  0.00000000000E+00  0.00000000000E+00  0.13887643358E+04  0.13887643358E+04  0.50400001928E-02 0. -1.
        1   -1    0    0  501    0  0.00000000000E+00  0.00000000000E+00 -0.14648821847E+04  0.14648821847E+04  0.50400001928E-02 0.  1.
    10030    2    1    2    0    0  0.00000000000E+00  0.00000000000E+00 -0.76117848912E+02  0.28536465204E+04  0.28526311603E+04 0.  0.
        3    1    3    3  502    0 -0.86652841696E+02 -0.10491041461E+04  0.92470137320E+03  0.14011426995E+04  0.10100000352E+00 0. -1.
       -3    1    3    3    0  502  0.86652841696E+02  0.10491041461E+04 -0.10008192221E+04  0.14525038210E+04  0.10100000352E+00 0.  1.
</event>
<event>
 5   0  0.2336512E-06  0.2927748E+04  0.7818609E-02  0.8264669E-01
        1   -1    0    0  501    0  0.00000000000E+00  0.00000000000E+00  0.19947466014E+04  0.19947466014E+04  0.50400001928E-02 0.  1.
       -1   -1    0    0    0  501  0.00000000000E+00  0.00000000000E+00 -0.10742856362E+04  0.10742856363E+04  0.50400001928E-02 0. -1.
    10030    2    1    2    0    0  0.00000000000E+00  0.00000000000E+00  0.92046096512E+03  0.30690322376E+04  0.29277483648E+04 0.  0.
        4    1    3    3  502    0  0.61610092778E+03 -0.12098507789E+04 -0.11354699769E+03  0.13624293721E+04  0.12699999809E+01 0. -1.
       -4    1    3    3    0  502 -0.61610092778E+03  0.12098507789E+04  0.10340079628E+04  0.17066028655E+04  0.12699999809E+01 0.  1.
</event>
<event>
 5   0  0.2336512E-06  0.2905067E+04  0.7818609E-02  0.8271372E-01
       -1   -1    0    0    0  501  0.00000000000E+00  0.00000000000E+00  0.10219105755E+04  0.10219105755E+04  0.50400001928E-02 0. -1.
        1   -1    0    0  501    0  0.00000000000E+00  0.00000000000E+00 -0.20646165026E+04  0.20646165026E+04  0.50400001928E-02 0.  1.
    10030    2    1    2    0    0  0.00000000000E+00  0.00000000000E+00 -0.10427059270E+04  0.30865270781E+04  0.29050669104E+04 0.  0.
        4    1    3    3  502    0  0.14496775662E+04  0.84869959103E+02 -0.55633156568E+03  0.15550801844E+04  0.12699999809E+01 0.  1.
       -4    1    3    3    0  502 -0.14496775662E+04 -0.84869959103E+02 -0.48637436137E+03  0.15314468937E+04  0.12699999809E+01 0. -1.
</event>
<event>
 5   0  0.6513041E-06  0.2869931E+04  0.7818609E-02  0.8281880E-01
       -2   -1    0    0    0  501  0.00000000000E+00  0.00000000000E+00  0.13560899062E+04  0.13560899062E+04  0.25500000920E-02 0. -1.
        2   -1    0    0  501    0  0.00000000000E+00  0.00000000000E+00 -0.15184290296E+04  0.15184290296E+04  0.25500000920E-02 0.  1.
    10030    2    1    2    0    0  0.00000000000E+00  0.00000000000E+00 -0.16233912345E+03  0.28745189358E+04  0.28699312050E+04 0.  0.
        1    1    3    3  502    0 -0.13378043901E+04 -0.26012503680E+03 -0.53104305547E+03  0.14626661778E+04  0.50400001928E-02 0. -1.
       -1    1    3    3    0  502  0.13378043901E+04  0.26012503680E+03  0.36870393203E+03  0.14118527580E+04  0.50400001928E-02 0.  1.
</event>
<event>
 5   0  0.6615403E-06  0.2905394E+04  0.7818609E-02  0.8271274E-01
        2   -1    0    0  501    0  0.00000000000E+00  0.00000000000E+00  0.19353851773E+04  0.19353851773E+04  0.25500000920E-02 0.  1.
       -2   -1    0    0    0  501  0.00000000000E+00  0.00000000000E+00 -0.10903922615E+04  0.10903922615E+04  0.25500000920E-02 0. -1.
    10030    2    1    2    0    0  0.00000000000E+00  0.00000000000E+00  0.84499291583E+03  0.30257774389E+04  0.29053943074E+04 0.  0.
        2    1    3    3  502    0 -0.22565389002E+02  0.85916000832E+03  0.16422041257E+04  0.18535100505E+04  0.25500000920E-02 0.  1.
       -2    1    3    3    0  502  0.22565389002E+02 -0.85916000832E+03 -0.79721120989E+03  0.11722673884E+04  0.25500000920E-02 0. -1.
</event>
<event>
 5   0  0.6612533E-06  0.2900492E+04  0.7818609E-02  0.8272731E-01
       -2   -1    0    0    0  501  0.00000000000E+00  0.00000000000E+00  0.12117631084E+04  0.12117631084E+04  0.25500000920E-02 0. -1.
        2   -1    0    0  501    0  0.00000000000E+00  0.00000000000E+00 -0.17356634586E+04  0.17356634586E+04  0.25500000920E-02 0.  1.
    10030    2    1    2    0    0  0.00000000000E+00  0.00000000000E+00 -0.52390035027E+03  0.29474265670E+04  0.29004916464E+04 0.  0.
        3    1    3    3  502    0  0.11444478453E+04  0.89063816617E+03 -0.24702496702E+03  0.14710603517E+04  0.10100000352E+00 0.  1.
       -3    1    3    3    0  502 -0.11444478453E+04 -0.89063816617E+03 -0.27687538324E+03  0.14763662153E+04  0.10100000352E+00 0. -1.
</event>
<event>
 5   0  0.6733688E-06  0.2914679E+04  0.7818609E-02  0.8268523E-01
       -2   -1    0    0    0  501  0.00000000000E+00  0.00000000000E+00  0.12141665529E+04  0.12141665529E+04  0.25500000920E-02 0.  1.
        2   -1    0    0  501    0  0.00000000000E+00  0.00000000000E+00 -0.17492150934E+04  0.17492150934E+04  0.25500000920E-02 0. -1.
    10030    2    1    2    0    0  0.00000000000E+00  0.00000000000E+00 -0.53504854051E+03  0.29633816463E+04  0.29146790288E+04 0.  0.
        5    1    3    3  502    0  0.66415649003E+03  0.11123758094E+04 -0.94600745329E+03  0.16041932478E+04  0.46999998093E+01 0. -1.
       -5    1    3    3    0  502 -0.66415649003E+03 -0.11123758094E+04  0.41095891277E+03  0.13591883985E+04  0.46999998093E+01 0.  1.
</event>
<event>
 5   0  0.2348684E-06  0.2889190E+04  0.7818609E-02  0.8276101E-01
       -1   -1    0    0    0  501  0.00000000000E+00  0.00000000000E+00  0.18689679279E+04  0.18689679279E+04  0.50400001928E-02 0.  1.
        1   -1    0    0  501    0  0.00000000000E+00  0.00000000000E+00 -0.11165816061E+04  0.11165816061E+04  0.50400001928E-02 0. -1.
    10030    2    1    2    0    0  0.00000000000E+00  0.00000000000E+00  0.75238632178E+03  0.29855495339E+04  0.28891903438E+04 0.  0.
        5    1    3    3  502    0  0.82241979379E+03 -0.10437660367E+04 -0.20928171371E+03  0.13452296392E+04  0.46999998093E+01 0. -1.
       -5    1    3    3    0  502 -0.82241979379E+03  0.10437660367E+04  0.96166803550E+03  0.16403198947E+04  0.46999998093E+01 0.  1.
</event>
<event>
 5   0  0.2429358E-06  0.2891970E+04  0.7818609E-02  0.8275271E-01
        1   -1    0    0  501    0  0.00000000000E+00  0.00000000000E+00  0.19990132036E+04  0.19990132036E+04  0.50400001928E-02 0. -1.
       -1   -1    0    0    0  501  0.00000000000E+00  0.00000000000E+00 -0.10459523377E+04  0.10459523377E+04  0.50400001928E-02 0.  1.
    10030    2    1    2    0    0  0.00000000000E+00  0.00000000000E+00  0.95306086590E+03  0.30449655413E+04  0.28919699399E+04 0.  0.
        2    1    3    3  502    0 -0.22673161830E+03 -0.66905573430E+02  0.19785294054E+04  0.19926018645E+04  0.25500000920E-02 0. -1.
       -2    1    3    3    0  502  0.22673161830E+03  0.66905573430E+02 -0.10254685395E+04  0.10523636767E+04  0.25500000920E-02 0.  1.
</event>
<event>
 5   0  0.2348684E-06  0.2917477E+04  0.7818609E-02  0.8267697E-01
       -1   -1    0    0    0  501  0.00000000000E+00  0.00000000000E+00  0.12675447030E+04  0.12675447030E+04  0.50400001928E-02 0. -1.
        1   -1    0    0  501    0  0.00000000000E+00  0.00000000000E+00 -0.16787710726E+04  0.16787710726E+04  0.50400001928E-02 0.  1.
    10030    2    1    2    0    0  0.00000000000E+00  0.00000000000E+00 -0.41122636961E+03  0.29463157756E+04  0.29174765676E+04 0.  0.
        5    1    3    3  502    0 -0.47636060799E+03  0.25295143990E+03 -0.15743674319E+04  0.16641991348E+04  0.46999998093E+01 0.  1.
       -5    1    3    3    0  502  0.47636060799E+03 -0.25295143990E+03  0.11631410623E+04  0.12821166408E+04  0.46999998093E+01 0. -1.
</event>
<event>
 5   0  0.6615403E-06  0.2926207E+04  0.7818609E-02  0.8265123E-01
       -2   -1    0    0    0  501  0.00000000000E+00  0.00000000000E+00  0.19099381976E+04  0.19099381976E+04  0.25500000920E-02 0.  1.
        2   -1    0    0  501    0  0.00000000000E+00  0.00000000000E+00 -0.11208066588E+04  0.11208066588E+04  0.25500000920E-02 0. -1.
    10030    2    1    2    0    0  0.00000000000E+00  0.00000000000E+00  0.78913153878E+03  0.30307448565E+04  0.29262067253E+04 0.  0.
        2    1    3    3  502    0 -0.12769123734E+04 -0.70134290177E+03  0.25451534506E+03  0.14789067368E+04  0.25500000920E-02 0.  1.
       -2    1    3    3    0  502  0.12769123734E+04  0.70134290177E+03  0.53461619372E+03  0.15518381197E+04  0.25500000920E-02 0. -1.
</event>
<event>
 5   0  0.6513041E-06  0.2893706E+04  0.7818609E-02  0.8274753E-01
        2   -1    0    0  501    0  0.00000000000E+00  0.00000000000E+00  0.31816716442E+04  0.31816716442E+04  0.25500000920E-02 0.  1.
       -2   -1    0    0    0  501  0.00000000000E+00  0.00000000000E+00 -0.65795074681E+03  0.65795074681E+03  0.25500000920E-02 0. -1.
    10030    2    1    2    0    0  0.00000000000E+00  0.00000000000E+00  0.25237208974E+04  0.38396223910E+04  0.28937057448E+04 0.  0.
        1    1    3    3  502    0  0.38188581053E+03  0.43750370712E+03 -0.49652200649E+03  0.76405521331E+03  0.50400001928E-02 0. -1.
       -1    1    3    3    0  502 -0.38188581053E+03 -0.43750370712E+03  0.30202429039E+04  0.30755671777E+04  0.50400001928E-02 0.  1.
</event>
<event>
 5   0  0.6513041E-06  0.2904383E+04  0.7818609E-02  0.8271575E-01
       -2   -1    0    0    0  501  0.00000000000E+00  0.00000000000E+00  0.83754786264E+03  0.83754786264E+03  0.25500000920E-02 0. -1.
        2   -1    0    0  501    0  0.00000000000E+00  0.00000000000E+00 -0.25178983220E+04  0.25178983220E+04  0.25500000920E-02 0.  1.
    10030    2    1    2    0    0  0.00000000000E+00  0.00000000000E+00 -0.16803504594E+04  0.33554461847E+04  0.29043831414E+04 0.  0.
        1    1    3    3  502    0 -0.77470344528E+03  0.31537108902E+03 -0.22116513056E+04  0.23645350176E+04  0.50400001928E-02 0.  1.
       -1    1    3    3    0  502  0.77470344528E+03 -0.31537108902E+03  0.53130084617E+03  0.99091116710E+03  0.50400001928E-02 0. -1.
</event>
<event>
 5   0  0.6612533E-06  0.2935476E+04  0.7818609E-02  0.8262400E-01
        2   -1    0    0  501    0  0.00000000000E+00  0.00000000000E+00  0.13225581145E+04  0.13225581145E+04  0.25500000920E-02 0.  1.
       -2   -1    0    0    0  501  0.00000000000E+00  0.00000000000E+00 -0.16288540811E+04  0.16288540811E+04  0.25500000920E-02 0. -1.
    10030    2    1    2    0    0  0.00000000000E+00  0.00000000000E+00 -0.30629596667E+03  0.29514121956E+04  0.29354755542E+04 0.  0.
        3    1    3    3  502    0  0.10037178107E+04 -0.88838243771E+03  0.44807952542E+03  0.14133110311E+04  0.10100000352E+00 0.  1.
       -3    1    3    3    0  502 -0.10037178107E+04  0.88838243771E+03 -0.75437549209E+03  0.15381011646E+04  0.10100000352E+00 0. -1.
</event>
<event>
 5   0  0.2336512E-06  0.2898149E+04  0.7818609E-02  0.8273428E-01
        1   -1    0    0  501    0  0.00000000000E+00  0.00000000000E+00  0.68877709554E+03  0.68877709556E+03  0.50400001928E-02 0.  1.
       -1   -1    0    0    0  501  0.00000000000E+00  0.00000000000E+00 -0.30486164779E+04  0.30486164779E+04  0.50400001928E-02 0. -1.
    10030    2    1    2    0    0  0.00000000000E+00  0.00000000000E+00 -0.23598393824E+04  0.37373935735E+04  0.28981492047E+04 0.  0.
        4    1    3    3  502    0 -0.84248771373E+03  0.36596836000E+03  0.26538601792E+03  0.95611178202E+03  0.12699999809E+01 0.  1.
       -4    1    3    3    0  502  0.84248771373E+03 -0.36596836000E+03 -0.26252254003E+04  0.27812817915E+04  0.12699999809E+01 0. -1.
</event>
<event>
 5   0  0.6612533E-06  0.2886909E+04  0.7818609E-02  0.8276783E-01
       -2   -1    0    0    0  501  0.00000000000E+00  0.00000000000E+00  0.14489465555E+04  0.14489465555E+04  0.25500000920E-02 0. -1.
        2   -1    0    0  501    0  0.00000000000E+00  0.00000000000E+00 -0.14379836797E+04  0.14379836797E+04  0.25500000920E-02 0.  1.
    10030    2    1    2    0    0  0.00000000000E+00  0.00000000000E+00  0.10962875858E+02  0.28869302352E+04  0.28869094198E+04 0.  0.
        3    1    3    3  502    0 -0.75935665259E+03  0.10713114876E+04  0.60484429984E+03  0.14457411479E+04  0.10100000352E+00 0. -1.
       -3    1    3    3    0  502  0.75935665259E+03 -0.10713114876E+04 -0.59388142398E+03  0.14411890873E+04  0.10100000352E+00 0.  1.
</event>
<event>
 5   0  0.2429358E-06  0.3035538E+04  0.7818609E-02  0.8233655E-01
        1   -1    0    0  501    0  0.00000000000E+00  0.00000000000E+00  0.16253992257E+04  0.16253992257E+04  0.50400001928E-02 0.  1.
       -1   -1    0    0    0  501  0.00000000000E+00  0.00000000000E+00 -0.14172658047E+04  0.14172658047E+04  0.50400001928E-02 0. -1.
    10030    2    1    2    0    0  0.00000000000E+00  0.00000000000E+00  0.20813342105E+03  0.30426650304E+04  0.30355380028E+04 0.  0.
        2    1    3    3  502    0  0.70363005985E+03 -0.69684494413E+03  0.12569561396E+04  0.16001958862E+04  0.25500000920E-02 0.  1.
       -2    1    3    3    0  502 -0.70363005985E+03  0.69684494413E+03 -0.10488227185E+04  0.14424691443E+04  0.25500000920E-02 0. -1.
</event>
<event>
 5   0  0.2159500E-06  0.2925142E+04  0.7818609E-02  0.8265436E-01
        4   -1    0    0  501    0  0.00000000000E+00  0.00000000000E+00  0.11004466059E+04  0.11004473387E+04  0.12699999809E+01 0. -1.
       -4   -1    0    0    0  501  0.00000000000E+00  0.00000000000E+00 -0.19438584780E+04  0.19438588929E+04  0.12699999809E+01 0.  1.
    10030    2    1    2    0    0  0.00000000000E+00  0.00000000000E+00 -0.84341187212E+03  0.30443062316E+04  0.29251421924E+04 0.  0.
        2    1    3    3  502    0  0.46196804632E+03 -0.33658289355E+03 -0.18228080297E+04  0.19103223898E+04  0.25500000920E-02 0.  1.
       -2    1    3    3    0  502 -0.46196804632E+03  0.33658289355E+03  0.97939615754E+03  0.11339838418E+04  0.25500000920E-02 0. -1.
</event>
<event>
 5   0  0.6612533E-06  0.2907922E+04  0.7818609E-02  0.8270524E-01
        2   -1    0    0  501    0  0.00000000000E+00  0.00000000000E+00  0.18010583833E+04  0.18010583833E+04  0.25500000920E-02 0. -1.
       -2   -1    0    0    0  501  0.00000000000E+00  0.00000000000E+00 -0.11737554561E+04  0.11737554561E+04  0.25500000920E-02 0.  1.
    10030    2    1    2    0    0  0.00000000000E+00  0.00000000000E+00  0.62730292720E+03  0.29748138395E+04  0.29079216663E+04 0.  0.
        3    1    3    3  502    0 -0.32516155649E+03  0.94340594265E+03 -0.76815097911E+03  0.12592858084E+04  0.10100000352E+00 0.  1.
       -3    1    3    3    0  502  0.32516155649E+03 -0.94340594265E+03  0.13954539063E+04  0.17155280310E+04  0.10100000352E+00 0. -1.
</event>
<event>
 5   0  0.2429358E-06  0.2975420E+04  0.7818609E-02  0.8250785E-01
       -1   -1    0    0    0  501  0.00000000000E+00  0.00000000000E+00  0.15655472752E+04  0.15655472752E+04  0.50400001928E-02 0. -1.
        1   -1    0    0  501    0  0.00000000000E+00  0.00000000000E+00 -0.14137429838E+04  0.14137429839E+04  0.50400001928E-02 0.  1.
    10030    2    1    2    0    0  0.00000000000E+00  0.00000000000E+00  0.15180429133E+03  0.29792902590E+04  0.29754202904E+04 0.  0.
        2    1    3    3  502    0 -0.11801700020E+04  0.61694397982E+03 -0.58818016678E+03  0.14558080287E+04  0.25500000920E-02 0.  1.
       -2    1    3    3    0  502  0.11801700020E+04 -0.61694397982E+03  0.73998445811E+03  0.15234822303E+04  0.25500000920E-02 0. -1.
</event>
<event>
 5   0  0.2429358E-06  0.2863857E+04  0.7818609E-02  0.8283713E-01
        1   -1    0    0  501    0  0.00000000000E+00  0.00000000000E+00  0.14259358731E+04  0.14259358731E+04  0.50400001928E-02 0. -1.
       -1   -1    0    0    0  501  0.00000000000E+00  0.00000000000E+00 -0.14379467391E+04  0.14379467391E+04  0.50400001928E-02 0.  1.
    10030    2    1    2    0    0  0.00000000000E+00  0.00000000000E+00 -0.12010865967E+02  0.28638826122E+04  0.28638574259E+04 0.  0.
        2    1    3    3  502    0  0.13159310019E+04  0.51720428009E+03  0.22037051808E+03  0.14309919057E+04  0.25500000920E-02 0. -1.
       -2    1    3    3    0  502 -0.13159310019E+04 -0.51720428009E+03 -0.23238138405E+03  0.14328907065E+04  0.25500000920E-02 0.  1.
</event>
<event>
 5   0  0.2348684E-06  0.2912019E+04  0.7818609E-02  0.8269311E-01
       -1   -1    0    0    0  501  0.00000000000E+00  0.00000000000E+00  0.10660058391E+04  0.10660058391E+04  0.50400001928E-02 0. -1.
        1   -1    0    0  501    0  0.00000000000E+00  0.00000000000E+00 -0.19886974056E+04  0.19886974056E+04  0.50400001928E-02 0.  1.
    10030    2    1    2    0    0  0.00000000000E+00  0.00000000000E+00 -0.92269156648E+03  0.30547032447E+04  0.29120185759E+04 0.  0.
        5    1    3    3  502    0  0.39490185024E+03 -0.13989700835E+04 -0.54833168062E+03  0.15536262381E+04  0.46999998093E+01 0. -1.
       -5    1    3    3    0  502 -0.39490185024E+03  0.13989700835E+04 -0.37435988586E+03  0.15010770066E+04  0.46999998093E+01 0.  1.
</event>
<event>
 5   0  0.6615403E-06  0.2863908E+04  0.7818609E-02  0.8283698E-01
       -2   -1    0    0    0  501  0.00000000000E+00  0.00000000000E+00  0.14025628860E+04  0.14025628860E+04  0.25500000920E-02 0.  1.
        2   -1    0    0  501    0  0.00000000000E+00  0.00000000000E+00 -0.14619612350E+04  0.14619612350E+04  0.25500000920E-02 0. -1.
    10030    2    1    2    0    0  0.00000000000E+00  0.00000000000E+00 -0.59398348969E+02  0.28645241211E+04  0.28639082172E+04 0.  0.
        2    1    3    3  502    0  0.77646780927E+03  0.10794696684E+04 -0.56116600781E+03  0.14432824783E+04  0.25500000920E-02 0. -1.
       -2    1    3    3    0  502 -0.77646780927E+03 -0.10794696684E+04  0.50176765884E+03  0.14212416428E+04  0.25500000920E-02 0.  1.
</event>
<event>
 5   0  0.6615403E-06  0.2903411E+04  0.7818609E-02  0.8271863E-01
        2   -1    0    0  501    0  0.00000000000E+00  0.00000000000E+00  0.17009951502E+04  0.17009951502E+04  0.25500000920E-02 0.  1.
       -2   -1    0    0    0  501  0.00000000000E+00  0.00000000000E+00 -0.12389509561E+04  0.12389509561E+04  0.25500000920E-02 0. -1.
    10030    2    1    2    0    0  0.00000000000E+00  0.00000000000E+00  0.46204419413E+03  0.29399461063E+04  0.29034114884E+04 0.  0.
        2    1    3    3  502    0  0.24193649143E+03  0.10893215971E+04  0.11713052431E+04  0.16177486765E+04  0.25500000920E-02 0.  1.
       -2    1    3    3    0  502 -0.24193649143E+03 -0.10893215971E+04 -0.70926104896E+03  0.13221974298E+04  0.25500000920E-02 0. -1.
</event>
<event>
 5   0  0.2508094E-06  0.2796602E+04  0.7818609E-02  0.8304324E-01
       -1   -1    0    0    0  501  0.00000000000E+00  0.00000000000E+00  0.14428289528E+04  0.14428289528E+04  0.50400001928E-02 0.  1.
        1   -1    0    0  501    0  0.00000000000E+00  0.00000000000E+00 -0.13551470022E+04  0.13551470022E+04  0.50400001928E-02 0. -1.
    10030    2    1    2    0    0  0.00000000000E+00  0.00000000000E+00  0.87681950575E+02  0.27979759550E+04  0.27966017450E+04 0.  0.
        3    1    3    3  502    0  0.47028918161E+03 -0.62407318987E+02  0.13598499113E+04  0.14402285858E+04  0.10100000352E+00 0.  1.
       -3    1    3    3    0  502 -0.47028918161E+03  0.62407318987E+02 -0.12721679608E+04  0.13577473691E+04  0.10100000352E+00 0. -1.
</event>
<event>
 5   0  0.6393633E-06  0.2856136E+04  0.7818609E-02  0.8286049E-01
       -2   -1    0    0    0  501  0.00000000000E+00  0.00000000000E+00  0.21328859505E+04  0.21328859505E+04  0.25500000920E-02 0. -1.
        2   -1    0    0  501    0  0.00000000000E+00  0.00000000000E+00 -0.95615881658E+03  0.95615881658E+03  0.25500000920E-02 0.  1.
    10030    2    1    2    0    0  0.00000000000E+00  0.00000000000E+00  0.11767271339E+04  0.30890447671E+04  0.28561356455E+04 0.  0.
        4    1    3    3  502    0  0.50176027107E+02  0.11147528982E+04  0.15522060365E+04  0.19116842968E+04  0.12699999809E+01 0. -1.
       -4    1    3    3    0  502 -0.50176027107E+02 -0.11147528982E+04 -0.37547890261E+03  0.11773604703E+04  0.12699999809E+01 0.  1.
</event>
<event>
 5   0  0.2474769E-06  0.2932072E+04  0.7818609E-02  0.8263399E-01
       -1   -1    0    0    0  501  0.00000000000E+00  0.00000000000E+00  0.10770044732E+04  0.10770044733E+04  0.50400001928E-02 0. -1.
        1   -1    0    0  501    0  0.00000000000E+00  0.00000000000E+00 -0.19955917570E+04  0.19955917570E+04  0.50400001928E-02 0.  1.
    10030    2    1    2    0    0  0.00000000000E+00  0.00000000000E+00 -0.91858728376E+03  0.30725962303E+04  0.29320717925E+04 0.  0.
        1    1    3    3  502    0 -0.14337224801E+04  0.30465852852E+03 -0.49045567881E+03  0.15456143574E+04  0.50400001928E-02 0.  1.
       -1    1    3    3    0  502  0.14337224801E+04 -0.30465852852E+03 -0.42813160496E+03  0.15269818729E+04  0.50400001928E-02 0. -1.
</event>
<event>
 5   0  0.6615403E-06  0.2913160E+04  0.7818609E-02  0.8268973E-01
       -2   -1    0    0    0  501  0.00000000000E+00  0.00000000000E+00  0.94084470523E+03  0.94084470523E+03  0.25500000920E-02 0.  1.
        2   -1    0    0  501    0  0.00000000000E+00  0.00000000000E+00 -0.22550213660E+04  0.22550213660E+04  0.25500000920E-02 0. -1.
    10030    2    1    2    0    0  0.00000000000E+00  0.00000000000E+00 -0.13141766608E+04  0.31958660712E+04  0.29131597364E+04 0.  0.
        2    1    3    3  502    0 -0.13461976972E+04 -0.49390973685E+03 -0.93770419184E+03  0.17133254856E+04  0.25500000920E-02 0.  1.
       -2    1    3    3    0  502  0.13461976972E+04  0.49390973685E+03 -0.37647246893E+03  0.14825405856E+04  0.25500000920E-02 0. -1.
</event>
<event>
 5   0  0.2348684E-06  0.2895086E+04  0.7818609E-02  0.8274341E-01
       -1   -1    0    0    0  501  0.00000000000E+00  0.00000000000E+00  0.96671667839E+03  0.96671667840E+03  0.50400001928E-02 0. -1.
        1   -1    0    0  501    0  0.00000000000E+00  0.00000000000E+00 -0.21675230957E+04  0.21675230957E+04  0.50400001928E-02 0.  1.
    10030    2    1    2    0    0  0.00000000000E+00  0.00000000000E+00 -0.12008064173E+04  0.31342397741E+04  0.28950859935E+04 0.  0.
        5    1    3    3  502    0  0.81358082356E+03 -0.76572319478E+03  0.39601438980E+03  0.11853671391E+04  0.46999998093E+01 0. -1.
       -5    1    3    3    0  502 -0.81358082356E+03  0.76572319478E+03 -0.15968208071E+04  0.19488726350E+04  0.46999998093E+01 0.  1.
</event>
<event>
 5   0  0.6513041E-06  0.2889695E+04  0.7818609E-02  0.8275950E-01
       -2   -1    0    0    0  501  0.00000000000E+00  0.00000000000E+00  0.11472140627E+04  0.11472140627E+04  0.25500000920E-02 0.  1.
        2   -1    0    0  501    0  0.00000000000E+00  0.00000000000E+00 -0.18196993575E+04  0.18196993575E+04  0.25500000920E-02 0. -1.
    10030    2    1    2    0    0  0.00000000000E+00  0.00000000000E+00 -0.67248529481E+03  0.29669134201E+04  0.28896952730E+04 0.  0.
        1    1    3    3  502    0 -0.25394350042E+03  0.97719334579E+03 -0.13973936593E+04  0.17239788791E+04  0.50400001928E-02 0. -1.
       -1    1    3    3    0  502  0.25394350042E+03 -0.97719334579E+03  0.72490836447E+03  0.12429345411E+04  0.50400001928E-02 0.  1.
</event>
<event>
 5   0  0.2159500E-06  0.2890054E+04  0.7818609E-02  0.8275843E-01
       -4   -1    0    0    0  501  0.00000000000E+00  0.00000000000E+00  0.18963741956E+04  0.18963746208E+04  0.12699999809E+01 0. -1.
        4   -1    0    0  501    0  0.00000000000E+00  0.00000000000E+00 -0.11011023094E+04  0.11011030418E+04  0.12699999809E+01 0.  1.
    10030    2    1    2    0    0  0.00000000000E+00  0.00000000000E+00  0.79527188619E+03  0.29974776626E+04  0.28900544917E+04 0.  0.
        1    1    3    3  502    0 -0.31445850106E+03  0.67496705942E+03  0.16820690897E+04  0.18395165405E+04  0.50400001928E-02 0. -1.
       -1    1    3    3    0  502  0.31445850106E+03 -0.67496705942E+03 -0.88679720351E+03  0.11579611221E+04  0.50400001928E-02 0.  1.
</event>
<event>
 5   0  0.2474769E-06  0.2898346E+04  0.7818609E-02  0.8273370E-01
        1   -1    0    0  501    0  0.00000000000E+00  0.00000000000E+00  0.10982134701E+04  0.10982134701E+04  0.50400001928E-02 0. -1.
       -1   -1    0    0    0  501  0.00000000000E+00  0.00000000000E+00 -0.19122904059E+04  0.19122904059E+04  0.50400001928E-02 0.  1.
    10030    2    1    2    0    0  0.00000000000E+00  0.00000000000E+00 -0.81407693586E+03  0.30105038760E+04  0.28983464820E+04 0.  0.
        1    1    3    3  502    0  0.10993876768E+04 -0.67813876346E+03  0.27532906485E+03  0.13207314414E+04  0.50400001928E-02 0. -1.
       -1    1    3    3    0  502 -0.10993876768E+04  0.67813876346E+03 -0.10894060007E+04  0.16897724346E+04  0.50400001928E-02 0.  1.
</event>
<event>
 5   0  0.2336512E-06  0.2916067E+04  0.7818609E-02  0.8268113E-01
        1   -1    0    0  501    0  0.00000000000E+00  0.00000000000E+00  0.15003638612E+04  0.15003638612E+04  0.50400001928E-02 0. -1.
       -1   -1    0    0    0  501  0.00000000000E+00  0.00000000000E+00 -0.14168977313E+04  0.14168977313E+04  0.50400001928E-02 0.  1.
    10030    2    1    2    0    0  0.00000000000E+00  0.00000000000E+00  0.83466129889E+02  0.29172615924E+04  0.29160673181E+04 0.  0.
        4    1    3    3  502    0 -0.40353294618E+03  0.17635835468E+02 -0.13598084652E+04  0.14185311193E+04  0.12699999809E+01 0.  1.
       -4    1    3    3    0  502  0.40353294618E+03 -0.17635835468E+02  0.14432745951E+04  0.14987304732E+04  0.12699999809E+01 0. -1.
</event>
<event>
 5   0  0.2336512E-06  0.2922302E+04  0.7818609E-02  0.8266273E-01
       -1   -1    0    0    0  501  0.00000000000E+00  0.00000000000E+00  0.10316487344E+04  0.10316487344E+04  0.50400001928E-02 0. -1.
        1   -1    0    0  501    0  0.00000000000E+00  0.00000000000E+00 -0.20694669437E+04  0.20694669437E+04  0.50400001928E-02 0.  1.
    10030    2    1    2    0    0  0.00000000000E+00  0.00000000000E+00 -0.10378182093E+04  0.31011156781E+04  0.29223024849E+04 0.  0.
        4    1    3    3  502    0 -0.57677760340E+03 -0.50469794178E+03 -0.18390424450E+04  0.19923531674E+04  0.12699999809E+01 0.  1.
       -4    1    3    3    0  502  0.57677760340E+03  0.50469794178E+03  0.80122423574E+03  0.11087625107E+04  0.12699999809E+01 0. -1.
</event>
<event>
 5   0  0.6615403E-06  0.2826759E+04  0.7818609E-02  0.8295009E-01
       -2   -1    0    0    0  501  0.00000000000E+00  0.00000000000E+00  0.10049030759E+04  0.10049030759E+04  0.25500000920E-02 0.  1.
        2   -1    0    0  501    0  0.00000000000E+00  0.00000000000E+00 -0.19878943176E+04  0.19878943176E+04  0.25500000920E-02 0. -1.
    10030    2    1    2    0    0  0.00000000000E+00  0.00000000000E+00 -0.98299124168E+03  0.29927973935E+04  0.28267586486E+04 0.  0.
        2    1    3    3  502    0 -0.19196791034E+03 -0.36227811098E+02 -0.19735313383E+04  0.19831767638E+04  0.25500000920E-02 0. -1.
       -2    1    3    3    0  502  0.19196791034E+03  0.36227811098E+02  0.99054009667E+03  0.10096206297E+04  0.25500000920E-02 0.  1.
</event>
<event>
 5   0  0.6615403E-06  0.2959915E+04  0.7818609E-02  0.8255271E-01
       -2   -1    0    0    0  501  0.00000000000E+00  0.00000000000E+00  0.14517958932E+04  0.14517958932E+04  0.25500000920E-02 0.  1.
        2   -1    0    0  501    0  0.00000000000E+00  0.00000000000E+00 -0.15086653768E+04  0.15086653768E+04  0.25500000920E-02 0. -1.
    10030    2    1    2    0    0  0.00000000000E+00  0.00000000000E+00 -0.56869483624E+02  0.29604612700E+04  0.29599149976E+04 0.  0.
        2    1    3    3  502    0  0.10192165189E+04 -0.79569911811E+03  0.69165285099E+03  0.14663979901E+04  0.25500000920E-02 0.  1.
       -2    1    3    3    0  502 -0.10192165189E+04  0.79569911811E+03 -0.74852233462E+03  0.14940632799E+04  0.25500000920E-02 0. -1.
</event>
<event>
 5   0  0.6393633E-06  0.2900282E+04  0.7818609E-02  0.8272793E-01
       -2   -1    0    0    0  501  0.00000000000E+00  0.00000000000E+00  0.18474372829E+04  0.18474372829E+04  0.25500000920E-02 0.  1.
        2   -1    0    0  501    0  0.00000000000E+00  0.00000000000E+00 -0.11382845736E+04  0.11382845736E+04  0.25500000920E-02 0. -1.
    10030    2    1    2    0    0  0.00000000000E+00  0.00000000000E+00  0.70915270932E+03  0.29857218564E+04  0.29002823033E+04 0.  0.
        4    1    3    3  502    0 -0.28873188641E+03 -0.84291722365E+03  0.15324107682E+04  0.17726138676E+04  0.12699999809E+01 0.  1.
       -4    1    3    3    0  502  0.28873188641E+03  0.84291722365E+03 -0.82325805890E+03  0.12131079888E+04  0.12699999809E+01 0. -1.
</event>
<event>
 5   0  0.6733688E-06  0.3026066E+04  0.7818609E-02  0.8236327E-01
       -2   -1    0    0    0  501  0.00000000000E+00  0.00000000000E+00  0.67211113087E+03  0.67211113088E+03  0.25500000920E-02 0. -1.
        2   -1    0    0  501    0  0.00000000000E+00  0.00000000000E+00 -0.34060857757E+04  0.34060857757E+04  0.25500000920E-02 0.  1.
    10030    2    1    2    0    0  0.00000000000E+00  0.00000000000E+00 -0.27339746449E+04  0.40781969066E+04  0.30260655397E+04 0.  0.
        5    1    3    3  502    0  0.13980264757E+03  0.87715131310E+03 -0.30177320142E+04  0.31457380384E+04  0.46999998093E+01 0.  1.
       -5    1    3    3    0  502 -0.13980264757E+03 -0.87715131310E+03  0.28375736935E+03  0.93245886826E+03  0.46999998093E+01 0. -1.
</event>
<event>
 5   0  0.6615403E-06  0.2880991E+04  0.7818609E-02  0.8278556E-01
        2   -1    0    0  501    0  0.00000000000E+00  0.00000000000E+00  0.16435451358E+04  0.16435451358E+04  0.25500000920E-02 0. -1.
       -2   -1    0    0    0  501  0.00000000000E+00  0.00000000000E+00 -0.12625310498E+04  0.12625310498E+04  0.25500000920E-02 0.  1.
    10030    2    1    2    0    0  0.00000000000E+00  0.00000000000E+00  0.38101408595E+03  0.29060761856E+04  0.28809906391E+04 0.  0.
        2    1    3    3  502    0  0.74064874367E+02 -0.57830856087E+03  0.15192086167E+04  0.16272434416E+04  0.25500000920E-02 0. -1.
       -2    1    3    3    0  502 -0.74064874367E+02  0.57830856087E+03 -0.11381945308E+04  0.12788327440E+04  0.25500000920E-02 0.  1.
</event>
<event>
 5   0  0.6513041E-06  0.2889597E+04  0.7818609E-02  0.8275979E-01
        2   -1    0    0  501    0  0.00000000000E+00  0.00000000000E+00  0.11324454519E+04  0.11324454519E+04  0.25500000920E-02 0.  1.
       -2   -1    0    0    0  501  0.00000000000E+00  0.00000000000E+00 -0.18433051962E+04  0.18433051962E+04  0.25500000920E-02 0. -1.
    10030    2    1    2    0    0  0.00000000000E+00  0.00000000000E+00 -0.71085974437E+03  0.29757506481E+04  0.28895969171E+04 0.  0.
        1    1    3    3  502    0  0.78857400635E+03 -0.34391574009E+03  0.83991696972E+03  0.12023258775E+04  0.50400001928E-02 0.  1.
       -1    1    3    3    0  502 -0.78857400635E+03  0.34391574009E+03 -0.15507767141E+04  0.17734247705E+04  0.50400001928E-02 0. -1.
</event>
<event>
 5   0  0.6393633E-06  0.2895698E+04  0.7818609E-02  0.8274158E-01
       -2   -1    0    0    0  501  0.00000000000E+00  0.00000000000E+00  0.95125140965E+03  0.95125140965E+03  0.25500000920E-02 0. -1.
        2   -1    0    0  501    0  0.00000000000E+00  0.00000000000E+00 -0.22036943967E+04  0.22036943967E+04  0.25500000920E-02 0.  1.
    10030    2    1    2    0    0  0.00000000000E+00  0.00000000000E+00 -0.12524429871E+04  0.31549458064E+04  0.28956984659E+04 0.  0.
        4    1    3    3  502    0 -0.10308851321E+04 -0.40270013912E+03 -0.16432682609E+04  0.19812177437E+04  0.12699999809E+01 0.  1.
       -4    1    3    3    0  502  0.10308851321E+04  0.40270013912E+03  0.39082527384E+03  0.11737280627E+04  0.12699999809E+01 0. -1.
</event>
<event>
 5   0  0.6393633E-06  0.2844389E+04  0.7818609E-02  0.8289618E-01
        2   -1    0    0  501    0  0.00000000000E+00  0.00000000000E+00  0.23106723302E+04  0.23106723302E+04  0.25500000920E-02 0.  1.
       -2   -1    0    0    0  501  0.00000000000E+00  0.00000000000E+00 -0.87534571544E+03  0.87534571544E+03  0.25500000920E-02 0. -1.
    10030    2    1    2    0    0  0.00000000000E+00  0.00000000000E+00  0.14353266148E+04  0.31860180457E+04  0.28443889495E+04 0.  0.
        4    1    3    3  502    0 -0.33327117007E+03 -0.69360461677E+03  0.20573397234E+04  0.21965439644E+04  0.12699999809E+01 0.  1.
       -4    1    3    3    0  502  0.33327117007E+03  0.69360461677E+03 -0.62201310864E+03  0.98947408123E+03  0.12699999809E+01 0. -1.
</event>
<event>
 5   0  0.6733688E-06  0.2889827E+04  0.7818609E-02  0.8275911E-01
       -2   -1    0    0    0  501  0.00000000000E+00  0.00000000000E+00  0.88392720313E+03  0.88392720314E+03  0.25500000920E-02 0. -1.
        2   -1    0    0  501    0  0.00000000000E+00  0.00000000000E+00 -0.23619301372E+04  0.23619301372E+04  0.25500000920E-02 0.  1.
    10030    2    1    2    0    0  0.00000000000E+00  0.00000000000E+00 -0.14780029340E+04  0.32458573403E+04  0.28898265001E+04 0.  0.
        5    1    3    3  502    0 -0.67672085129E+03 -0.10218373569E+04 -0.15985621712E+04  0.20143301119E+04  0.46999998093E+01 0.  1.
       -5    1    3    3    0  502  0.67672085129E+03  0.10218373569E+04  0.12055923718E+03  0.12315272284E+04  0.46999998093E+01 0. -1.
</event>
<event>
 5   0  0.2336512E-06  0.2904802E+04  0.7818609E-02  0.8271450E-01
        1   -1    0    0  501    0  0.00000000000E+00  0.00000000000E+00  0.14391176529E+04  0.14391176529E+04  0.50400001928E-02 0.  1.
       -1   -1    0    0    0  501  0.00000000000E+00  0.00000000000E+00 -0.14658072823E+04  0.14658072823E+04  0.50400001928E-02 0. -1.
    10030    2    1    2    0    0  0.00000000000E+00  0.00000000000E+00 -0.26689629401E+02  0.29049249352E+04  0.29048023242E+04 0.  0.
        4    1    3    3  502    0  0.10469026189E+04  0.47211614517E+03  0.87583206065E+03  0.14442929617E+04  0.12699999809E+01 0.  1.
       -4    1    3    3    0  502 -0.10469026189E+04 -0.47211614517E+03 -0.90252169005E+03  0.14606319735E+04  0.12699999809E+01 0. -1.
</event>
<event>
 5   0  0.6733688E-06  0.2909309E+04  0.7818609E-02  0.8270113E-01
       -2   -1    0    0    0  501  0.00000000000E+00  0.00000000000E+00  0.13224169517E+04  0.13224169517E+04  0.25500000920E-02 0. -1.
        2   -1    0    0  501    0  0.00000000000E+00  0.00000000000E+00 -0.16001149835E+04  0.16001149835E+04  0.25500000920E-02 0.  1.
    10030    2    1    2    0    0  0.00000000000E+00  0.00000000000E+00 -0.27769803179E+03  0.29225319352E+04  0.29093086319E+04 0.  0.
        5    1    3    3  502    0  0.70970743879E+03 -0.12696523457E+04 -0.15611320524E+03  0.14629064053E+04  0.46999998093E+01 0. -1.
       -5    1    3    3    0  502 -0.70970743879E+03  0.12696523457E+04 -0.12158482655E+03  0.14596255300E+04  0.46999998093E+01 0.  1.
</event>
<event>
 5   0  0.6612533E-06  0.2903317E+04  0.7818609E-02  0.8271891E-01
        2   -1    0    0  501    0  0.00000000000E+00  0.00000000000E+00  0.11819204199E+04  0.11819204199E+04  0.25500000920E-02 0.  1.
       -2   -1    0    0    0  501  0.00000000000E+00  0.00000000000E+00 -0.17829563985E+04  0.17829563985E+04  0.25500000920E-02 0. -1.
    10030    2    1    2    0    0  0.00000000000E+00  0.00000000000E+00 -0.60103597866E+03  0.29648768184E+04  0.29033171202E+04 0.  0.
        3    1    3    3  502    0 -0.60735440520E+03 -0.10250036710E+03  0.10418601097E+04  0.12103132641E+04  0.10100000352E+00 0.  1.
       -3    1    3    3    0  502  0.60735440520E+03  0.10250036710E+03 -0.16428960884E+04  0.17545635543E+04  0.10100000352E+00 0. -1.
</event>
<event>
 5   0  0.2429358E-06  0.2907678E+04  0.7818609E-02  0.8270597E-01
        1   -1    0    0  501    0  0.00000000000E+00  0.00000000000E+00  0.23432996329E+04  0.23432996329E+04  0.50400001928E-02 0.  1.
       -1   -1    0    0    0  501  0.00000000000E+00  0.00000000000E+00 -0.90199638178E+03  0.90199638179E+03  0.50400001928E-02 0. -1.
    10030    2    1    2    0    0  0.00000000000E+00  0.00000000000E+00  0.14413032511E+04  0.32452960147E+04  0.29076779673E+04 0.  0.
        2    1    3    3  502    0 -0.11646618637E+04  0.12025760320E+03  0.16825494537E+04  0.20498467777E+04  0.25500000920E-02 0.  1.
       -2    1    3    3    0  502  0.11646618637E+04 -0.12025760320E+03 -0.24124620254E+03  0.11954492370E+04  0.25500000920E-02 0. -1.
</event>
<event>
 5   0  0.2474769E-06  0.2910682E+04  0.7818609E-02  0.8269706E-01
        1   -1    0    0  501    0  0.00000000000E+00  0.00000000000E+00  0.11314860789E+04  0.11314860789E+04  0.50400001928E-02 0.  1.
       -1   -1    0    0    0  501  0.00000000000E+00  0.00000000000E+00 -0.18718905081E+04  0.18718905081E+04  0.50400001928E-02 0. -1.
    10030    2    1    2    0    0  0.00000000000E+00  0.00000000000E+00 -0.74040442913E+03  0.30033765870E+04  0.29106824294E+04 0.  0.
        1    1    3    3  502    0 -0.10842071877E+04  0.91567708696E+02 -0.13674847267E+04  0.17475423739E+04  0.50400001928E-02 0. -1.
       -1    1    3    3    0  502  0.10842071877E+04 -0.91567708696E+02  0.62708029753E+03  0.12558342130E+04  0.50400001928E-02 0.  1.
</event>
<event>
 5   0  0.2348684E-06  0.2884515E+04  0.7818609E-02  0.8277500E-01
        1   -1    0    0  501    0  0.00000000000E+00  0.00000000000E+00  0.17529838793E+04  0.17529838793E+04  0.50400001928E-02 0.  1.
       -1   -1    0    0    0  501  0.00000000000E+00  0.00000000000E+00 -0.11866087535E+04  0.11866087535E+04  0.50400001928E-02 0. -1.
    10030    2    1    2    0    0  0.00000000000E+00  0.00000000000E+00  0.56637512579E+03  0.29395926328E+04  0.28845145283E+04 0.  0.
        5    1    3    3  502    0 -0.53489573039E+03 -0.12947586034E+04  0.63262052130E+03  0.15371220178E+04  0.46999998093E+01 0.  1.
       -5    1    3    3    0  502  0.53489573039E+03  0.12947586034E+04 -0.66245395508E+02  0.14024706150E+04  0.46999998093E+01 0. -1.
</event>
<event>
 5   0  0.2348684E-06  0.2836332E+04  0.7818609E-02  0.8292077E-01
        1   -1    0    0  501    0  0.00000000000E+00  0.00000000000E+00  0.12920548395E+04  0.12920548395E+04  0.50400001928E-02 0.  1.
       -1   -1    0    0    0  501  0.00000000000E+00  0.00000000000E+00 -0.15565864632E+04  0.15565864632E+04  0.50400001928E-02 0. -1.
    10030    2    1    2    0    0  0.00000000000E+00  0.00000000000E+00 -0.26453162370E+03  0.28486413028E+04  0.28363321900E+04 0.  0.
        5    1    3    3  502    0 -0.12897680453E+03 -0.94917157055E+03  0.91803128937E+03  0.13267875582E+04  0.46999998093E+01 0.  1.
       -5    1    3    3    0  502  0.12897680453E+03  0.94917157055E+03 -0.11825629131E+04  0.15218537446E+04  0.46999998093E+01 0. -1.
</event>
<event>
 5   0  0.6513041E-06  0.2846082E+04  0.7818609E-02  0.8289103E-01
        2   -1    0    0  501    0  0.00000000000E+00  0.00000000000E+00  0.12592579494E+04  0.12592579494E+04  0.25500000920E-02 0. -1.
       -2   -1    0    0    0  501  0.00000000000E+00  0.00000000000E+00 -0.16081261344E+04  0.16081261344E+04  0.25500000920E-02 0.  1.
    10030    2    1    2    0    0  0.00000000000E+00  0.00000000000E+00 -0.34886818507E+03  0.28673840838E+04  0.28460819513E+04 0.  0.
        1    1    3    3  502    0  0.51734878111E+03 -0.10571600524E+04  0.63143308064E+03  0.13356439919E+04  0.50400001928E-02 0. -1.
       -1    1    3    3    0  502 -0.51734878111E+03  0.10571600524E+04 -0.98030126571E+03  0.15317400919E+04  0.50400001928E-02 0.  1.
</event>
<event>
 5   0  0.6513041E-06  0.2443422E+04  0.7818609E-02  0.8423423E-01
       -2   -1    0    0    0  501  0.00000000000E+00  0.00000000000E+00  0.64924074494E+03  0.64924074494E+03  0.25500000920E-02 0. -1.
        2   -1    0    0  501    0  0.00000000000E+00  0.00000000000E+00 -0.22989597541E+04  0.22989597541E+04  0.25500000920E-02 0.  1.
    10030    2    1    2    0    0  0.00000000000E+00  0.00000000000E+00 -0.16497190092E+04  0.29482004991E+04  0.24434224713E+04 0.  0.
        1    1    3    3  502    0 -0.45054450883E+03 -0.11189742470E+04 -0.10584660611E+04  0.16048190310E+04  0.50400001928E-02 0.  1.
       -1    1    3    3    0  502  0.45054450883E+03  0.11189742470E+04 -0.59125294812E+03  0.13433814680E+04  0.50400001928E-02 0. -1.
</event>
<event>
 5   0  0.2336512E-06  0.2917691E+04  0.7818609E-02  0.8267633E-01
       -1   -1    0    0    0  501  0.00000000000E+00  0.00000000000E+00  0.21561580487E+04  0.21561580487E+04  0.50400001928E-02 0.  1.
        1   -1    0    0  501    0  0.00000000000E+00  0.00000000000E+00 -0.98704739875E+03  0.98704739876E+03  0.50400001928E-02 0. -1.
    10030    2    1    2    0    0  0.00000000000E+00  0.00000000000E+00  0.11691106499E+04  0.31432054474E+04  0.29176910003E+04 0.  0.
        4    1    3    3  502    0  0.67276460412E+03 -0.67476990012E+03 -0.60549992686E+03  0.11289634206E+04  0.12699999809E+01 0. -1.
       -4    1    3    3    0  502 -0.67276460412E+03  0.67476990012E+03  0.17746105768E+04  0.20142420269E+04  0.12699999809E+01 0.  1.
</event>
<event>
 5   0  0.6615403E-06  0.2904918E+04  0.7818609E-02  0.8271416E-01
        2   -1    0    0  501    0  0.00000000000E+00  0.00000000000E+00  0.11782133466E+04  0.11782133467E+04  0.25500000920E-02 0.  1.
       -2   -1    0    0    0  501  0.00000000000E+00  0.00000000000E+00 -0.17905388233E+04  0.17905388233E+04  0.25500000920E-02 0. -1.
    10030    2    1    2    0    0  0.00000000000E+00  0.00000000000E+00 -0.61232547665E+03  0.29687521700E+04  0.29049177195E+04 0.  0.
        2    1    3    3  502    0 -0.71187372867E+03  0.11698713653E+03  0.98216853234E+03  0.12186489329E+04  0.25500000920E-02 0.  1.
       -2    1    3    3    0  502  0.71187372867E+03 -0.11698713653E+03 -0.15944940090E+04  0.17501032371E+04  0.25500000920E-02 0. -1.
</event>
<event>
 5   0  0.2159500E-06  0.2925122E+04  0.7818609E-02  0.8265442E-01
        3   -1    0    0  501    0  0.00000000000E+00  0.00000000000E+00  0.15165964449E+04  0.15165964482E+04  0.10100000352E+00 0. -1.
       -3   -1    0    0    0  501  0.00000000000E+00  0.00000000000E+00 -0.14104512361E+04  0.14104512398E+04  0.10100000352E+00 0.  1.
    10030    2    1    2    0    0  0.00000000000E+00  0.00000000000E+00  0.10614520873E+03  0.29270476880E+04  0.29251224526E+04 0.  0.
        5    1    3    3  502    0  0.75867114019E+03  0.12338116286E+04  0.25615991367E+03  0.14708885156E+04  0.46999998093E+01 0. -1.
       -5    1    3    3    0  502 -0.75867114019E+03 -0.12338116286E+04 -0.15001470494E+03  0.14561591724E+04  0.46999998093E+01 0.  1.
</event>
<event>
 5   0  0.6733688E-06  0.2899899E+04  0.7818609E-02  0.8272908E-01
        2   -1    0    0  501    0  0.00000000000E+00  0.00000000000E+00  0.15898172661E+04  0.15898172661E+04  0.25500000920E-02 0.  1.
       -2   -1    0    0    0  501  0.00000000000E+00  0.00000000000E+00 -0.13223868787E+04  0.13223868787E+04  0.25500000920E-02 0. -1.
    10030    2    1    2    0    0  0.00000000000E+00  0.00000000000E+00  0.26743038745E+03  0.29122041448E+04  0.28998989584E+04 0.  0.
        5    1    3    3  502    0 -0.29521468883E+03  0.82563083245E+03  0.12933937982E+04  0.15625964262E+04  0.46999998093E+01 0.  1.
       -5    1    3    3    0  502  0.29521468883E+03 -0.82563083245E+03 -0.10259634107E+04  0.13496077186E+04  0.46999998093E+01 0. -1.
</event>
<event>
 5   0  0.6733688E-06  0.2938087E+04  0.7818609E-02  0.8261635E-01
        2   -1    0    0  501    0  0.00000000000E+00  0.00000000000E+00  0.83997505505E+03  0.83997505505E+03  0.25500000920E-02 0. -1.
       -2   -1    0    0    0  501  0.00000000000E+00  0.00000000000E+00 -0.25692297689E+04  0.25692297689E+04  0.25500000920E-02 0.  1.
    10030    2    1    2    0    0  0.00000000000E+00  0.00000000000E+00 -0.17292547139E+04  0.34092048240E+04  0.29380870760E+04 0.  0.
        5    1    3    3  502    0  0.44487227866E+03 -0.97812524340E+03  0.29770736792E+03  0.11150300906E+04  0.46999998093E+01 0. -1.
       -5    1    3    3    0  502 -0.44487227866E+03  0.97812524340E+03 -0.20269620818E+04  0.22941747334E+04  0.46999998093E+01 0.  1.
</event>
<event>
 5   0  0.2474769E-06  0.2960009E+04  0.7818609E-02  0.8255244E-01
        1   -1    0    0  501    0  0.00000000000E+00  0.00000000000E+00  0.19660673984E+04  0.19660673984E+04  0.50400001928E-02 0. -1.
       -1   -1    0    0    0  501  0.00000000000E+00  0.00000000000E+00 -0.11141092562E+04  0.11141092562E+04  0.50400001928E-02 0.  1.
    10030    2    1    2    0    0  0.00000000000E+00  0.00000000000E+00  0.85195814223E+03  0.30801766546E+04  0.29600093830E+04 0.  0.
        1    1    3    3  502    0 -0.35022320678E+03 -0.14211550383E+04  0.19781541267E+03  0.14769796461E+04  0.50400001928E-02 0.  1.
       -1    1    3    3    0  502  0.35022320678E+03  0.14211550383E+04  0.65414272956E+03  0.16031970085E+04  0.50400001928E-02 0. -1.
</event>
<event>
 5   0  0.2336512E-06  0.2869913E+04  0.7818609E-02  0.8281886E-01
       -1   -1    0    0    0  501  0.00000000000E+00  0.00000000000E+00  0.15651973150E+04  0.15651973150E+04  0.50400001928E-02 0.  1.
        1   -1    0    0  501    0  0.00000000000E+00  0.00000000000E+00 -0.13155528554E+04  0.13155528554E+04  0.50400001928E-02 0. -1.
    10030    2    1    2    0    0  0.00000000000E+00  0.00000000000E+00  0.24964445962E+03  0.28807501704E+04  0.28699127492E+04 0.  0.
        4    1    3    3  502    0  0.75943778417E+02 -0.17848606895E+03 -0.13023320476E+04  0.13166985644E+04  0.12699999809E+01 0. -1.
       -4    1    3    3    0  502 -0.75943778417E+02  0.17848606895E+03  0.15519765072E+04  0.15640516060E+04  0.12699999809E+01 0.  1.
</event>
<event>
 5   0  0.6612533E-06  0.2937514E+04  0.7818609E-02  0.8261803E-01
       -2   -1    0    0    0  501  0.00000000000E+00  0.00000000000E+00  0.65417384224E+03  0.65417384224E+03  0.25500000920E-02 0.  1.
        2   -1    0    0  501    0  0.00000000000E+00  0.00000000000E+00 -0.32976663105E+04  0.32976663105E+04  0.25500000920E-02 0. -1.
    10030    2    1    2    0    0  0.00000000000E+00  0.00000000000E+00 -0.26434924682E+04  0.39518401527E+04  0.29375139426E+04 0.  0.
        3    1    3    3  502    0  0.79160949089E+03  0.45151410315E+03 -0.28713182505E+04  0.30124705936E+04  0.10100000352E+00 0. -1.
       -3    1    3    3    0  502 -0.79160949089E+03 -0.45151410315E+03  0.22782578224E+03  0.93936955915E+03  0.10100000352E+00 0.  1.
</event>
<event>
 5   0  0.6513041E-06  0.2966228E+04  0.7818609E-02  0.8253441E-01
       -2   -1    0    0    0  501  0.00000000000E+00  0.00000000000E+00  0.11694449044E+04  0.11694449044E+04  0.25500000920E-02 0. -1.
        2   -1    0    0  501    0  0.00000000000E+00  0.00000000000E+00 -0.18809156847E+04  0.18809156847E+04  0.25500000920E-02 0.  1.
    10030    2    1    2    0    0  0.00000000000E+00  0.00000000000E+00 -0.71147078024E+03  0.30503605891E+04  0.29662280851E+04 0.  0.
        1    1    3    3  502    0  0.10381424899E+04 -0.10548097921E+04 -0.25675714992E+03  0.15020944581E+04  0.50400001928E-02 0.  1.
       -1    1    3    3    0  502 -0.10381424899E+04  0.10548097921E+04 -0.45471363032E+03  0.15482661311E+04  0.50400001928E-02 0. -1.
</event>
<event>
 5   0  0.6733688E-06  0.2848788E+04  0.7818609E-02  0.8288280E-01
       -2   -1    0    0    0  501  0.00000000000E+00  0.00000000000E+00  0.97787750379E+03  0.97787750379E+03  0.25500000920E-02 0. -1.
        2   -1    0    0  501    0  0.00000000000E+00  0.00000000000E+00 -0.20747976798E+04  0.20747976798E+04  0.25500000920E-02 0.  1.
    10030    2    1    2    0    0  0.00000000000E+00  0.00000000000E+00 -0.10969201760E+04  0.30526751836E+04  0.28487877955E+04 0.  0.
        5    1    3    3  502    0  0.50161279365E+03  0.27062187486E+03  0.85034881198E+03  0.10237024890E+04  0.46999998093E+01 0. -1.
       -5    1    3    3    0  502 -0.50161279365E+03 -0.27062187486E+03 -0.19472689880E+04  0.20289726946E+04  0.46999998093E+01 0.  1.
</event>
<event>
 5   0  0.2429358E-06  0.2762439E+04  0.7818609E-02  0.8315025E-01
       -1   -1    0    0    0  501  0.00000000000E+00  0.00000000000E+00  0.74888427239E+03  0.74888427241E+03  0.50400001928E-02 0. -1.
        1   -1    0    0  501    0  0.00000000000E+00  0.00000000000E+00 -0.25474796859E+04  0.25474796860E+04  0.50400001928E-02 0.  1.
    10030    2    1    2    0    0  0.00000000000E+00  0.00000000000E+00 -0.17985954136E+04  0.32963639584E+04  0.27624391187E+04 0.  0.
        2    1    3    3  502    0  0.50815702083E+03  0.69076591693E+03  0.39274783063E+03  0.94320303661E+03  0.25500000920E-02 0. -1.
       -2    1    3    3    0  502 -0.50815702083E+03 -0.69076591693E+03 -0.21913432442E+04  0.23531609217E+04  0.25500000920E-02 0.  1.
</event>
<event>
 5   0  0.6612533E-06  0.2958576E+04  0.7818609E-02  0.8255660E-01
        2   -1    0    0  501    0  0.00000000000E+00  0.00000000000E+00  0.13773544369E+04  0.13773544369E+04  0.25500000920E-02 0. -1.
       -2   -1    0    0    0  501  0.00000000000E+00  0.00000000000E+00 -0.15887653428E+04  0.15887653428E+04  0.25500000920E-02 0.  1.
    10030    2    1    2    0    0  0.00000000000E+00  0.00000000000E+00 -0.21141090595E+03  0.29661197797E+04  0.29585760048E+04 0.  0.
        3    1    3    3  502    0 -0.37179923523E+03 -0.12066738698E+04 -0.87838228711E+03  0.15381326184E+04  0.10100000352E+00 0.  1.
       -3    1    3    3    0  502  0.37179923523E+03  0.12066738698E+04  0.66697138116E+03  0.14279871613E+04  0.10100000352E+00 0. -1.
</event>
<event>
 5   0  0.6393633E-06  0.2895472E+04  0.7818609E-02  0.8274226E-01
        2   -1    0    0  501    0  0.00000000000E+00  0.00000000000E+00  0.13518874538E+04  0.13518874538E+04  0.25500000920E-02 0.  1.
       -2   -1    0    0    0  501  0.00000000000E+00  0.00000000000E+00 -0.15503799390E+04  0.15503799390E+04  0.25500000920E-02 0. -1.
    10030    2    1    2    0    0  0.00000000000E+00  0.00000000000E+00 -0.19849248513E+03  0.29022673928E+04  0.28954717669E+04 0.  0.
        4    1    3    3  502    0  0.44614858912E+03  0.19315876931E+03 -0.14661104449E+04  0.15446165619E+04  0.12699999809E+01 0. -1.
       -4    1    3    3    0  502 -0.44614858912E+03 -0.19315876931E+03  0.12676179598E+04  0.13576508309E+04  0.12699999809E+01 0.  1.
</event>
<event>
 5   0  0.2159500E-06  0.2906295E+04  0.7818609E-02  0.8271007E-01
        3   -1    0    0  501    0  0.00000000000E+00  0.00000000000E+00  0.11575758772E+04  0.11575758816E+04  0.10100000352E+00 0.  1.
       -3   -1    0    0    0  501  0.00000000000E+00  0.00000000000E+00 -0.18241895528E+04  0.18241895556E+04  0.10100000352E+00 0. -1.
    10030    2    1    2    0    0  0.00000000000E+00  0.00000000000E+00 -0.66661367561E+03  0.29817654372E+04  0.29062951209E+04 0.  0.
        4    1    3    3  502    0 -0.24627866333E+03 -0.83742489866E+03 -0.15252424684E+04  0.17573559233E+04  0.12699999809E+01 0. -1.
       -4    1    3    3    0  502  0.24627866333E+03  0.83742489866E+03  0.85862879280E+03  0.12244095139E+04  0.12699999809E+01 0.  1.
</event>
<event>
 5   0  0.6612533E-06  0.2882755E+04  0.7818609E-02  0.8278027E-01
        2   -1    0    0  501    0  0.00000000000E+00  0.00000000000E+00  0.15645751253E+04  0.15645751253E+04  0.25500000920E-02 0. -1.
       -2   -1    0    0    0  501  0.00000000000E+00  0.00000000000E+00 -0.13278804636E+04  0.13278804636E+04  0.25500000920E-02 0.  1.
    10030    2    1    2    0    0  0.00000000000E+00  0.00000000000E+00  0.23669466174E+03  0.28924555889E+04  0.28827547539E+04 0.  0.
        3    1    3    3  502    0 -0.21501077938E+03 -0.60009916120E+02  0.15471258510E+04  0.15631472209E+04  0.10100000352E+00 0. -1.
       -3    1    3    3    0  502  0.21501077938E+03  0.60009916120E+02 -0.13104311892E+04  0.13293083680E+04  0.10100000352E+00 0.  1.
</event>
<event>
 5   0  0.6393633E-06  0.2902166E+04  0.7818609E-02  0.8272233E-01
       -2   -1    0    0    0  501  0.00000000000E+00  0.00000000000E+00  0.72039739286E+03  0.72039739287E+03  0.25500000920E-02 0. -1.
        2   -1    0    0  501    0  0.00000000000E+00  0.00000000000E+00 -0.29228891806E+04  0.29228891806E+04  0.25500000920E-02 0.  1.
    10030    2    1    2    0    0  0.00000000000E+00  0.00000000000E+00 -0.22024917877E+04  0.36432865734E+04  0.29021659121E+04 0.  0.
        4    1    3    3  502    0 -0.32450877015E+02  0.13667289359E+04 -0.17119267962E+04  0.21908208535E+04  0.12699999809E+01 0. -1.
       -4    1    3    3    0  502  0.32450877015E+02 -0.13667289359E+04 -0.49056499152E+03  0.14524657199E+04  0.12699999809E+01 0.  1.
</event>
<event>
 5   0  0.6513041E-06  0.3036132E+04  0.7818609E-02  0.8233488E-01
       -2   -1    0    0    0  501  0.00000000000E+00  0.00000000000E+00  0.12257370847E+04  0.12257370848E+04  0.25500000920E-02 0.  1.
        2   -1    0    0  501    0  0.00000000000E+00  0.00000000000E+00 -0.18801136301E+04  0.18801136301E+04  0.25500000920E-02 0. -1.
    10030    2    1    2    0    0  0.00000000000E+00  0.00000000000E+00 -0.65437654532E+03  0.31058507148E+04  0.30361324081E+04 0.  0.
        1    1    3    3  502    0  0.10029590855E+04 -0.18055118289E+03  0.82381513597E+03  0.13104186488E+04  0.50400001928E-02 0.  1.
       -1    1    3    3    0  502 -0.10029590855E+04  0.18055118289E+03 -0.14781916813E+04  0.17954320660E+04  0.50400001928E-02 0. -1.
</event>
<event>
 5   0  0.2336512E-06  0.2897153E+04  0.7818609E-02  0.8273725E-01
        1   -1    0    0  501    0  0.00000000000E+00  0.00000000000E+00  0.24872947040E+04  0.24872947040E+04  0.50400001928E-02 0.  1.
       -1   -1    0    0    0  501  0.00000000000E+00  0.00000000000E+00 -0.84363672979E+03  0.84363672981E+03  0.50400001928E-02 0. -1.
    10030    2    1    2    0    0  0.00000000000E+00  0.00000000000E+00  0.16436579742E+04  0.33309314338E+04  0.28971525125E+04 0.  0.
        4    1    3    3  502    0  0.13840554530E+03  0.39903158891E+03  0.24149315411E+04  0.24515868871E+04  0.12699999809E+01 0.  1.
       -4    1    3    3    0  502 -0.13840554530E+03 -0.39903158891E+03 -0.77127356690E+03  0.87934454670E+03  0.12699999809E+01 0. -1.
</event>
<event>
 5   0  0.6612533E-06  0.2918885E+04  0.7818609E-02  0.8267281E-01
        2   -1    0    0  501    0  0.00000000000E+00  0.00000000000E+00  0.23660834609E+04  0.23660834609E+04  0.25500000920E-02 0.  1.
       -2   -1    0    0    0  501  0.00000000000E+00  0.00000000000E+00 -0.90021016377E+03  0.90021016377E+03  0.25500000920E-02 0. -1.
    10030    2    1    2    0    0  0.00000000000E+00  0.00000000000E+00  0.14658732971E+04  0.32662936246E+04  0.29188849788E+04 0.  0.
        3    1    3    3  502    0 -0.87355175569E+03 -0.29440787393E+03 -0.53319184150E+03  0.10649235729E+04  0.10100000352E+00 0. -1.
       -3    1    3    3    0  502  0.87355175569E+03  0.29440787393E+03  0.19990651386E+04  0.22013700517E+04  0.10100000352E+00 0.  1.
</event>
<event>
 5   0  0.6733688E-06  0.2391344E+04  0.7818609E-02  0.8442751E-01
        2   -1    0    0  501    0  0.00000000000E+00  0.00000000000E+00  0.22505839305E+04  0.22505839305E+04  0.25500000920E-02 0.  1.
       -2   -1    0    0    0  501  0.00000000000E+00  0.00000000000E+00 -0.63522708648E+03  0.63522708649E+03  0.25500000920E-02 0. -1.
    10030    2    1    2    0    0  0.00000000000E+00  0.00000000000E+00  0.16153568440E+04  0.28858110170E+04  0.23913442856E+04 0.  0.
        5    1    3    3  502    0  0.16353360354E+03  0.18191503140E+03  0.22200538551E+04  0.22334944655E+04  0.46999998093E+01 0.  1.
       -5    1    3    3    0  502 -0.16353360354E+03 -0.18191503140E+03 -0.60469701105E+03  0.65231655146E+03  0.46999998093E+01 0. -1.
</event>
<event>
 5   0  0.2508094E-06  0.2916254E+04  0.7818609E-02  0.8268058E-01
       -1   -1    0    0    0  501  0.00000000000E+00  0.00000000000E+00  0.15786959495E+04  0.15786959495E+04  0.50400001928E-02 0. -1.
        1   -1    0    0  501    0  0.00000000000E+00  0.00000000000E+00 -0.13467666301E+04  0.13467666301E+04  0.50400001928E-02 0.  1.
    10030    2    1    2    0    0  0.00000000000E+00  0.00000000000E+00  0.23192931945E+03  0.29254625796E+04  0.29162544634E+04 0.  0.
        3    1    3    3  502    0  0.82812506611E+03 -0.82741773352E+03  0.98803331246E+03  0.15318684890E+04  0.10100000352E+00 0. -1.
       -3    1    3    3    0  502 -0.82812506611E+03  0.82741773352E+03 -0.75610399301E+03  0.13935940906E+04  0.10100000352E+00 0.  1.
</event>
<event>
 5   0  0.2336512E-06  0.2790486E+04  0.7818609E-02  0.8306228E-01
       -1   -1    0    0    0  501  0.00000000000E+00  0.00000000000E+00  0.15083304117E+04  0.15083304117E+04  0.50400001928E-02 0. -1.
        1   -1    0    0  501    0  0.00000000000E+00  0.00000000000E+00 -0.12906342808E+04  0.12906342808E+04  0.50400001928E-02 0.  1.
    10030    2    1    2    0    0  0.00000000000E+00  0.00000000000E+00  0.21769613089E+03  0.27989646924E+04  0.27904859333E+04 0.  0.
        4    1    3    3  502    0  0.60869791801E+03 -0.47365649144E+03  0.12750663836E+04  0.14901877475E+04  0.12699999809E+01 0. -1.
       -4    1    3    3    0  502 -0.60869791801E+03  0.47365649144E+03 -0.10573702527E+04  0.13087769449E+04  0.12699999809E+01 0.  1.
</event>
<event>
 5   0  0.6393633E-06  0.2895299E+04  0.7818609E-02  0.8274278E-01
        2   -1    0    0  501    0  0.00000000000E+00  0.00000000000E+00  0.26174179715E+04  0.26174179715E+04  0.25500000920E-02 0.  1.
       -2   -1    0    0    0  501  0.00000000000E+00  0.00000000000E+00 -0.80067036198E+03  0.80067036199E+03  0.25500000920E-02 0. -1.
    10030    2    1    2    0    0  0.00000000000E+00  0.00000000000E+00  0.18167476095E+04  0.34180883335E+04  0.28952989447E+04 0.  0.
        4    1    3    3  502    0 -0.74204318361E+03 -0.39663664638E+03 -0.48235904974E+03  0.96985595908E+03  0.12699999809E+01 0. -1.
       -4    1    3    3    0  502  0.74204318361E+03  0.39663664638E+03  0.22991066593E+04  0.24482323744E+04  0.12699999809E+01 0.  1.
</event>
<event>
 5   0  0.2508094E-06  0.2908292E+04  0.7818609E-02  0.8270415E-01
        1   -1    0    0  501    0  0.00000000000E+00  0.00000000000E+00  0.13158493531E+04  0.13158493531E+04  0.50400001928E-02 0.  1.
       -1   -1    0    0    0  501  0.00000000000E+00  0.00000000000E+00 -0.16069777363E+04  0.16069777363E+04  0.50400001928E-02 0. -1.
    10030    2    1    2    0    0  0.00000000000E+00  0.00000000000E+00 -0.29112838319E+03  0.29228270894E+04  0.29082920175E+04 0.  0.
        3    1    3    3  502    0  0.63066717608E+03  0.12549691663E+04  0.23295046924E+03  0.14237115672E+04  0.10100000352E+00 0.  1.
       -3    1    3    3    0  502 -0.63066717608E+03 -0.12549691663E+04 -0.52407885244E+03  0.14991155222E+04  0.10100000352E+00 0. -1.
</event>
<event>
 5   0  0.6733688E-06  0.2867592E+04  0.7818609E-02  0.8282585E-01
        2   -1    0    0  501    0  0.00000000000E+00  0.00000000000E+00  0.19112678597E+04  0.19112678597E+04  0.25500000920E-02 0. -1.
       -2   -1    0    0    0  501  0.00000000000E+00  0.00000000000E+00 -0.10756061693E+04  0.10756061693E+04  0.25500000920E-02 0.  1.
    10030    2    1    2    0    0  0.00000000000E+00  0.00000000000E+00  0.83566169045E+03  0.29868740290E+04  0.28675923707E+04 0.  0.
        5    1    3    3  502    0  0.11578158597E+04 -0.24753178813E+03  0.12601339381E+04  0.17290949029E+04  0.46999998093E+01 0. -1.
       -5    1    3    3    0  502 -0.11578158597E+04  0.24753178813E+03 -0.42447224764E+03  0.12577791262E+04  0.46999998093E+01 0.  1.
</event>
<event>
 5   0  0.6615403E-06  0.2889557E+04  0.7818609E-02  0.8275991E-01
       -2   -1    0    0    0  501  0.00000000000E+00  0.00000000000E+00  0.19518599150E+04  0.19518599150E+04  0.25500000920E-02 0.  1.
        2   -1    0    0  501    0  0.00000000000E+00  0.00000000000E+00 -0.10694339982E+04  0.10694339982E+04  0.25500000920E-02 0. -1.
    10030    2    1    2    0    0  0.00000000000E+00  0.00000000000E+00  0.88242591685E+03  0.30212939132E+04  0.28895573037E+04 0.  0.
        2    1    3    3  502    0 -0.40555602330E+03 -0.55611334146E+03  0.17694207226E+04  0.18985751052E+04  0.25500000920E-02 0.  1.
       -2    1    3    3    0  502  0.40555602330E+03  0.55611334146E+03 -0.88699480571E+03  0.11227188081E+04  0.25500000920E-02 0. -1.
</event>
<event>
 5   0  0.6733688E-06  0.2895930E+04  0.7818609E-02  0.8274090E-01
        2   -1    0    0  501    0  0.00000000000E+00  0.00000000000E+00  0.16463695493E+04  0.16463695493E+04  0.25500000920E-02 0.  1.
       -2   -1    0    0    0  501  0.00000000000E+00  0.00000000000E+00 -0.12734698116E+04  0.12734698116E+04  0.25500000920E-02 0. -1.
    10030    2    1    2    0    0  0.00000000000E+00  0.00000000000E+00  0.37289973769E+03  0.29198393608E+04  0.28959295017E+04 0.  0.
        5    1    3    3  502    0 -0.81354568386E+03  0.90761564855E+03 -0.60164105532E+03  0.13592706848E+04  0.46999998093E+01 0. -1.
       -5    1    3    3    0  502  0.81354568386E+03 -0.90761564855E+03  0.97454079301E+03  0.15605686760E+04  0.46999998093E+01 0.  1.
</event>
<event>
 5   0  0.2348684E-06  0.2891515E+04  0.7818609E-02  0.8275407E-01
       -1   -1    0    0    0  501  0.00000000000E+00  0.00000000000E+00  0.12220211899E+04  0.12220211899E+04  0.50400001928E-02 0.  1.
        1   -1    0    0  501    0  0.00000000000E+00  0.00000000000E+00 -0.17104566914E+04  0.17104566914E+04  0.50400001928E-02 0. -1.
    10030    2    1    2    0    0  0.00000000000E+00  0.00000000000E+00 -0.48843550146E+03  0.29324778813E+04  0.28915147043E+04 0.  0.
        5    1    3    3  502    0  0.11655289893E+03  0.39793022045E+02 -0.17051191990E+04  0.17095676750E+04  0.46999998093E+01 0. -1.
       -5    1    3    3    0  502 -0.11655289893E+03 -0.39793022045E+02  0.12166836975E+04  0.12229102063E+04  0.46999998093E+01 0.  1.
</event>
<event>
 5   0  0.2336512E-06  0.2818643E+04  0.7818609E-02  0.8297504E-01
       -1   -1    0    0    0  501  0.00000000000E+00  0.00000000000E+00  0.10135302261E+04  0.10135302261E+04  0.50400001928E-02 0.  1.
        1   -1    0    0  501    0  0.00000000000E+00  0.00000000000E+00 -0.19596715870E+04  0.19596715870E+04  0.50400001928E-02 0. -1.
    10030    2    1    2    0    0  0.00000000000E+00  0.00000000000E+00 -0.94614136090E+03  0.29732018130E+04  0.28186425006E+04 0.  0.
        4    1    3    3  502    0 -0.81601201213E+03  0.10158685884E+04  0.93327583710E+02  0.13063599211E+04  0.12699999809E+01 0.  1.
       -4    1    3    3    0  502  0.81601201213E+03 -0.10158685884E+04 -0.10394689446E+04  0.16668418919E+04  0.12699999809E+01 0. -1.
</event>
<event>
 5   0  0.6612533E-06  0.2879120E+04  0.7818609E-02  0.8279117E-01
        2   -1    0    0  501    0  0.00000000000E+00  0.00000000000E+00  0.17471304961E+04  0.17471304961E+04  0.25500000920E-02 0. -1.
       -2   -1    0    0    0  501  0.00000000000E+00  0.00000000000E+00 -0.11861351633E+04  0.11861351633E+04  0.25500000920E-02 0.  1.
    10030    2    1    2    0    0  0.00000000000E+00  0.00000000000E+00  0.56099533280E+03  0.29332656595E+04  0.28791199464E+04 0.  0.
        3    1    3    3  502    0 -0.87709888148E+02 -0.11263298482E+04 -0.62848141713E+03  0.12927880156E+04  0.10100000352E+00 0.  1.
       -3    1    3    3    0  502  0.87709888148E+02  0.11263298482E+04  0.11894767499E+04  0.16404776439E+04  0.10100000352E+00 0. -1.
</event>
<event>
 5   0  0.2429358E-06  0.2896375E+04  0.7818609E-02  0.8273957E-01
       -1   -1    0    0    0  501  0.00000000000E+00  0.00000000000E+00  0.72137121473E+03  0.72137121475E+03  0.50400001928E-02 0. -1.
        1   -1    0    0  501    0  0.00000000000E+00  0.00000000000E+00 -0.29073066771E+04  0.29073066771E+04  0.50400001928E-02 0.  1.
    10030    2    1    2    0    0  0.00000000000E+00  0.00000000000E+00 -0.21859354624E+04  0.36286778919E+04  0.28963752169E+04 0.  0.
        2    1    3    3  502    0 -0.10322729649E+04  0.10148532668E+04 -0.10408172811E+04  0.17829232288E+04  0.25500000920E-02 0. -1.
       -2    1    3    3    0  502  0.10322729649E+04 -0.10148532668E+04 -0.11451181812E+04  0.18457546630E+04  0.25500000920E-02 0.  1.
</event>
<event>
 5   0  0.6393633E-06  0.2901924E+04  0.7818609E-02  0.8272305E-01
       -2   -1    0    0    0  501  0.00000000000E+00  0.00000000000E+00  0.74828753394E+03  0.74828753394E+03  0.25500000920E-02 0. -1.
        2   -1    0    0  501    0  0.00000000000E+00  0.00000000000E+00 -0.28134783327E+04  0.28134783327E+04  0.25500000920E-02 0.  1.
    10030    2    1    2    0    0  0.00000000000E+00  0.00000000000E+00 -0.20651907988E+04  0.35617658666E+04  0.29019240261E+04 0.  0.
        4    1    3    3  502    0  0.43838474158E+03 -0.27376739798E+03 -0.26966627966E+04  0.27457460955E+04  0.12699999809E+01 0.  1.
       -4    1    3    3    0  502 -0.43838474158E+03  0.27376739798E+03  0.63147199783E+03  0.81601977108E+03  0.12699999809E+01 0. -1.
</event>
<event>
 5   0  0.2336512E-06  0.2895294E+04  0.7818609E-02  0.8274279E-01
       -1   -1    0    0    0  501  0.00000000000E+00  0.00000000000E+00  0.10139774948E+04  0.10139774948E+04  0.50400001928E-02 0. -1.
        1   -1    0    0  501    0  0.00000000000E+00  0.00000000000E+00 -0.20667927709E+04  0.20667927709E+04  0.50400001928E-02 0.  1.
    10030    2    1    2    0    0  0.00000000000E+00  0.00000000000E+00 -0.10528152760E+04  0.30807702657E+04  0.28952936681E+04 0.  0.
        4    1    3    3  502    0 -0.69847290706E+03  0.11589479280E+04 -0.10738101415E+04  0.17274531931E+04  0.12699999809E+01 0.  1.
       -4    1    3    3    0  502  0.69847290706E+03 -0.11589479280E+04  0.20994865458E+02  0.13533170726E+04  0.12699999809E+01 0. -1.
</event>
<event>
 5   0  0.2474769E-06  0.2909427E+04  0.7818609E-02  0.8270078E-01
       -1   -1    0    0    0  501  0.00000000000E+00  0.00000000000E+00  0.14114596567E+04  0.14114596568E+04  0.50400001928E-02 0. -1.
        1   -1    0    0  501    0  0.00000000000E+00  0.00000000000E+00 -0.14992924991E+04  0.14992924991E+04  0.50400001928E-02 0.  1.
    10030    2    1    2    0    0  0.00000000000E+00  0.00000000000E+00 -0.87832842393E+02  0.29107521559E+04  0.29094266626E+04 0.  0.
        1    1    3    3  502    0  0.21808501363E+03 -0.24697569999E+03  0.13736386998E+04  0.14126009158E+04  0.50400001928E-02 0. -1.
       -1    1    3    3    0  502 -0.21808501363E+03  0.24697569999E+03 -0.14614715422E+04  0.14981512401E+04  0.50400001928E-02 0.  1.
</event>
<event>
 5   0  0.2348684E-06  0.2919388E+04  0.7818609E-02  0.8267132E-01
       -1   -1    0    0    0  501  0.00000000000E+00  0.00000000000E+00  0.18171326537E+04  0.18171326537E+04  0.50400001928E-02 0. -1.
        1   -1    0    0  501    0  0.00000000000E+00  0.00000000000E+00 -0.11725652958E+04  0.11725652958E+04  0.50400001928E-02 0.  1.
    10030    2    1    2    0    0  0.00000000000E+00  0.00000000000E+00  0.64456735782E+03  0.29896979495E+04  0.29193880781E+04 0.  0.
        5    1    3    3  502    0 -0.15153319023E+03 -0.13628879965E+03  0.18024824901E+04  0.18139741349E+04  0.46999998093E+01 0. -1.
       -5    1    3    3    0  502  0.15153319023E+03  0.13628879965E+03 -0.11579151323E+04  0.11757238146E+04  0.46999998093E+01 0.  1.
</event>
<event>
 5   0  0.2508094E-06  0.2934747E+04  0.7818609E-02  0.8262614E-01
        1   -1    0    0  501    0  0.00000000000E+00  0.00000000000E+00  0.21256016122E+04  0.21256016122E+04  0.50400001928E-02 0.  1.
       -1   -1    0    0    0  501  0.00000000000E+00  0.00000000000E+00 -0.10129766454E+04  0.10129766454E+04  0.50400001928E-02 0. -1.
    10030    2    1    2    0    0  0.00000000000E+00  0.00000000000E+00  0.11126249668E+04  0.31385782576E+04  0.29347468651E+04 0.  0.
        3    1    3    3  502    0  0.35994267628E+03 -0.12249717441E+03 -0.95938056602E+03  0.10319764380E+04  0.10100000352E+00 0. -1.
       -3    1    3    3    0  502 -0.35994267628E+03  0.12249717441E+03  0.20720055328E+04  0.21066018196E+04  0.10100000352E+00 0.  1.
</event>
<event>
 5   0  0.6615403E-06  0.2888260E+04  0.7818609E-02  0.8276379E-01
        2   -1    0    0  501    0  0.00000000000E+00  0.00000000000E+00  0.17409316745E+04  0.17409316745E+04  0.25500000920E-02 0. -1.
       -2   -1    0    0    0  501  0.00000000000E+00  0.00000000000E+00 -0.11979280854E+04  0.11979280854E+04  0.25500000920E-02 0.  1.
    10030    2    1    2    0    0  0.00000000000E+00  0.00000000000E+00  0.54300358911E+03  0.29388597599E+04  0.28882596474E+04 0.  0.
        2    1    3    3  502    0  0.27765745010E+03  0.13724119046E+04 -0.88105760627E+02  0.14029863579E+04  0.25500000920E-02 0. -1.
       -2    1    3    3    0  502 -0.27765745010E+03 -0.13724119046E+04  0.63110934973E+03  0.15358734020E+04  0.25500000920E-02 0.  1.
</event>
<event>
 5   0  0.2336512E-06  0.2754409E+04  0.7818609E-02  0.8317564E-01
       -1   -1    0    0    0  501  0.00000000000E+00  0.00000000000E+00  0.12402988598E+04  0.12402988598E+04  0.50400001928E-02 0. -1.
        1   -1    0    0  501    0  0.00000000000E+00  0.00000000000E+00 -0.15292224172E+04  0.15292224172E+04  0.50400001928E-02 0.  1.
    10030    2    1    2    0    0  0.00000000000E+00  0.00000000000E+00 -0.28892355731E+03  0.27695212770E+04  0.27544094252E+04 0.  0.
        4    1    3    3  502    0  0.12205392335E+04 -0.45500584346E+02  0.49535071710E+03  0.13180137592E+04  0.12699999809E+01 0.  1.
       -4    1    3    3    0  502 -0.12205392335E+04  0.45500584346E+02 -0.78427427442E+03  0.14515075178E+04  0.12699999809E+01 0. -1.
</event>
<event>
 5   0  0.6612533E-06  0.3027110E+04  0.7818609E-02  0.8236032E-01
        2   -1    0    0  501    0  0.00000000000E+00  0.00000000000E+00  0.23538066995E+04  0.23538066995E+04  0.25500000920E-02 0.  1.
       -2   -1    0    0    0  501  0.00000000000E+00  0.00000000000E+00 -0.97325259473E+03  0.97325259473E+03  0.25500000920E-02 0. -1.
    10030    2    1    2    0    0  0.00000000000E+00  0.00000000000E+00  0.13805541048E+04  0.33270592943E+04  0.30271098281E+04 0.  0.
        3    1    3    3  502    0  0.10175189509E+04 -0.65471027912E+03  0.16896966380E+04  0.20782360558E+04  0.10100000352E+00 0.  1.
       -3    1    3    3    0  502 -0.10175189509E+04  0.65471027912E+03 -0.30914253316E+03  0.12488232385E+04  0.10100000352E+00 0. -1.
</event>
<event>
 5   0  0.6393633E-06  0.2910960E+04  0.7818609E-02  0.8269624E-01
       -2   -1    0    0    0  501  0.00000000000E+00  0.00000000000E+00  0.73572133950E+03  0.73572133951E+03  0.25500000920E-02 0.  1.
        2   -1    0    0  501    0  0.00000000000E+00  0.00000000000E+00 -0.28793813312E+04  0.28793813312E+04  0.25500000920E-02 0. -1.
    10030    2    1    2    0    0  0.00000000000E+00  0.00000000000E+00 -0.21436599917E+04  0.36151026707E+04  0.29109601783E+04 0.  0.
        4    1    3    3  502    0 -0.20934765099E+03 -0.10390712261E+04 -0.23105683731E+04  0.25420903350E+04  0.12699999809E+01 0. -1.
       -4    1    3    3    0  502  0.20934765099E+03  0.10390712261E+04  0.16690838139E+03  0.10730123357E+04  0.12699999809E+01 0.  1.
</event>
<event>
 5   0  0.2474769E-06  0.2869991E+04  0.7818609E-02  0.8281863E-01
       -1   -1    0    0    0  501  0.00000000000E+00  0.00000000000E+00  0.15197805462E+04  0.15197805462E+04  0.50400001928E-02 0.  1.
        1   -1    0    0  501    0  0.00000000000E+00  0.00000000000E+00 -0.13549400587E+04  0.13549400587E+04  0.50400001928E-02 0. -1.
    10030    2    1    2    0    0  0.00000000000E+00  0.00000000000E+00  0.16484048749E+03  0.28747206049E+04  0.28699906219E+04 0.  0.
        1    1    3    3  502    0 -0.54767612443E+03 -0.93911915169E+03  0.10206162743E+04  0.14911577709E+04  0.50400001928E-02 0.  1.
       -1    1    3    3    0  502  0.54767612443E+03  0.93911915169E+03 -0.85577578678E+03  0.13835628340E+04  0.50400001928E-02 0. -1.
</event>
<event>
 5   0  0.6733688E-06  0.2849429E+04  0.7818609E-02  0.8288085E-01
        2   -1    0    0  501    0  0.00000000000E+00  0.00000000000E+00  0.15794085098E+04  0.15794085098E+04  0.25500000920E-02 0.  1.
       -2   -1    0    0    0  501  0.00000000000E+00  0.00000000000E+00 -0.12851714373E+04  0.12851714373E+04  0.25500000920E-02 0. -1.
    10030    2    1    2    0    0  0.00000000000E+00  0.00000000000E+00  0.29423707252E+03  0.28645799471E+04  0.28494285074E+04 0.  0.
        5    1    3    3  502    0  0.13109207728E+04 -0.39024143234E+03  0.54797043424E+03  0.14734637202E+04  0.46999998093E+01 0. -1.
       -5    1    3    3    0  502 -0.13109207728E+04  0.39024143234E+03 -0.25373336172E+03  0.13911162269E+04  0.46999998093E+01 0.  1.
</event>
<event>
 5   0  0.6513041E-06  0.2904505E+04  0.7818609E-02  0.8271538E-01
        2   -1    0    0  501    0  0.00000000000E+00  0.00000000000E+00  0.22958212609E+04  0.22958212609E+04  0.25500000920E-02 0. -1.
       -2   -1    0    0    0  501  0.00000000000E+00  0.00000000000E+00 -0.91864177319E+03  0.91864177319E+03  0.25500000920E-02 0.  1.
    10030    2    1    2    0    0  0.00000000000E+00  0.00000000000E+00  0.13771794877E+04  0.32144630341E+04  0.29045049933E+04 0.  0.
        1    1    3    3  502    0  0.10892916180E+01  0.76848079328E+03  0.20523558803E+04  0.21915128509E+04  0.50400001928E-02 0. -1.
       -1    1    3    3    0  502 -0.10892916180E+01 -0.76848079328E+03 -0.67517639259E+03  0.10229501832E+04  0.50400001928E-02 0.  1.
</event>
<event>
 5   0  0.6612533E-06  0.2895219E+04  0.7818609E-02  0.8274301E-01
       -2   -1    0    0    0  501  0.00000000000E+00  0.00000000000E+00  0.15901092619E+04  0.15901092619E+04  0.25500000920E-02 0.  1.
        2   -1    0    0  501    0  0.00000000000E+00  0.00000000000E+00 -0.13178798995E+04  0.13178798995E+04  0.25500000920E-02 0. -1.
    10030    2    1    2    0    0  0.00000000000E+00  0.00000000000E+00  0.27222936241E+03  0.29079891613E+04  0.28952188409E+04 0.  0.
        3    1    3    3  502    0  0.10148219042E+04  0.51234852010E+03  0.10362867654E+04  0.15382635579E+04  0.10100000352E+00 0.  1.
       -3    1    3    3    0  502 -0.10148219042E+04 -0.51234852010E+03 -0.76405740298E+03  0.13697256034E+04  0.10100000352E+00 0. -1.
</event>
<event>
 5   0  0.2474769E-06  0.2800312E+04  0.7818609E-02  0.8303172E-01
       -1   -1    0    0    0  501  0.00000000000E+00  0.00000000000E+00  0.92913678472E+03  0.92913678474E+03  0.50400001928E-02 0. -1.
        1   -1    0    0  501    0  0.00000000000E+00  0.00000000000E+00 -0.21099548194E+04  0.21099548194E+04  0.50400001928E-02 0.  1.
    10030    2    1    2    0    0  0.00000000000E+00  0.00000000000E+00 -0.11808180347E+04  0.30390916042E+04  0.28003118661E+04 0.  0.
        1    1    3    3  502    0 -0.25041951194E+03  0.10796448670E+04 -0.15189919878E+04  0.18803402963E+04  0.50400001928E-02 0.  1.
       -1    1    3    3    0  502  0.25041951194E+03 -0.10796448670E+04  0.33817395314E+03  0.11587513078E+04  0.50400001928E-02 0. -1.
</event>
<event>
 5   0  0.2429358E-06  0.2839371E+04  0.7818609E-02  0.8291149E-01
        1   -1    0    0  501    0  0.00000000000E+00  0.00000000000E+00  0.23458609690E+04  0.23458609690E+04  0.50400001928E-02 0. -1.
       -1   -1    0    0    0  501  0.00000000000E+00  0.00000000000E+00 -0.85917563421E+03  0.85917563423E+03  0.50400001928E-02 0.  1.
    10030    2    1    2    0    0  0.00000000000E+00  0.00000000000E+00  0.14866853347E+04  0.32050366032E+04  0.28393707654E+04 0.  0.
        2    1    3    3  502    0  0.95652088007E+03 -0.36301903337E+03  0.18543733777E+04  0.21178799864E+04  0.25500000920E-02 0. -1.
       -2    1    3    3    0  502 -0.95652088007E+03  0.36301903337E+03 -0.36768804297E+03  0.10871566168E+04  0.25500000920E-02 0.  1.
</event>
<event>
 5   0  0.6513041E-06  0.2895986E+04  0.7818609E-02  0.8274073E-01
        2   -1    0    0  501    0  0.00000000000E+00  0.00000000000E+00  0.17590456383E+04  0.17590456383E+04  0.25500000920E-02 0. -1.
       -2   -1    0    0    0  501  0.00000000000E+00  0.00000000000E+00 -0.11919438336E+04  0.11919438336E+04  0.25500000920E-02 0.  1.
    10030    2    1    2    0    0  0.00000000000E+00  0.00000000000E+00  0.56710180464E+03  0.29509894719E+04  0.28959859127E+04 0.  0.
        1    1    3    3  502    0 -0.51591807060E+03 -0.42379655794E+02 -0.10944336870E+04  0.12106826942E+04  0.50400001928E-02 0.  1.
       -1    1    3    3    0  502  0.51591807060E+03  0.42379655794E+02  0.16615354916E+04  0.17403067777E+04  0.50400001928E-02 0. -1.
</event>
<event>
 5   0  0.6612533E-06  0.2796167E+04  0.7818609E-02  0.8304459E-01
       -2   -1    0    0    0  501  0.00000000000E+00  0.00000000000E+00  0.10030476471E+04  0.10030476471E+04  0.25500000920E-02 0.  1.
        2   -1    0    0  501    0  0.00000000000E+00  0.00000000000E+00 -0.19486983674E+04  0.19486983674E+04  0.25500000920E-02 0. -1.
    10030    2    1    2    0    0  0.00000000000E+00  0.00000000000E+00 -0.94565072022E+03  0.29517460145E+04  0.27961668851E+04 0.  0.
        3    1    3    3  502    0 -0.13672611581E+04  0.20000393870E+03 -0.69733858302E+03  0.15478002970E+04  0.10100000352E+00 0. -1.
       -3    1    3    3    0  502  0.13672611581E+04 -0.20000393870E+03 -0.24831213720E+03  0.14039457175E+04  0.10100000352E+00 0.  1.
</event>
<event>
 5   0  0.2348684E-06  0.2885803E+04  0.7818609E-02  0.8277114E-01
       -1   -1    0    0    0  501  0.00000000000E+00  0.00000000000E+00  0.98551406572E+03  0.98551406574E+03  0.50400001928E-02 0. -1.
        1   -1    0    0  501    0  0.00000000000E+00  0.00000000000E+00 -0.21125672466E+04  0.21125672466E+04  0.50400001928E-02 0.  1.
    10030    2    1    2    0    0  0.00000000000E+00  0.00000000000E+00 -0.11270531809E+04  0.30980813123E+04  0.28858029984E+04 0.  0.
        5    1    3    3  502    0 -0.10143889305E+04  0.26479325463E+02  0.53772604005E+03  0.11484151867E+04  0.46999998093E+01 0. -1.
       -5    1    3    3    0  502  0.10143889305E+04 -0.26479325463E+02 -0.16647792209E+04  0.19496661256E+04  0.46999998093E+01 0.  1.
</event>
<event>
 5   0  0.6612533E-06  0.2895227E+04  0.7818609E-02  0.8274299E-01
        2   -1    0    0  501    0  0.00000000000E+00  0.00000000000E+00  0.20975172145E+04  0.20975172145E+04  0.25500000920E-02 0. -1.
       -2   -1    0    0    0  501  0.00000000000E+00  0.00000000000E+00 -0.99907897863E+03  0.99907897864E+03  0.25500000920E-02 0.  1.
    10030    2    1    2    0    0  0.00000000000E+00  0.00000000000E+00  0.10984382358E+04  0.30965961931E+04  0.28952273529E+04 0.  0.
        3    1    3    3  502    0  0.13585540696E+04  0.48414756328E+03  0.68245165614E+03  0.15955589291E+04  0.10100000352E+00 0. -1.
       -3    1    3    3    0  502 -0.13585540696E+04 -0.48414756328E+03  0.41598657970E+03  0.15010372640E+04  0.10100000352E+00 0.  1.
</event>
<event>
 5   0  0.2336512E-06  0.2795169E+04  0.7818609E-02  0.8304770E-01
       -1   -1    0    0    0  501  0.00000000000E+00  0.00000000000E+00  0.75616147226E+03  0.75616147227E+03  0.50400001928E-02 0.  1.
        1   -1    0    0  501    0  0.00000000000E+00  0.00000000000E+00 -0.25831029914E+04  0.25831029914E+04  0.50400001928E-02 0. -1.
    10030    2    1    2    0    0  0.00000000000E+00  0.00000000000E+00 -0.18269415192E+04  0.33392644637E+04  0.27951693766E+04 0.  0.
        4    1    3    3  502    0  0.18413774297E+03 -0.26071986998E+03 -0.25389749729E+04  0.25589601570E+04  0.12699999809E+01 0. -1.
       -4    1    3    3    0  502 -0.18413774297E+03  0.26071986998E+03  0.71203345373E+03  0.78030430674E+03  0.12699999809E+01 0.  1.
</event>
<event>
 5   0  0.2336512E-06  0.2622419E+04  0.7818609E-02  0.8360626E-01
        1   -1    0    0  501    0  0.00000000000E+00  0.00000000000E+00  0.11684208569E+04  0.11684208569E+04  0.50400001928E-02 0.  1.
       -1   -1    0    0    0  501  0.00000000000E+00  0.00000000000E+00 -0.14714479826E+04  0.14714479826E+04  0.50400001928E-02 0. -1.
    10030    2    1    2    0    0  0.00000000000E+00  0.00000000000E+00 -0.30302712571E+03  0.26398688394E+04  0.26224191218E+04 0.  0.
        4    1    3    3  502    0 -0.18028142323E+03 -0.21805089324E+03  0.11373265468E+04  0.11719901325E+04  0.12699999809E+01 0.  1.
       -4    1    3    3    0  502  0.18028142323E+03  0.21805089324E+03 -0.14403536725E+04  0.14678787070E+04  0.12699999809E+01 0. -1.
</event>
<event>
 5   0  0.6612533E-06  0.2954817E+04  0.7818609E-02  0.8256752E-01
       -2   -1    0    0    0  501  0.00000000000E+00  0.00000000000E+00  0.16776109314E+04  0.16776109314E+04  0.25500000920E-02 0. -1.
        2   -1    0    0  501    0  0.00000000000E+00  0.00000000000E+00 -0.13010976575E+04  0.13010976575E+04  0.25500000920E-02 0.  1.
    10030    2    1    2    0    0  0.00000000000E+00  0.00000000000E+00  0.37651327394E+03  0.29787085889E+04  0.29548168492E+04 0.  0.
        3    1    3    3  502    0  0.77703113234E+03 -0.11939876825E+04 -0.20651115705E+03  0.14394550478E+04  0.10100000352E+00 0.  1.
       -3    1    3    3    0  502 -0.77703113234E+03  0.11939876825E+04  0.58302443099E+03  0.15392535411E+04  0.10100000352E+00 0. -1.
</event>
<event>
 5   0  0.2348684E-06  0.2862341E+04  0.7818609E-02  0.8284171E-01
       -1   -1    0    0    0  501  0.00000000000E+00  0.00000000000E+00  0.10762721558E+04  0.10762721558E+04  0.50400001928E-02 0. -1.
        1   -1    0    0  501    0  0.00000000000E+00  0.00000000000E+00 -0.19030964161E+04  0.19030964161E+04  0.50400001928E-02 0.  1.
    10030    2    1    2    0    0  0.00000000000E+00  0.00000000000E+00 -0.82682426037E+03  0.29793685719E+04  0.28623414768E+04 0.  0.
        5    1    3    3  502    0 -0.56009336216E+03 -0.13168342600E+04 -0.43599117308E+03  0.14959503453E+04  0.46999998093E+01 0.  1.
       -5    1    3    3    0  502  0.56009336216E+03  0.13168342600E+04 -0.39083308729E+03  0.14834182265E+04  0.46999998093E+01 0. -1.
</event>
<event>
 5   0  0.2474769E-06  0.2904791E+04  0.7818609E-02  0.8271454E-01
        1   -1    0    0  501    0  0.00000000000E+00  0.00000000000E+00  0.17670768488E+04  0.17670768488E+04  0.50400001928E-02 0.  1.
       -1   -1    0    0    0  501  0.00000000000E+00  0.00000000000E+00 -0.11937524275E+04  0.11937524275E+04  0.50400001928E-02 0. -1.
    10030    2    1    2    0    0  0.00000000000E+00  0.00000000000E+00  0.57332442132E+03  0.29608292763E+04  0.29047907173E+04 0.  0.
        1    1    3    3  502    0 -0.82011619250E+03  0.11383545213E+04  0.66942044356E+03  0.15545305773E+04  0.50400001928E-02 0.  1.
       -1    1    3    3    0  502  0.82011619250E+03 -0.11383545213E+04 -0.96096022240E+02  0.14062986990E+04  0.50400001928E-02 0. -1.
</event>
<event>
 5   0  0.2336512E-06  0.2511018E+04  0.7818609E-02  0.8399071E-01
        1   -1    0    0  501    0  0.00000000000E+00  0.00000000000E+00  0.98386348017E+03  0.98386348018E+03  0.50400001928E-02 0. -1.
       -1   -1    0    0    0  501  0.00000000000E+00  0.00000000000E+00 -0.16021565079E+04  0.16021565079E+04  0.50400001928E-02 0.  1.
    10030    2    1    2    0    0  0.00000000000E+00  0.00000000000E+00 -0.61829302772E+03  0.25860199881E+04  0.25110183414E+04 0.  0.
        4    1    3    3  502    0 -0.39460133671E+03 -0.11905276562E+04 -0.25056742578E+03  0.12790042857E+04  0.12699999809E+01 0. -1.
       -4    1    3    3    0  502  0.39460133671E+03  0.11905276562E+04 -0.36772560194E+03  0.13070157024E+04  0.12699999809E+01 0.  1.
</event>
<event>
 5   0  0.6615403E-06  0.2898666E+04  0.7818609E-02  0.8273275E-01
       -2   -1    0    0    0  501  0.00000000000E+00  0.00000000000E+00  0.15451299925E+04  0.15451299925E+04  0.25500000920E-02 0.  1.
        2   -1    0    0  501    0  0.00000000000E+00  0.00000000000E+00 -0.13594750502E+04  0.13594750502E+04  0.25500000920E-02 0. -1.
    10030    2    1    2    0    0  0.00000000000E+00  0.00000000000E+00  0.18565494227E+03  0.29046050427E+04  0.28986656752E+04 0.  0.
        2    1    3    3  502    0 -0.26701011151E+03 -0.13204910425E+04  0.62831432022E+03  0.14865294743E+04  0.25500000920E-02 0.  1.
       -2    1    3    3    0  502  0.26701011151E+03  0.13204910425E+04 -0.44265937794E+03  0.14180755684E+04  0.25500000920E-02 0. -1.
</event>
<event>
 5   0  0.6615403E-06  0.2873338E+04  0.7818609E-02  0.8280855E-01
        2   -1    0    0  501    0  0.00000000000E+00  0.00000000000E+00  0.29791878824E+04  0.29791878824E+04  0.25500000920E-02 0. -1.
       -2   -1    0    0    0  501  0.00000000000E+00  0.00000000000E+00 -0.69281205868E+03  0.69281205868E+03  0.25500000920E-02 0.  1.
    10030    2    1    2    0    0  0.00000000000E+00  0.00000000000E+00  0.22863758238E+04  0.36719999411E+04  0.28733376342E+04 0.  0.
        2    1    3    3  502    0 -0.12354562768E+04 -0.72769356892E+03  0.10279792617E+04  0.17642651457E+04  0.25500000920E-02 0.  1.
       -2    1    3    3    0  502  0.12354562768E+04  0.72769356892E+03  0.12583965621E+04  0.19077347954E+04  0.25500000920E-02 0. -1.
</event>
<event>
 5   0  0.6615403E-06  0.2899487E+04  0.7818609E-02  0.8273030E-01
        2   -1    0    0  501    0  0.00000000000E+00  0.00000000000E+00  0.24375141572E+04  0.24375141572E+04  0.25500000920E-02 0. -1.
       -2   -1    0    0    0  501  0.00000000000E+00  0.00000000000E+00 -0.86225368850E+03  0.86225368851E+03  0.25500000920E-02 0.  1.
    10030    2    1    2    0    0  0.00000000000E+00  0.00000000000E+00  0.15752604687E+04  0.32997678457E+04  0.28994865565E+04 0.  0.
        2    1    3    3  502    0 -0.13422948151E+03 -0.68937518666E+03 -0.65572357256E+03  0.96084811771E+03  0.25500000920E-02 0.  1.
       -2    1    3    3    0  502  0.13422948151E+03  0.68937518666E+03  0.22309840412E+04  0.23389197280E+04  0.25500000920E-02 0. -1.
</event>
<event>
 5   0  0.2429358E-06  0.2483905E+04  0.7818609E-02  0.8408742E-01
       -1   -1    0    0    0  501  0.00000000000E+00  0.00000000000E+00  0.92722054084E+03  0.92722054086E+03  0.50400001928E-02 0.  1.
        1   -1    0    0  501    0  0.00000000000E+00  0.00000000000E+00 -0.16635163104E+04  0.16635163104E+04  0.50400001928E-02 0. -1.
    10030    2    1    2    0    0  0.00000000000E+00  0.00000000000E+00 -0.73629576953E+03  0.25907368512E+04  0.24839053871E+04 0.  0.
        2    1    3    3  502    0  0.13632697475E+03 -0.12331428352E+04 -0.42733531230E+03  0.13121896834E+04  0.25500000920E-02 0.  1.
       -2    1    3    3    0  502 -0.13632697475E+03  0.12331428352E+04 -0.30896045722E+03  0.12785471678E+04  0.25500000920E-02 0. -1.
</event>
<event>
 5   0  0.2336512E-06  0.2886762E+04  0.7818609E-02  0.8276827E-01
       -1   -1    0    0    0  501  0.00000000000E+00  0.00000000000E+00  0.14295573089E+04  0.14295573089E+04  0.50400001928E-02 0.  1.
        1   -1    0    0  501    0  0.00000000000E+00  0.00000000000E+00 -0.14573380919E+04  0.14573380919E+04  0.50400001928E-02 0. -1.
    10030    2    1    2    0    0  0.00000000000E+00  0.00000000000E+00 -0.27780782963E+02  0.28868954008E+04  0.28867617296E+04 0.  0.
        4    1    3    3  502    0 -0.34797675820E+03 -0.45039641031E+03 -0.13403763126E+04  0.14562125610E+04  0.12699999809E+01 0. -1.
       -4    1    3    3    0  502  0.34797675820E+03  0.45039641031E+03  0.13125955296E+04  0.14306828398E+04  0.12699999809E+01 0.  1.
</event>
<event>
 5   0  0.2508094E-06  0.2372265E+04  0.7818609E-02  0.8449961E-01
        1   -1    0    0  501    0  0.00000000000E+00  0.00000000000E+00  0.20261768778E+04  0.20261768778E+04  0.50400001928E-02 0. -1.
       -1   -1    0    0    0  501  0.00000000000E+00  0.00000000000E+00 -0.69436695860E+03  0.69436695862E+03  0.50400001928E-02 0.  1.
    10030    2    1    2    0    0  0.00000000000E+00  0.00000000000E+00  0.13318099192E+04  0.27205438364E+04  0.23722649736E+04 0.  0.
        3    1    3    3  502    0  0.71523181851E+03 -0.79056892806E+03  0.12621974203E+04  0.16521798093E+04  0.10100000352E+00 0. -1.
       -3    1    3    3    0  502 -0.71523181851E+03  0.79056892806E+03  0.69612498873E+02  0.10683640271E+04  0.10100000352E+00 0.  1.
</event>
<event>
 5   0  0.6733688E-06  0.2796705E+04  0.7818609E-02  0.8304292E-01
       -2   -1    0    0    0  501  0.00000000000E+00  0.00000000000E+00  0.80549165776E+03  0.80549165776E+03  0.25500000920E-02 0. -1.
        2   -1    0    0  501    0  0.00000000000E+00  0.00000000000E+00 -0.24275731977E+04  0.24275731977E+04  0.25500000920E-02 0.  1.
    10030    2    1    2    0    0  0.00000000000E+00  0.00000000000E+00 -0.16220815400E+04  0.32330648555E+04  0.27967051753E+04 0.  0.
        5    1    3    3  502    0 -0.21857541868E+03  0.96266976464E+03 -0.19559502455E+04  0.21909522455E+04  0.46999998093E+01 0.  1.
       -5    1    3    3    0  502  0.21857541868E+03 -0.96266976464E+03  0.33386870548E+03  0.10421126100E+04  0.46999998093E+01 0. -1.
</event>
<event>
 5   0  0.2336512E-06  0.2902812E+04  0.7818609E-02  0.8272041E-01
        1   -1    0    0  501    0  0.00000000000E+00  0.00000000000E+00  0.14810826982E+04  0.14810826982E+04  0.50400001928E-02 0.  1.
       -1   -1    0    0    0  501  0.00000000000E+00  0.00000000000E+00 -0.14223241975E+04  0.14223241975E+04  0.50400001928E-02 0. -1.
    10030    2    1    2    0    0  0.00000000000E+00  0.00000000000E+00  0.58758500665E+02  0.29034068957E+04  0.29028122641E+04 0.  0.
        4    1    3    3  502    0  0.30960482003E+03  0.20050499370E+02  0.14475275782E+04  0.14804036172E+04  0.12699999809E+01 0.  1.
       -4    1    3    3    0  502 -0.30960482003E+03 -0.20050499370E+02 -0.13887690776E+04  0.14230032786E+04  0.12699999809E+01 0. -1.
</event>
<event>
 5   0  0.6733688E-06  0.2833158E+04  0.7818609E-02  0.8293047E-01
       -2   -1    0    0    0  501  0.00000000000E+00  0.00000000000E+00  0.13335428345E+04  0.13335428345E+04  0.25500000920E-02 0.  1.
        2   -1    0    0  501    0  0.00000000000E+00  0.00000000000E+00 -0.15047854895E+04  0.15047854895E+04  0.25500000920E-02 0. -1.
    10030    2    1    2    0    0  0.00000000000E+00  0.00000000000E+00 -0.17124265506E+03  0.28383283240E+04  0.28331578897E+04 0.  0.
        5    1    3    3  502    0 -0.64513516500E+03  0.52141886374E+03  0.10647759956E+04  0.13497581351E+04  0.46999998093E+01 0.  1.
       -5    1    3    3    0  502  0.64513516500E+03 -0.52141886374E+03 -0.12360186506E+04  0.14885701889E+04  0.46999998093E+01 0. -1.
</event>
<event>
 5   0  0.2336512E-06  0.2875314E+04  0.7818609E-02  0.8280260E-01
       -1   -1    0    0    0  501  0.00000000000E+00  0.00000000000E+00  0.69989872545E+03  0.69989872547E+03  0.50400001928E-02 0.  1.
        1   -1    0    0  501    0  0.00000000000E+00  0.00000000000E+00 -0.29530808375E+04  0.29530808375E+04  0.50400001928E-02 0. -1.
    10030    2    1    2    0    0  0.00000000000E+00  0.00000000000E+00 -0.22531821120E+04  0.36529795629E+04  0.28753139059E+04 0.  0.
        4    1    3    3  502    0  0.55320694533E+03  0.10058277131E+04 -0.26977302020E+02  0.11482406980E+04  0.12699999809E+01 0.  1.
       -4    1    3    3    0  502 -0.55320694533E+03 -0.10058277131E+04 -0.22262048100E+04  0.25047388650E+04  0.12699999809E+01 0. -1.
</event>
<event>
 5   0  0.2348684E-06  0.2904489E+04  0.7818609E-02  0.8271543E-01
       -1   -1    0    0    0  501  0.00000000000E+00  0.00000000000E+00  0.11809353215E+04  0.11809353215E+04  0.50400001928E-02 0.  1.
        1   -1    0    0  501    0  0.00000000000E+00  0.00000000000E+00 -0.17858849552E+04  0.17858849552E+04  0.50400001928E-02 0. -1.
    10030    2    1    2    0    0  0.00000000000E+00  0.00000000000E+00 -0.60494963374E+03  0.29668202767E+04  0.29044893691E+04 0.  0.
        5    1    3    3  502    0  0.35437301182E+03 -0.13899260273E+04 -0.70628235864E+02  0.14361354499E+04  0.46999998093E+01 0.  1.
       -5    1    3    3    0  502 -0.35437301182E+03  0.13899260273E+04 -0.53432139787E+03  0.15306848268E+04  0.46999998093E+01 0. -1.
</event>
<event>
 5   0  0.2508094E-06  0.2876797E+04  0.7818609E-02  0.8279815E-01
       -1   -1    0    0    0  501  0.00000000000E+00  0.00000000000E+00  0.21498287135E+04  0.21498287135E+04  0.50400001928E-02 0. -1.
        1   -1    0    0  501    0  0.00000000000E+00  0.00000000000E+00 -0.96239797698E+03  0.96239797699E+03  0.50400001928E-02 0.  1.
    10030    2    1    2    0    0  0.00000000000E+00  0.00000000000E+00  0.11874307366E+04  0.31122266905E+04  0.28767973893E+04 0.  0.
        3    1    3    3  502    0  0.13829572137E+04 -0.18072556660E+02  0.10211349227E+04  0.17191898711E+04  0.10100000352E+00 0. -1.
       -3    1    3    3    0  502 -0.13829572137E+04  0.18072556660E+02  0.16629581385E+03  0.13930368194E+04  0.10100000352E+00 0.  1.
</event>
<event>
 5   0  0.2508094E-06  0.2942870E+04  0.7818609E-02  0.8260235E-01
       -1   -1    0    0    0  501  0.00000000000E+00  0.00000000000E+00  0.14966729553E+04  0.14966729553E+04  0.50400001928E-02 0.  1.
        1   -1    0    0  501    0  0.00000000000E+00  0.00000000000E+00 -0.14466227195E+04  0.14466227195E+04  0.50400001928E-02 0. -1.
    10030    2    1    2    0    0  0.00000000000E+00  0.00000000000E+00  0.50050235768E+02  0.29432956748E+04  0.29428700962E+04 0.  0.
        3    1    3    3  502    0 -0.89421222181E+02 -0.14643425206E+04  0.13829306478E+03  0.14735739393E+04  0.10100000352E+00 0.  1.
       -3    1    3    3    0  502  0.89421222181E+02  0.14643425206E+04 -0.88242829010E+02  0.14697217355E+04  0.10100000352E+00 0. -1.
</event>
<event>
 5   0  0.6393633E-06  0.2931057E+04  0.7818609E-02  0.8263697E-01
       -2   -1    0    0    0  501  0.00000000000E+00  0.00000000000E+00  0.11729798649E+04  0.11729798649E+04  0.25500000920E-02 0.  1.
        2   -1    0    0  501    0  0.00000000000E+00  0.00000000000E+00 -0.18310412297E+04  0.18310412297E+04  0.25500000920E-02 0. -1.
    10030    2    1    2    0    0  0.00000000000E+00  0.00000000000E+00 -0.65806136480E+03  0.30040210946E+04  0.29310574845E+04 0.  0.
        4    1    3    3  502    0  0.43037289018E+03 -0.10073732522E+03  0.11030368274E+04  0.11883015984E+04  0.12699999809E+01 0.  1.
       -4    1    3    3    0  502 -0.43037289018E+03  0.10073732522E+03 -0.17610981922E+04  0.18157194962E+04  0.12699999809E+01 0. -1.
</event>
<event>
 5   0  0.6615403E-06  0.2893450E+04  0.7818609E-02  0.8274829E-01
        2   -1    0    0  501    0  0.00000000000E+00  0.00000000000E+00  0.18932738916E+04  0.18932738916E+04  0.25500000920E-02 0.  1.
       -2   -1    0    0    0  501  0.00000000000E+00  0.00000000000E+00 -0.11054992415E+04  0.11054992415E+04  0.25500000920E-02 0. -1.
    10030    2    1    2    0    0  0.00000000000E+00  0.00000000000E+00  0.78777465009E+03  0.29987731332E+04  0.28934497412E+04 0.  0.
        2    1    3    3  502    0  0.10044258341E+04  0.92223845348E+03  0.89482149950E+03  0.16309814644E+04  0.25500000920E-02 0.  1.
       -2    1    3    3    0  502 -0.10044258341E+04 -0.92223845348E+03 -0.10704684941E+03  0.13677916688E+04  0.25500000920E-02 0. -1.
</event>
<event>
 5   0  0.2508094E-06  0.2899672E+04  0.7818609E-02  0.8272975E-01
       -1   -1    0    0    0  501  0.00000000000E+00  0.00000000000E+00  0.12123864965E+04  0.12123864965E+04  0.50400001928E-02 0. -1.
        1   -1    0    0  501    0  0.00000000000E+00  0.00000000000E+00 -0.17337907029E+04  0.17337907029E+04  0.50400001928E-02 0.  1.
    10030    2    1    2    0    0  0.00000000000E+00  0.00000000000E+00 -0.52140420640E+03  0.29461771995E+04  0.28996720063E+04 0.  0.
        3    1    3    3  502    0 -0.49573078858E+03  0.38315592353E+01  0.11235955317E+04  0.12281004131E+04  0.10100000352E+00 0. -1.
       -3    1    3    3    0  502  0.49573078858E+03 -0.38315592353E+01 -0.16449997381E+04  0.17180767864E+04  0.10100000352E+00 0.  1.
</event>
<event>
 5   0  0.6612533E-06  0.2925735E+04  0.7818609E-02  0.8265262E-01
       -2   -1    0    0    0  501  0.00000000000E+00  0.00000000000E+00  0.25316665892E+04  0.25316665892E+04  0.25500000920E-02 0.  1.
        2   -1    0    0  501    0  0.00000000000E+00  0.00000000000E+00 -0.84528533191E+03  0.84528533192E+03  0.25500000920E-02 0. -1.
    10030    2    1    2    0    0  0.00000000000E+00  0.00000000000E+00  0.16863812572E+04  0.33769519211E+04  0.29257345287E+04 0.  0.
        3    1    3    3  502    0 -0.97987605984E+03  0.95670548611E+03  0.14368456023E+04  0.19849352067E+04  0.10100000352E+00 0.  1.
       -3    1    3    3    0  502  0.97987605984E+03 -0.95670548611E+03  0.24953565497E+03  0.13920167144E+04  0.10100000352E+00 0. -1.
</event>
<event>
 5   0  0.2474769E-06  0.2872721E+04  0.7818609E-02  0.8281040E-01
       -1   -1    0    0    0  501  0.00000000000E+00  0.00000000000E+00  0.15000705434E+04  0.15000705435E+04  0.50400001928E-02 0. -1.
        1   -1    0    0  501    0  0.00000000000E+00  0.00000000000E+00 -0.13753561007E+04  0.13753561007E+04  0.50400001928E-02 0.  1.
    10030    2    1    2    0    0  0.00000000000E+00  0.00000000000E+00  0.12471444277E+03  0.28754266442E+04  0.28727207824E+04 0.  0.
        1    1    3    3  502    0  0.62946546337E+03  0.12029792035E+04 -0.40685445602E+03  0.14173624385E+04  0.50400001928E-02 0.  1.
       -1    1    3    3    0  502 -0.62946546337E+03 -0.12029792035E+04  0.53156889879E+03  0.14580642057E+04  0.50400001928E-02 0. -1.
</event>
<event>
 5   0  0.2336512E-06  0.2901287E+04  0.7818609E-02  0.8272495E-01
        1   -1    0    0  501    0  0.00000000000E+00  0.00000000000E+00  0.16777366453E+04  0.16777366453E+04  0.50400001928E-02 0.  1.
       -1   -1    0    0    0  501  0.00000000000E+00  0.00000000000E+00 -0.12542890223E+04  0.12542890223E+04  0.50400001928E-02 0. -1.
    10030    2    1    2    0    0  0.00000000000E+00  0.00000000000E+00  0.42344762300E+03  0.29320256677E+04  0.29012870638E+04 0.  0.
        4    1    3    3  502    0  0.13680664334E+04  0.44997478335E+03  0.35862972011E+02  0.14406147429E+04  0.12699999809E+01 0. -1.
       -4    1    3    3    0  502 -0.13680664334E+04 -0.44997478335E+03  0.38758465099E+03  0.14914109247E+04  0.12699999809E+01 0.  1.
</event>
<event>
 5   0  0.2348684E-06  0.2888156E+04  0.7818609E-02  0.8276410E-01
        1   -1    0    0  501    0  0.00000000000E+00  0.00000000000E+00  0.10934745902E+04  0.10934745902E+04  0.50400001928E-02 0.  1.
       -1   -1    0    0    0  501  0.00000000000E+00  0.00000000000E+00 -0.19070966489E+04  0.19070966489E+04  0.50400001928E-02 0. -1.
    10030    2    1    2    0    0  0.00000000000E+00  0.00000000000E+00 -0.81362205874E+03  0.30005712391E+04  0.28881563161E+04 0.  0.
        5    1    3    3  502    0  0.13258734685E+04  0.36232942897E+02 -0.10000771679E+04  0.16611531273E+04  0.46999998093E+01 0. -1.
       -5    1    3    3    0  502 -0.13258734685E+04 -0.36232942897E+02  0.18645510917E+03  0.13394181118E+04  0.46999998093E+01 0.  1.
</event>
<event>
 5   0  0.6612533E-06  0.2898853E+04  0.7818609E-02  0.8273219E-01
        2   -1    0    0  501    0  0.00000000000E+00  0.00000000000E+00  0.13670766664E+04  0.13670766665E+04  0.25500000920E-02 0.  1.
       -2   -1    0    0    0  501  0.00000000000E+00  0.00000000000E+00 -0.15367372612E+04  0.15367372612E+04  0.25500000920E-02 0. -1.
    10030    2    1    2    0    0  0.00000000000E+00  0.00000000000E+00 -0.16966059473E+03  0.29038139276E+04  0.28988533266E+04 0.  0.
        3    1    3    3  502    0  0.86724559736E+03  0.11596766923E+04 -0.14716769161E+03  0.14555491391E+04  0.10100000352E+00 0.  1.
       -3    1    3    3    0  502 -0.86724559736E+03 -0.11596766923E+04 -0.22492903120E+02  0.14482647885E+04  0.10100000352E+00 0. -1.
</event>
<event>
 5   0  0.2474769E-06  0.2917564E+04  0.7818609E-02  0.8267671E-01
        1   -1    0    0  501    0  0.00000000000E+00  0.00000000000E+00  0.16937978864E+04  0.16937978864E+04  0.50400001928E-02 0. -1.
       -1   -1    0    0    0  501  0.00000000000E+00  0.00000000000E+00 -0.12563744482E+04  0.12563744482E+04  0.50400001928E-02 0.  1.
    10030    2    1    2    0    0  0.00000000000E+00  0.00000000000E+00  0.43742343826E+03  0.29501723346E+04  0.29175636308E+04 0.  0.
        1    1    3    3  502    0  0.84920387479E+03  0.87609118430E+03  0.10272493849E+04  0.15949684269E+04  0.50400001928E-02 0. -1.
       -1    1    3    3    0  502 -0.84920387479E+03 -0.87609118430E+03 -0.58982594660E+03  0.13552039077E+04  0.50400001928E-02 0.  1.
</event>
<event>
 5   0  0.6513041E-06  0.2876725E+04  0.7818609E-02  0.8279836E-01
       -2   -1    0    0    0  501  0.00000000000E+00  0.00000000000E+00  0.12220052662E+04  0.12220052662E+04  0.25500000920E-02 0.  1.
        2   -1    0    0  501    0  0.00000000000E+00  0.00000000000E+00 -0.16930263732E+04  0.16930263732E+04  0.25500000920E-02 0. -1.
    10030    2    1    2    0    0  0.00000000000E+00  0.00000000000E+00 -0.47102110693E+03  0.29150316394E+04  0.28767253215E+04 0.  0.
        1    1    3    3  502    0 -0.12384463107E+04  0.48516611984E+03 -0.79029683754E+03  0.15471601467E+04  0.50400001928E-02 0. -1.
       -1    1    3    3    0  502  0.12384463107E+04 -0.48516611984E+03  0.31927573061E+03  0.13678714927E+04  0.50400001928E-02 0.  1.
</event>
<event>
 5   0  0.2336512E-06  0.2879570E+04  0.7818609E-02  0.8278982E-01
       -1   -1    0    0    0  501  0.00000000000E+00  0.00000000000E+00  0.16022088578E+04  0.16022088578E+04  0.50400001928E-02 0. -1.
        1   -1    0    0  501    0  0.00000000000E+00  0.00000000000E+00 -0.12938271755E+04  0.12938271755E+04  0.50400001928E-02 0.  1.
    10030    2    1    2    0    0  0.00000000000E+00  0.00000000000E+00  0.30838168229E+03  0.28960360333E+04  0.28795703576E+04 0.  0.
        4    1    3    3  502    0 -0.87797198891E+02 -0.78903901984E+03  0.13621787876E+04  0.15766494808E+04  0.12699999809E+01 0. -1.
       -4    1    3    3    0  502  0.87797198891E+02  0.78903901984E+03 -0.10537971053E+04  0.13193865525E+04  0.12699999809E+01 0.  1.
</event>
<event>
 5   0  0.2348684E-06  0.2903264E+04  0.7818609E-02  0.8271907E-01
       -1   -1    0    0    0  501  0.00000000000E+00  0.00000000000E+00  0.14800765027E+04  0.14800765027E+04  0.50400001928E-02 0. -1.
        1   -1    0    0  501    0  0.00000000000E+00  0.00000000000E+00 -0.14237341874E+04  0.14237341874E+04  0.50400001928E-02 0.  1.
    10030    2    1    2    0    0  0.00000000000E+00  0.00000000000E+00  0.56342315293E+02  0.29038106901E+04  0.29032640368E+04 0.  0.
        5    1    3    3  502    0  0.80552862254E+03  0.92582873829E+03 -0.74733166284E+03  0.14368583502E+04  0.46999998093E+01 0.  1.
       -5    1    3    3    0  502 -0.80552862254E+03 -0.92582873829E+03  0.80367397814E+03  0.14669523399E+04  0.46999998093E+01 0. -1.
</event>
<event>
 5   0  0.2429358E-06  0.2893056E+04  0.7818609E-02  0.8274947E-01
       -1   -1    0    0    0  501  0.00000000000E+00  0.00000000000E+00  0.14097997290E+04  0.14097997290E+04  0.50400001928E-02 0. -1.
        1   -1    0    0  501    0  0.00000000000E+00  0.00000000000E+00 -0.14842129134E+04  0.14842129134E+04  0.50400001928E-02 0.  1.
    10030    2    1    2    0    0  0.00000000000E+00  0.00000000000E+00 -0.74413184420E+02  0.28940126424E+04  0.28930557983E+04 0.  0.
        2    1    3    3  502    0  0.59517339998E+03 -0.11156670305E+04  0.66552035030E+03  0.14289372399E+04  0.25500000920E-02 0. -1.
       -2    1    3    3    0  502 -0.59517339998E+03  0.11156670305E+04 -0.73993353472E+03  0.14650754024E+04  0.25500000920E-02 0.  1.
</event>
<event>
 5   0  0.2336512E-06  0.2887284E+04  0.7818609E-02  0.8276671E-01
        1   -1    0    0  501    0  0.00000000000E+00  0.00000000000E+00  0.21622104000E+04  0.21622104000E+04  0.50400001928E-02 0. -1.
       -1   -1    0    0    0  501  0.00000000000E+00  0.00000000000E+00 -0.96387577691E+03  0.96387577692E+03  0.50400001928E-02 0.  1.
    10030    2    1    2    0    0  0.00000000000E+00  0.00000000000E+00  0.11983346231E+04  0.31260861769E+04  0.28872840034E+04 0.  0.
        4    1    3    3  502    0 -0.99772575577E+03  0.41004886206E+03 -0.43961429027E+03  0.11648429465E+04  0.12699999809E+01 0.  1.
       -4    1    3    3    0  502  0.99772575577E+03 -0.41004886206E+03  0.16379489133E+04  0.19612432303E+04  0.12699999809E+01 0. -1.
</event>
<event>
 5   0  0.2348684E-06  0.2936905E+04  0.7818609E-02  0.8261981E-01
        1   -1    0    0  501    0  0.00000000000E+00  0.00000000000E+00  0.22911581442E+04  0.22911581442E+04  0.50400001928E-02 0.  1.
       -1   -1    0    0    0  501  0.00000000000E+00  0.00000000000E+00 -0.94116266139E+03  0.94116266141E+03  0.50400001928E-02 0. -1.
    10030    2    1    2    0    0  0.00000000000E+00  0.00000000000E+00  0.13499954829E+04  0.32323208057E+04  0.29369048311E+04 0.  0.
        5    1    3    3  502    0  0.10261135250E+03 -0.10619566992E+04 -0.43547777024E+03  0.11523645686E+04  0.46999998093E+01 0. -1.
       -5    1    3    3    0  502 -0.10261135250E+03  0.10619566992E+04  0.17854732531E+04  0.20799562371E+04  0.46999998093E+01 0.  1.
</event>
<event>
 5   0  0.6615403E-06  0.2866274E+04  0.7818609E-02  0.8282983E-01
        2   -1    0    0  501    0  0.00000000000E+00  0.00000000000E+00  0.20212696214E+04  0.20212696214E+04  0.25500000920E-02 0. -1.
       -2   -1    0    0    0  501  0.00000000000E+00  0.00000000000E+00 -0.10161343331E+04  0.10161343331E+04  0.25500000920E-02 0.  1.
    10030    2    1    2    0    0  0.00000000000E+00  0.00000000000E+00  0.10051352884E+04  0.30374039545E+04  0.28662738590E+04 0.  0.
        2    1    3    3  502    0 -0.13116138687E+04  0.53695120126E+03  0.72794849335E+03  0.15932848277E+04  0.25500000920E-02 0. -1.
       -2    1    3    3    0  502  0.13116138687E+04 -0.53695120126E+03  0.27718679500E+03  0.14441191268E+04  0.25500000920E-02 0.  1.
</event>
<event>
 5   0  0.2474769E-06  0.2918650E+04  0.7818609E-02  0.8267350E-01
        1   -1    0    0  501    0  0.00000000000E+00  0.00000000000E+00  0.11825972227E+04  0.11825972227E+04  0.50400001928E-02 0. -1.
       -1   -1    0    0    0  501  0.00000000000E+00  0.00000000000E+00 -0.18008066458E+04  0.18008066458E+04  0.50400001928E-02 0.  1.
    10030    2    1    2    0    0  0.00000000000E+00  0.00000000000E+00 -0.61820942309E+03  0.29834038685E+04  0.29186496453E+04 0.  0.
        1    1    3    3  502    0 -0.11681914120E+03 -0.14044400622E+04  0.78154660324E+02  0.14114555434E+04  0.50400001928E-02 0. -1.
       -1    1    3    3    0  502  0.11681914120E+03  0.14044400622E+04 -0.69636408341E+03  0.15719483251E+04  0.50400001928E-02 0.  1.
</event>
<event>
 5   0  0.2474769E-06  0.2908482E+04  0.7818609E-02  0.8270358E-01
       -1   -1    0    0    0  501  0.00000000000E+00  0.00000000000E+00  0.16265577331E+04  0.16265577331E+04  0.50400001928E-02 0. -1.
        1   -1    0    0  501    0  0.00000000000E+00  0.00000000000E+00 -0.13001789833E+04  0.13001789833E+04  0.50400001928E-02 0.  1.
    10030    2    1    2    0    0  0.00000000000E+00  0.00000000000E+00  0.32637874977E+03  0.29267367164E+04  0.29084815143E+04 0.  0.
        1    1    3    3  502    0  0.13047144369E+04 -0.51134971027E+03 -0.22791174326E+03  0.14197542219E+04  0.50400001928E-02 0. -1.
       -1    1    3    3    0  502 -0.13047144369E+04  0.51134971027E+03  0.55429049303E+03  0.15069824945E+04  0.50400001928E-02 0.  1.
</event>
<event>
 5   0  0.2474769E-06  0.2979307E+04  0.7818609E-02  0.8249665E-01
        1   -1    0    0  501    0  0.00000000000E+00  0.00000000000E+00  0.21651972063E+04  0.21651972063E+04  0.50400001928E-02 0.  1.
       -1   -1    0    0    0  501  0.00000000000E+00  0.00000000000E+00 -0.10248804206E+04  0.10248804206E+04  0.50400001928E-02 0. -1.
    10030    2    1    2    0    0  0.00000000000E+00  0.00000000000E+00  0.11403167857E+04  0.31900776269E+04  0.29793074520E+04 0.  0.
        1    1    3    3  502    0 -0.73037377338E+03 -0.15495564625E+02  0.19602234865E+04  0.20919278378E+04  0.50400001928E-02 0.  1.
       -1    1    3    3    0  502  0.73037377338E+03  0.15495564625E+02 -0.81990670076E+03  0.10981497891E+04  0.50400001928E-02 0. -1.
</event>
<event>
 5   0  0.6393633E-06  0.2690473E+04  0.7818609E-02  0.8338103E-01
        2   -1    0    0  501    0  0.00000000000E+00  0.00000000000E+00  0.12410013349E+04  0.12410013349E+04  0.25500000920E-02 0.  1.
       -2   -1    0    0    0  501  0.00000000000E+00  0.00000000000E+00 -0.14582267830E+04  0.14582267830E+04  0.25500000920E-02 0. -1.
    10030    2    1    2    0    0  0.00000000000E+00  0.00000000000E+00 -0.21722544804E+03  0.26992281179E+04  0.26904731066E+04 0.  0.
        4    1    3    3  502    0 -0.29511559987E+03  0.30646482296E+03  0.11717241832E+04  0.12465765437E+04  0.12699999809E+01 0.  1.
       -4    1    3    3    0  502  0.29511559987E+03 -0.30646482296E+03 -0.13889496312E+04  0.14526515742E+04  0.12699999809E+01 0. -1.
</event>
<event>
 5   0  0.2508094E-06  0.2897923E+04  0.7818609E-02  0.8273496E-01
       -1   -1    0    0    0  501  0.00000000000E+00  0.00000000000E+00  0.13276310472E+04  0.13276310472E+04  0.50400001928E-02 0.  1.
        1   -1    0    0  501    0  0.00000000000E+00  0.00000000000E+00 -0.15813805495E+04  0.15813805495E+04  0.50400001928E-02 0. -1.
    10030    2    1    2    0    0  0.00000000000E+00  0.00000000000E+00 -0.25374950226E+03  0.29090115967E+04  0.28979233358E+04 0.  0.
        3    1    3    3  502    0  0.59260033050E+03 -0.13203219820E+04 -0.19831317444E+03  0.14607372841E+04  0.10100000352E+00 0.  1.
       -3    1    3    3    0  502 -0.59260033050E+03  0.13203219820E+04 -0.55436327820E+02  0.14482743126E+04  0.10100000352E+00 0. -1.
</event>
<event>
 5   0  0.6393633E-06  0.2968263E+04  0.7818609E-02  0.8252852E-01
       -2   -1    0    0    0  501  0.00000000000E+00  0.00000000000E+00  0.15082405158E+04  0.15082405158E+04  0.25500000920E-02 0. -1.
        2   -1    0    0  501    0  0.00000000000E+00  0.00000000000E+00 -0.14604081641E+04  0.14604081641E+04  0.25500000920E-02 0.  1.
    10030    2    1    2    0    0  0.00000000000E+00  0.00000000000E+00  0.47832351723E+02  0.29686486799E+04  0.29682633055E+04 0.  0.
        4    1    3    3  502    0 -0.10025010060E+04 -0.85446114024E+03  0.70776882939E+03  0.14953429158E+04  0.12699999809E+01 0. -1.
       -4    1    3    3    0  502  0.10025010060E+04  0.85446114024E+03 -0.65993647766E+03  0.14733057641E+04  0.12699999809E+01 0.  1.
</event>
<event>
 5   0  0.6612533E-06  0.2886321E+04  0.7818609E-02  0.8276959E-01
        2   -1    0    0  501    0  0.00000000000E+00  0.00000000000E+00  0.74190581653E+03  0.74190581654E+03  0.25500000920E-02 0.  1.
       -2   -1    0    0    0  501  0.00000000000E+00  0.00000000000E+00 -0.28072459016E+04  0.28072459016E+04  0.25500000920E-02 0. -1.
    10030    2    1    2    0    0  0.00000000000E+00  0.00000000000E+00 -0.20653400850E+04  0.35491517181E+04  0.28863208850E+04 0.  0.
        3    1    3    3  502    0 -0.92303932349E+03 -0.43708772953E+03 -0.22864652868E+04  0.25041906465E+04  0.10100000352E+00 0. -1.
       -3    1    3    3    0  502  0.92303932349E+03  0.43708772953E+03  0.22112520181E+03  0.10449610716E+04  0.10100000352E+00 0.  1.
</event>
<event>
 5   0  0.6513041E-06  0.2947886E+04  0.7818609E-02  0.8258771E-01
        2   -1    0    0  501    0  0.00000000000E+00  0.00000000000E+00  0.13941051777E+04  0.13941051777E+04  0.25500000920E-02 0. -1.
       -2   -1    0    0    0  501  0.00000000000E+00  0.00000000000E+00 -0.15583526452E+04  0.15583526452E+04  0.25500000920E-02 0.  1.
    10030    2    1    2    0    0  0.00000000000E+00  0.00000000000E+00 -0.16424746753E+03  0.29524578230E+04  0.29478856772E+04 0.  0.
        1    1    3    3  502    0 -0.13152422142E+04 -0.46668966124E+03 -0.55703865170E+03  0.15026487885E+04  0.50400001928E-02 0.  1.
       -1    1    3    3    0  502  0.13152422142E+04  0.46668966124E+03  0.39279118418E+03  0.14498090345E+04  0.50400001928E-02 0. -1.
</event>
<event>
 5   0  0.6393633E-06  0.2904632E+04  0.7818609E-02  0.8271501E-01
       -2   -1    0    0    0  501  0.00000000000E+00  0.00000000000E+00  0.16590943781E+04  0.16590943781E+04  0.25500000920E-02 0.  1.
        2   -1    0    0  501    0  0.00000000000E+00  0.00000000000E+00 -0.12713092429E+04  0.12713092429E+04  0.25500000920E-02 0. -1.
    10030    2    1    2    0    0  0.00000000000E+00  0.00000000000E+00  0.38778513516E+03  0.29304036210E+04  0.29046321748E+04 0.  0.
        4    1    3    3  502    0 -0.29507483583E+03 -0.58440603325E+03 -0.11139972845E+04  0.12921265933E+04  0.12699999809E+01 0. -1.
       -4    1    3    3    0  502  0.29507483583E+03  0.58440603325E+03  0.15017824197E+04  0.16382770276E+04  0.12699999809E+01 0.  1.
</event>
<event>
 5   0  0.2508094E-06  0.2900679E+04  0.7818609E-02  0.8272675E-01
       -1   -1    0    0    0  501  0.00000000000E+00  0.00000000000E+00  0.16388006615E+04  0.16388006615E+04  0.50400001928E-02 0.  1.
        1   -1    0    0  501    0  0.00000000000E+00  0.00000000000E+00 -0.12835516898E+04  0.12835516898E+04  0.50400001928E-02 0. -1.
    10030    2    1    2    0    0  0.00000000000E+00  0.00000000000E+00  0.35524897170E+03  0.29223523513E+04  0.29006794779E+04 0.  0.
        3    1    3    3  502    0  0.10425072425E+04 -0.43529848590E+03 -0.73866487754E+03  0.13497895888E+04  0.10100000352E+00 0. -1.
       -3    1    3    3    0  502 -0.10425072425E+04  0.43529848590E+03  0.10939138492E+04  0.15725627626E+04  0.10100000352E+00 0.  1.
</event>
<event>
 5   0  0.6612533E-06  0.2900459E+04  0.7818609E-02  0.8272741E-01
        2   -1    0    0  501    0  0.00000000000E+00  0.00000000000E+00  0.27142108926E+04  0.27142108926E+04  0.25500000920E-02 0. -1.
       -2   -1    0    0    0  501  0.00000000000E+00  0.00000000000E+00 -0.77487210354E+03  0.77487210355E+03  0.25500000920E-02 0.  1.
    10030    2    1    2    0    0  0.00000000000E+00  0.00000000000E+00  0.19393387891E+04  0.34890829961E+04  0.29004594835E+04 0.  0.
        3    1    3    3  502    0  0.13243285495E+04  0.48792598292E+03  0.56844121569E+03  0.15215266339E+04  0.10100000352E+00 0. -1.
       -3    1    3    3    0  502 -0.13243285495E+04 -0.48792598292E+03  0.13708975734E+04  0.19675563622E+04  0.10100000352E+00 0.  1.
</event>
<event>
 5   0  0.2508094E-06  0.2873140E+04  0.7818609E-02  0.8280914E-01
       -1   -1    0    0    0  501  0.00000000000E+00  0.00000000000E+00  0.18886625484E+04  0.18886625485E+04  0.50400001928E-02 0.  1.
        1   -1    0    0  501    0  0.00000000000E+00  0.00000000000E+00 -0.10926954924E+04  0.10926954924E+04  0.50400001928E-02 0. -1.
    10030    2    1    2    0    0  0.00000000000E+00  0.00000000000E+00  0.79596705607E+03  0.29813580408E+04  0.28731397831E+04 0.  0.
        3    1    3    3  502    0  0.39508035952E+03  0.13566007148E+04  0.66713534462E+03  0.15625375413E+04  0.10100000352E+00 0.  1.
       -3    1    3    3    0  502 -0.39508035952E+03 -0.13566007148E+04  0.12883171145E+03  0.14188204995E+04  0.10100000352E+00 0. -1.
</event>
<event>
 5   0  0.6393633E-06  0.2921440E+04  0.7818609E-02  0.8266527E-01
       -2   -1    0    0    0  501  0.00000000000E+00  0.00000000000E+00  0.17980186065E+04  0.17980186065E+04  0.25500000920E-02 0. -1.
        2   -1    0    0  501    0  0.00000000000E+00  0.00000000000E+00 -0.11866968523E+04  0.11866968523E+04  0.25500000920E-02 0.  1.
    10030    2    1    2    0    0  0.00000000000E+00  0.00000000000E+00  0.61132175424E+03  0.29847154588E+04  0.29214400700E+04 0.  0.
        4    1    3    3  502    0  0.91489770054E+03  0.10611076160E+04  0.72778562892E+03  0.15788162369E+04  0.12699999809E+01 0. -1.
       -4    1    3    3    0  502 -0.91489770054E+03 -0.10611076160E+04 -0.11646387468E+03  0.14058992219E+04  0.12699999809E+01 0.  1.
</event>
<event>
 5   0  0.6615403E-06  0.3013562E+04  0.7818609E-02  0.8239869E-01
        2   -1    0    0  501    0  0.00000000000E+00  0.00000000000E+00  0.18041976134E+04  0.18041976134E+04  0.25500000920E-02 0. -1.
       -2   -1    0    0    0  501  0.00000000000E+00  0.00000000000E+00 -0.12583929164E+04  0.12583929164E+04  0.25500000920E-02 0.  1.
    10030    2    1    2    0    0  0.00000000000E+00  0.00000000000E+00  0.54580469702E+03  0.30625905299E+04  0.30135623415E+04 0.  0.
        2    1    3    3  502    0  0.14328513775E+04  0.46618277031E+03  0.27267211973E+03  0.15312542343E+04  0.25500000920E-02 0. -1.
       -2    1    3    3    0  502 -0.14328513775E+04 -0.46618277031E+03  0.27313257728E+03  0.15313362955E+04  0.25500000920E-02 0.  1.
</event>
<event>
 5   0  0.6513041E-06  0.2915370E+04  0.7818609E-02  0.8268319E-01
        2   -1    0    0  501    0  0.00000000000E+00  0.00000000000E+00  0.17111891983E+04  0.17111891984E+04  0.25500000920E-02 0. -1.
       -2   -1    0    0    0  501  0.00000000000E+00  0.00000000000E+00 -0.12417361881E+04  0.12417361881E+04  0.25500000920E-02 0.  1.
    10030    2    1    2    0    0  0.00000000000E+00  0.00000000000E+00  0.46945301022E+03  0.29529253865E+04  0.29153699953E+04 0.  0.
        1    1    3    3  502    0  0.13292123671E+04  0.51214383008E+03 -0.78692488199E+02  0.14266356673E+04  0.50400001928E-02 0.  1.
       -1    1    3    3    0  502 -0.13292123671E+04 -0.51214383008E+03  0.54814549842E+03  0.15262897192E+04  0.50400001928E-02 0. -1.
</event>
<event>
 5   0  0.6612533E-06  0.2898883E+04  0.7818609E-02  0.8273210E-01
        2   -1    0    0  501    0  0.00000000000E+00  0.00000000000E+00  0.13668854854E+04  0.13668854854E+04  0.25500000920E-02 0. -1.
       -2   -1    0    0    0  501  0.00000000000E+00  0.00000000000E+00 -0.15369840078E+04  0.15369840078E+04  0.25500000920E-02 0.  1.
    10030    2    1    2    0    0  0.00000000000E+00  0.00000000000E+00 -0.17009852241E+03  0.29038694932E+04  0.28988833240E+04 0.  0.
        3    1    3    3  502    0 -0.64340572849E+02  0.14388076530E+04 -0.24834483494E+03  0.14615000304E+04  0.10100000352E+00 0. -1.
       -3    1    3    3    0  502  0.64340572849E+02 -0.14388076530E+04  0.78246312535E+02  0.14423694628E+04  0.10100000352E+00 0.  1.
</event>
<event>
 5   0  0.6615403E-06  0.2919849E+04  0.7818609E-02  0.8266996E-01
        2   -1    0    0  501    0  0.00000000000E+00  0.00000000000E+00  0.12191842916E+04  0.12191842916E+04  0.25500000920E-02 0. -1.
       -2   -1    0    0    0  501  0.00000000000E+00  0.00000000000E+00 -0.17482007748E+04  0.17482007748E+04  0.25500000920E-02 0.  1.
    10030    2    1    2    0    0  0.00000000000E+00  0.00000000000E+00 -0.52901648321E+03  0.29673850665E+04  0.29198485737E+04 0.  0.
        2    1    3    3  502    0 -0.75207590020E+03 -0.10034046430E+04 -0.10243027123E+04  0.16191464059E+04  0.25500000920E-02 0.  1.
       -2    1    3    3    0  502  0.75207590020E+03  0.10034046430E+04  0.49528622913E+03  0.13482386606E+04  0.25500000920E-02 0. -1.
</event>
<event>
 5   0  0.2429358E-06  0.2890227E+04  0.7818609E-02  0.8275791E-01
        1   -1    0    0  501    0  0.00000000000E+00  0.00000000000E+00  0.89400210114E+03  0.89400210115E+03  0.50400001928E-02 0.  1.
       -1   -1    0    0    0  501  0.00000000000E+00  0.00000000000E+00 -0.23359603501E+04  0.23359603501E+04  0.50400001928E-02 0. -1.
    10030    2    1    2    0    0  0.00000000000E+00  0.00000000000E+00 -0.14419582490E+04  0.32299624513E+04  0.28902272999E+04 0.  0.
        2    1    3    3  502    0  0.12452159994E+03  0.87455879084E+03 -0.19990898396E+04  0.21855706107E+04  0.25500000920E-02 0. -1.
       -2    1    3    3    0  502 -0.12452159994E+03 -0.87455879084E+03  0.55713159059E+03  0.10443918406E+04  0.25500000920E-02 0.  1.
</event>
<event>
 5   0  0.2429358E-06  0.2902699E+04  0.7818609E-02  0.8272075E-01
        1   -1    0    0  501    0  0.00000000000E+00  0.00000000000E+00  0.22142159743E+04  0.22142159743E+04  0.50400001928E-02 0.  1.
       -1   -1    0    0    0  501  0.00000000000E+00  0.00000000000E+00 -0.95131454961E+03  0.95131454963E+03  0.50400001928E-02 0. -1.
    10030    2    1    2    0    0  0.00000000000E+00  0.00000000000E+00  0.12629014246E+04  0.31655305239E+04  0.29026993453E+04 0.  0.
        2    1    3    3  502    0  0.13186404517E+04 -0.31205806881E+03  0.64551829914E+02  0.13565986207E+04  0.25500000920E-02 0. -1.
       -2    1    3    3    0  502 -0.13186404517E+04  0.31205806881E+03  0.11983495947E+04  0.18089319032E+04  0.25500000920E-02 0.  1.
</event>
<event>
 5   0  0.2336512E-06  0.2908936E+04  0.7818609E-02  0.8270224E-01
       -1   -1    0    0    0  501  0.00000000000E+00  0.00000000000E+00  0.17258647170E+04  0.17258647171E+04  0.50400001928E-02 0. -1.
        1   -1    0    0  501    0  0.00000000000E+00  0.00000000000E+00 -0.12257490831E+04  0.12257490831E+04  0.50400001928E-02 0.  1.
    10030    2    1    2    0    0  0.00000000000E+00  0.00000000000E+00  0.50011563394E+03  0.29516138002E+04  0.29089359529E+04 0.  0.
        4    1    3    3  502    0 -0.17471293314E+03  0.64245240872E+03  0.15621677776E+04  0.16981282298E+04  0.12699999809E+01 0. -1.
       -4    1    3    3    0  502  0.17471293314E+03 -0.64245240872E+03 -0.10620521436E+04  0.12534855704E+04  0.12699999809E+01 0.  1.
</event>
<event>
 5   0  0.2348684E-06  0.2368998E+04  0.7818609E-02  0.8451202E-01
        1   -1    0    0  501    0  0.00000000000E+00  0.00000000000E+00  0.13468846251E+04  0.13468846251E+04  0.50400001928E-02 0. -1.
       -1   -1    0    0    0  501  0.00000000000E+00  0.00000000000E+00 -0.10416910784E+04  0.10416910784E+04  0.50400001928E-02 0.  1.
    10030    2    1    2    0    0  0.00000000000E+00  0.00000000000E+00  0.30519354669E+03  0.23885757035E+04  0.23689978452E+04 0.  0.
        5    1    3    3  502    0 -0.70286999039E+03 -0.84500609044E+03  0.59778177203E+03  0.12511701136E+04  0.46999998093E+01 0. -1.
       -5    1    3    3    0  502  0.70286999039E+03  0.84500609044E+03 -0.29258822534E+03  0.11374055899E+04  0.46999998093E+01 0.  1.
</event>
<event>
 5   0  0.2348684E-06  0.2770329E+04  0.7818609E-02  0.8312539E-01
        1   -1    0    0  501    0  0.00000000000E+00  0.00000000000E+00  0.69362184004E+03  0.69362184006E+03  0.50400001928E-02 0.  1.
       -1   -1    0    0    0  501  0.00000000000E+00  0.00000000000E+00 -0.27661778410E+04  0.27661778410E+04  0.50400001928E-02 0. -1.
    10030    2    1    2    0    0  0.00000000000E+00  0.00000000000E+00 -0.20725560009E+04  0.34597996810E+04  0.27703294851E+04 0.  0.
        5    1    3    3  502    0  0.12003874903E+04 -0.39674149917E+03 -0.32944767973E+03  0.13064806955E+04  0.46999998093E+01 0. -1.
       -5    1    3    3    0  502 -0.12003874903E+04  0.39674149917E+03 -0.17431083212E+04  0.21533189855E+04  0.46999998093E+01 0.  1.
</event>
<event>
 5   0  0.6612533E-06  0.2931246E+04  0.7818609E-02  0.8263641E-01
       -2   -1    0    0    0  501  0.00000000000E+00  0.00000000000E+00  0.14107883787E+04  0.14107883787E+04  0.25500000920E-02 0. -1.
        2   -1    0    0  501    0  0.00000000000E+00  0.00000000000E+00 -0.15225886647E+04  0.15225886647E+04  0.25500000920E-02 0.  1.
    10030    2    1    2    0    0  0.00000000000E+00  0.00000000000E+00 -0.11180028600E+03  0.29333770433E+04  0.29312457376E+04 0.  0.
        3    1    3    3  502    0 -0.31672436980E+03  0.28058579920E+03 -0.14601337539E+04  0.15202083103E+04  0.10100000352E+00 0.  1.
       -3    1    3    3    0  502  0.31672436980E+03 -0.28058579920E+03  0.13483334679E+04  0.14131687330E+04  0.10100000352E+00 0. -1.
</event>
<event>
 5   0  0.6612533E-06  0.2680367E+04  0.7818609E-02  0.8341403E-01
       -2   -1    0    0    0  501  0.00000000000E+00  0.00000000000E+00  0.84522317936E+03  0.84522317937E+03  0.25500000920E-02 0. -1.
        2   -1    0    0  501    0  0.00000000000E+00  0.00000000000E+00 -0.21249912980E+04  0.21249912980E+04  0.25500000920E-02 0.  1.
    10030    2    1    2    0    0  0.00000000000E+00  0.00000000000E+00 -0.12797681186E+04  0.29702144774E+04  0.26803670652E+04 0.  0.
        3    1    3    3  502    0 -0.11538091245E+04  0.65604437140E+03 -0.84547913514E+03  0.15736914219E+04  0.10100000352E+00 0.  1.
       -3    1    3    3    0  502  0.11538091245E+04 -0.65604437140E+03 -0.43428898350E+03  0.13965230555E+04  0.10100000352E+00 0. -1.
</event>
<event>
 5   0  0.2348684E-06  0.2885319E+04  0.7818609E-02  0.8277259E-01
        1   -1    0    0  501    0  0.00000000000E+00  0.00000000000E+00  0.14660098417E+04  0.14660098417E+04  0.50400001928E-02 0. -1.
       -1   -1    0    0    0  501  0.00000000000E+00  0.00000000000E+00 -0.14196809569E+04  0.14196809569E+04  0.50400001928E-02 0.  1.
    10030    2    1    2    0    0  0.00000000000E+00  0.00000000000E+00  0.46328884751E+02  0.28856907986E+04  0.28853188766E+04 0.  0.
        5    1    3    3  502    0  0.83375715558E+03  0.11568295478E+04 -0.19558404701E+03  0.14393334591E+04  0.46999998093E+01 0.  1.
       -5    1    3    3    0  502 -0.83375715558E+03 -0.11568295478E+04  0.24191293176E+03  0.14463573395E+04  0.46999998093E+01 0. -1.
</event>
<event>
 5   0  0.6513041E-06  0.2895182E+04  0.7818609E-02  0.8274312E-01
       -2   -1    0    0    0  501  0.00000000000E+00  0.00000000000E+00  0.69914107411E+03  0.69914107411E+03  0.25500000920E-02 0. -1.
        2   -1    0    0  501    0  0.00000000000E+00  0.00000000000E+00 -0.29972778417E+04  0.29972778417E+04  0.25500000920E-02 0.  1.
    10030    2    1    2    0    0  0.00000000000E+00  0.00000000000E+00 -0.22981367676E+04  0.36964189158E+04  0.28951822393E+04 0.  0.
        1    1    3    3  502    0  0.10004470626E+04 -0.92041686377E+03 -0.17841894017E+04  0.22430767596E+04  0.50400001928E-02 0.  1.
       -1    1    3    3    0  502 -0.10004470626E+04  0.92041686377E+03 -0.51394736581E+03  0.14533421562E+04  0.50400001928E-02 0. -1.
</event>
<event>
 5   0  0.2429358E-06  0.2909613E+04  0.7818609E-02  0.8270023E-01
       -1   -1    0    0    0  501  0.00000000000E+00  0.00000000000E+00  0.10468048447E+04  0.10468048447E+04  0.50400001928E-02 0. -1.
        1   -1    0    0  501    0  0.00000000000E+00  0.00000000000E+00 -0.20218307813E+04  0.20218307813E+04  0.50400001928E-02 0.  1.
    10030    2    1    2    0    0  0.00000000000E+00  0.00000000000E+00 -0.97502593661E+03  0.30686356260E+04  0.29096132094E+04 0.  0.
        2    1    3    3  502    0  0.88283630188E+03  0.77046385407E+03 -0.13968718121E+04  0.18232567965E+04  0.25500000920E-02 0.  1.
       -2    1    3    3    0  502 -0.88283630188E+03 -0.77046385407E+03  0.42184587552E+03  0.12453788295E+04  0.25500000920E-02 0. -1.
</event>
<event>
 5   0  0.6612533E-06  0.2919645E+04  0.7818609E-02  0.8267056E-01
       -2   -1    0    0    0  501  0.00000000000E+00  0.00000000000E+00  0.17048032379E+04  0.17048032379E+04  0.25500000920E-02 0. -1.
        2   -1    0    0  501    0  0.00000000000E+00  0.00000000000E+00 -0.12500454438E+04  0.12500454438E+04  0.25500000920E-02 0.  1.
    10030    2    1    2    0    0  0.00000000000E+00  0.00000000000E+00  0.45475779417E+03  0.29548486817E+04  0.29196448552E+04 0.  0.
        3    1    3    3  502    0  0.63029865837E+03  0.12644827277E+04  0.59907905825E+03  0.15346298236E+04  0.10100000352E+00 0.  1.
       -3    1    3    3    0  502 -0.63029865837E+03 -0.12644827277E+04 -0.14432126408E+03  0.14202188581E+04  0.10100000352E+00 0. -1.
</event>
<event>
 5   0  0.6393633E-06  0.2925131E+04  0.7818609E-02  0.8265439E-01
       -2   -1    0    0    0  501  0.00000000000E+00  0.00000000000E+00  0.78277839675E+03  0.78277839675E+03  0.25500000920E-02 0. -1.
        2   -1    0    0  501    0  0.00000000000E+00  0.00000000000E+00 -0.27326983280E+04  0.27326983280E+04  0.25500000920E-02 0.  1.
    10030    2    1    2    0    0  0.00000000000E+00  0.00000000000E+00 -0.19499199313E+04  0.35154767248E+04  0.29251305721E+04 0.  0.
        4    1    3    3  502    0  0.75638029762E+03 -0.76603208298E+03 -0.21648086439E+04  0.24177084986E+04  0.12699999809E+01 0.  1.
       -4    1    3    3    0  502 -0.75638029762E+03  0.76603208298E+03  0.21488871255E+03  0.10977682262E+04  0.12699999809E+01 0. -1.
</event>
<event>
 5   0  0.6733688E-06  0.2908932E+04  0.7818609E-02  0.8270225E-01
       -2   -1    0    0    0  501  0.00000000000E+00  0.00000000000E+00  0.19996603870E+04  0.19996603870E+04  0.25500000920E-02 0.  1.
        2   -1    0    0  501    0  0.00000000000E+00  0.00000000000E+00 -0.10579152128E+04  0.10579152128E+04  0.25500000920E-02 0. -1.
    10030    2    1    2    0    0  0.00000000000E+00  0.00000000000E+00  0.94174517420E+03  0.30575755999E+04  0.29089318616E+04 0.  0.
        5    1    3    3  502    0  0.70651043130E+03  0.10185128641E+04 -0.32887748194E+03  0.12824616688E+04  0.46999998093E+01 0. -1.
       -5    1    3    3    0  502 -0.70651043130E+03 -0.10185128641E+04  0.12706226561E+04  0.17751139310E+04  0.46999998093E+01 0.  1.
</event>
<event>
 5   0  0.2474769E-06  0.2934721E+04  0.7818609E-02  0.8262621E-01
        1   -1    0    0  501    0  0.00000000000E+00  0.00000000000E+00  0.17014408752E+04  0.17014408752E+04  0.50400001928E-02 0. -1.
       -1   -1    0    0    0  501  0.00000000000E+00  0.00000000000E+00 -0.12654841006E+04  0.12654841006E+04  0.50400001928E-02 0.  1.
    10030    2    1    2    0    0  0.00000000000E+00  0.00000000000E+00  0.43595677460E+03  0.29669249758E+04  0.29347206857E+04 0.  0.
        1    1    3    3  502    0 -0.61719066657E+03 -0.79476642798E+03 -0.86171503442E+03  0.13248134942E+04  0.50400001928E-02 0.  1.
       -1    1    3    3    0  502  0.61719066657E+03  0.79476642798E+03  0.12976718090E+04  0.16421114816E+04  0.50400001928E-02 0. -1.
</event>
<event>
 5   0  0.2508094E-06  0.2894908E+04  0.7818609E-02  0.8274394E-01
       -1   -1    0    0    0  501  0.00000000000E+00  0.00000000000E+00  0.14850505563E+04  0.14850505563E+04  0.50400001928E-02 0.  1.
        1   -1    0    0  501    0  0.00000000000E+00  0.00000000000E+00 -0.14108096476E+04  0.14108096476E+04  0.50400001928E-02 0. -1.
    10030    2    1    2    0    0  0.00000000000E+00  0.00000000000E+00  0.74240908690E+02  0.28958602039E+04  0.28949083938E+04 0.  0.
        3    1    3    3  502    0 -0.11449774963E+02 -0.29362472470E+03  0.14548997760E+04  0.14842775835E+04  0.10100000352E+00 0.  1.
       -3    1    3    3    0  502  0.11449774963E+02  0.29362472470E+03 -0.13806588673E+04  0.14115826205E+04  0.10100000352E+00 0. -1.
</event>
<event>
 5   0  0.2336512E-06  0.2899394E+04  0.7818609E-02  0.8273058E-01
        1   -1    0    0  501    0  0.00000000000E+00  0.00000000000E+00  0.14153268356E+04  0.14153268356E+04  0.50400001928E-02 0.  1.
       -1   -1    0    0    0  501  0.00000000000E+00  0.00000000000E+00 -0.14849021521E+04  0.14849021521E+04  0.50400001928E-02 0. -1.
    10030    2    1    2    0    0  0.00000000000E+00  0.00000000000E+00 -0.69575316553E+02  0.29002289877E+04  0.28993943258E+04 0.  0.
        4    1    3    3  502    0 -0.25534354477E+03  0.90322633420E+03  0.10703390206E+04  0.14236029533E+04  0.12699999809E+01 0.  1.
       -4    1    3    3    0  502  0.25534354477E+03 -0.90322633420E+03 -0.11399143371E+04  0.14766260344E+04  0.12699999809E+01 0. -1.
</event>
<event>
 5   0  0.2348684E-06  0.2727920E+04  0.7818609E-02  0.8326002E-01
        1   -1    0    0  501    0  0.00000000000E+00  0.00000000000E+00  0.24407023706E+04  0.24407023706E+04  0.50400001928E-02 0. -1.
       -1   -1    0    0    0  501  0.00000000000E+00  0.00000000000E+00 -0.76223405208E+03  0.76223405210E+03  0.50400001928E-02 0.  1.
    10030    2    1    2    0    0  0.00000000000E+00  0.00000000000E+00  0.16784683185E+04  0.32029364227E+04  0.27279196893E+04 0.  0.
        5    1    3    3  502    0  0.42432029925E+03  0.95255782187E+03  0.18715022625E+04  0.21424184766E+04  0.46999998093E+01 0. -1.
       -5    1    3    3    0  502 -0.42432029925E+03 -0.95255782187E+03 -0.19303394402E+03  0.10605179461E+04  0.46999998093E+01 0.  1.
</event>
<event>
 5   0  0.6612533E-06  0.2897348E+04  0.7818609E-02  0.8273667E-01
        2   -1    0    0  501    0  0.00000000000E+00  0.00000000000E+00  0.11088946339E+04  0.11088946339E+04  0.25500000920E-02 0.  1.
       -2   -1    0    0    0  501  0.00000000000E+00  0.00000000000E+00 -0.18925664440E+04  0.18925664440E+04  0.25500000920E-02 0. -1.
    10030    2    1    2    0    0  0.00000000000E+00  0.00000000000E+00 -0.78367181009E+03  0.30014610779E+04  0.28973482870E+04 0.  0.
        3    1    3    3  502    0 -0.10528177115E+02  0.88862930379E+03  0.79333933894E+03  0.11912851040E+04  0.10100000352E+00 0.  1.
       -3    1    3    3    0  502  0.10528177115E+02 -0.88862930379E+03 -0.15770111490E+04  0.18101759739E+04  0.10100000352E+00 0. -1.
</event>
<event>
 5   0  0.2429358E-06  0.2709525E+04  0.7818609E-02  0.8331921E-01
       -1   -1    0    0    0  501  0.00000000000E+00  0.00000000000E+00  0.10647028871E+04  0.10647028871E+04  0.50400001928E-02 0. -1.
        1   -1    0    0  501    0  0.00000000000E+00  0.00000000000E+00 -0.17238432311E+04  0.17238432311E+04  0.50400001928E-02 0.  1.
    10030    2    1    2    0    0  0.00000000000E+00  0.00000000000E+00 -0.65914034401E+03  0.27885461183E+04  0.27095245820E+04 0.  0.
        2    1    3    3  502    0  0.57028972350E+03  0.12085270975E+04 -0.10033492745E+03  0.13400877627E+04  0.25500000920E-02 0. -1.
       -2    1    3    3    0  502 -0.57028972350E+03 -0.12085270975E+04 -0.55880541656E+03  0.14484583555E+04  0.25500000920E-02 0.  1.
</event>
<event>
 5   0  0.2336512E-06  0.2894480E+04  0.7818609E-02  0.8274522E-01
        1   -1    0    0  501    0  0.00000000000E+00  0.00000000000E+00  0.25315481095E+04  0.25315481095E+04  0.50400001928E-02 0. -1.
       -1   -1    0    0    0  501  0.00000000000E+00  0.00000000000E+00 -0.82736061356E+03  0.82736061358E+03  0.50400001928E-02 0.  1.
    10030    2    1    2    0    0  0.00000000000E+00  0.00000000000E+00  0.17041874959E+04  0.33589087231E+04  0.28944797095E+04 0.  0.
        4    1    3    3  502    0 -0.85039688596E+03  0.25527533166E+03  0.21783458535E+04  0.23523461967E+04  0.12699999809E+01 0. -1.
       -4    1    3    3    0  502  0.85039688596E+03 -0.25527533166E+03 -0.47415835757E+03  0.10065625264E+04  0.12699999809E+01 0.  1.
</event>
<event>
 5   0  0.2508094E-06  0.2917772E+04  0.7818609E-02  0.8267609E-01
        1   -1    0    0  501    0  0.00000000000E+00  0.00000000000E+00  0.81070557608E+03  0.81070557609E+03  0.50400001928E-02 0.  1.
       -1   -1    0    0    0  501  0.00000000000E+00  0.00000000000E+00 -0.26253043269E+04  0.26253043269E+04  0.50400001928E-02 0. -1.
    10030    2    1    2    0    0  0.00000000000E+00  0.00000000000E+00 -0.18145987509E+04  0.34360099030E+04  0.29177723398E+04 0.  0.
        3    1    3    3  502    0  0.81304589722E+03  0.99328894718E+03 -0.90844735383E+02  0.12868252949E+04  0.10100000352E+00 0.  1.
       -3    1    3    3    0  502 -0.81304589722E+03 -0.99328894718E+03 -0.17237540155E+04  0.21491846081E+04  0.10100000352E+00 0. -1.
</event>
<event>
 5   0  0.2336512E-06  0.2888300E+04  0.7818609E-02  0.8276367E-01
       -1   -1    0    0    0  501  0.00000000000E+00  0.00000000000E+00  0.11684195643E+04  0.11684195643E+04  0.50400001928E-02 0. -1.
        1   -1    0    0  501    0  0.00000000000E+00  0.00000000000E+00 -0.17849483892E+04  0.17849483892E+04  0.50400001928E-02 0.  1.
    10030    2    1    2    0    0  0.00000000000E+00  0.00000000000E+00 -0.61652882495E+03  0.29533679535E+04  0.28882995822E+04 0.  0.
        4    1    3    3  502    0 -0.11910861214E+04  0.33458123720E+03 -0.10699870623E+04  0.16356970011E+04  0.12699999809E+01 0.  1.
       -4    1    3    3    0  502  0.11910861214E+04 -0.33458123720E+03  0.45345823738E+03  0.13176709524E+04  0.12699999809E+01 0. -1.
</event>
<event>
 5   0  0.6615403E-06  0.2914028E+04  0.7818609E-02  0.8268716E-01
        2   -1    0    0  501    0  0.00000000000E+00  0.00000000000E+00  0.16555362241E+04  0.16555362241E+04  0.25500000920E-02 0.  1.
       -2   -1    0    0    0  501  0.00000000000E+00  0.00000000000E+00 -0.12822977537E+04  0.12822977537E+04  0.25500000920E-02 0. -1.
    10030    2    1    2    0    0  0.00000000000E+00  0.00000000000E+00  0.37323847044E+03  0.29378339778E+04  0.29140284016E+04 0.  0.
        2    1    3    3  502    0  0.80712132394E+02  0.38023432186E+03  0.16022978030E+04  0.16487725244E+04  0.25500000920E-02 0.  1.
       -2    1    3    3    0  502 -0.80712132394E+02 -0.38023432186E+03 -0.12290593325E+04  0.12890614534E+04  0.25500000920E-02 0. -1.
</event>
<event>
 5   0  0.6733688E-06  0.2962939E+04  0.7818609E-02  0.8254394E-01
       -2   -1    0    0    0  501  0.00000000000E+00  0.00000000000E+00  0.23685081780E+04  0.23685081780E+04  0.25500000920E-02 0.  1.
        2   -1    0    0  501    0  0.00000000000E+00  0.00000000000E+00 -0.92663872984E+03  0.92663872984E+03  0.25500000920E-02 0. -1.
    10030    2    1    2    0    0  0.00000000000E+00  0.00000000000E+00  0.14418694481E+04  0.32951469078E+04  0.29629386829E+04 0.  0.
        5    1    3    3  502    0 -0.10079166049E+03  0.10138393493E+04 -0.47515156122E+03  0.11241976165E+04  0.46999998093E+01 0. -1.
       -5    1    3    3    0  502  0.10079166049E+03 -0.10138393493E+04  0.19170210094E+04  0.21709492913E+04  0.46999998093E+01 0.  1.
</event>
<event>
 5   0  0.6612533E-06  0.2914457E+04  0.7818609E-02  0.8268589E-01
       -2   -1    0    0    0  501  0.00000000000E+00  0.00000000000E+00  0.10541680784E+04  0.10541680784E+04  0.25500000920E-02 0. -1.
        2   -1    0    0  501    0  0.00000000000E+00  0.00000000000E+00 -0.20143983091E+04  0.20143983091E+04  0.25500000920E-02 0.  1.
    10030    2    1    2    0    0  0.00000000000E+00  0.00000000000E+00 -0.96023023064E+03  0.30685663875E+04  0.29144566524E+04 0.  0.
        3    1    3    3  502    0  0.85945077776E+03  0.11572542840E+04 -0.25522954229E+03  0.14639109422E+04  0.10100000352E+00 0. -1.
       -3    1    3    3    0  502 -0.85945077776E+03 -0.11572542840E+04 -0.70500068836E+03  0.16046554453E+04  0.10100000352E+00 0.  1.
</event>
<event>
 5   0  0.6733688E-06  0.2901401E+04  0.7818609E-02  0.8272461E-01
       -2   -1    0    0    0  501  0.00000000000E+00  0.00000000000E+00  0.10028098001E+04  0.10028098001E+04  0.25500000920E-02 0.  1.
        2   -1    0    0  501    0  0.00000000000E+00  0.00000000000E+00 -0.20986358864E+04  0.20986358864E+04  0.25500000920E-02 0. -1.
    10030    2    1    2    0    0  0.00000000000E+00  0.00000000000E+00 -0.10958260863E+04  0.31014456865E+04  0.29014014777E+04 0.  0.
        5    1    3    3  502    0 -0.31323061898E+03  0.10096979022E+04  0.51401362188E+03  0.11755149373E+04  0.46999998093E+01 0.  1.
       -5    1    3    3    0  502  0.31323061898E+03 -0.10096979022E+04 -0.16098397082E+04  0.19259307492E+04  0.46999998093E+01 0. -1.
</event>
<event>
 5   0  0.2336512E-06  0.2899566E+04  0.7818609E-02  0.8273007E-01
        1   -1    0    0  501    0  0.00000000000E+00  0.00000000000E+00  0.22992196640E+04  0.22992196640E+04  0.50400001928E-02 0. -1.
       -1   -1    0    0    0  501  0.00000000000E+00  0.00000000000E+00 -0.91416709851E+03  0.91416709852E+03  0.50400001928E-02 0.  1.
    10030    2    1    2    0    0  0.00000000000E+00  0.00000000000E+00  0.13850525655E+04  0.32133867625E+04  0.28995661531E+04 0.  0.
        4    1    3    3  502    0 -0.59589798288E+02 -0.67960567910E+03 -0.72516591901E+03  0.99563148108E+03  0.12699999809E+01 0.  1.
       -4    1    3    3    0  502  0.59589798288E+02  0.67960567910E+03  0.21102184845E+04  0.22177552814E+04  0.12699999809E+01 0. -1.
</event>
<event>
 5   0  0.2348684E-06  0.3043376E+04  0.7818609E-02  0.8231452E-01
        1   -1    0    0  501    0  0.00000000000E+00  0.00000000000E+00  0.16363949886E+04  0.16363949886E+04  0.50400001928E-02 0.  1.
       -1   -1    0    0    0  501  0.00000000000E+00  0.00000000000E+00 -0.14150218357E+04  0.14150218357E+04  0.50400001928E-02 0. -1.
    10030    2    1    2    0    0  0.00000000000E+00  0.00000000000E+00  0.22137315293E+03  0.30514168243E+04  0.30433761783E+04 0.  0.
        5    1    3    3  502    0 -0.90018203489E+02 -0.13184182276E+04  0.86712177012E+03  0.15805860160E+04  0.46999998093E+01 0.  1.
       -5    1    3    3    0  502  0.90018203489E+02  0.13184182276E+04 -0.64574861719E+03  0.14708308082E+04  0.46999998093E+01 0. -1.
</event>
<event>
 5   0  0.2508094E-06  0.2605216E+04  0.7818609E-02  0.8366432E-01
        1   -1    0    0  501    0  0.00000000000E+00  0.00000000000E+00  0.25298261933E+04  0.25298261933E+04  0.50400001928E-02 0. -1.
       -1   -1    0    0    0  501  0.00000000000E+00  0.00000000000E+00 -0.67071303601E+03  0.67071303603E+03  0.50400001928E-02 0.  1.
    10030    2    1    2    0    0  0.00000000000E+00  0.00000000000E+00  0.18591131573E+04  0.32005392294E+04  0.26052158504E+04 0.  0.
        3    1    3    3  502    0 -0.10400398117E+04  0.44543235348E+02  0.18915062639E+04  0.21590421178E+04  0.10100000352E+00 0. -1.
       -3    1    3    3    0  502  0.10400398117E+04 -0.44543235348E+02 -0.32393106619E+02  0.10414971115E+04  0.10100000352E+00 0.  1.
</event>
<event>
 5   0  0.2348684E-06  0.2872322E+04  0.7818609E-02  0.8281161E-01
        1   -1    0    0  501    0  0.00000000000E+00  0.00000000000E+00  0.70152376058E+03  0.70152376060E+03  0.50400001928E-02 0. -1.
       -1   -1    0    0    0  501  0.00000000000E+00  0.00000000000E+00 -0.29401113483E+04  0.29401113483E+04  0.50400001928E-02 0.  1.
    10030    2    1    2    0    0  0.00000000000E+00  0.00000000000E+00 -0.22385875877E+04  0.36416351089E+04  0.28723216879E+04 0.  0.
        5    1    3    3  502    0  0.11603325847E+04  0.28996333876E+03 -0.21272722304E+04  0.24404425166E+04  0.46999998093E+01 0.  1.
       -5    1    3    3    0  502 -0.11603325847E+04 -0.28996333876E+03 -0.11131535739E+03  0.12011925923E+04  0.46999998093E+01 0. -1.
</event>
<event>
 5   0  0.6615403E-06  0.2918613E+04  0.7818609E-02  0.8267361E-01
        2   -1    0    0  501    0  0.00000000000E+00  0.00000000000E+00  0.22974603805E+04  0.22974603805E+04  0.25500000920E-02 0.  1.
       -2   -1    0    0    0  501  0.00000000000E+00  0.00000000000E+00 -0.92692569388E+03  0.92692569388E+03  0.25500000920E-02 0. -1.
    10030    2    1    2    0    0  0.00000000000E+00  0.00000000000E+00  0.13705346866E+04  0.32243860743E+04  0.29186127234E+04 0.  0.
        2    1    3    3  502    0 -0.42368595115E+03  0.12491119987E+04  0.13750032583E+04  0.19053672956E+04  0.25500000920E-02 0.  1.
       -2    1    3    3    0  502  0.42368595115E+03 -0.12491119987E+04 -0.44685717482E+01  0.13190187788E+04  0.25500000920E-02 0. -1.
</event>
<event>
 5   0  0.6612533E-06  0.2873421E+04  0.7818609E-02  0.8280830E-01
        2   -1    0    0  501    0  0.00000000000E+00  0.00000000000E+00  0.17163969095E+04  0.17163969095E+04  0.25500000920E-02 0.  1.
       -2   -1    0    0    0  501  0.00000000000E+00  0.00000000000E+00 -0.12025985499E+04  0.12025985499E+04  0.25500000920E-02 0. -1.
    10030    2    1    2    0    0  0.00000000000E+00  0.00000000000E+00  0.51379835963E+03  0.29189954594E+04  0.28734205640E+04 0.  0.
        3    1    3    3  502    0  0.13357756477E+04  0.33594556505E+03  0.67201281537E+03  0.15325655737E+04  0.10100000352E+00 0. -1.
       -3    1    3    3    0  502 -0.13357756477E+04 -0.33594556505E+03 -0.15821445575E+03  0.13864298856E+04  0.10100000352E+00 0.  1.
</event>
<event>
 5   0  0.6612533E-06  0.2803800E+04  0.7818609E-02  0.8302090E-01
        2   -1    0    0  501    0  0.00000000000E+00  0.00000000000E+00  0.16928542946E+04  0.16928542946E+04  0.25500000920E-02 0.  1.
       -2   -1    0    0    0  501  0.00000000000E+00  0.00000000000E+00 -0.11609523751E+04  0.11609523751E+04  0.25500000920E-02 0. -1.
    10030    2    1    2    0    0  0.00000000000E+00  0.00000000000E+00  0.53190191944E+03  0.28538066697E+04  0.28037997176E+04 0.  0.
        3    1    3    3  502    0  0.10400010703E+04 -0.93345393289E+03  0.15267939939E+03  0.14057914071E+04  0.10100000352E+00 0. -1.
       -3    1    3    3    0  502 -0.10400010703E+04  0.93345393289E+03  0.37922252005E+03  0.14480152627E+04  0.10100000352E+00 0.  1.
</event>
<event>
 5   0  0.2429358E-06  0.2897031E+04  0.7818609E-02  0.8273761E-01
       -1   -1    0    0    0  501  0.00000000000E+00  0.00000000000E+00  0.24872003169E+04  0.24872003170E+04  0.50400001928E-02 0. -1.
        1   -1    0    0  501    0  0.00000000000E+00  0.00000000000E+00 -0.84359809706E+03  0.84359809707E+03  0.50400001928E-02 0.  1.
    10030    2    1    2    0    0  0.00000000000E+00  0.00000000000E+00  0.16436022199E+04  0.33307984140E+04  0.28970312076E+04 0.  0.
        2    1    3    3  502    0  0.12293177995E+03 -0.12686483477E+04  0.16130418387E+04  0.20558416345E+04  0.25500000920E-02 0. -1.
       -2    1    3    3    0  502 -0.12293177995E+03  0.12686483477E+04  0.30560381162E+02  0.12749567795E+04  0.25500000920E-02 0.  1.
</event>
<event>
 5   0  0.6393633E-06  0.2921398E+04  0.7818609E-02  0.8266539E-01
       -2   -1    0    0    0  501  0.00000000000E+00  0.00000000000E+00  0.14025097810E+04  0.14025097810E+04  0.25500000920E-02 0. -1.
        2   -1    0    0  501    0  0.00000000000E+00  0.00000000000E+00 -0.15213028605E+04  0.15213028605E+04  0.25500000920E-02 0.  1.
    10030    2    1    2    0    0  0.00000000000E+00  0.00000000000E+00 -0.11879307946E+03  0.29238126415E+04  0.29213983923E+04 0.  0.
        4    1    3    3  502    0 -0.10600362889E+04  0.91360847916E+03 -0.47841082373E+03  0.14789306664E+04  0.12699999809E+01 0.  1.
       -4    1    3    3    0  502  0.10600362889E+04 -0.91360847916E+03  0.35961774427E+03  0.14448819750E+04  0.12699999809E+01 0. -1.
</event>
<event>
 5   0  0.6612533E-06  0.2888849E+04  0.7818609E-02  0.8276203E-01
        2   -1    0    0  501    0  0.00000000000E+00  0.00000000000E+00  0.15604089901E+04  0.15604089901E+04  0.25500000920E-02 0.  1.
       -2   -1    0    0    0  501  0.00000000000E+00  0.00000000000E+00 -0.13370614374E+04  0.13370614374E+04  0.25500000920E-02 0. -1.
    10030    2    1    2    0    0  0.00000000000E+00  0.00000000000E+00  0.22334755276E+03  0.28974704275E+04  0.28888493815E+04 0.  0.
        3    1    3    3  502    0 -0.39290867201E+03 -0.63076475075E+03 -0.11306190008E+04  0.13529747708E+04  0.10100000352E+00 0. -1.
       -3    1    3    3    0  502  0.39290867201E+03  0.63076475075E+03  0.13539665535E+04  0.15444956567E+04  0.10100000352E+00 0.  1.
</event>
<event>
 5   0  0.6612533E-06  0.2908917E+04  0.7818609E-02  0.8270229E-01
       -2   -1    0    0    0  501  0.00000000000E+00  0.00000000000E+00  0.13439867244E+04  0.13439867244E+04  0.25500000920E-02 0. -1.
        2   -1    0    0  501    0  0.00000000000E+00  0.00000000000E+00 -0.15740110218E+04  0.15740110218E+04  0.25500000920E-02 0.  1.
    10030    2    1    2    0    0  0.00000000000E+00  0.00000000000E+00 -0.23002429731E+03  0.29179977462E+04  0.29089172675E+04 0.  0.
        3    1    3    3  502    0  0.11095506740E+04 -0.38687349698E+02  0.82752215554E+03  0.13846993671E+04  0.10100000352E+00 0. -1.
       -3    1    3    3    0  502 -0.11095506740E+04  0.38687349698E+02 -0.10575464529E+04  0.15332983791E+04  0.10100000352E+00 0.  1.
</event>
<event>
 5   0  0.6612533E-06  0.2941026E+04  0.7818609E-02  0.8260775E-01
        2   -1    0    0  501    0  0.00000000000E+00  0.00000000000E+00  0.18673748475E+04  0.18673748475E+04  0.25500000920E-02 0. -1.
       -2   -1    0    0    0  501  0.00000000000E+00  0.00000000000E+00 -0.11579941009E+04  0.11579941009E+04  0.25500000920E-02 0.  1.
    10030    2    1    2    0    0  0.00000000000E+00  0.00000000000E+00  0.70938074664E+03  0.30253689484E+04  0.29410263906E+04 0.  0.
        3    1    3    3  502    0 -0.41162967712E+03 -0.97150142883E+03 -0.69896662754E+03  0.12656256848E+04  0.10100000352E+00 0.  1.
       -3    1    3    3    0  502  0.41162967712E+03  0.97150142883E+03  0.14083473742E+04  0.17597432636E+04  0.10100000352E+00 0. -1.
</event>
<event>
 5   0  0.6733688E-06  0.2833861E+04  0.7818609E-02  0.8292832E-01
        2   -1    0    0  501    0  0.00000000000E+00  0.00000000000E+00  0.13110616409E+04  0.13110616409E+04  0.25500000920E-02 0. -1.
       -2   -1    0    0    0  501  0.00000000000E+00  0.00000000000E+00 -0.15313486285E+04  0.15313486285E+04  0.25500000920E-02 0.  1.
    10030    2    1    2    0    0  0.00000000000E+00  0.00000000000E+00 -0.22028698755E+03  0.28424102694E+04  0.28338612851E+04 0.  0.
        5    1    3    3  502    0 -0.71929813899E+03 -0.26556538943E+03 -0.13052729914E+04  0.15138277514E+04  0.46999998093E+01 0.  1.
       -5    1    3    3    0  502  0.71929813899E+03  0.26556538943E+03  0.10849860038E+04  0.13285825181E+04  0.46999998093E+01 0. -1.
</event>
<event>
 5   0  0.2508094E-06  0.2956164E+04  0.7818609E-02  0.8256361E-01
       -1   -1    0    0    0  501  0.00000000000E+00  0.00000000000E+00  0.12586937958E+04  0.12586937958E+04  0.50400001928E-02 0.  1.
        1   -1    0    0  501    0  0.00000000000E+00  0.00000000000E+00 -0.17357087140E+04  0.17357087140E+04  0.50400001928E-02 0. -1.
    10030    2    1    2    0    0  0.00000000000E+00  0.00000000000E+00 -0.47701491818E+03  0.29944025098E+04  0.29561635880E+04 0.  0.
        3    1    3    3  502    0  0.16880233633E+02  0.44804357663E+03 -0.16651641239E+04  0.17244708054E+04  0.10100000352E+00 0. -1.
       -3    1    3    3    0  502 -0.16880233633E+02 -0.44804357663E+03  0.11881492057E+04  0.12699317045E+04  0.10100000352E+00 0.  1.
</event>
<event>
 5   0  0.2429358E-06  0.2900523E+04  0.7818609E-02  0.8272722E-01
        1   -1    0    0  501    0  0.00000000000E+00  0.00000000000E+00  0.19466858246E+04  0.19466858246E+04  0.50400001928E-02 0.  1.
       -1   -1    0    0    0  501  0.00000000000E+00  0.00000000000E+00 -0.10804301435E+04  0.10804301435E+04  0.50400001928E-02 0. -1.
    10030    2    1    2    0    0  0.00000000000E+00  0.00000000000E+00  0.86625568108E+03  0.30271159681E+04  0.29005227424E+04 0.  0.
        2    1    3    3  502    0  0.83447516466E+03  0.69473025873E+03  0.14364713703E+04  0.18006801299E+04  0.25500000920E-02 0.  1.
       -2    1    3    3    0  502 -0.83447516466E+03 -0.69473025873E+03 -0.57021568917E+03  0.12264358381E+04  0.25500000920E-02 0. -1.
</event>
<event>
 5   0  0.2336512E-06  0.2969084E+04  0.7818609E-02  0.8252615E-01
       -1   -1    0    0    0  501  0.00000000000E+00  0.00000000000E+00  0.17540462519E+04  0.17540462519E+04  0.50400001928E-02 0. -1.
        1   -1    0    0  501    0  0.00000000000E+00  0.00000000000E+00 -0.12564460121E+04  0.12564460121E+04  0.50400001928E-02 0.  1.
    10030    2    1    2    0    0  0.00000000000E+00  0.00000000000E+00  0.49760023982E+03  0.30104922641E+04  0.29690836420E+04 0.  0.
        4    1    3    3  502    0 -0.54386182251E+02  0.13537643145E+04  0.86408036929E+03  0.16069449815E+04  0.12699999809E+01 0. -1.
       -4    1    3    3    0  502  0.54386182251E+02 -0.13537643145E+04 -0.36648012947E+03  0.14035472826E+04  0.12699999809E+01 0.  1.
</event>
<event>
 5   0  0.6612533E-06  0.2846854E+04  0.7818609E-02  0.8288868E-01
        2   -1    0    0  501    0  0.00000000000E+00  0.00000000000E+00  0.21953270874E+04  0.21953270874E+04  0.25500000920E-02 0. -1.
       -2   -1    0    0    0  501  0.00000000000E+00  0.00000000000E+00 -0.92293523222E+03  0.92293523222E+03  0.25500000920E-02 0.  1.
    10030    2    1    2    0    0  0.00000000000E+00  0.00000000000E+00  0.12723918552E+04  0.31182623196E+04  0.28468542043E+04 0.  0.
        3    1    3    3  502    0  0.63818226924E+03  0.72214737948E+03  0.17836206719E+04  0.20273322761E+04  0.10100000352E+00 0. -1.
       -3    1    3    3    0  502 -0.63818226924E+03 -0.72214737948E+03 -0.51122881673E+03  0.10909300435E+04  0.10100000352E+00 0.  1.
</event>
<event>
 5   0  0.6612533E-06  0.2892425E+04  0.7818609E-02  0.8275135E-01
        2   -1    0    0  501    0  0.00000000000E+00  0.00000000000E+00  0.15201205932E+04  0.15201205932E+04  0.25500000920E-02 0.  1.
       -2   -1    0    0    0  501  0.00000000000E+00  0.00000000000E+00 -0.13758982404E+04  0.13758982404E+04  0.25500000920E-02 0. -1.
    10030    2    1    2    0    0  0.00000000000E+00  0.00000000000E+00  0.14422235282E+03  0.28960188337E+04  0.28924254524E+04 0.  0.
        3    1    3    3  502    0  0.57230203478E+03  0.19549814737E+03  0.13874334871E+04  0.15135127472E+04  0.10100000352E+00 0.  1.
       -3    1    3    3    0  502 -0.57230203478E+03 -0.19549814737E+03 -0.12432111342E+04  0.13825060865E+04  0.10100000352E+00 0. -1.
</event>
<event>
 5   0  0.6513041E-06  0.2866444E+04  0.7818609E-02  0.8282932E-01
       -2   -1    0    0    0  501  0.00000000000E+00  0.00000000000E+00  0.16700151921E+04  0.16700151921E+04  0.25500000920E-02 0. -1.
        2   -1    0    0  501    0  0.00000000000E+00  0.00000000000E+00 -0.12300037486E+04  0.12300037486E+04  0.25500000920E-02 0.  1.
    10030    2    1    2    0    0  0.00000000000E+00  0.00000000000E+00  0.44001144344E+03  0.29000189407E+04  0.28664437525E+04 0.  0.
        1    1    3    3  502    0  0.10203754637E+04 -0.87736737460E+03 -0.27890876461E+03  0.13743106257E+04  0.50400001928E-02 0.  1.
       -1    1    3    3    0  502 -0.10203754637E+04  0.87736737460E+03  0.71892020804E+03  0.15257083150E+04  0.50400001928E-02 0. -1.
</event>
<event>
 5   0  0.2474769E-06  0.2910003E+04  0.7818609E-02  0.8269907E-01
        1   -1    0    0  501    0  0.00000000000E+00  0.00000000000E+00  0.12344559536E+04  0.12344559536E+04  0.50400001928E-02 0.  1.
       -1   -1    0    0    0  501  0.00000000000E+00  0.00000000000E+00 -0.17149498678E+04  0.17149498678E+04  0.50400001928E-02 0. -1.
    10030    2    1    2    0    0  0.00000000000E+00  0.00000000000E+00 -0.48049391412E+03  0.29494058214E+04  0.29100034876E+04 0.  0.
        1    1    3    3  502    0 -0.25588377949E+02  0.10782680286E+04  0.74955876159E+03  0.13134515764E+04  0.50400001928E-02 0.  1.
       -1    1    3    3    0  502  0.25588377949E+02 -0.10782680286E+04 -0.12300526757E+04  0.16359542450E+04  0.50400001928E-02 0. -1.
</event>
<event>
 5   0  0.6615403E-06  0.2941268E+04  0.7818609E-02  0.8260704E-01
       -2   -1    0    0    0  501  0.00000000000E+00  0.00000000000E+00  0.14468946213E+04  0.14468946213E+04  0.25500000920E-02 0.  1.
        2   -1    0    0  501    0  0.00000000000E+00  0.00000000000E+00 -0.14947624533E+04  0.14947624533E+04  0.25500000920E-02 0. -1.
    10030    2    1    2    0    0  0.00000000000E+00  0.00000000000E+00 -0.47867831986E+02  0.29416570746E+04  0.29412675865E+04 0.  0.
        2    1    3    3  502    0  0.71250631930E+03 -0.25036534176E+03 -0.12860105633E+04  0.14913655582E+04  0.25500000920E-02 0. -1.
       -2    1    3    3    0  502 -0.71250631930E+03  0.25036534176E+03  0.12381427313E+04  0.14502915164E+04  0.25500000920E-02 0.  1.
</event>
<event>
 5   0  0.6612533E-06  0.3119941E+04  0.7818609E-02  0.8210287E-01
       -2   -1    0    0    0  501  0.00000000000E+00  0.00000000000E+00  0.86076594236E+03  0.86076594236E+03  0.25500000920E-02 0.  1.
        2   -1    0    0  501    0  0.00000000000E+00  0.00000000000E+00 -0.28271423633E+04  0.28271423633E+04  0.25500000920E-02 0. -1.
    10030    2    1    2    0    0  0.00000000000E+00  0.00000000000E+00 -0.19663764210E+04  0.36879083057E+04  0.31199409357E+04 0.  0.
        3    1    3    3  502    0  0.49810775865E+03  0.11835053156E+04  0.63913334203E+02  0.12856442337E+04  0.10100000352E+00 0.  1.
       -3    1    3    3    0  502 -0.49810775865E+03 -0.11835053156E+04 -0.20302897552E+04  0.24022640719E+04  0.10100000352E+00 0. -1.
</event>
<event>
 5   0  0.2474769E-06  0.2931113E+04  0.7818609E-02  0.8263680E-01
        1   -1    0    0  501    0  0.00000000000E+00  0.00000000000E+00  0.14146976682E+04  0.14146976682E+04  0.50400001928E-02 0.  1.
       -1   -1    0    0    0  501  0.00000000000E+00  0.00000000000E+00 -0.15182440716E+04  0.15182440716E+04  0.50400001928E-02 0. -1.
    10030    2    1    2    0    0  0.00000000000E+00  0.00000000000E+00 -0.10354640333E+03  0.29329417398E+04  0.29311133365E+04 0.  0.
        1    1    3    3  502    0  0.57089772272E+03  0.12879308572E+04 -0.45596359251E+03  0.14807406594E+04  0.50400001928E-02 0. -1.
       -1    1    3    3    0  502 -0.57089772272E+03 -0.12879308572E+04  0.35241718918E+03  0.14522010804E+04  0.50400001928E-02 0.  1.
</event>
<event>
 5   0  0.6393633E-06  0.2809170E+04  0.7818609E-02  0.8300427E-01
        2   -1    0    0  501    0  0.00000000000E+00  0.00000000000E+00  0.18180990030E+04  0.18180990030E+04  0.25500000920E-02 0. -1.
       -2   -1    0    0    0  501  0.00000000000E+00  0.00000000000E+00 -0.10851221600E+04  0.10851221600E+04  0.25500000920E-02 0.  1.
    10030    2    1    2    0    0  0.00000000000E+00  0.00000000000E+00  0.73297684303E+03  0.29032211631E+04  0.28091703525E+04 0.  0.
        4    1    3    3  502    0 -0.89444880893E+03  0.10657504370E+04  0.56526946282E+03  0.15017968718E+04  0.12699999809E+01 0. -1.
       -4    1    3    3    0  502  0.89444880893E+03 -0.10657504370E+04  0.16770738021E+03  0.14014242912E+04  0.12699999809E+01 0.  1.
</event>
<event>
 5   0  0.2159500E-06  0.2891844E+04  0.7818609E-02  0.8275308E-01
       -3   -1    0    0    0  501  0.00000000000E+00  0.00000000000E+00  0.12188220453E+04  0.12188220495E+04  0.10100000352E+00 0.  1.
        3   -1    0    0  501    0  0.00000000000E+00  0.00000000000E+00 -0.17153365129E+04  0.17153365159E+04  0.10100000352E+00 0. -1.
    10030    2    1    2    0    0  0.00000000000E+00  0.00000000000E+00 -0.49651446763E+03  0.29341585654E+04  0.28918436801E+04 0.  0.
        2    1    3    3  502    0 -0.97629682033E+03  0.83056435858E+03  0.43063528044E+03  0.13521979810E+04  0.25500000920E-02 0.  1.
       -2    1    3    3    0  502  0.97629682033E+03 -0.83056435858E+03 -0.92714974808E+03  0.15819605844E+04  0.25500000920E-02 0. -1.
</event>
<event>
 5   0  0.6733688E-06  0.2874053E+04  0.7818609E-02  0.8280640E-01
        2   -1    0    0  501    0  0.00000000000E+00  0.00000000000E+00  0.21104022647E+04  0.21104022647E+04  0.25500000920E-02 0. -1.
       -2   -1    0    0    0  501  0.00000000000E+00  0.00000000000E+00 -0.97850789596E+03  0.97850789597E+03  0.25500000920E-02 0.  1.
    10030    2    1    2    0    0  0.00000000000E+00  0.00000000000E+00  0.11318943688E+04  0.30889101607E+04  0.28740530821E+04 0.  0.
        5    1    3    3  502    0  0.71560601544E+03  0.99209639807E+03 -0.24453397931E+03  0.12474639031E+04  0.46999998093E+01 0.  1.
       -5    1    3    3    0  502 -0.71560601544E+03 -0.99209639807E+03  0.13764283481E+04  0.18414462576E+04  0.46999998093E+01 0. -1.
</event>
<event>
 5   0  0.6393633E-06  0.2905927E+04  0.7818609E-02  0.8271116E-01
       -2   -1    0    0    0  501  0.00000000000E+00  0.00000000000E+00  0.15973384764E+04  0.15973384764E+04  0.25500000920E-02 0.  1.
        2   -1    0    0  501    0  0.00000000000E+00  0.00000000000E+00 -0.13216381846E+04  0.13216381846E+04  0.25500000920E-02 0. -1.
    10030    2    1    2    0    0  0.00000000000E+00  0.00000000000E+00  0.27570029185E+03  0.29189766610E+04  0.29059274073E+04 0.  0.
        4    1    3    3  502    0  0.11738194868E+04 -0.62077076326E+03  0.73032366739E+03  0.15154480526E+04  0.12699999809E+01 0.  1.
       -4    1    3    3    0  502 -0.11738194868E+04  0.62077076326E+03 -0.45462337553E+03  0.14035286084E+04  0.12699999809E+01 0. -1.
</event>
<event>
 5   0  0.6612533E-06  0.2890650E+04  0.7818609E-02  0.8275665E-01
       -2   -1    0    0    0  501  0.00000000000E+00  0.00000000000E+00  0.83386133743E+03  0.83386133743E+03  0.25500000920E-02 0. -1.
        2   -1    0    0  501    0  0.00000000000E+00  0.00000000000E+00 -0.25051700280E+04  0.25051700280E+04  0.25500000920E-02 0.  1.
    10030    2    1    2    0    0  0.00000000000E+00  0.00000000000E+00 -0.16713086905E+04  0.33390313654E+04  0.28906500515E+04 0.  0.
        3    1    3    3  502    0  0.39236628498E+03 -0.59411409785E+03  0.61723963414E+03  0.94228851155E+03  0.10100000352E+00 0. -1.
       -3    1    3    3    0  502 -0.39236628498E+03  0.59411409785E+03 -0.22885483247E+04  0.23967428538E+04  0.10100000352E+00 0.  1.
</event>
<event>
 5   0  0.6612533E-06  0.2885432E+04  0.7818609E-02  0.8277225E-01
        2   -1    0    0  501    0  0.00000000000E+00  0.00000000000E+00  0.25079679101E+04  0.25079679101E+04  0.25500000920E-02 0. -1.
       -2   -1    0    0    0  501  0.00000000000E+00  0.00000000000E+00 -0.82992672548E+03  0.82992672549E+03  0.25500000920E-02 0.  1.
    10030    2    1    2    0    0  0.00000000000E+00  0.00000000000E+00  0.16780411846E+04  0.33378946356E+04  0.28854320961E+04 0.  0.
        3    1    3    3  502    0  0.36796925219E+03 -0.13331823624E+04  0.13140919030E+04  0.19077772726E+04  0.10100000352E+00 0. -1.
       -3    1    3    3    0  502 -0.36796925219E+03  0.13331823624E+04  0.36394928157E+03  0.14301173630E+04  0.10100000352E+00 0.  1.
</event>
<event>
 5   0  0.6393633E-06  0.2961238E+04  0.7818609E-02  0.8254887E-01
        2   -1    0    0  501    0  0.00000000000E+00  0.00000000000E+00  0.27607164552E+04  0.27607164552E+04  0.25500000920E-02 0.  1.
       -2   -1    0    0    0  501  0.00000000000E+00  0.00000000000E+00 -0.79408098585E+03  0.79408098586E+03  0.25500000920E-02 0. -1.
    10030    2    1    2    0    0  0.00000000000E+00  0.00000000000E+00  0.19666354694E+04  0.35547974411E+04  0.29612378793E+04 0.  0.
        4    1    3    3  502    0  0.80992567661E+03  0.59821727536E+02 -0.50284462685E+03  0.95520289592E+03  0.12699999809E+01 0. -1.
       -4    1    3    3    0  502 -0.80992567661E+03 -0.59821727536E+02  0.24694800962E+04  0.25995945452E+04  0.12699999809E+01 0.  1.
</event>
<event>
 5   0  0.6612533E-06  0.2868763E+04  0.7818609E-02  0.8282232E-01
        2   -1    0    0  501    0  0.00000000000E+00  0.00000000000E+00  0.18791895088E+04  0.18791895088E+04  0.25500000920E-02 0.  1.
       -2   -1    0    0    0  501  0.00000000000E+00  0.00000000000E+00 -0.10948604909E+04  0.10948604909E+04  0.25500000920E-02 0. -1.
    10030    2    1    2    0    0  0.00000000000E+00  0.00000000000E+00  0.78432901790E+03  0.29740499996E+04  0.28687630421E+04 0.  0.
        3    1    3    3  502    0  0.13040703937E+04  0.56924033307E+03  0.20436361161E+03  0.14374973546E+04  0.10100000352E+00 0. -1.
       -3    1    3    3    0  502 -0.13040703937E+04 -0.56924033307E+03  0.57996540628E+03  0.15365526451E+04  0.10100000352E+00 0.  1.
</event>
<event>
 5   0  0.2348684E-06  0.2937016E+04  0.7818609E-02  0.8261949E-01
        1   -1    0    0  501    0  0.00000000000E+00  0.00000000000E+00  0.13370156677E+04  0.13370156677E+04  0.50400001928E-02 0.  1.
       -1   -1    0    0    0  501  0.00000000000E+00  0.00000000000E+00 -0.16129324543E+04  0.16129324543E+04  0.50400001928E-02 0. -1.
    10030    2    1    2    0    0  0.00000000000E+00  0.00000000000E+00 -0.27591678656E+03  0.29499481220E+04  0.29370161473E+04 0.  0.
        5    1    3    3  502    0  0.10335775312E+04  0.52788361683E+03 -0.10416701848E+04  0.15595007181E+04  0.46999998093E+01 0.  1.
       -5    1    3    3    0  502 -0.10335775312E+04 -0.52788361683E+03  0.76575339822E+03  0.13904474039E+04  0.46999998093E+01 0. -1.
</event>
<event>
 5   0  0.6513041E-06  0.2874555E+04  0.7818609E-02  0.8280489E-01
        2   -1    0    0  501    0  0.00000000000E+00  0.00000000000E+00  0.22852009947E+04  0.22852009947E+04  0.25500000920E-02 0.  1.
       -2   -1    0    0    0  501  0.00000000000E+00  0.00000000000E+00 -0.90397595099E+03  0.90397595099E+03  0.25500000920E-02 0. -1.
    10030    2    1    2    0    0  0.00000000000E+00  0.00000000000E+00  0.13812250438E+04  0.31891769457E+04  0.28745550907E+04 0.  0.
        1    1    3    3  502    0  0.86315249804E+03 -0.10441158312E+04  0.12233298154E+04  0.18253070813E+04  0.50400001928E-02 0. -1.
       -1    1    3    3    0  502 -0.86315249804E+03  0.10441158312E+04  0.15789522831E+03  0.13638698644E+04  0.50400001928E-02 0.  1.
</event>
<event>
 5   0  0.2508094E-06  0.2861124E+04  0.7818609E-02  0.8284539E-01
        1   -1    0    0  501    0  0.00000000000E+00  0.00000000000E+00  0.20800789059E+04  0.20800789059E+04  0.50400001928E-02 0. -1.
       -1   -1    0    0    0  501  0.00000000000E+00  0.00000000000E+00 -0.98386075958E+03  0.98386075960E+03  0.50400001928E-02 0.  1.
    10030    2    1    2    0    0  0.00000000000E+00  0.00000000000E+00  0.10962181463E+04  0.30639396655E+04  0.28611242632E+04 0.  0.
        3    1    3    3  502    0  0.72178105134E+03  0.17173874015E+03  0.18579421427E+04  0.20006026833E+04  0.10100000352E+00 0. -1.
       -3    1    3    3    0  502 -0.72178105134E+03 -0.17173874015E+03 -0.76172399631E+03  0.10633369822E+04  0.10100000352E+00 0.  1.
</event>
<event>
 5   0  0.6393633E-06  0.2874986E+04  0.7818609E-02  0.8280359E-01
       -2   -1    0    0    0  501  0.00000000000E+00  0.00000000000E+00  0.99753868948E+03  0.99753868948E+03  0.25500000920E-02 0. -1.
        2   -1    0    0  501    0  0.00000000000E+00  0.00000000000E+00 -0.20714849934E+04  0.20714849934E+04  0.25500000920E-02 0.  1.
    10030    2    1    2    0    0  0.00000000000E+00  0.00000000000E+00 -0.10739463039E+04  0.30690236829E+04  0.28749862091E+04 0.  0.
        4    1    3    3  502    0 -0.46474107289E+02 -0.68735349772E+03 -0.18837779368E+04  0.20058004890E+04  0.12699999809E+01 0.  1.
       -4    1    3    3    0  502  0.46474107289E+02  0.68735349772E+03  0.80983163291E+03  0.10632231939E+04  0.12699999809E+01 0. -1.
</event>
<event>
 5   0  0.6393633E-06  0.2884007E+04  0.7818609E-02  0.8277652E-01
        2   -1    0    0  501    0  0.00000000000E+00  0.00000000000E+00  0.10197561384E+04  0.10197561384E+04  0.25500000920E-02 0. -1.
       -2   -1    0    0    0  501  0.00000000000E+00  0.00000000000E+00 -0.20390897338E+04  0.20390897338E+04  0.25500000920E-02 0.  1.
    10030    2    1    2    0    0  0.00000000000E+00  0.00000000000E+00 -0.10193335955E+04  0.30588458722E+04  0.28840071239E+04 0.  0.
        4    1    3    3  502    0  0.94864355950E+03 -0.76671235688E+03 -0.13254512586E+04  0.18012759625E+04  0.12699999809E+01 0.  1.
       -4    1    3    3    0  502 -0.94864355950E+03  0.76671235688E+03  0.30611766315E+03  0.12575699097E+04  0.12699999809E+01 0. -1.
</event>
<event>
 5   0  0.6393633E-06  0.2979913E+04  0.7818609E-02  0.8249490E-01
       -2   -1    0    0    0  501  0.00000000000E+00  0.00000000000E+00  0.17471692441E+04  0.17471692441E+04  0.25500000920E-02 0. -1.
        2   -1    0    0  501    0  0.00000000000E+00  0.00000000000E+00 -0.12706101464E+04  0.12706101464E+04  0.25500000920E-02 0.  1.
    10030    2    1    2    0    0  0.00000000000E+00  0.00000000000E+00  0.47655909773E+03  0.30177793905E+04  0.29799134008E+04 0.  0.
        4    1    3    3  502    0 -0.14706290119E+03  0.18425135029E+03 -0.12516026643E+04  0.12736117537E+04  0.12699999809E+01 0.  1.
       -4    1    3    3    0  502  0.14706290119E+03 -0.18425135029E+03  0.17281617620E+04  0.17441676369E+04  0.12699999809E+01 0. -1.
</event>
<event>
 5   0  0.6513041E-06  0.2885493E+04  0.7818609E-02  0.8277207E-01
       -2   -1    0    0    0  501  0.00000000000E+00  0.00000000000E+00  0.11986356892E+04  0.11986356892E+04  0.25500000920E-02 0. -1.
        2   -1    0    0  501    0  0.00000000000E+00  0.00000000000E+00 -0.17365721076E+04  0.17365721076E+04  0.25500000920E-02 0.  1.
    10030    2    1    2    0    0  0.00000000000E+00  0.00000000000E+00 -0.53793641835E+03  0.29352077968E+04  0.28854928904E+04 0.  0.
        1    1    3    3  502    0  0.93523006602E+03  0.35325312185E+03 -0.13271185522E+04  0.16615314310E+04  0.50400001928E-02 0.  1.
       -1    1    3    3    0  502 -0.93523006602E+03 -0.35325312185E+03  0.78918213387E+03  0.12736763658E+04  0.50400001928E-02 0. -1.
</event>
<event>
 5   0  0.2336512E-06  0.2905620E+04  0.7818609E-02  0.8271207E-01
       -1   -1    0    0    0  501  0.00000000000E+00  0.00000000000E+00  0.13114953045E+04  0.13114953045E+04  0.50400001928E-02 0.  1.
        1   -1    0    0  501    0  0.00000000000E+00  0.00000000000E+00 -0.16093516410E+04  0.16093516410E+04  0.50400001928E-02 0. -1.
    10030    2    1    2    0    0  0.00000000000E+00  0.00000000000E+00 -0.29785633647E+03  0.29208469455E+04  0.29056201544E+04 0.  0.
        4    1    3    3  502    0 -0.45404305564E+03  0.37340260746E+03  0.11865938083E+04  0.13242322615E+04  0.12699999809E+01 0.  1.
       -4    1    3    3    0  502  0.45404305564E+03 -0.37340260746E+03 -0.14844501448E+04  0.15966146839E+04  0.12699999809E+01 0. -1.
</event>
<event>
 5   0  0.2348684E-06  0.2907264E+04  0.7818609E-02  0.8270720E-01
        1   -1    0    0  501    0  0.00000000000E+00  0.00000000000E+00  0.16984192219E+04  0.16984192219E+04  0.50400001928E-02 0. -1.
       -1   -1    0    0    0  501  0.00000000000E+00  0.00000000000E+00 -0.12441246998E+04  0.12441246998E+04  0.50400001928E-02 0.  1.
    10030    2    1    2    0    0  0.00000000000E+00  0.00000000000E+00  0.45429452214E+03  0.29425439217E+04  0.29072635275E+04 0.  0.
        5    1    3    3  502    0 -0.12265706385E+04 -0.59523108643E+03 -0.28320144347E+03  0.13924800627E+04  0.46999998093E+01 0.  1.
       -5    1    3    3    0  502  0.12265706385E+04  0.59523108643E+03  0.73749596561E+03  0.15500638590E+04  0.46999998093E+01 0. -1.
</event>
<event>
 5   0  0.6393633E-06  0.2925350E+04  0.7818609E-02  0.8265375E-01
       -2   -1    0    0    0  501  0.00000000000E+00  0.00000000000E+00  0.12989616827E+04  0.12989616827E+04  0.25500000920E-02 0.  1.
        2   -1    0    0  501    0  0.00000000000E+00  0.00000000000E+00 -0.16470222000E+04  0.16470222000E+04  0.25500000920E-02 0. -1.
    10030    2    1    2    0    0  0.00000000000E+00  0.00000000000E+00 -0.34806051728E+03  0.29459838827E+04  0.29253503915E+04 0.  0.
        4    1    3    3  502    0  0.58548074974E+03  0.26559322422E+03  0.11490437806E+04  0.13166741023E+04  0.12699999809E+01 0.  1.
       -4    1    3    3    0  502 -0.58548074974E+03 -0.26559322422E+03 -0.14971042978E+04  0.16293097804E+04  0.12699999809E+01 0. -1.
</event>
<event>
 5   0  0.6513041E-06  0.2879884E+04  0.7818609E-02  0.8278888E-01
        2   -1    0    0  501    0  0.00000000000E+00  0.00000000000E+00  0.15789628566E+04  0.15789628566E+04  0.25500000920E-02 0. -1.
       -2   -1    0    0    0  501  0.00000000000E+00  0.00000000000E+00 -0.13131610517E+04  0.13131610517E+04  0.25500000920E-02 0.  1.
    10030    2    1    2    0    0  0.00000000000E+00  0.00000000000E+00  0.26580180495E+03  0.28921239083E+04  0.28798836958E+04 0.  0.
        1    1    3    3  502    0 -0.13762600957E+04 -0.27896045481E+03 -0.18707809276E+03  0.14166541566E+04  0.50400001928E-02 0. -1.
       -1    1    3    3    0  502  0.13762600957E+04  0.27896045481E+03  0.45287989770E+03  0.14754697517E+04  0.50400001928E-02 0.  1.
</event>
<event>
 5   0  0.6615403E-06  0.2868665E+04  0.7818609E-02  0.8282262E-01
        2   -1    0    0  501    0  0.00000000000E+00  0.00000000000E+00  0.16671625456E+04  0.16671625456E+04  0.25500000920E-02 0. -1.
       -2   -1    0    0    0  501  0.00000000000E+00  0.00000000000E+00 -0.12340188571E+04  0.12340188571E+04  0.25500000920E-02 0.  1.
    10030    2    1    2    0    0  0.00000000000E+00  0.00000000000E+00  0.43314368843E+03  0.29011814027E+04  0.28686652082E+04 0.  0.
        2    1    3    3  502    0 -0.96773608683E+03 -0.44496247777E+03  0.11880880596E+04  0.15956371698E+04  0.25500000920E-02 0. -1.
       -2    1    3    3    0  502  0.96773608683E+03  0.44496247777E+03 -0.75494437119E+03  0.13055442329E+04  0.25500000920E-02 0.  1.
</event>
<event>
 5   0  0.6733688E-06  0.2715518E+04  0.7818609E-02  0.8329987E-01
       -2   -1    0    0    0  501  0.00000000000E+00  0.00000000000E+00  0.13155275977E+04  0.13155275977E+04  0.25500000920E-02 0.  1.
        2   -1    0    0  501    0  0.00000000000E+00  0.00000000000E+00 -0.14013466048E+04  0.14013466048E+04  0.25500000920E-02 0. -1.
    10030    2    1    2    0    0  0.00000000000E+00  0.00000000000E+00 -0.85819007090E+02  0.27168742026E+04  0.27155184644E+04 0.  0.
        5    1    3    3  502    0 -0.27271151939E+03  0.74514069014E+02 -0.13715650277E+04  0.14004058821E+04  0.46999998093E+01 0. -1.
       -5    1    3    3    0  502  0.27271151939E+03 -0.74514069014E+02  0.12857460206E+04  0.13164683205E+04  0.46999998093E+01 0.  1.
</event>
<event>
 5   0  0.6615403E-06  0.2929304E+04  0.7818609E-02  0.8264212E-01
       -2   -1    0    0    0  501  0.00000000000E+00  0.00000000000E+00  0.17475016928E+04  0.17475016928E+04  0.25500000920E-02 0. -1.
        2   -1    0    0  501    0  0.00000000000E+00  0.00000000000E+00 -0.12275842150E+04  0.12275842150E+04  0.25500000920E-02 0.  1.
    10030    2    1    2    0    0  0.00000000000E+00  0.00000000000E+00  0.51991747773E+03  0.29750859078E+04  0.29293040087E+04 0.  0.
        2    1    3    3  502    0  0.36299283795E+03 -0.59603519147E+03 -0.10478715508E+04  0.12589902846E+04  0.25500000920E-02 0.  1.
       -2    1    3    3    0  502 -0.36299283795E+03  0.59603519147E+03  0.15677890285E+04  0.17160956232E+04  0.25500000920E-02 0. -1.
</event>
<event>
 5   0  0.2508094E-06  0.2865383E+04  0.7818609E-02  0.8283252E-01
        1   -1    0    0  501    0  0.00000000000E+00  0.00000000000E+00  0.21982149423E+04  0.21982149423E+04  0.50400001928E-02 0. -1.
       -1   -1    0    0    0  501  0.00000000000E+00  0.00000000000E+00 -0.93375982453E+03  0.93375982454E+03  0.50400001928E-02 0.  1.
    10030    2    1    2    0    0  0.00000000000E+00  0.00000000000E+00  0.12644551178E+04  0.31319747669E+04  0.28653829055E+04 0.  0.
        3    1    3    3  502    0 -0.10613302244E+04 -0.80479142836E+03  0.12090514988E+04  0.17988653717E+04  0.10100000352E+00 0. -1.
       -3    1    3    3    0  502  0.10613302244E+04  0.80479142836E+03  0.55403618965E+02  0.13331093952E+04  0.10100000352E+00 0.  1.
</event>
<event>
 5   0  0.6513041E-06  0.2855194E+04  0.7818609E-02  0.8286335E-01
        2   -1    0    0  501    0  0.00000000000E+00  0.00000000000E+00  0.23319768565E+04  0.23319768565E+04  0.25500000920E-02 0.  1.
       -2   -1    0    0    0  501  0.00000000000E+00  0.00000000000E+00 -0.87395103148E+03  0.87395103149E+03  0.25500000920E-02 0. -1.
    10030    2    1    2    0    0  0.00000000000E+00  0.00000000000E+00  0.14580258250E+04  0.32059278880E+04  0.28551942695E+04 0.  0.
        1    1    3    3  502    0  0.14719134895E+03  0.14079457495E+04  0.52179770970E+03  0.15087244203E+04  0.50400001928E-02 0. -1.
       -1    1    3    3    0  502 -0.14719134895E+03 -0.14079457495E+04  0.93622811529E+03  0.16972034676E+04  0.50400001928E-02 0.  1.
</event>
<event>
 5   0  0.2336512E-06  0.2893149E+04  0.7818609E-02  0.8274919E-01
        1   -1    0    0  501    0  0.00000000000E+00  0.00000000000E+00  0.26937063993E+04  0.26937063993E+04  0.50400001928E-02 0.  1.
       -1   -1    0    0    0  501  0.00000000000E+00  0.00000000000E+00 -0.77683980036E+03  0.77683980038E+03  0.50400001928E-02 0. -1.
    10030    2    1    2    0    0  0.00000000000E+00  0.00000000000E+00  0.19168665990E+04  0.34705461997E+04  0.28931493854E+04 0.  0.
        4    1    3    3  502    0 -0.13239359252E+04  0.47694445791E+03  0.13604147193E+04  0.19572971597E+04  0.12699999809E+01 0.  1.
       -4    1    3    3    0  502  0.13239359252E+04 -0.47694445791E+03  0.55645187964E+03  0.15132490400E+04  0.12699999809E+01 0. -1.
</event>
<event>
 5   0  0.2336512E-06  0.2850677E+04  0.7818609E-02  0.8287706E-01
        1   -1    0    0  501    0  0.00000000000E+00  0.00000000000E+00  0.12138478313E+04  0.12138478313E+04  0.50400001928E-02 0. -1.
       -1   -1    0    0    0  501  0.00000000000E+00  0.00000000000E+00 -0.16736770423E+04  0.16736770423E+04  0.50400001928E-02 0.  1.
    10030    2    1    2    0    0  0.00000000000E+00  0.00000000000E+00 -0.45982921105E+03  0.28875248736E+04  0.28506765850E+04 0.  0.
        4    1    3    3  502    0 -0.79022261540E+03 -0.98698992090E+03 -0.89643752572E+03  0.15499041055E+04  0.12699999809E+01 0.  1.
       -4    1    3    3    0  502  0.79022261540E+03  0.98698992090E+03  0.43660831467E+03  0.13376207681E+04  0.12699999809E+01 0. -1.
</event>
<event>
 5   0  0.6612533E-06  0.2853041E+04  0.7818609E-02  0.8286988E-01
        2   -1    0    0  501    0  0.00000000000E+00  0.00000000000E+00  0.18460978018E+04  0.18460978018E+04  0.25500000920E-02 0.  1.
       -2   -1    0    0    0  501  0.00000000000E+00  0.00000000000E+00 -0.11023040625E+04  0.11023040625E+04  0.25500000920E-02 0. -1.
    10030    2    1    2    0    0  0.00000000000E+00  0.00000000000E+00  0.74379373936E+03  0.29484018643E+04  0.28530412592E+04 0.  0.
        3    1    3    3  502    0 -0.57893050171E+03 -0.46649546916E+03 -0.88624458599E+03  0.11568094160E+04  0.10100000352E+00 0. -1.
       -3    1    3    3    0  502  0.57893050171E+03  0.46649546916E+03  0.16300383254E+04  0.17915924483E+04  0.10100000352E+00 0.  1.
</event>
<event>
 5   0  0.6733688E-06  0.2891014E+04  0.7818609E-02  0.8275556E-01
       -2   -1    0    0    0  501  0.00000000000E+00  0.00000000000E+00  0.31418282966E+04  0.31418282966E+04  0.25500000920E-02 0. -1.
        2   -1    0    0  501    0  0.00000000000E+00  0.00000000000E+00 -0.66505541780E+03  0.66505541780E+03  0.25500000920E-02 0.  1.
    10030    2    1    2    0    0  0.00000000000E+00  0.00000000000E+00  0.24767728788E+04  0.38068837144E+04  0.28910136149E+04 0.  0.
        5    1    3    3  502    0 -0.13433236108E+03  0.78395507943E+03  0.28277562847E+04  0.29374918631E+04  0.46999998093E+01 0. -1.
       -5    1    3    3    0  502  0.13433236108E+03 -0.78395507943E+03 -0.35098340598E+03  0.86939185128E+03  0.46999998093E+01 0.  1.
</event>
<event>
 5   0  0.6733688E-06  0.2937610E+04  0.7818609E-02  0.8261775E-01
        2   -1    0    0  501    0  0.00000000000E+00  0.00000000000E+00  0.12528196400E+04  0.12528196400E+04  0.25500000920E-02 0.  1.
       -2   -1    0    0    0  501  0.00000000000E+00  0.00000000000E+00 -0.17220260809E+04  0.17220260809E+04  0.25500000920E-02 0. -1.
    10030    2    1    2    0    0  0.00000000000E+00  0.00000000000E+00 -0.46920644087E+03  0.29748457209E+04  0.29376099773E+04 0.  0.
        5    1    3    3  502    0  0.10109968460E+04 -0.54345599605E+03  0.69347782660E+03  0.13410416206E+04  0.46999998093E+01 0.  1.
       -5    1    3    3    0  502 -0.10109968460E+04  0.54345599605E+03 -0.11626842675E+04  0.16338041003E+04  0.46999998093E+01 0. -1.
</event>
<event>
 5   0  0.6513041E-06  0.2945647E+04  0.7818609E-02  0.8259424E-01
       -2   -1    0    0    0  501  0.00000000000E+00  0.00000000000E+00  0.14736103040E+04  0.14736103040E+04  0.25500000920E-02 0.  1.
        2   -1    0    0  501    0  0.00000000000E+00  0.00000000000E+00 -0.14720370310E+04  0.14720370310E+04  0.25500000920E-02 0. -1.
    10030    2    1    2    0    0  0.00000000000E+00  0.00000000000E+00  0.15732730025E+01  0.29456473350E+04  0.29456469148E+04 0.  0.
        1    1    3    3  502    0  0.94084923531E+03  0.10022154753E+04 -0.52796271231E+03  0.14725412620E+04  0.50400001928E-02 0. -1.
       -1    1    3    3    0  502 -0.94084923531E+03 -0.10022154753E+04  0.52953598532E+03  0.14731060730E+04  0.50400001928E-02 0.  1.
</event>
<event>
 5   0  0.2336512E-06  0.2924872E+04  0.7818609E-02  0.8265516E-01
       -1   -1    0    0    0  501  0.00000000000E+00  0.00000000000E+00  0.15464752292E+04  0.15464752292E+04  0.50400001928E-02 0. -1.
        1   -1    0    0  501    0  0.00000000000E+00  0.00000000000E+00 -0.13829633902E+04  0.13829633902E+04  0.50400001928E-02 0.  1.
    10030    2    1    2    0    0  0.00000000000E+00  0.00000000000E+00  0.16351183899E+03  0.29294386195E+04  0.29248717072E+04 0.  0.
        4    1    3    3  502    0 -0.86977424489E+03 -0.60947124884E+03 -0.92517676619E+03  0.14085155668E+04  0.12699999809E+01 0.  1.
       -4    1    3    3    0  502  0.86977424489E+03  0.60947124884E+03  0.10886886052E+04  0.15209230527E+04  0.12699999809E+01 0. -1.
</event>
<event>
 5   0  0.2159500E-06  0.2911161E+04  0.7818609E-02  0.8269564E-01
        3   -1    0    0  501    0  0.00000000000E+00  0.00000000000E+00  0.81952693698E+03  0.81952694320E+03  0.10100000352E+00 0. -1.
       -3   -1    0    0    0  501  0.00000000000E+00  0.00000000000E+00 -0.25852897769E+04  0.25852897789E+04  0.10100000352E+00 0.  1.
    10030    2    1    2    0    0  0.00000000000E+00  0.00000000000E+00 -0.17657628400E+04  0.34048167221E+04  0.29111610234E+04 0.  0.
        2    1    3    3  502    0  0.54028663020E+03 -0.12766644526E+04 -0.14019044204E+04  0.19715774829E+04  0.25500000920E-02 0.  1.
       -2    1    3    3    0  502 -0.54028663020E+03  0.12766644526E+04 -0.36385841961E+03  0.14332392392E+04  0.25500000920E-02 0. -1.
</event>
<event>
 5   0  0.6733688E-06  0.2929148E+04  0.7818609E-02  0.8264258E-01
       -2   -1    0    0    0  501  0.00000000000E+00  0.00000000000E+00  0.13951295186E+04  0.13951295186E+04  0.25500000920E-02 0.  1.
        2   -1    0    0  501    0  0.00000000000E+00  0.00000000000E+00 -0.15374749452E+04  0.15374749452E+04  0.25500000920E-02 0. -1.
    10030    2    1    2    0    0  0.00000000000E+00  0.00000000000E+00 -0.14234542660E+03  0.29326044638E+04  0.29291477806E+04 0.  0.
        5    1    3    3  502    0  0.12190152373E+04  0.11137689515E+03 -0.87620595386E+03  0.15053776686E+04  0.46999998093E+01 0. -1.
       -5    1    3    3    0  502 -0.12190152373E+04 -0.11137689515E+03  0.73386052727E+03  0.14272267952E+04  0.46999998093E+01 0.  1.
</event>
<event>
 5   0  0.6615403E-06  0.2878718E+04  0.7818609E-02  0.8279238E-01
       -2   -1    0    0    0  501  0.00000000000E+00  0.00000000000E+00  0.11974421591E+04  0.11974421591E+04  0.25500000920E-02 0. -1.
        2   -1    0    0  501    0  0.00000000000E+00  0.00000000000E+00 -0.17301503413E+04  0.17301503413E+04  0.25500000920E-02 0.  1.
    10030    2    1    2    0    0  0.00000000000E+00  0.00000000000E+00 -0.53270818215E+03  0.29275925004E+04  0.28787184373E+04 0.  0.
        2    1    3    3  502    0  0.97415353719E+03  0.27611541087E+03 -0.13067278245E+04  0.16531038810E+04  0.25500000920E-02 0.  1.
       -2    1    3    3    0  502 -0.97415353719E+03 -0.27611541087E+03  0.77401964236E+03  0.12744886194E+04  0.25500000920E-02 0. -1.
</event>
<event>
 5   0  0.6612533E-06  0.2893314E+04  0.7818609E-02  0.8274869E-01
       -2   -1    0    0    0  501  0.00000000000E+00  0.00000000000E+00  0.12370396654E+04  0.12370396654E+04  0.25500000920E-02 0. -1.
        2   -1    0    0  501    0  0.00000000000E+00  0.00000000000E+00 -0.16917943294E+04  0.16917943294E+04  0.25500000920E-02 0.  1.
    10030    2    1    2    0    0  0.00000000000E+00  0.00000000000E+00 -0.45475466401E+03  0.29288339948E+04  0.28933141490E+04 0.  0.
        3    1    3    3  502    0  0.70466084787E+03 -0.10460131849E+04  0.48993054801E+03  0.13530419231E+04  0.10100000352E+00 0. -1.
       -3    1    3    3    0  502 -0.70466084787E+03  0.10460131849E+04 -0.94468521202E+03  0.15757920718E+04  0.10100000352E+00 0.  1.
</event>
<event>
 5   0  0.2474769E-06  0.2852171E+04  0.7818609E-02  0.8287252E-01
       -1   -1    0    0    0  501  0.00000000000E+00  0.00000000000E+00  0.12540880262E+04  0.12540880262E+04  0.50400001928E-02 0.  1.
        1   -1    0    0  501    0  0.00000000000E+00  0.00000000000E+00 -0.16216724039E+04  0.16216724039E+04  0.50400001928E-02 0. -1.
    10030    2    1    2    0    0  0.00000000000E+00  0.00000000000E+00 -0.36758437772E+03  0.28757604301E+04  0.28521710637E+04 0.  0.
        1    1    3    3  502    0  0.63336305437E+03  0.12613909522E+04  0.21519180729E+02  0.14116369817E+04  0.50400001928E-02 0.  1.
       -1    1    3    3    0  502 -0.63336305437E+03 -0.12613909522E+04 -0.38910355844E+03  0.14641234484E+04  0.50400001928E-02 0. -1.
</event>
<event>
 5   0  0.6612533E-06  0.2977568E+04  0.7818609E-02  0.8250166E-01
       -2   -1    0    0    0  501  0.00000000000E+00  0.00000000000E+00  0.11398530477E+04  0.11398530477E+04  0.25500000920E-02 0. -1.
        2   -1    0    0  501    0  0.00000000000E+00  0.00000000000E+00 -0.19445290228E+04  0.19445290228E+04  0.25500000920E-02 0.  1.
    10030    2    1    2    0    0  0.00000000000E+00  0.00000000000E+00 -0.80467597504E+03  0.30843820705E+04  0.29775676872E+04 0.  0.
        3    1    3    3  502    0 -0.10982253437E+04 -0.93539633503E+02  0.63437829333E+03  0.12717249694E+04  0.10100000352E+00 0. -1.
       -3    1    3    3    0  502  0.10982253437E+04  0.93539633503E+02 -0.14390542684E+04  0.18126571011E+04  0.10100000352E+00 0.  1.
</event>
<event>
 5   0  0.6733688E-06  0.2908012E+04  0.7818609E-02  0.8270498E-01
       -2   -1    0    0    0  501  0.00000000000E+00  0.00000000000E+00  0.11861008703E+04  0.11861008703E+04  0.25500000920E-02 0.  1.
        2   -1    0    0  501    0  0.00000000000E+00  0.00000000000E+00 -0.17824227837E+04  0.17824227837E+04  0.25500000920E-02 0. -1.
    10030    2    1    2    0    0  0.00000000000E+00  0.00000000000E+00 -0.59632191345E+03  0.29685236540E+04  0.29080118397E+04 0.  0.
        5    1    3    3  502    0  0.21031244024E+03  0.83517969089E+02  0.11680076305E+04  0.11897354700E+04  0.46999998093E+01 0.  1.
       -5    1    3    3    0  502 -0.21031244024E+03 -0.83517969089E+02 -0.17643295440E+04  0.17787881840E+04  0.46999998093E+01 0. -1.
</event>
<event>
 5   0  0.2474769E-06  0.2737484E+04  0.7818609E-02  0.8322944E-01
       -1   -1    0    0    0  501  0.00000000000E+00  0.00000000000E+00  0.12623005893E+04  0.12623005893E+04  0.50400001928E-02 0.  1.
        1   -1    0    0  501    0  0.00000000000E+00  0.00000000000E+00 -0.14841592854E+04  0.14841592855E+04  0.50400001928E-02 0. -1.
    10030    2    1    2    0    0  0.00000000000E+00  0.00000000000E+00 -0.22185869616E+03  0.27464598747E+04  0.27374843493E+04 0.  0.
        1    1    3    3  502    0 -0.11474330783E+04  0.62819187318E+03 -0.51502462411E+03  0.14058727048E+04  0.50400001928E-02 0. -1.
       -1    1    3    3    0  502  0.11474330783E+04 -0.62819187318E+03  0.29316592795E+03  0.13405871699E+04  0.50400001928E-02 0.  1.
</event>
<event>
 5   0  0.2429358E-06  0.2910647E+04  0.7818609E-02  0.8269717E-01
        1   -1    0    0  501    0  0.00000000000E+00  0.00000000000E+00  0.14477920216E+04  0.14477920216E+04  0.50400001928E-02 0.  1.
       -1   -1    0    0    0  501  0.00000000000E+00  0.00000000000E+00 -0.14628939479E+04  0.14628939479E+04  0.50400001928E-02 0. -1.
    10030    2    1    2    0    0  0.00000000000E+00  0.00000000000E+00 -0.15101926361E+02  0.29106859695E+04  0.29106467915E+04 0.  0.
        2    1    3    3  502    0  0.10143243300E+04  0.53405986717E+03 -0.90416349903E+03  0.14599950072E+04  0.25500000920E-02 0. -1.
       -2    1    3    3    0  502 -0.10143243300E+04 -0.53405986717E+03  0.88906157267E+03  0.14506909623E+04  0.25500000920E-02 0.  1.
</event>
<event>
 5   0  0.6393633E-06  0.2932228E+04  0.7818609E-02  0.8263353E-01
       -2   -1    0    0    0  501  0.00000000000E+00  0.00000000000E+00  0.12247497345E+04  0.12247497345E+04  0.25500000920E-02 0.  1.
        2   -1    0    0  501    0  0.00000000000E+00  0.00000000000E+00 -0.17550448203E+04  0.17550448203E+04  0.25500000920E-02 0. -1.
    10030    2    1    2    0    0  0.00000000000E+00  0.00000000000E+00 -0.53029508581E+03  0.29797945548E+04  0.29322282843E+04 0.  0.
        4    1    3    3  502    0 -0.62548980741E+03 -0.11356382590E+04  0.43048384728E+03  0.13661001830E+04  0.12699999809E+01 0.  1.
       -4    1    3    3    0  502  0.62548980741E+03  0.11356382590E+04 -0.96077893310E+03  0.16136943718E+04  0.12699999809E+01 0. -1.
</event>
<event>
 5   0  0.6393633E-06  0.2888207E+04  0.7818609E-02  0.8276395E-01
        2   -1    0    0  501    0  0.00000000000E+00  0.00000000000E+00  0.13673394416E+04  0.13673394416E+04  0.25500000920E-02 0.  1.
       -2   -1    0    0    0  501  0.00000000000E+00  0.00000000000E+00 -0.15251767210E+04  0.15251767210E+04  0.25500000920E-02 0. -1.
    10030    2    1    2    0    0  0.00000000000E+00  0.00000000000E+00 -0.15783727939E+03  0.28925161625E+04  0.28882065618E+04 0.  0.
        4    1    3    3  502    0  0.66090477279E+03  0.45505779261E+03 -0.12813599813E+04  0.15118722591E+04  0.12699999809E+01 0. -1.
       -4    1    3    3    0  502 -0.66090477279E+03 -0.45505779261E+03  0.11235227019E+04  0.13806439034E+04  0.12699999809E+01 0.  1.
</event>
<event>
 5   0  0.6615403E-06  0.2469848E+04  0.7818609E-02  0.8413807E-01
       -2   -1    0    0    0  501  0.00000000000E+00  0.00000000000E+00  0.10494733300E+04  0.10494733300E+04  0.25500000920E-02 0.  1.
        2   -1    0    0  501    0  0.00000000000E+00  0.00000000000E+00 -0.14531452441E+04  0.14531452441E+04  0.25500000920E-02 0. -1.
    10030    2    1    2    0    0  0.00000000000E+00  0.00000000000E+00 -0.40367191405E+03  0.25026185741E+04  0.24698479129E+04 0.  0.
        2    1    3    3  502    0  0.65593176084E+03  0.59940561364E+03  0.66715820260E+03  0.11111406895E+04  0.25500000920E-02 0.  1.
       -2    1    3    3    0  502 -0.65593176084E+03 -0.59940561364E+03 -0.10708301167E+04  0.13914778846E+04  0.25500000920E-02 0. -1.
</event>
<event>
 5   0  0.6513041E-06  0.2866977E+04  0.7818609E-02  0.8282771E-01
       -2   -1    0    0    0  501  0.00000000000E+00  0.00000000000E+00  0.11608865289E+04  0.11608865289E+04  0.25500000920E-02 0. -1.
        2   -1    0    0  501    0  0.00000000000E+00  0.00000000000E+00 -0.17701039901E+04  0.17701039901E+04  0.25500000920E-02 0.  1.
    10030    2    1    2    0    0  0.00000000000E+00  0.00000000000E+00 -0.60921746121E+03  0.29309905190E+04  0.28669774166E+04 0.  0.
        1    1    3    3  502    0 -0.16886068579E+03 -0.10045184161E+03 -0.17562728462E+04  0.17672291345E+04  0.50400001928E-02 0.  1.
       -1    1    3    3    0  502  0.16886068579E+03  0.10045184161E+03  0.11470553850E+04  0.11637613844E+04  0.50400001928E-02 0. -1.
</event>
<event>
 5   0  0.6393633E-06  0.2862861E+04  0.7818609E-02  0.8284014E-01
        2   -1    0    0  501    0  0.00000000000E+00  0.00000000000E+00  0.20072112900E+04  0.20072112900E+04  0.25500000920E-02 0. -1.
       -2   -1    0    0    0  501  0.00000000000E+00  0.00000000000E+00 -0.10208161262E+04  0.10208161262E+04  0.25500000920E-02 0.  1.
    10030    2    1    2    0    0  0.00000000000E+00  0.00000000000E+00  0.98639516381E+03  0.30280274163E+04  0.28628612636E+04 0.  0.
        4    1    3    3  502    0  0.10553845603E+04  0.39912402976E+03  0.14248414215E+04  0.18175013757E+04  0.12699999809E+01 0. -1.
       -4    1    3    3    0  502 -0.10553845603E+04 -0.39912402976E+03 -0.43844625767E+03  0.12105260406E+04  0.12699999809E+01 0.  1.
</event>
<event>
 5   0  0.6612533E-06  0.2886249E+04  0.7818609E-02  0.8276981E-01
       -2   -1    0    0    0  501  0.00000000000E+00  0.00000000000E+00  0.10571222721E+04  0.10571222721E+04  0.25500000920E-02 0.  1.
        2   -1    0    0  501    0  0.00000000000E+00  0.00000000000E+00 -0.19700728606E+04  0.19700728606E+04  0.25500000920E-02 0. -1.
    10030    2    1    2    0    0  0.00000000000E+00  0.00000000000E+00 -0.91295058852E+03  0.30271951328E+04  0.28862487063E+04 0.  0.
        3    1    3    3  502    0 -0.59623309742E+02 -0.10929554246E+04 -0.14428817931E+04  0.18110809971E+04  0.10100000352E+00 0. -1.
       -3    1    3    3    0  502  0.59623309742E+02  0.10929554246E+04  0.52993120456E+03  0.12161141356E+04  0.10100000352E+00 0.  1.
</event>
<event>
 5   0  0.2508094E-06  0.2588433E+04  0.7818609E-02  0.8372141E-01
        1   -1    0    0  501    0  0.00000000000E+00  0.00000000000E+00  0.13664920532E+04  0.13664920532E+04  0.50400001928E-02 0.  1.
       -1   -1    0    0    0  501  0.00000000000E+00  0.00000000000E+00 -0.12257639638E+04  0.12257639638E+04  0.50400001928E-02 0. -1.
    10030    2    1    2    0    0  0.00000000000E+00  0.00000000000E+00  0.14072808942E+03  0.25922560170E+04  0.25884332834E+04 0.  0.
        3    1    3    3  502    0 -0.87037331933E+03  0.95092256917E+03  0.18539558650E+03  0.13023728273E+04  0.10100000352E+00 0. -1.
       -3    1    3    3    0  502  0.87037331933E+03 -0.95092256917E+03 -0.44667497079E+02  0.12898831897E+04  0.10100000352E+00 0.  1.
</event>
<event>
 5   0  0.2508094E-06  0.2955230E+04  0.7818609E-02  0.8256632E-01
       -1   -1    0    0    0  501  0.00000000000E+00  0.00000000000E+00  0.14532059369E+04  0.14532059369E+04  0.50400001928E-02 0. -1.
        1   -1    0    0  501    0  0.00000000000E+00  0.00000000000E+00 -0.15024335597E+04  0.15024335597E+04  0.50400001928E-02 0.  1.
    10030    2    1    2    0    0  0.00000000000E+00  0.00000000000E+00 -0.49227622779E+02  0.29556394967E+04  0.29552295132E+04 0.  0.
        3    1    3    3  502    0  0.11278025890E+04  0.65804676197E+03  0.66713316573E+03  0.14662983638E+04  0.10100000352E+00 0. -1.
       -3    1    3    3    0  502 -0.11278025890E+04 -0.65804676197E+03 -0.71636078851E+03  0.14893411329E+04  0.10100000352E+00 0.  1.
</event>
<event>
 5   0  0.2336512E-06  0.2936657E+04  0.7818609E-02  0.8262054E-01
        1   -1    0    0  501    0  0.00000000000E+00  0.00000000000E+00  0.12460152157E+04  0.12460152157E+04  0.50400001928E-02 0.  1.
       -1   -1    0    0    0  501  0.00000000000E+00  0.00000000000E+00 -0.17303063404E+04  0.17303063404E+04  0.50400001928E-02 0. -1.
    10030    2    1    2    0    0  0.00000000000E+00  0.00000000000E+00 -0.48429112474E+03  0.29763215561E+04  0.29366566213E+04 0.  0.
        4    1    3    3  502    0 -0.96455626983E+03  0.37318359145E+03  0.81421429845E+03  0.13162755514E+04  0.12699999809E+01 0.  1.
       -4    1    3    3    0  502  0.96455626983E+03 -0.37318359145E+03 -0.12985054232E+04  0.16600460046E+04  0.12699999809E+01 0. -1.
</event>
<event>
 5   0  0.2474769E-06  0.2850608E+04  0.7818609E-02  0.8287727E-01
       -1   -1    0    0    0  501  0.00000000000E+00  0.00000000000E+00  0.10475751775E+04  0.10475751775E+04  0.50400001928E-02 0. -1.
        1   -1    0    0  501    0  0.00000000000E+00  0.00000000000E+00 -0.19392324253E+04  0.19392324253E+04  0.50400001928E-02 0.  1.
    10030    2    1    2    0    0  0.00000000000E+00  0.00000000000E+00 -0.89165724788E+03  0.29868076028E+04  0.28506081822E+04 0.  0.
        1    1    3    3  502    0 -0.47468951807E+03 -0.38322153242E+03 -0.17955140333E+04  0.18963279056E+04  0.50400001928E-02 0.  1.
       -1    1    3    3    0  502  0.47468951807E+03  0.38322153242E+03  0.90385678546E+03  0.10904796973E+04  0.50400001928E-02 0. -1.
</event>
<event>
 5   0  0.6513041E-06  0.2905698E+04  0.7818609E-02  0.8271184E-01
        2   -1    0    0  501    0  0.00000000000E+00  0.00000000000E+00  0.22455158303E+04  0.22455158303E+04  0.25500000920E-02 0.  1.
       -2   -1    0    0    0  501  0.00000000000E+00  0.00000000000E+00 -0.93999348388E+03  0.93999348388E+03  0.25500000920E-02 0. -1.
    10030    2    1    2    0    0  0.00000000000E+00  0.00000000000E+00  0.13055223464E+04  0.31855093142E+04  0.29056980218E+04 0.  0.
        1    1    3    3  502    0  0.87774437329E+03 -0.17459465573E+03  0.19074599574E+04  0.21069698545E+04  0.50400001928E-02 0.  1.
       -1    1    3    3    0  502 -0.87774437329E+03  0.17459465573E+03 -0.60193761095E+03  0.10785394597E+04  0.50400001928E-02 0. -1.
</event>
<event>
 5   0  0.6393633E-06  0.2790909E+04  0.7818609E-02  0.8306096E-01
        2   -1    0    0  501    0  0.00000000000E+00  0.00000000000E+00  0.16763134313E+04  0.16763134313E+04  0.25500000920E-02 0. -1.
       -2   -1    0    0    0  501  0.00000000000E+00  0.00000000000E+00 -0.11616522504E+04  0.11616522504E+04  0.25500000920E-02 0.  1.
    10030    2    1    2    0    0  0.00000000000E+00  0.00000000000E+00  0.51466118091E+03  0.28379656816E+04  0.27909090059E+04 0.  0.
        4    1    3    3  502    0  0.73696051712E+03  0.59402933084E+03  0.12999525351E+04  0.16080608993E+04  0.12699999809E+01 0. -1.
       -4    1    3    3    0  502 -0.73696051712E+03 -0.59402933084E+03 -0.78529135414E+03  0.12299047823E+04  0.12699999809E+01 0.  1.
</event>
<event>
 5   0  0.6615403E-06  0.2895151E+04  0.7818609E-02  0.8274322E-01
        2   -1    0    0  501    0  0.00000000000E+00  0.00000000000E+00  0.15171819579E+04  0.15171819579E+04  0.25500000920E-02 0. -1.
       -2   -1    0    0    0  501  0.00000000000E+00  0.00000000000E+00 -0.13811623797E+04  0.13811623797E+04  0.25500000920E-02 0.  1.
    10030    2    1    2    0    0  0.00000000000E+00  0.00000000000E+00  0.13601957825E+03  0.28983443376E+04  0.28951508724E+04 0.  0.
        2    1    3    3  502    0 -0.13681707316E+04 -0.47057564725E+03  0.11434315616E+03  0.14513465982E+04  0.25500000920E-02 0.  1.
       -2    1    3    3    0  502  0.13681707316E+04  0.47057564725E+03  0.21676422093E+02  0.14469977394E+04  0.25500000920E-02 0. -1.
</event>
<event>
 5   0  0.2348684E-06  0.2907615E+04  0.7818609E-02  0.8270615E-01
        1   -1    0    0  501    0  0.00000000000E+00  0.00000000000E+00  0.21107119861E+04  0.21107119861E+04  0.50400001928E-02 0.  1.
       -1   -1    0    0    0  501  0.00000000000E+00  0.00000000000E+00 -0.10013473357E+04  0.10013473357E+04  0.50400001928E-02 0. -1.
    10030    2    1    2    0    0  0.00000000000E+00  0.00000000000E+00  0.11093646504E+04  0.31120593218E+04  0.29076147088E+04 0.  0.
        5    1    3    3  502    0 -0.15519945761E+03  0.88048311444E+03  0.17816726483E+04  0.19934183962E+04  0.46999998093E+01 0.  1.
       -5    1    3    3    0  502  0.15519945761E+03 -0.88048311444E+03 -0.67230799790E+03  0.11186409256E+04  0.46999998093E+01 0. -1.
</event>
<event>
 5   0  0.2508094E-06  0.2951073E+04  0.7818609E-02  0.8257842E-01
       -1   -1    0    0    0  501  0.00000000000E+00  0.00000000000E+00  0.83695421874E+03  0.83695421875E+03  0.50400001928E-02 0. -1.
        1   -1    0    0  501    0  0.00000000000E+00  0.00000000000E+00 -0.26013469664E+04  0.26013469664E+04  0.50400001928E-02 0.  1.
    10030    2    1    2    0    0  0.00000000000E+00  0.00000000000E+00 -0.17643927477E+04  0.34383011852E+04  0.29510732407E+04 0.  0.
        3    1    3    3  502    0  0.11197224171E+04  0.24630672793E+03 -0.19644017519E+04  0.22744932510E+04  0.10100000352E+00 0.  1.
       -3    1    3    3    0  502 -0.11197224171E+04 -0.24630672793E+03  0.20000900426E+03  0.11638079342E+04  0.10100000352E+00 0. -1.
</event>
<event>
 5   0  0.6513041E-06  0.2877475E+04  0.7818609E-02  0.8279611E-01
       -2   -1    0    0    0  501  0.00000000000E+00  0.00000000000E+00  0.94009974182E+03  0.94009974182E+03  0.25500000920E-02 0. -1.
        2   -1    0    0  501    0  0.00000000000E+00  0.00000000000E+00 -0.22018568399E+04  0.22018568399E+04  0.25500000920E-02 0.  1.
    10030    2    1    2    0    0  0.00000000000E+00  0.00000000000E+00 -0.12617570981E+04  0.31419565817E+04  0.28774746197E+04 0.  0.
        1    1    3    3  502    0 -0.84099350854E+01 -0.52437606096E+03  0.83201160838E+03  0.98350612445E+03  0.50400001928E-02 0. -1.
       -1    1    3    3    0  502  0.84099350854E+01  0.52437606096E+03 -0.20937687065E+04  0.21584504573E+04  0.50400001928E-02 0.  1.
</event>
<event>
 5   0  0.2336512E-06  0.3023526E+04  0.7818609E-02  0.8237045E-01
       -1   -1    0    0    0  501  0.00000000000E+00  0.00000000000E+00  0.17603469862E+04  0.17603469863E+04  0.50400001928E-02 0.  1.
        1   -1    0    0  501    0  0.00000000000E+00  0.00000000000E+00 -0.12982825611E+04  0.12982825611E+04  0.50400001928E-02 0. -1.
    10030    2    1    2    0    0  0.00000000000E+00  0.00000000000E+00  0.46206442517E+03  0.30586295473E+04  0.30235262815E+04 0.  0.
        4    1    3    3  502    0 -0.69358237848E+02  0.12430670665E+04  0.10985430524E+04  0.16603688589E+04  0.12699999809E+01 0.  1.
       -4    1    3    3    0  502  0.69358237848E+02 -0.12430670665E+04 -0.63647862722E+03  0.13982606884E+04  0.12699999809E+01 0. -1.
</event>
<event>
 5   0  0.2508094E-06  0.2911396E+04  0.7818609E-02  0.8269495E-01
        1   -1    0    0  501    0  0.00000000000E+00  0.00000000000E+00  0.14149245968E+04  0.14149245968E+04  0.50400001928E-02 0. -1.
       -1   -1    0    0    0  501  0.00000000000E+00  0.00000000000E+00 -0.14976465600E+04  0.14976465600E+04  0.50400001928E-02 0.  1.
    10030    2    1    2    0    0  0.00000000000E+00  0.00000000000E+00 -0.82721963236E+02  0.29125711568E+04  0.29113961978E+04 0.  0.
        3    1    3    3  502    0  0.77235883990E+03  0.82123966785E+03  0.87992553194E+03  0.14301194781E+04  0.10100000352E+00 0. -1.
       -3    1    3    3    0  502 -0.77235883990E+03 -0.82123966785E+03 -0.96264749517E+03  0.14824516787E+04  0.10100000352E+00 0.  1.
</event>
<event>
 5   0  0.2474769E-06  0.2893868E+04  0.7818609E-02  0.8274704E-01
       -1   -1    0    0    0  501  0.00000000000E+00  0.00000000000E+00  0.14343014966E+04  0.14343014966E+04  0.50400001928E-02 0.  1.
        1   -1    0    0  501    0  0.00000000000E+00  0.00000000000E+00 -0.14596778114E+04  0.14596778114E+04  0.50400001928E-02 0. -1.
    10030    2    1    2    0    0  0.00000000000E+00  0.00000000000E+00 -0.25376314827E+02  0.28939793080E+04  0.28938680477E+04 0.  0.
        1    1    3    3  502    0  0.29458885461E+03  0.63115301735E+03 -0.12809960969E+04  0.14581110126E+04  0.50400001928E-02 0. -1.
       -1    1    3    3    0  502 -0.29458885461E+03 -0.63115301735E+03  0.12556197821E+04  0.14358682954E+04  0.50400001928E-02 0.  1.
</event>
<event>
 5   0  0.2348684E-06  0.2819414E+04  0.7818609E-02  0.8297266E-01
        1   -1    0    0  501    0  0.00000000000E+00  0.00000000000E+00  0.12487009780E+04  0.12487009780E+04  0.50400001928E-02 0. -1.
       -1   -1    0    0    0  501  0.00000000000E+00  0.00000000000E+00 -0.15914727462E+04  0.15914727462E+04  0.50400001928E-02 0.  1.
    10030    2    1    2    0    0  0.00000000000E+00  0.00000000000E+00 -0.34277176821E+03  0.28401737242E+04  0.28194138218E+04 0.  0.
        5    1    3    3  502    0  0.10122682749E+04 -0.73538441217E+03 -0.82560929524E+03  0.14990430589E+04  0.46999998093E+01 0.  1.
       -5    1    3    3    0  502 -0.10122682749E+04  0.73538441217E+03  0.48283752703E+03  0.13411306653E+04  0.46999998093E+01 0. -1.
</event>
<event>
 5   0  0.2508094E-06  0.2939775E+04  0.7818609E-02  0.8261141E-01
       -1   -1    0    0    0  501  0.00000000000E+00  0.00000000000E+00  0.98027604724E+03  0.98027604725E+03  0.50400001928E-02 0. -1.
        1   -1    0    0  501    0  0.00000000000E+00  0.00000000000E+00 -0.22040421646E+04  0.22040421646E+04  0.50400001928E-02 0.  1.
    10030    2    1    2    0    0  0.00000000000E+00  0.00000000000E+00 -0.12237661174E+04  0.31843182119E+04  0.29397753255E+04 0.  0.
        3    1    3    3  502    0 -0.26550305116E+03 -0.15181303277E+03  0.94542947858E+03  0.99366794065E+03  0.10100000352E+00 0. -1.
       -3    1    3    3    0  502  0.26550305116E+03  0.15181303277E+03 -0.21691955960E+04  0.21906502712E+04  0.10100000352E+00 0.  1.
</event>
<event>
 5   0  0.6393633E-06  0.2877089E+04  0.7818609E-02  0.8279727E-01
        2   -1    0    0  501    0  0.00000000000E+00  0.00000000000E+00  0.19613334731E+04  0.19613334731E+04  0.25500000920E-02 0.  1.
       -2   -1    0    0    0  501  0.00000000000E+00  0.00000000000E+00 -0.10551034447E+04  0.10551034447E+04  0.25500000920E-02 0. -1.
    10030    2    1    2    0    0  0.00000000000E+00  0.00000000000E+00  0.90623002848E+03  0.30164369178E+04  0.28770886004E+04 0.  0.
        4    1    3    3  502    0 -0.39189777972E+03 -0.63799315608E+03  0.17409352919E+04  0.18951191098E+04  0.12699999809E+01 0.  1.
       -4    1    3    3    0  502  0.39189777972E+03  0.63799315608E+03 -0.83470526337E+03  0.11213178080E+04  0.12699999809E+01 0. -1.
</event>
<event>
 5   0  0.6513041E-06  0.2893149E+04  0.7818609E-02  0.8274919E-01
       -2   -1    0    0    0  501  0.00000000000E+00  0.00000000000E+00  0.10926393622E+04  0.10926393622E+04  0.25500000920E-02 0. -1.
        2   -1    0    0  501    0  0.00000000000E+00  0.00000000000E+00 -0.19151587407E+04  0.19151587407E+04  0.25500000920E-02 0.  1.
    10030    2    1    2    0    0  0.00000000000E+00  0.00000000000E+00 -0.82251937846E+03  0.30077981029E+04  0.28931490283E+04 0.  0.
        1    1    3    3  502    0 -0.29808013315E+03  0.20765142706E+03 -0.18669639202E+04  0.19019792744E+04  0.50400001928E-02 0.  1.
       -1    1    3    3    0  502  0.29808013315E+03 -0.20765142706E+03  0.10444445417E+04  0.11058188286E+04  0.50400001928E-02 0. -1.
</event>
<event>
 5   0  0.2336512E-06  0.2893169E+04  0.7818609E-02  0.8274913E-01
       -1   -1    0    0    0  501  0.00000000000E+00  0.00000000000E+00  0.14285214258E+04  0.14285214258E+04  0.50400001928E-02 0. -1.
        1   -1    0    0  501    0  0.00000000000E+00  0.00000000000E+00 -0.14648760013E+04  0.14648760013E+04  0.50400001928E-02 0.  1.
    10030    2    1    2    0    0  0.00000000000E+00  0.00000000000E+00 -0.36354575522E+02  0.28933974271E+04  0.28931690265E+04 0.  0.
        4    1    3    3  502    0  0.59437624662E+02 -0.10829418253E+04  0.93913874903E+03  0.14346703562E+04  0.12699999809E+01 0. -1.
       -4    1    3    3    0  502 -0.59437624662E+02  0.10829418253E+04 -0.97549332455E+03  0.14587270709E+04  0.12699999809E+01 0.  1.
</event>
<event>
 5   0  0.6733688E-06  0.2894111E+04  0.7818609E-02  0.8274632E-01
       -2   -1    0    0    0  501  0.00000000000E+00  0.00000000000E+00  0.79196166496E+03  0.79196166497E+03  0.25500000920E-02 0. -1.
        2   -1    0    0  501    0  0.00000000000E+00  0.00000000000E+00 -0.26440288488E+04  0.26440288488E+04  0.25500000920E-02 0.  1.
    10030    2    1    2    0    0  0.00000000000E+00  0.00000000000E+00 -0.18520671838E+04  0.34359905137E+04  0.28941109096E+04 0.  0.
        5    1    3    3  502    0  0.99969908161E+03  0.94036573337E+03 -0.38163549822E+03  0.14245538634E+04  0.46999998093E+01 0.  1.
       -5    1    3    3    0  502 -0.99969908161E+03 -0.94036573337E+03 -0.14704316856E+04  0.20114366503E+04  0.46999998093E+01 0. -1.
</event>
<event>
 5   0  0.2336512E-06  0.2883928E+04  0.7818609E-02  0.8277675E-01
        1   -1    0    0  501    0  0.00000000000E+00  0.00000000000E+00  0.64256117051E+03  0.64256117053E+03  0.50400001928E-02 0. -1.
       -1   -1    0    0    0  501  0.00000000000E+00  0.00000000000E+00 -0.32358950081E+04  0.32358950081E+04  0.50400001928E-02 0.  1.
    10030    2    1    2    0    0  0.00000000000E+00  0.00000000000E+00 -0.25933338375E+04  0.38784561786E+04  0.28839282127E+04 0.  0.
        4    1    3    3  502    0  0.56625179158E+03 -0.54507390373E+03 -0.29224989239E+04  0.30263423840E+04  0.12699999809E+01 0.  1.
       -4    1    3    3    0  502 -0.56625179158E+03  0.54507390373E+03  0.32916508635E+03  0.85211379461E+03  0.12699999809E+01 0. -1.
</event>
<event>
 5   0  0.2474769E-06  0.2873808E+04  0.7818609E-02  0.8280713E-01
        1   -1    0    0  501    0  0.00000000000E+00  0.00000000000E+00  0.23558957452E+04  0.23558957452E+04  0.50400001928E-02 0.  1.
       -1   -1    0    0    0  501  0.00000000000E+00  0.00000000000E+00 -0.87639383506E+03  0.87639383507E+03  0.50400001928E-02 0. -1.
    10030    2    1    2    0    0  0.00000000000E+00  0.00000000000E+00  0.14795019101E+04  0.32322895802E+04  0.28738075838E+04 0.  0.
        1    1    3    3  502    0 -0.11304819013E+04  0.73550606819E+03  0.12973027293E+04  0.18713505489E+04  0.50400001928E-02 0.  1.
       -1    1    3    3    0  502  0.11304819013E+04 -0.73550606819E+03  0.18219918076E+03  0.13609390313E+04  0.50400001928E-02 0. -1.
</event>
<event>
 5   0  0.2474769E-06  0.2834758E+04  0.7818609E-02  0.8292558E-01
        1   -1    0    0  501    0  0.00000000000E+00  0.00000000000E+00  0.27145170160E+04  0.27145170160E+04  0.50400001928E-02 0. -1.
       -1   -1    0    0    0  501  0.00000000000E+00  0.00000000000E+00 -0.74008128703E+03  0.74008128704E+03  0.50400001928E-02 0.  1.
    10030    2    1    2    0    0  0.00000000000E+00  0.00000000000E+00  0.19744357290E+04  0.34545983031E+04  0.28347580122E+04 0.  0.
        1    1    3    3  502    0 -0.21309084999E+03 -0.80760510259E+03 -0.40830669944E+03  0.92970321765E+03  0.50400001928E-02 0.  1.
       -1    1    3    3    0  502  0.21309084999E+03  0.80760510259E+03  0.23827424284E+04  0.25248950854E+04  0.50400001928E-02 0. -1.
</event>
<event>
 5   0  0.2508094E-06  0.2910582E+04  0.7818609E-02  0.8269736E-01
       -1   -1    0    0    0  501  0.00000000000E+00  0.00000000000E+00  0.10871282550E+04  0.10871282550E+04  0.50400001928E-02 0.  1.
        1   -1    0    0  501    0  0.00000000000E+00  0.00000000000E+00 -0.19481345980E+04  0.19481345980E+04  0.50400001928E-02 0. -1.
    10030    2    1    2    0    0  0.00000000000E+00  0.00000000000E+00 -0.86100634294E+03  0.30352628530E+04  0.29105821865E+04 0.  0.
        3    1    3    3  502    0 -0.17375845666E+03  0.11050459460E+04 -0.14012682795E+04  0.17930062312E+04  0.10100000352E+00 0. -1.
       -3    1    3    3    0  502  0.17375845666E+03 -0.11050459460E+04  0.54026193652E+03  0.12422566218E+04  0.10100000352E+00 0.  1.
</event>
<event>
 5   0  0.6733688E-06  0.2597348E+04  0.7818609E-02  0.8369103E-01
       -2   -1    0    0    0  501  0.00000000000E+00  0.00000000000E+00  0.93427917639E+03  0.93427917639E+03  0.25500000920E-02 0.  1.
        2   -1    0    0  501    0  0.00000000000E+00  0.00000000000E+00 -0.18051929494E+04  0.18051929494E+04  0.25500000920E-02 0. -1.
    10030    2    1    2    0    0  0.00000000000E+00  0.00000000000E+00 -0.87091377306E+03  0.27394721258E+04  0.25973480183E+04 0.  0.
        5    1    3    3  502    0  0.61036457685E+03  0.72514484338E+03 -0.13718145483E+04  0.16674163264E+04  0.46999998093E+01 0. -1.
       -5    1    3    3    0  502 -0.61036457685E+03 -0.72514484338E+03  0.50090077523E+03  0.10720557995E+04  0.46999998093E+01 0.  1.
</event>
<event>
 5   0  0.6513041E-06  0.2846163E+04  0.7818609E-02  0.8289078E-01
       -2   -1    0    0    0  501  0.00000000000E+00  0.00000000000E+00  0.12276979486E+04  0.12276979486E+04  0.25500000920E-02 0. -1.
        2   -1    0    0  501    0  0.00000000000E+00  0.00000000000E+00 -0.16495597619E+04  0.16495597619E+04  0.25500000920E-02 0.  1.
    10030    2    1    2    0    0  0.00000000000E+00  0.00000000000E+00 -0.42186181331E+03  0.28772577106E+04  0.28461631267E+04 0.  0.
        1    1    3    3  502    0  0.95937528843E+03  0.62666083765E+03 -0.10639842073E+04  0.15637030226E+04  0.50400001928E-02 0. -1.
       -1    1    3    3    0  502 -0.95937528843E+03 -0.62666083765E+03  0.64212239396E+03  0.13135546880E+04  0.50400001928E-02 0.  1.
</event>
<event>
 5   0  0.2336512E-06  0.2893061E+04  0.7818609E-02  0.8274945E-01
       -1   -1    0    0    0  501  0.00000000000E+00  0.00000000000E+00  0.97290373991E+03  0.97290373992E+03  0.50400001928E-02 0. -1.
        1   -1    0    0  501    0  0.00000000000E+00  0.00000000000E+00 -0.21507275447E+04  0.21507275447E+04  0.50400001928E-02 0.  1.
    10030    2    1    2    0    0  0.00000000000E+00  0.00000000000E+00 -0.11778238048E+04  0.31236312846E+04  0.28930612657E+04 0.  0.
        4    1    3    3  502    0  0.10984768324E+04 -0.85917926554E+03 -0.10037306738E+04  0.17182308460E+04  0.12699999809E+01 0. -1.
       -4    1    3    3    0  502 -0.10984768324E+04  0.85917926554E+03 -0.17409313094E+03  0.14054004386E+04  0.12699999809E+01 0.  1.
</event>
<event>
 5   0  0.2508094E-06  0.2916432E+04  0.7818609E-02  0.8268005E-01
       -1   -1    0    0    0  501  0.00000000000E+00  0.00000000000E+00  0.79071968216E+03  0.79071968218E+03  0.50400001928E-02 0.  1.
        1   -1    0    0  501    0  0.00000000000E+00  0.00000000000E+00 -0.26891872449E+04  0.26891872449E+04  0.50400001928E-02 0. -1.
    10030    2    1    2    0    0  0.00000000000E+00  0.00000000000E+00 -0.18984675627E+04  0.34799069271E+04  0.29164315755E+04 0.  0.
        3    1    3    3  502    0  0.81949088095E+02  0.12919902251E+04 -0.14841588283E+03  0.13030662606E+04  0.10100000352E+00 0.  1.
       -3    1    3    3    0  502 -0.81949088095E+02 -0.12919902251E+04 -0.17500516799E+04  0.21768406665E+04  0.10100000352E+00 0. -1.
</event>
<event>
 5   0  0.6733688E-06  0.2899085E+04  0.7818609E-02  0.8273150E-01
        2   -1    0    0  501    0  0.00000000000E+00  0.00000000000E+00  0.24648522996E+04  0.24648522996E+04  0.25500000920E-02 0.  1.
       -2   -1    0    0    0  501  0.00000000000E+00  0.00000000000E+00 -0.85245382895E+03  0.85245382895E+03  0.25500000920E-02 0. -1.
    10030    2    1    2    0    0  0.00000000000E+00  0.00000000000E+00  0.16123984706E+04  0.33173061285E+04  0.28990845318E+04 0.  0.
        5    1    3    3  502    0 -0.68432214138E+03  0.46472352168E+03  0.21682463124E+04  0.23206850080E+04  0.46999998093E+01 0.  1.
       -5    1    3    3    0  502  0.68432214138E+03 -0.46472352168E+03 -0.55584784178E+03  0.99662112059E+03  0.46999998093E+01 0. -1.
</event>
<event>
 5   0  0.2508094E-06  0.2901143E+04  0.7818609E-02  0.8272538E-01
       -1   -1    0    0    0  501  0.00000000000E+00  0.00000000000E+00  0.11997413046E+04  0.11997413046E+04  0.50400001928E-02 0.  1.
        1   -1    0    0  501    0  0.00000000000E+00  0.00000000000E+00 -0.17538425128E+04  0.17538425128E+04  0.50400001928E-02 0. -1.
    10030    2    1    2    0    0  0.00000000000E+00  0.00000000000E+00 -0.55410120819E+03  0.29535838175E+04  0.29011427435E+04 0.  0.
        3    1    3    3  502    0  0.42547012449E+03 -0.12985750901E+04  0.21840338557E+03  0.13838432500E+04  0.10100000352E+00 0. -1.
       -3    1    3    3    0  502 -0.42547012449E+03  0.12985750901E+04 -0.77250459377E+03  0.15697405675E+04  0.10100000352E+00 0.  1.
</event>
<event>
 5   0  0.2508094E-06  0.2934487E+04  0.7818609E-02  0.8262690E-01
        1   -1    0    0  501    0  0.00000000000E+00  0.00000000000E+00  0.14630809283E+04  0.14630809283E+04  0.50400001928E-02 0. -1.
       -1   -1    0    0    0  501  0.00000000000E+00  0.00000000000E+00 -0.14714181959E+04  0.14714181959E+04  0.50400001928E-02 0.  1.
    10030    2    1    2    0    0  0.00000000000E+00  0.00000000000E+00 -0.83372675755E+01  0.29344991242E+04  0.29344872806E+04 0.  0.
        3    1    3    3  502    0 -0.17131689143E+03  0.14119407078E+04  0.35621851725E+03  0.14662256585E+04  0.10100000352E+00 0.  1.
       -3    1    3    3    0  502  0.17131689143E+03 -0.14119407078E+04 -0.36455578482E+03  0.14682734657E+04  0.10100000352E+00 0. -1.
</event>
<event>
 5   0  0.6393633E-06  0.2912335E+04  0.7818609E-02  0.8269217E-01
       -2   -1    0    0    0  501  0.00000000000E+00  0.00000000000E+00  0.16961125571E+04  0.16961125571E+04  0.25500000920E-02 0.  1.
        2   -1    0    0  501    0  0.00000000000E+00  0.00000000000E+00 -0.12501670337E+04  0.12501670337E+04  0.25500000920E-02 0. -1.
    10030    2    1    2    0    0  0.00000000000E+00  0.00000000000E+00  0.44594552345E+03  0.29462795908E+04  0.29123351485E+04 0.  0.
        4    1    3    3  502    0  0.29655341244E+03  0.39633752178E+03  0.16083848940E+04  0.16828341979E+04  0.12699999809E+01 0.  1.
       -4    1    3    3    0  502 -0.29655341244E+03 -0.39633752178E+03 -0.11624393706E+04  0.12634453928E+04  0.12699999809E+01 0. -1.
</event>
<event>
 5   0  0.6615403E-06  0.2904954E+04  0.7818609E-02  0.8271405E-01
        2   -1    0    0  501    0  0.00000000000E+00  0.00000000000E+00  0.11245138762E+04  0.11245138762E+04  0.25500000920E-02 0.  1.
       -2   -1    0    0    0  501  0.00000000000E+00  0.00000000000E+00 -0.18760907677E+04  0.18760907677E+04  0.25500000920E-02 0. -1.
    10030    2    1    2    0    0  0.00000000000E+00  0.00000000000E+00 -0.75157689148E+03  0.30006046439E+04  0.29049544583E+04 0.  0.
        2    1    3    3  502    0  0.25879622513E+03 -0.48042205470E+03  0.10146048712E+04  0.11520433505E+04  0.25500000920E-02 0.  1.
       -2    1    3    3    0  502 -0.25879622513E+03  0.48042205470E+03 -0.17661817626E+04  0.18485612934E+04  0.25500000920E-02 0. -1.
</event>
<event>
 5   0  0.2429358E-06  0.2821115E+04  0.7818609E-02  0.8296743E-01
       -1   -1    0    0    0  501  0.00000000000E+00  0.00000000000E+00  0.11052460121E+04  0.11052460121E+04  0.50400001928E-02 0.  1.
        1   -1    0    0  501    0  0.00000000000E+00  0.00000000000E+00 -0.18002082322E+04  0.18002082323E+04  0.50400001928E-02 0. -1.
    10030    2    1    2    0    0  0.00000000000E+00  0.00000000000E+00 -0.69496222020E+03  0.29054542443E+04  0.28211153607E+04 0.  0.
        2    1    3    3  502    0  0.12045992715E+04 -0.66274760713E+03 -0.22812063113E+02  0.13750687931E+04  0.25500000920E-02 0.  1.
       -2    1    3    3    0  502 -0.12045992715E+04  0.66274760713E+03 -0.67215015708E+03  0.15303854512E+04  0.25500000920E-02 0. -1.
</event>
<event>
 5   0  0.6615403E-06  0.2915945E+04  0.7818609E-02  0.8268149E-01
       -2   -1    0    0    0  501  0.00000000000E+00  0.00000000000E+00  0.13894057989E+04  0.13894057989E+04  0.25500000920E-02 0. -1.
        2   -1    0    0  501    0  0.00000000000E+00  0.00000000000E+00 -0.15299229457E+04  0.15299229457E+04  0.25500000920E-02 0.  1.
    10030    2    1    2    0    0  0.00000000000E+00  0.00000000000E+00 -0.14051714685E+03  0.29193287446E+04  0.29159450013E+04 0.  0.
        2    1    3    3  502    0  0.47286940460E+03  0.73652550565E+03  0.10971170319E+04  0.14034746439E+04  0.25500000920E-02 0. -1.
       -2    1    3    3    0  502 -0.47286940460E+03 -0.73652550565E+03 -0.12376341788E+04  0.15158541007E+04  0.25500000920E-02 0.  1.
</event>
<event>
 5   0  0.2429358E-06  0.2890480E+04  0.7818609E-02  0.8275716E-01
       -1   -1    0    0    0  501  0.00000000000E+00  0.00000000000E+00  0.10747822065E+04  0.10747822065E+04  0.50400001928E-02 0.  1.
        1   -1    0    0  501    0  0.00000000000E+00  0.00000000000E+00 -0.19433874092E+04  0.19433874092E+04  0.50400001928E-02 0. -1.
    10030    2    1    2    0    0  0.00000000000E+00  0.00000000000E+00 -0.86860520274E+03  0.30181696157E+04  0.28904796887E+04 0.  0.
        2    1    3    3  502    0 -0.82208999381E+03 -0.13177217767E+03 -0.16678110198E+04  0.18640787169E+04  0.25500000920E-02 0. -1.
       -2    1    3    3    0  502  0.82208999381E+03  0.13177217767E+03  0.79920581710E+03  0.11540908989E+04  0.25500000920E-02 0.  1.
</event>
<event>
 5   0  0.2159500E-06  0.2922376E+04  0.7818609E-02  0.8266251E-01
       -3   -1    0    0    0  501  0.00000000000E+00  0.00000000000E+00  0.18200568266E+04  0.18200568294E+04  0.10100000352E+00 0.  1.
        3   -1    0    0  501    0  0.00000000000E+00  0.00000000000E+00 -0.11730790588E+04  0.11730790632E+04  0.10100000352E+00 0. -1.
    10030    2    1    2    0    0  0.00000000000E+00  0.00000000000E+00  0.64697776777E+03  0.29931358925E+04  0.29223761290E+04 0.  0.
        5    1    3    3  502    0  0.11583751627E+04  0.83545799870E+03  0.74309543952E+01  0.14282508163E+04  0.46999998093E+01 0. -1.
       -5    1    3    3    0  502 -0.11583751627E+04 -0.83545799870E+03  0.63954681338E+03  0.15648850762E+04  0.46999998093E+01 0.  1.
</event>
<event>
 5   0  0.2474769E-06  0.2785292E+04  0.7818609E-02  0.8307849E-01
        1   -1    0    0  501    0  0.00000000000E+00  0.00000000000E+00  0.19561814602E+04  0.19561814602E+04  0.50400001928E-02 0. -1.
       -1   -1    0    0    0  501  0.00000000000E+00  0.00000000000E+00 -0.99145314045E+03  0.99145314046E+03  0.50400001928E-02 0.  1.
    10030    2    1    2    0    0  0.00000000000E+00  0.00000000000E+00  0.96472831978E+03  0.29476346007E+04  0.27852915482E+04 0.  0.
        1    1    3    3  502    0 -0.96249698564E+03  0.27724005645E+03 -0.54160587142E+03  0.11386831940E+04  0.50400001928E-02 0.  1.
       -1    1    3    3    0  502  0.96249698564E+03 -0.27724005645E+03  0.15063341912E+04  0.18089514067E+04  0.50400001928E-02 0. -1.
</event>
<event>
 5   0  0.6615403E-06  0.2914624E+04  0.7818609E-02  0.8268540E-01
       -2   -1    0    0    0  501  0.00000000000E+00  0.00000000000E+00  0.13119014986E+04  0.13119014986E+04  0.25500000920E-02 0.  1.
        2   -1    0    0  501    0  0.00000000000E+00  0.00000000000E+00 -0.16188401543E+04  0.16188401543E+04  0.25500000920E-02 0. -1.
    10030    2    1    2    0    0  0.00000000000E+00  0.00000000000E+00 -0.30693865566E+03  0.29307416529E+04  0.29146243836E+04 0.  0.
        2    1    3    3  502    0 -0.34866768000E+03 -0.10728714586E+04 -0.10811415492E+04  0.15625265973E+04  0.25500000920E-02 0. -1.
       -2    1    3    3    0  502  0.34866768000E+03  0.10728714586E+04  0.77420289356E+03  0.13682150556E+04  0.25500000920E-02 0.  1.
</event>
<event>
 5   0  0.6393633E-06  0.2802133E+04  0.7818609E-02  0.8302606E-01
       -2   -1    0    0    0  501  0.00000000000E+00  0.00000000000E+00  0.15582507132E+04  0.15582507132E+04  0.25500000920E-02 0.  1.
        2   -1    0    0  501    0  0.00000000000E+00  0.00000000000E+00 -0.12597379701E+04  0.12597379701E+04  0.25500000920E-02 0. -1.
    10030    2    1    2    0    0  0.00000000000E+00  0.00000000000E+00  0.29851274304E+03  0.28179886833E+04  0.28021331805E+04 0.  0.
        4    1    3    3  502    0 -0.57361608019E+03  0.10275674463E+04  0.91385818010E+03  0.14899894800E+04  0.12699999809E+01 0.  1.
       -4    1    3    3    0  502  0.57361608019E+03 -0.10275674463E+04 -0.61534543707E+03  0.13279992033E+04  0.12699999809E+01 0. -1.
</event>
<event>
 5   0  0.6513041E-06  0.2885504E+04  0.7818609E-02  0.8277204E-01
       -2   -1    0    0    0  501  0.00000000000E+00  0.00000000000E+00  0.10936445510E+04  0.10936445510E+04  0.25500000920E-02 0. -1.
        2   -1    0    0  501    0  0.00000000000E+00  0.00000000000E+00 -0.19032996165E+04  0.19032996165E+04  0.25500000920E-02 0.  1.
    10030    2    1    2    0    0  0.00000000000E+00  0.00000000000E+00 -0.80965506553E+03  0.29969441676E+04  0.28855039453E+04 0.  0.
        1    1    3    3  502    0  0.42302307682E+03  0.96910915727E+03  0.61461569304E+03  0.12230590879E+04  0.50400001928E-02 0. -1.
       -1    1    3    3    0  502 -0.42302307682E+03 -0.96910915727E+03 -0.14242707586E+04  0.17738850797E+04  0.50400001928E-02 0.  1.
</event>
<event>
 5   0  0.6513041E-06  0.2917136E+04  0.7818609E-02  0.8267797E-01
       -2   -1    0    0    0  501  0.00000000000E+00  0.00000000000E+00  0.94883307422E+03  0.94883307422E+03  0.25500000920E-02 0. -1.
        2   -1    0    0  501    0  0.00000000000E+00  0.00000000000E+00 -0.22421449925E+04  0.22421449925E+04  0.25500000920E-02 0.  1.
    10030    2    1    2    0    0  0.00000000000E+00  0.00000000000E+00 -0.12933119182E+04  0.31909780667E+04  0.29171364905E+04 0.  0.
        1    1    3    3  502    0 -0.48784548440E+03 -0.54498738434E+03 -0.20270257706E+04  0.21549565983E+04  0.50400001928E-02 0.  1.
       -1    1    3    3    0  502  0.48784548440E+03  0.54498738434E+03  0.73371385239E+03  0.10360214684E+04  0.50400001928E-02 0. -1.
</event>
<event>
 5   0  0.2429358E-06  0.2898977E+04  0.7818609E-02  0.8273182E-01
        1   -1    0    0  501    0  0.00000000000E+00  0.00000000000E+00  0.13185651179E+04  0.13185651179E+04  0.50400001928E-02 0.  1.
       -1   -1    0    0    0  501  0.00000000000E+00  0.00000000000E+00 -0.15934116874E+04  0.15934116874E+04  0.50400001928E-02 0. -1.
    10030    2    1    2    0    0  0.00000000000E+00  0.00000000000E+00 -0.27484656947E+03  0.29119768053E+04  0.28989771089E+04 0.  0.
        2    1    3    3  502    0  0.11717683178E+04 -0.71012931529E+03  0.33765893096E+03  0.14111478267E+04  0.25500000920E-02 0.  1.
       -2    1    3    3    0  502 -0.11717683178E+04  0.71012931529E+03 -0.61250550043E+03  0.15008289786E+04  0.25500000920E-02 0. -1.
</event>
<event>
 5   0  0.2429358E-06  0.2869131E+04  0.7818609E-02  0.8282122E-01
        1   -1    0    0  501    0  0.00000000000E+00  0.00000000000E+00  0.16189660766E+04  0.16189660766E+04  0.50400001928E-02 0.  1.
       -1   -1    0    0    0  501  0.00000000000E+00  0.00000000000E+00 -0.12711678788E+04  0.12711678788E+04  0.50400001928E-02 0. -1.
    10030    2    1    2    0    0  0.00000000000E+00  0.00000000000E+00  0.34779819777E+03  0.28901339554E+04  0.28691306512E+04 0.  0.
        2    1    3    3  502    0  0.10143636404E+04  0.92164546546E+02 -0.84371881348E+03  0.13226070221E+04  0.25500000920E-02 0. -1.
       -2    1    3    3    0  502 -0.10143636404E+04 -0.92164546546E+02  0.11915170112E+04  0.15675269333E+04  0.25500000920E-02 0.  1.
</event>
<event>
 5   0  0.6513041E-06  0.2849351E+04  0.7818609E-02  0.8288109E-01
       -2   -1    0    0    0  501  0.00000000000E+00  0.00000000000E+00  0.11472308385E+04  0.11472308385E+04  0.25500000920E-02 0. -1.
        2   -1    0    0  501    0  0.00000000000E+00  0.00000000000E+00 -0.17692167970E+04  0.17692167970E+04  0.25500000920E-02 0.  1.
    10030    2    1    2    0    0  0.00000000000E+00  0.00000000000E+00 -0.62198595855E+03  0.29164476355E+04  0.28493508521E+04 0.  0.
        1    1    3    3  502    0 -0.76561449198E+03  0.63013779253E+03 -0.13580486021E+04  0.16815276369E+04  0.50400001928E-02 0.  1.
       -1    1    3    3    0  502  0.76561449198E+03 -0.63013779253E+03  0.73606264353E+03  0.12349199987E+04  0.50400001928E-02 0. -1.
</event>
<event>
 5   0  0.6733688E-06  0.2988906E+04  0.7818609E-02  0.8246906E-01
        2   -1    0    0  501    0  0.00000000000E+00  0.00000000000E+00  0.18930711049E+04  0.18930711049E+04  0.25500000920E-02 0.  1.
       -2   -1    0    0    0  501  0.00000000000E+00  0.00000000000E+00 -0.11797705196E+04  0.11797705196E+04  0.25500000920E-02 0. -1.
    10030    2    1    2    0    0  0.00000000000E+00  0.00000000000E+00  0.71330058531E+03  0.30728416246E+04  0.29889058073E+04 0.  0.
        5    1    3    3  502    0 -0.13659945845E+04  0.20013759181E+03  0.94488160300E+03  0.16729673022E+04  0.46999998093E+01 0.  1.
       -5    1    3    3    0  502  0.13659945845E+04 -0.20013759181E+03 -0.23158101769E+03  0.13998743224E+04  0.46999998093E+01 0. -1.
</event>
<event>
 5   0  0.6393633E-06  0.2516086E+04  0.7818609E-02  0.8397277E-01
        2   -1    0    0  501    0  0.00000000000E+00  0.00000000000E+00  0.24862943721E+04  0.24862943721E+04  0.25500000920E-02 0. -1.
       -2   -1    0    0    0  501  0.00000000000E+00  0.00000000000E+00 -0.63655860954E+03  0.63655860955E+03  0.25500000920E-02 0.  1.
    10030    2    1    2    0    0  0.00000000000E+00  0.00000000000E+00  0.18497357626E+04  0.31228529817E+04  0.25160859194E+04 0.  0.
        4    1    3    3  502    0 -0.46483230684E+03  0.11001975435E+04  0.14153468407E+04  0.18519481636E+04  0.12699999809E+01 0. -1.
       -4    1    3    3    0  502  0.46483230684E+03 -0.11001975435E+04  0.43438892183E+03  0.12709048180E+04  0.12699999809E+01 0.  1.
</event>
<event>
 5   0  0.2474769E-06  0.2893110E+04  0.7818609E-02  0.8274930E-01
        1   -1    0    0  501    0  0.00000000000E+00  0.00000000000E+00  0.11993926204E+04  0.11993926204E+04  0.50400001928E-02 0. -1.
       -1   -1    0    0    0  501  0.00000000000E+00  0.00000000000E+00 -0.17446505816E+04  0.17446505816E+04  0.50400001928E-02 0.  1.
    10030    2    1    2    0    0  0.00000000000E+00  0.00000000000E+00 -0.54525796120E+03  0.29440432020E+04  0.28931097682E+04 0.  0.
        1    1    3    3  502    0  0.37024649744E+03  0.39746814272E+03 -0.16369249597E+04  0.17246990221E+04  0.50400001928E-02 0.  1.
       -1    1    3    3    0  502 -0.37024649744E+03 -0.39746814272E+03  0.10916669985E+04  0.12193441798E+04  0.50400001928E-02 0. -1.
</event>
<event>
 5   0  0.6612533E-06  0.2878101E+04  0.7818609E-02  0.8279423E-01
        2   -1    0    0  501    0  0.00000000000E+00  0.00000000000E+00  0.12229192494E+04  0.12229192494E+04  0.25500000920E-02 0. -1.
       -2   -1    0    0    0  501  0.00000000000E+00  0.00000000000E+00 -0.16933789740E+04  0.16933789740E+04  0.25500000920E-02 0.  1.
    10030    2    1    2    0    0  0.00000000000E+00  0.00000000000E+00 -0.47045972460E+03  0.29162982233E+04  0.28781005846E+04 0.  0.
        3    1    3    3  502    0 -0.42655860565E+03  0.11872580133E+04 -0.93675644400E+03  0.15713199801E+04  0.10100000352E+00 0.  1.
       -3    1    3    3    0  502  0.42655860565E+03 -0.11872580133E+04  0.46629671940E+03  0.13449782433E+04  0.10100000352E+00 0. -1.
</event>
<event>
 5   0  0.6513041E-06  0.2909016E+04  0.7818609E-02  0.8270200E-01
       -2   -1    0    0    0  501  0.00000000000E+00  0.00000000000E+00  0.10989184176E+04  0.10989184176E+04  0.25500000920E-02 0. -1.
        2   -1    0    0  501    0  0.00000000000E+00  0.00000000000E+00 -0.19251599656E+04  0.19251599656E+04  0.25500000920E-02 0.  1.
    10030    2    1    2    0    0  0.00000000000E+00  0.00000000000E+00 -0.82624154806E+03  0.30240783832E+04  0.29090161519E+04 0.  0.
        1    1    3    3  502    0  0.83516814173E+02  0.10428007879E+04 -0.14636282984E+04  0.17990598482E+04  0.50400001928E-02 0.  1.
       -1    1    3    3    0  502 -0.83516814173E+02 -0.10428007879E+04  0.63738675039E+03  0.12250185350E+04  0.50400001928E-02 0. -1.
</event>
<event>
 5   0  0.2336512E-06  0.2894436E+04  0.7818609E-02  0.8274535E-01
       -1   -1    0    0    0  501  0.00000000000E+00  0.00000000000E+00  0.12067723314E+04  0.12067723314E+04  0.50400001928E-02 0.  1.
        1   -1    0    0  501    0  0.00000000000E+00  0.00000000000E+00 -0.17355721576E+04  0.17355721576E+04  0.50400001928E-02 0. -1.
    10030    2    1    2    0    0  0.00000000000E+00  0.00000000000E+00 -0.52879982626E+03  0.29423444890E+04  0.28944363589E+04 0.  0.
        4    1    3    3  502    0  0.67864540782E+03  0.74786113152E+03  0.78937897427E+03  0.12817865031E+04  0.12699999809E+01 0.  1.
       -4    1    3    3    0  502 -0.67864540782E+03 -0.74786113152E+03 -0.13181788005E+04  0.16605579859E+04  0.12699999809E+01 0. -1.
</event>
<event>
 5   0  0.6612533E-06  0.2930926E+04  0.7818609E-02  0.8263735E-01
       -2   -1    0    0    0  501  0.00000000000E+00  0.00000000000E+00  0.22724283442E+04  0.22724283442E+04  0.25500000920E-02 0.  1.
        2   -1    0    0  501    0  0.00000000000E+00  0.00000000000E+00 -0.94506032286E+03  0.94506032286E+03  0.25500000920E-02 0. -1.
    10030    2    1    2    0    0  0.00000000000E+00  0.00000000000E+00  0.13273680214E+04  0.32174886671E+04  0.29309260412E+04 0.  0.
        3    1    3    3  502    0  0.96529697566E+03  0.14775633124E+03 -0.53583059348E+03  0.11138871665E+04  0.10100000352E+00 0. -1.
       -3    1    3    3    0  502 -0.96529697566E+03 -0.14775633124E+03  0.18631986148E+04  0.21036015006E+04  0.10100000352E+00 0.  1.
</event>
<event>
 5   0  0.6513041E-06  0.2386596E+04  0.7818609E-02  0.8444539E-01
       -2   -1    0    0    0  501  0.00000000000E+00  0.00000000000E+00  0.13498722115E+04  0.13498722115E+04  0.25500000920E-02 0. -1.
        2   -1    0    0  501    0  0.00000000000E+00  0.00000000000E+00 -0.10548847014E+04  0.10548847014E+04  0.25500000920E-02 0.  1.
    10030    2    1    2    0    0  0.00000000000E+00  0.00000000000E+00  0.29498751009E+03  0.24047569130E+04  0.23865955207E+04 0.  0.
        1    1    3    3  502    0  0.73764494835E+03 -0.66312998522E+02 -0.79527691953E+03  0.10867303540E+04  0.50400001928E-02 0.  1.
       -1    1    3    3    0  502 -0.73764494835E+03  0.66312998522E+02  0.10902644296E+04  0.13180265590E+04  0.50400001928E-02 0. -1.
</event>
<event>
 5   0  0.2429358E-06  0.2937068E+04  0.7818609E-02  0.8261933E-01
        1   -1    0    0  501    0  0.00000000000E+00  0.00000000000E+00  0.22007006663E+04  0.22007006663E+04  0.50400001928E-02 0.  1.
       -1   -1    0    0    0  501  0.00000000000E+00  0.00000000000E+00 -0.97995700064E+03  0.97995700065E+03  0.50400001928E-02 0. -1.
    10030    2    1    2    0    0  0.00000000000E+00  0.00000000000E+00  0.12207436656E+04  0.31806576669E+04  0.29370679422E+04 0.  0.
        2    1    3    3  502    0  0.52372401521E+02  0.70736158510E+02  0.21978418684E+04  0.21996034531E+04  0.25500000920E-02 0.  1.
       -2    1    3    3    0  502 -0.52372401521E+02 -0.70736158510E+02 -0.97709820276E+03  0.98105421380E+03  0.25500000920E-02 0. -1.
</event>
<event>
 5   0  0.6733688E-06  0.2882551E+04  0.7818609E-02  0.8278088E-01
       -2   -1    0    0    0  501  0.00000000000E+00  0.00000000000E+00  0.90030126754E+03  0.90030126754E+03  0.25500000920E-02 0. -1.
        2   -1    0    0  501    0  0.00000000000E+00  0.00000000000E+00 -0.23073105224E+04  0.23073105224E+04  0.25500000920E-02 0.  1.
    10030    2    1    2    0    0  0.00000000000E+00  0.00000000000E+00 -0.14070092548E+04  0.32076117899E+04  0.28825506677E+04 0.  0.
        5    1    3    3  502    0  0.52303989417E+03  0.13251630020E+04 -0.46066398879E+03  0.14972845799E+04  0.46999998093E+01 0.  1.
       -5    1    3    3    0  502 -0.52303989417E+03 -0.13251630020E+04 -0.94634526605E+03  0.17103272100E+04  0.46999998093E+01 0. -1.
</event>
<event>
 5   0  0.2474769E-06  0.2899992E+04  0.7818609E-02  0.8272880E-01
        1   -1    0    0  501    0  0.00000000000E+00  0.00000000000E+00  0.17465272321E+04  0.17465272321E+04  0.50400001928E-02 0.  1.
       -1   -1    0    0    0  501  0.00000000000E+00  0.00000000000E+00 -0.12038110655E+04  0.12038110655E+04  0.50400001928E-02 0. -1.
    10030    2    1    2    0    0  0.00000000000E+00  0.00000000000E+00  0.54271616664E+03  0.29503382976E+04  0.28999922815E+04 0.  0.
        1    1    3    3  502    0  0.12738839137E+04 -0.15211754086E+03 -0.41607132467E+03  0.13487161744E+04  0.50400001928E-02 0. -1.
       -1    1    3    3    0  502 -0.12738839137E+04  0.15211754086E+03  0.95878749131E+03  0.16016221232E+04  0.50400001928E-02 0.  1.
</event>
<event>
 5   0  0.6513041E-06  0.2856038E+04  0.7818609E-02  0.8286079E-01
       -2   -1    0    0    0  501  0.00000000000E+00  0.00000000000E+00  0.14558944194E+04  0.14558944194E+04  0.25500000920E-02 0.  1.
        2   -1    0    0  501    0  0.00000000000E+00  0.00000000000E+00 -0.14006771362E+04  0.14006771362E+04  0.25500000920E-02 0. -1.
    10030    2    1    2    0    0  0.00000000000E+00  0.00000000000E+00  0.55217283200E+02  0.28565715556E+04  0.28560378331E+04 0.  0.
        1    1    3    3  502    0  0.98174571155E+03  0.52777331253E+03  0.92045049333E+03  0.14455443342E+04  0.50400001928E-02 0.  1.
       -1    1    3    3    0  502 -0.98174571155E+03 -0.52777331253E+03 -0.86523321013E+03  0.14110272214E+04  0.50400001928E-02 0. -1.
</event>
<event>
 5   0  0.6615403E-06  0.2884476E+04  0.7818609E-02  0.8277511E-01
       -2   -1    0    0    0  501  0.00000000000E+00  0.00000000000E+00  0.10280709828E+04  0.10280709828E+04  0.25500000920E-02 0. -1.
        2   -1    0    0  501    0  0.00000000000E+00  0.00000000000E+00 -0.20232561101E+04  0.20232561101E+04  0.25500000920E-02 0.  1.
    10030    2    1    2    0    0  0.00000000000E+00  0.00000000000E+00 -0.99518512723E+03  0.30513270929E+04  0.28844763113E+04 0.  0.
        2    1    3    3  502    0  0.99486543418E+03 -0.65194926107E+03 -0.13604044748E+04  0.18070681798E+04  0.25500000920E-02 0.  1.
       -2    1    3    3    0  502 -0.99486543418E+03  0.65194926107E+03  0.36521934760E+03  0.12442589132E+04  0.25500000920E-02 0. -1.
</event>
<event>
 5   0  0.2348684E-06  0.2885047E+04  0.7818609E-02  0.8277340E-01
       -1   -1    0    0    0  501  0.00000000000E+00  0.00000000000E+00  0.10792488868E+04  0.10792488868E+04  0.50400001928E-02 0. -1.
        1   -1    0    0  501    0  0.00000000000E+00  0.00000000000E+00 -0.19280761659E+04  0.19280761659E+04  0.50400001928E-02 0.  1.
    10030    2    1    2    0    0  0.00000000000E+00  0.00000000000E+00 -0.84882727909E+03  0.30073250528E+04  0.28850470054E+04 0.  0.
        5    1    3    3  502    0 -0.10074639572E+04 -0.10217195997E+04 -0.26995296136E+03  0.14600654975E+04  0.46999998093E+01 0. -1.
       -5    1    3    3    0  502  0.10074639572E+04  0.10217195997E+04 -0.57887431773E+03  0.15472595553E+04  0.46999998093E+01 0.  1.
</event>
<event>
 5   0  0.2508094E-06  0.2894327E+04  0.7818609E-02  0.8274567E-01
       -1   -1    0    0    0  501  0.00000000000E+00  0.00000000000E+00  0.10971270646E+04  0.10971270646E+04  0.50400001928E-02 0. -1.
        1   -1    0    0  501    0  0.00000000000E+00  0.00000000000E+00 -0.19088780363E+04  0.19088780363E+04  0.50400001928E-02 0.  1.
    10030    2    1    2    0    0  0.00000000000E+00  0.00000000000E+00 -0.81175097170E+03  0.30060051009E+04  0.28943266966E+04 0.  0.
        3    1    3    3  502    0 -0.13886732203E+02  0.39043405113E+03  0.10413215151E+04  0.11121969689E+04  0.10100000352E+00 0. -1.
       -3    1    3    3    0  502  0.13886732203E+02 -0.39043405113E+03 -0.18530724868E+04  0.18938081320E+04  0.10100000352E+00 0.  1.
</event>
<event>
 5   0  0.6612533E-06  0.2902408E+04  0.7818609E-02  0.8272161E-01
       -2   -1    0    0    0  501  0.00000000000E+00  0.00000000000E+00  0.11485652977E+04  0.11485652977E+04  0.25500000920E-02 0.  1.
        2   -1    0    0  501    0  0.00000000000E+00  0.00000000000E+00 -0.18335858549E+04  0.18335858549E+04  0.25500000920E-02 0. -1.
    10030    2    1    2    0    0  0.00000000000E+00  0.00000000000E+00 -0.68502055724E+03  0.29821511526E+04  0.29024080231E+04 0.  0.
        3    1    3    3  502    0  0.10131005138E+04  0.54494576989E+03  0.56647371948E+03  0.12822757224E+04  0.10100000352E+00 0.  1.
       -3    1    3    3    0  502 -0.10131005138E+04 -0.54494576989E+03 -0.12514942767E+04  0.16998754302E+04  0.10100000352E+00 0. -1.
</event>
<event>
 5   0  0.6733688E-06  0.2690935E+04  0.7818609E-02  0.8337952E-01
        2   -1    0    0  501    0  0.00000000000E+00  0.00000000000E+00  0.27051453124E+04  0.27051453124E+04  0.25500000920E-02 0.  1.
       -2   -1    0    0    0  501  0.00000000000E+00  0.00000000000E+00 -0.66919979636E+03  0.66919979636E+03  0.25500000920E-02 0. -1.
    10030    2    1    2    0    0  0.00000000000E+00  0.00000000000E+00  0.20359455160E+04  0.33743451088E+04  0.26909349247E+04 0.  0.
        5    1    3    3  502    0  0.13048351401E+04  0.13434357702E+03  0.13933631122E+04  0.19136681509E+04  0.46999998093E+01 0. -1.
       -5    1    3    3    0  502 -0.13048351401E+04 -0.13434357702E+03  0.64258240383E+03  0.14606769578E+04  0.46999998093E+01 0.  1.
</event>
<event>
 5   0  0.2348684E-06  0.2916270E+04  0.7818609E-02  0.8268053E-01
        1   -1    0    0  501    0  0.00000000000E+00  0.00000000000E+00  0.24945434735E+04  0.24945434735E+04  0.50400001928E-02 0. -1.
       -1   -1    0    0    0  501  0.00000000000E+00  0.00000000000E+00 -0.85232310368E+03  0.85232310370E+03  0.50400001928E-02 0.  1.
    10030    2    1    2    0    0  0.00000000000E+00  0.00000000000E+00  0.16422203698E+04  0.33468665772E+04  0.29162695593E+04 0.  0.
        5    1    3    3  502    0 -0.40428845397E+03  0.14937857110E+02  0.24288339635E+04  0.24623015262E+04  0.46999998093E+01 0. -1.
       -5    1    3    3    0  502  0.40428845397E+03 -0.14937857110E+02 -0.78661359372E+03  0.88456505098E+03  0.46999998093E+01 0.  1.
</event>
<event>
 5   0  0.6513041E-06  0.2844620E+04  0.7818609E-02  0.8289548E-01
        2   -1    0    0  501    0  0.00000000000E+00  0.00000000000E+00  0.14550754787E+04  0.14550754787E+04  0.25500000920E-02 0. -1.
       -2   -1    0    0    0  501  0.00000000000E+00  0.00000000000E+00 -0.13902819532E+04  0.13902819532E+04  0.25500000920E-02 0.  1.
    10030    2    1    2    0    0  0.00000000000E+00  0.00000000000E+00  0.64793525511E+02  0.28453574318E+04  0.28446196079E+04 0.  0.
        1    1    3    3  502    0 -0.13871290651E+04 -0.10486361943E+03  0.32885473673E+03  0.14294295575E+04  0.50400001928E-02 0. -1.
       -1    1    3    3    0  502  0.13871290651E+04  0.10486361943E+03 -0.26406121122E+03  0.14159278743E+04  0.50400001928E-02 0.  1.
</event>
<event>
 5   0  0.2474769E-06  0.2886506E+04  0.7818609E-02  0.8276904E-01
        1   -1    0    0  501    0  0.00000000000E+00  0.00000000000E+00  0.22116398905E+04  0.22116398905E+04  0.50400001928E-02 0. -1.
       -1   -1    0    0    0  501  0.00000000000E+00  0.00000000000E+00 -0.94182584869E+03  0.94182584870E+03  0.50400001928E-02 0.  1.
    10030    2    1    2    0    0  0.00000000000E+00  0.00000000000E+00  0.12698140418E+04  0.31534657392E+04  0.28865062736E+04 0.  0.
        1    1    3    3  502    0 -0.89875849827E+02 -0.14402020180E+04  0.60559061345E+03  0.15649279575E+04  0.50400001928E-02 0. -1.
       -1    1    3    3    0  502  0.89875849827E+02  0.14402020180E+04  0.66422342835E+03  0.15885377817E+04  0.50400001928E-02 0.  1.
</event>
<event>
 5   0  0.6612533E-06  0.2954288E+04  0.7818609E-02  0.8256906E-01
        2   -1    0    0  501    0  0.00000000000E+00  0.00000000000E+00  0.13165875227E+04  0.13165875227E+04  0.25500000920E-02 0.  1.
       -2   -1    0    0    0  501  0.00000000000E+00  0.00000000000E+00 -0.16572806188E+04  0.16572806188E+04  0.25500000920E-02 0. -1.
    10030    2    1    2    0    0  0.00000000000E+00  0.00000000000E+00 -0.34069309602E+03  0.29738681415E+04  0.29542883978E+04 0.  0.
        3    1    3    3  502    0 -0.21244245546E+03  0.68699211535E+03  0.11285014598E+04  0.13381350898E+04  0.10100000352E+00 0.  1.
       -3    1    3    3    0  502  0.21244245546E+03 -0.68699211535E+03 -0.14691945559E+04  0.16357330517E+04  0.10100000352E+00 0. -1.
</event>
<event>
 5   0  0.6393633E-06  0.2883312E+04  0.7818609E-02  0.8277860E-01
        2   -1    0    0  501    0  0.00000000000E+00  0.00000000000E+00  0.25916178199E+04  0.25916178199E+04  0.25500000920E-02 0.  1.
       -2   -1    0    0    0  501  0.00000000000E+00  0.00000000000E+00 -0.80195925596E+03  0.80195925597E+03  0.25500000920E-02 0. -1.
    10030    2    1    2    0    0  0.00000000000E+00  0.00000000000E+00  0.17896585639E+04  0.33935770758E+04  0.28833119141E+04 0.  0.
        4    1    3    3  502    0 -0.87184577121E+03 -0.54705511508E+03 -0.29326303193E+03  0.10702285581E+04  0.12699999809E+01 0. -1.
       -4    1    3    3    0  502  0.87184577121E+03  0.54705511508E+03  0.20829215958E+04  0.23233485178E+04  0.12699999809E+01 0.  1.
</event>
<event>
 5   0  0.6615403E-06  0.2896571E+04  0.7818609E-02  0.8273898E-01
        2   -1    0    0  501    0  0.00000000000E+00  0.00000000000E+00  0.18120259550E+04  0.18120259550E+04  0.25500000920E-02 0. -1.
       -2   -1    0    0    0  501  0.00000000000E+00  0.00000000000E+00 -0.11575613395E+04  0.11575613395E+04  0.25500000920E-02 0.  1.
    10030    2    1    2    0    0  0.00000000000E+00  0.00000000000E+00  0.65446461552E+03  0.29695872946E+04  0.28965712087E+04 0.  0.
        2    1    3    3  502    0 -0.93611084260E+03 -0.97723350431E+03 -0.20176134868E+03  0.13682092214E+04  0.25500000920E-02 0.  1.
       -2    1    3    3    0  502  0.93611084260E+03  0.97723350431E+03  0.85622596420E+03  0.16013780732E+04  0.25500000920E-02 0. -1.
</event>
<event>
 5   0  0.6615403E-06  0.2877735E+04  0.7818609E-02  0.8279533E-01
        2   -1    0    0  501    0  0.00000000000E+00  0.00000000000E+00  0.17652201715E+04  0.17652201715E+04  0.25500000920E-02 0. -1.
       -2   -1    0    0    0  501  0.00000000000E+00  0.00000000000E+00 -0.11728506374E+04  0.11728506374E+04  0.25500000920E-02 0.  1.
    10030    2    1    2    0    0  0.00000000000E+00  0.00000000000E+00  0.59236953406E+03  0.29380708090E+04  0.28777349450E+04 0.  0.
        2    1    3    3  502    0  0.14481591749E+03 -0.75847962185E+03 -0.94338648687E+03  0.12191148635E+04  0.25500000920E-02 0.  1.
       -2    1    3    3    0  502 -0.14481591749E+03  0.75847962185E+03  0.15357560209E+04  0.17189559455E+04  0.25500000920E-02 0. -1.
</event>
<event>
 5   0  0.6513041E-06  0.2931578E+04  0.7818609E-02  0.8263544E-01
        2   -1    0    0  501    0  0.00000000000E+00  0.00000000000E+00  0.18870969294E+04  0.18870969294E+04  0.25500000920E-02 0. -1.
       -2   -1    0    0    0  501  0.00000000000E+00  0.00000000000E+00 -0.11385407012E+04  0.11385407012E+04  0.25500000920E-02 0.  1.
    10030    2    1    2    0    0  0.00000000000E+00  0.00000000000E+00  0.74855622813E+03  0.30256376306E+04  0.29315775011E+04 0.  0.
        1    1    3    3  502    0  0.40395295779E+03  0.10013037562E+04  0.13974225322E+04  0.17659493021E+04  0.50400001928E-02 0. -1.
       -1    1    3    3    0  502 -0.40395295779E+03 -0.10013037562E+04 -0.64886630406E+03  0.12596883284E+04  0.50400001928E-02 0.  1.
</event>
<event>
 5   0  0.2348684E-06  0.2422726E+04  0.7818609E-02  0.8431044E-01
       -1   -1    0    0    0  501  0.00000000000E+00  0.00000000000E+00  0.62537785975E+03  0.62537785977E+03  0.50400001928E-02 0.  1.
        1   -1    0    0  501    0  0.00000000000E+00  0.00000000000E+00 -0.23464212745E+04  0.23464212745E+04  0.50400001928E-02 0. -1.
    10030    2    1    2    0    0  0.00000000000E+00  0.00000000000E+00 -0.17210434147E+04  0.29717991343E+04  0.24227256673E+04 0.  0.
        5    1    3    3  502    0  0.70759091962E+03  0.76760089992E+03 -0.10688298453E+03  0.10494484806E+04  0.46999998093E+01 0.  1.
       -5    1    3    3    0  502 -0.70759091962E+03 -0.76760089992E+03 -0.16141604302E+04  0.19223506536E+04  0.46999998093E+01 0. -1.
</event>
<event>
 5   0  0.2474769E-06  0.2902592E+04  0.7818609E-02  0.8272107E-01
        1   -1    0    0  501    0  0.00000000000E+00  0.00000000000E+00  0.21595030457E+04  0.21595030457E+04  0.50400001928E-02 0. -1.
       -1   -1    0    0    0  501  0.00000000000E+00  0.00000000000E+00 -0.97534495810E+03  0.97534495812E+03  0.50400001928E-02 0.  1.
    10030    2    1    2    0    0  0.00000000000E+00  0.00000000000E+00  0.11841580876E+04  0.31348480038E+04  0.29025922260E+04 0.  0.
        1    1    3    3  502    0  0.65419346644E+03 -0.11212988570E+04  0.12928261134E+04  0.18321243347E+04  0.50400001928E-02 0. -1.
       -1    1    3    3    0  502 -0.65419346644E+03  0.11212988570E+04 -0.10866802580E+03  0.13027236691E+04  0.50400001928E-02 0.  1.
</event>
<event>
 5   0  0.6513041E-06  0.2916296E+04  0.7818609E-02  0.8268045E-01
        2   -1    0    0  501    0  0.00000000000E+00  0.00000000000E+00  0.18683338942E+04  0.18683338942E+04  0.25500000920E-02 0.  1.
       -2   -1    0    0    0  501  0.00000000000E+00  0.00000000000E+00 -0.11380170400E+04  0.11380170400E+04  0.25500000920E-02 0. -1.
    10030    2    1    2    0    0  0.00000000000E+00  0.00000000000E+00  0.73031685420E+03  0.30063509342E+04  0.29162961495E+04 0.  0.
        1    1    3    3  502    0 -0.67240918121E+03  0.87927506713E+03  0.13436459129E+04  0.17408742315E+04  0.50400001928E-02 0.  1.
       -1    1    3    3    0  502  0.67240918121E+03 -0.87927506713E+03 -0.61332905871E+03  0.12654767026E+04  0.50400001928E-02 0. -1.
</event>
<event>
 5   0  0.2429358E-06  0.2997830E+04  0.7818609E-02  0.8244351E-01
        1   -1    0    0  501    0  0.00000000000E+00  0.00000000000E+00  0.13288987759E+04  0.13288987759E+04  0.50400001928E-02 0.  1.
       -1   -1    0    0    0  501  0.00000000000E+00  0.00000000000E+00 -0.16906825895E+04  0.16906825895E+04  0.50400001928E-02 0. -1.
    10030    2    1    2    0    0  0.00000000000E+00  0.00000000000E+00 -0.36178381357E+03  0.30195813654E+04  0.29978298976E+04 0.  0.
        2    1    3    3  502    0 -0.11345235546E+04 -0.96444124924E+03 -0.35376294700E+03  0.15305028069E+04  0.25500000920E-02 0. -1.
       -2    1    3    3    0  502  0.11345235546E+04  0.96444124924E+03 -0.80208665649E+01  0.14890785585E+04  0.25500000920E-02 0.  1.
</event>
<event>
 5   0  0.2508094E-06  0.2916742E+04  0.7818609E-02  0.8267913E-01
       -1   -1    0    0    0  501  0.00000000000E+00  0.00000000000E+00  0.97846438051E+03  0.97846438052E+03  0.50400001928E-02 0. -1.
        1   -1    0    0  501    0  0.00000000000E+00  0.00000000000E+00 -0.21736576708E+04  0.21736576708E+04  0.50400001928E-02 0.  1.
    10030    2    1    2    0    0  0.00000000000E+00  0.00000000000E+00 -0.11951932903E+04  0.31521220513E+04  0.29167424338E+04 0.  0.
        3    1    3    3  502    0 -0.29410447625E+03 -0.13535532259E+03 -0.21343300697E+04  0.21587457847E+04  0.10100000352E+00 0.  1.
       -3    1    3    3    0  502  0.29410447625E+03  0.13535532259E+03  0.93913677945E+03  0.99337626659E+03  0.10100000352E+00 0. -1.
</event>
<event>
 5   0  0.2336512E-06  0.2894955E+04  0.7818609E-02  0.8274380E-01
       -1   -1    0    0    0  501  0.00000000000E+00  0.00000000000E+00  0.19872721771E+04  0.19872721771E+04  0.50400001928E-02 0.  1.
        1   -1    0    0  501    0  0.00000000000E+00  0.00000000000E+00 -0.10543047747E+04  0.10543047748E+04  0.50400001928E-02 0. -1.
    10030    2    1    2    0    0  0.00000000000E+00  0.00000000000E+00  0.93296740235E+03  0.30415769518E+04  0.28949546076E+04 0.  0.
        4    1    3    3  502    0 -0.13124156374E+04  0.16498039143E+03  0.10840782410E+04  0.17102282246E+04  0.12699999809E+01 0.  1.
       -4    1    3    3    0  502  0.13124156374E+04 -0.16498039143E+03 -0.15111083861E+03  0.13313487272E+04  0.12699999809E+01 0. -1.
</event>
<event>
 5   0  0.6513041E-06  0.2928358E+04  0.7818609E-02  0.8264490E-01
       -2   -1    0    0    0  501  0.00000000000E+00  0.00000000000E+00  0.14157013850E+04  0.14157013850E+04  0.25500000920E-02 0. -1.
        2   -1    0    0  501    0  0.00000000000E+00  0.00000000000E+00 -0.15143161501E+04  0.15143161501E+04  0.25500000920E-02 0.  1.
    10030    2    1    2    0    0  0.00000000000E+00  0.00000000000E+00 -0.98614765156E+02  0.29300175351E+04  0.29283575403E+04 0.  0.
        1    1    3    3  502    0 -0.11946151278E+04  0.57864051113E+03 -0.66762963777E+03  0.14858194635E+04  0.50400001928E-02 0.  1.
       -1    1    3    3    0  502  0.11946151278E+04 -0.57864051113E+03  0.56901487261E+03  0.14441980716E+04  0.50400001928E-02 0. -1.
</event>
<event>
 5   0  0.2429358E-06  0.2949662E+04  0.7818609E-02  0.8258253E-01
       -1   -1    0    0    0  501  0.00000000000E+00  0.00000000000E+00  0.15716170140E+04  0.15716170140E+04  0.50400001928E-02 0. -1.
        1   -1    0    0  501    0  0.00000000000E+00  0.00000000000E+00 -0.13840054379E+04  0.13840054379E+04  0.50400001928E-02 0.  1.
    10030    2    1    2    0    0  0.00000000000E+00  0.00000000000E+00  0.18761157616E+03  0.29556224519E+04  0.29496620102E+04 0.  0.
        2    1    3    3  502    0  0.22168197041E+03 -0.73150265112E+03 -0.11700468307E+04  0.13975867095E+04  0.25500000920E-02 0.  1.
       -2    1    3    3    0  502 -0.22168197041E+03  0.73150265112E+03  0.13576584069E+04  0.15580357423E+04  0.25500000920E-02 0. -1.
</event>
<event>
 5   0  0.2348684E-06  0.2938279E+04  0.7818609E-02  0.8261579E-01
        1   -1    0    0  501    0  0.00000000000E+00  0.00000000000E+00  0.24918709808E+04  0.24918709808E+04  0.50400001928E-02 0. -1.
       -1   -1    0    0    0  501  0.00000000000E+00  0.00000000000E+00 -0.86616470236E+03  0.86616470238E+03  0.50400001928E-02 0.  1.
    10030    2    1    2    0    0  0.00000000000E+00  0.00000000000E+00  0.16257062785E+04  0.33580356832E+04  0.29382788748E+04 0.  0.
        5    1    3    3  502    0 -0.13584233422E+04  0.54525991181E+03  0.66953377963E+03  0.16096334739E+04  0.46999998093E+01 0.  1.
       -5    1    3    3    0  502  0.13584233422E+04 -0.54525991181E+03  0.95617249884E+03  0.17484022094E+04  0.46999998093E+01 0. -1.
</event>
<event>
 5   0  0.2348684E-06  0.2877212E+04  0.7818609E-02  0.8279690E-01
        1   -1    0    0  501    0  0.00000000000E+00  0.00000000000E+00  0.14542419342E+04  0.14542419342E+04  0.50400001928E-02 0. -1.
       -1   -1    0    0    0  501  0.00000000000E+00  0.00000000000E+00 -0.14231379807E+04  0.14231379807E+04  0.50400001928E-02 0.  1.
    10030    2    1    2    0    0  0.00000000000E+00  0.00000000000E+00  0.31103953464E+02  0.28773799149E+04  0.28772117959E+04 0.  0.
        5    1    3    3  502    0  0.97082318244E+03  0.10344369406E+04  0.25432816127E+03  0.14412710846E+04  0.46999998093E+01 0.  1.
       -5    1    3    3    0  502 -0.97082318244E+03 -0.10344369406E+04 -0.22322420780E+03  0.14361088303E+04  0.46999998093E+01 0. -1.
</event>
<event>
 5   0  0.6513041E-06  0.2890461E+04  0.7818609E-02  0.8275721E-01
       -2   -1    0    0    0  501  0.00000000000E+00  0.00000000000E+00  0.20088325026E+04  0.20088325026E+04  0.25500000920E-02 0. -1.
        2   -1    0    0  501    0  0.00000000000E+00  0.00000000000E+00 -0.10397537222E+04  0.10397537222E+04  0.25500000920E-02 0.  1.
    10030    2    1    2    0    0  0.00000000000E+00  0.00000000000E+00  0.96907878043E+03  0.30485862248E+04  0.28904609126E+04 0.  0.
        1    1    3    3  502    0  0.68665732309E+03 -0.92959479903E+03  0.13997946265E+04  0.18152327030E+04  0.50400001928E-02 0. -1.
       -1    1    3    3    0  502 -0.68665732309E+03  0.92959479903E+03 -0.43071584603E+03  0.12333535218E+04  0.50400001928E-02 0.  1.
</event>
<event>
 5   0  0.2348684E-06  0.2909303E+04  0.7818609E-02  0.8270115E-01
       -1   -1    0    0    0  501  0.00000000000E+00  0.00000000000E+00  0.12372466241E+04  0.12372466241E+04  0.50400001928E-02 0.  1.
        1   -1    0    0  501    0  0.00000000000E+00  0.00000000000E+00 -0.17102580568E+04  0.17102580569E+04  0.50400001928E-02 0. -1.
    10030    2    1    2    0    0  0.00000000000E+00  0.00000000000E+00 -0.47301143279E+03  0.29475046809E+04  0.29093030142E+04 0.  0.
        5    1    3    3  502    0 -0.11892995497E+04  0.16094102494E+03  0.59626904956E+03  0.13401098096E+04  0.46999998093E+01 0.  1.
       -5    1    3    3    0  502  0.11892995497E+04 -0.16094102494E+03 -0.10692804823E+04  0.16073948713E+04  0.46999998093E+01 0. -1.
</event>
<event>
 5   0  0.6615403E-06  0.2955623E+04  0.7818609E-02  0.8256518E-01
        2   -1    0    0  501    0  0.00000000000E+00  0.00000000000E+00  0.16039836046E+04  0.16039836046E+04  0.25500000920E-02 0. -1.
       -2   -1    0    0    0  501  0.00000000000E+00  0.00000000000E+00 -0.13615642735E+04  0.13615642735E+04  0.25500000920E-02 0.  1.
    10030    2    1    2    0    0  0.00000000000E+00  0.00000000000E+00  0.24241933105E+03  0.29655478781E+04  0.29556229606E+04 0.  0.
        2    1    3    3  502    0  0.24799005363E+03 -0.11611534855E+04  0.10040223164E+04  0.15549396437E+04  0.25500000920E-02 0. -1.
       -2    1    3    3    0  502 -0.24799005363E+03  0.11611534855E+04 -0.76160298533E+03  0.14106082344E+04  0.25500000920E-02 0.  1.
</event>
<event>
 5   0  0.2429358E-06  0.2893786E+04  0.7818609E-02  0.8274729E-01
        1   -1    0    0  501    0  0.00000000000E+00  0.00000000000E+00  0.10400126130E+04  0.10400126130E+04  0.50400001928E-02 0. -1.
       -1   -1    0    0    0  501  0.00000000000E+00  0.00000000000E+00 -0.20129554877E+04  0.20129554877E+04  0.50400001928E-02 0.  1.
    10030    2    1    2    0    0  0.00000000000E+00  0.00000000000E+00 -0.97294287471E+03  0.30529681007E+04  0.28937858225E+04 0.  0.
        2    1    3    3  502    0  0.39989211979E+03  0.13892063361E+04 -0.55056824934E+03  0.15469109053E+04  0.25500000920E-02 0.  1.
       -2    1    3    3    0  502 -0.39989211979E+03 -0.13892063361E+04 -0.42237462538E+03  0.15060571954E+04  0.25500000920E-02 0. -1.
</event>
<event>
 5   0  0.6733688E-06  0.2919922E+04  0.7818609E-02  0.8266975E-01
       -2   -1    0    0    0  501  0.00000000000E+00  0.00000000000E+00  0.10398116205E+04  0.10398116205E+04  0.25500000920E-02 0.  1.
        2   -1    0    0  501    0  0.00000000000E+00  0.00000000000E+00 -0.20498771871E+04  0.20498771871E+04  0.25500000920E-02 0. -1.
    10030    2    1    2    0    0  0.00000000000E+00  0.00000000000E+00 -0.10100655666E+04  0.30896888076E+04  0.29199219988E+04 0.  0.
        5    1    3    3  502    0 -0.16198840909E+03 -0.12096339767E+04 -0.13528733496E+04  0.18220161889E+04  0.46999998093E+01 0. -1.
       -5    1    3    3    0  502  0.16198840909E+03  0.12096339767E+04  0.34280778297E+03  0.12676726188E+04  0.46999998093E+01 0.  1.
</event>
<event>
 5   0  0.6393633E-06  0.2923076E+04  0.7818609E-02  0.8266045E-01
       -2   -1    0    0    0  501  0.00000000000E+00  0.00000000000E+00  0.95316468706E+03  0.95316468707E+03  0.25500000920E-02 0. -1.
        2   -1    0    0  501    0  0.00000000000E+00  0.00000000000E+00 -0.22410535227E+04  0.22410535227E+04  0.25500000920E-02 0.  1.
    10030    2    1    2    0    0  0.00000000000E+00  0.00000000000E+00 -0.12878888356E+04  0.31942182097E+04  0.29230758318E+04 0.  0.
        4    1    3    3  502    0  0.11060554395E+03  0.71328090404E+01  0.94856505120E+03  0.95501923152E+03  0.12699999809E+01 0. -1.
       -4    1    3    3    0  502 -0.11060554395E+03 -0.71328090404E+01 -0.22364538868E+04  0.22391989782E+04  0.12699999809E+01 0.  1.
</event>
<event>
 5   0  0.6393633E-06  0.2885800E+04  0.7818609E-02  0.8277115E-01
        2   -1    0    0  501    0  0.00000000000E+00  0.00000000000E+00  0.22019666127E+04  0.22019666127E+04  0.25500000920E-02 0. -1.
       -2   -1    0    0    0  501  0.00000000000E+00  0.00000000000E+00 -0.94550032021E+03  0.94550032021E+03  0.25500000920E-02 0.  1.
    10030    2    1    2    0    0  0.00000000000E+00  0.00000000000E+00  0.12564662925E+04  0.31474669329E+04  0.28857998111E+04 0.  0.
        4    1    3    3  502    0 -0.13974752922E+04  0.35780038272E+03  0.59373923994E+03  0.15599635265E+04  0.12699999809E+01 0.  1.
       -4    1    3    3    0  502  0.13974752922E+04 -0.35780038272E+03  0.66272705256E+03  0.15875034064E+04  0.12699999809E+01 0. -1.
</event>
<event>
 5   0  0.2348684E-06  0.2807806E+04  0.7818609E-02  0.8300849E-01
        1   -1    0    0  501    0  0.00000000000E+00  0.00000000000E+00  0.67428261362E+03  0.67428261364E+03  0.50400001928E-02 0. -1.
       -1   -1    0    0    0  501  0.00000000000E+00  0.00000000000E+00 -0.29230226167E+04  0.29230226167E+04  0.50400001928E-02 0.  1.
    10030    2    1    2    0    0  0.00000000000E+00  0.00000000000E+00 -0.22487400031E+04  0.35973052304E+04  0.28078057837E+04 0.  0.
        5    1    3    3  502    0 -0.98369779465E+03  0.96942354226E+03 -0.14471610232E+04  0.20004350708E+04  0.46999998093E+01 0.  1.
       -5    1    3    3    0  502  0.98369779465E+03 -0.96942354226E+03 -0.80157897996E+03  0.15968701596E+04  0.46999998093E+01 0. -1.
</event>
<event>
 5   0  0.2159500E-06  0.2893380E+04  0.7818609E-02  0.8274850E-01
       -3   -1    0    0    0  501  0.00000000000E+00  0.00000000000E+00  0.17299372035E+04  0.17299372064E+04  0.10100000352E+00 0. -1.
        3   -1    0    0  501    0  0.00000000000E+00  0.00000000000E+00 -0.12098198237E+04  0.12098198279E+04  0.10100000352E+00 0.  1.
    10030    2    1    2    0    0  0.00000000000E+00  0.00000000000E+00  0.52011737973E+03  0.29397570344E+04  0.28933802606E+04 0.  0.
        4    1    3    3  502    0 -0.48463480941E+03 -0.10990738038E+04 -0.55913800083E+03  0.13249419012E+04  0.12699999809E+01 0.  1.
       -4    1    3    3    0  502  0.48463480941E+03  0.10990738038E+04  0.10792553806E+04  0.16148151331E+04  0.12699999809E+01 0. -1.
</event>
<event>
 5   0  0.2348684E-06  0.2898812E+04  0.7818609E-02  0.8273231E-01
        1   -1    0    0  501    0  0.00000000000E+00  0.00000000000E+00  0.75371072476E+03  0.75371072477E+03  0.50400001928E-02 0. -1.
       -1   -1    0    0    0  501  0.00000000000E+00  0.00000000000E+00 -0.27872460395E+04  0.27872460395E+04  0.50400001928E-02 0.  1.
    10030    2    1    2    0    0  0.00000000000E+00  0.00000000000E+00 -0.20335353147E+04  0.35409567643E+04  0.28988116410E+04 0.  0.
        5    1    3    3  502    0 -0.63927458668E+03  0.30869505267E+03  0.52679619185E+03  0.88402542411E+03  0.46999998093E+01 0. -1.
       -5    1    3    3    0  502  0.63927458668E+03 -0.30869505267E+03 -0.25603315066E+04  0.26569313402E+04  0.46999998093E+01 0.  1.
</event>
<event>
 5   0  0.6393633E-06  0.2881629E+04  0.7818609E-02  0.8278365E-01
        2   -1    0    0  501    0  0.00000000000E+00  0.00000000000E+00  0.22356703571E+04  0.22356703572E+04  0.25500000920E-02 0.  1.
       -2   -1    0    0    0  501  0.00000000000E+00  0.00000000000E+00 -0.92855639531E+03  0.92855639531E+03  0.25500000920E-02 0. -1.
    10030    2    1    2    0    0  0.00000000000E+00  0.00000000000E+00  0.13071139618E+04  0.31642267525E+04  0.28816287116E+04 0.  0.
        4    1    3    3  502    0 -0.12043375750E+04 -0.73177560433E+03  0.98301399265E+03  0.17182091410E+04  0.12699999809E+01 0. -1.
       -4    1    3    3    0  502  0.12043375750E+04  0.73177560433E+03  0.32409996920E+03  0.14460176114E+04  0.12699999809E+01 0.  1.
</event>
<event>
 5   0  0.6733688E-06  0.2881439E+04  0.7818609E-02  0.8278421E-01
       -2   -1    0    0    0  501  0.00000000000E+00  0.00000000000E+00  0.16285698657E+04  0.16285698657E+04  0.25500000920E-02 0.  1.
        2   -1    0    0  501    0  0.00000000000E+00  0.00000000000E+00 -0.12745373246E+04  0.12745373246E+04  0.25500000920E-02 0. -1.
    10030    2    1    2    0    0  0.00000000000E+00  0.00000000000E+00  0.35403254107E+03  0.29031071903E+04  0.28814392789E+04 0.  0.
        5    1    3    3  502    0 -0.52754925502E+02  0.10594337314E+04 -0.80523447399E+03  0.13317685840E+04  0.46999998093E+01 0. -1.
       -5    1    3    3    0  502  0.52754925502E+02 -0.10594337314E+04  0.11592670151E+04  0.15713386063E+04  0.46999998093E+01 0.  1.
</event>
<event>
 5   0  0.2508094E-06  0.2816562E+04  0.7818609E-02  0.8298145E-01
       -1   -1    0    0    0  501  0.00000000000E+00  0.00000000000E+00  0.11869033175E+04  0.11869033175E+04  0.50400001928E-02 0. -1.
        1   -1    0    0  501    0  0.00000000000E+00  0.00000000000E+00 -0.16709490182E+04  0.16709490182E+04  0.50400001928E-02 0.  1.
    10030    2    1    2    0    0  0.00000000000E+00  0.00000000000E+00 -0.48404570068E+03  0.28578523357E+04  0.28165616862E+04 0.  0.
        3    1    3    3  502    0 -0.11509591625E+04 -0.78582983344E+03 -0.44752443728E+03  0.14637327806E+04  0.10100000352E+00 0.  1.
       -3    1    3    3    0  502  0.11509591625E+04  0.78582983344E+03 -0.36521263403E+02  0.13941195551E+04  0.10100000352E+00 0. -1.
</event>
<event>
 5   0  0.6393633E-06  0.2904046E+04  0.7818609E-02  0.8271675E-01
        2   -1    0    0  501    0  0.00000000000E+00  0.00000000000E+00  0.11883927862E+04  0.11883927862E+04  0.25500000920E-02 0. -1.
       -2   -1    0    0    0  501  0.00000000000E+00  0.00000000000E+00 -0.17741366594E+04  0.17741366594E+04  0.25500000920E-02 0.  1.
    10030    2    1    2    0    0  0.00000000000E+00  0.00000000000E+00 -0.58574387322E+03  0.29625294456E+04  0.29040462860E+04 0.  0.
        4    1    3    3  502    0 -0.13402050757E+04 -0.51453069541E+02 -0.86046927599E+03  0.15934886416E+04  0.12699999809E+01 0.  1.
       -4    1    3    3    0  502  0.13402050757E+04  0.51453069541E+02  0.27472540277E+03  0.13690408040E+04  0.12699999809E+01 0. -1.
</event>
<event>
 5   0  0.6513041E-06  0.2906043E+04  0.7818609E-02  0.8271082E-01
       -2   -1    0    0    0  501  0.00000000000E+00  0.00000000000E+00  0.21328094323E+04  0.21328094323E+04  0.25500000920E-02 0. -1.
        2   -1    0    0  501    0  0.00000000000E+00  0.00000000000E+00 -0.98990188931E+03  0.98990188932E+03  0.25500000920E-02 0.  1.
    10030    2    1    2    0    0  0.00000000000E+00  0.00000000000E+00  0.11429075430E+04  0.31227113216E+04  0.29060434178E+04 0.  0.
        1    1    3    3  502    0  0.14127920660E+04 -0.22480956807E+03  0.84488874528E+03  0.16614324408E+04  0.50400001928E-02 0.  1.
       -1    1    3    3    0  502 -0.14127920660E+04  0.22480956807E+03  0.29801879770E+03  0.14612788808E+04  0.50400001928E-02 0. -1.
</event>
<event>
 5   0  0.2508094E-06  0.2886558E+04  0.7818609E-02  0.8276888E-01
        1   -1    0    0  501    0  0.00000000000E+00  0.00000000000E+00  0.17987134090E+04  0.17987134090E+04  0.50400001928E-02 0.  1.
       -1   -1    0    0    0  501  0.00000000000E+00  0.00000000000E+00 -0.11580801016E+04  0.11580801016E+04  0.50400001928E-02 0. -1.
    10030    2    1    2    0    0  0.00000000000E+00  0.00000000000E+00  0.64063330738E+03  0.29567935106E+04  0.28865579554E+04 0.  0.
        3    1    3    3  502    0 -0.71505563537E+03 -0.57313161406E+03  0.14624673400E+04  0.17258606952E+04  0.10100000352E+00 0.  1.
       -3    1    3    3    0  502  0.71505563537E+03  0.57313161406E+03 -0.82183403259E+03  0.12309328154E+04  0.10100000352E+00 0. -1.
</event>
<event>
 5   0  0.6612533E-06  0.2801061E+04  0.7818609E-02  0.8302939E-01
        2   -1    0    0  501    0  0.00000000000E+00  0.00000000000E+00  0.20229699192E+04  0.20229699192E+04  0.25500000920E-02 0. -1.
       -2   -1    0    0    0  501  0.00000000000E+00  0.00000000000E+00 -0.96960668439E+03  0.96960668439E+03  0.25500000920E-02 0.  1.
    10030    2    1    2    0    0  0.00000000000E+00  0.00000000000E+00  0.10533632348E+04  0.29925766036E+04  0.28010606249E+04 0.  0.
        3    1    3    3  502    0 -0.10413633851E+04 -0.43133809432E+03  0.14147781754E+04  0.18088912481E+04  0.10100000352E+00 0. -1.
       -3    1    3    3    0  502  0.10413633851E+04  0.43133809432E+03 -0.36141494059E+03  0.11836853556E+04  0.10100000352E+00 0.  1.
</event>
<event>
 5   0  0.2508094E-06  0.2955809E+04  0.7818609E-02  0.8256464E-01
       -1   -1    0    0    0  501  0.00000000000E+00  0.00000000000E+00  0.86409925752E+03  0.86409925753E+03  0.50400001928E-02 0. -1.
        1   -1    0    0  501    0  0.00000000000E+00  0.00000000000E+00 -0.25277210263E+04  0.25277210263E+04  0.50400001928E-02 0.  1.
    10030    2    1    2    0    0  0.00000000000E+00  0.00000000000E+00 -0.16636217687E+04  0.33918202838E+04  0.29558091021E+04 0.  0.
        3    1    3    3  502    0 -0.99146077440E+02 -0.12932661440E+04 -0.18911590465E+02  0.12971988754E+04  0.10100000352E+00 0. -1.
       -3    1    3    3    0  502  0.99146077440E+02  0.12932661440E+04 -0.16447101783E+04  0.20946214084E+04  0.10100000352E+00 0.  1.
</event>
<event>
 5   0  0.2348684E-06  0.2892178E+04  0.7818609E-02  0.8275208E-01
       -1   -1    0    0    0  501  0.00000000000E+00  0.00000000000E+00  0.10338012952E+04  0.10338012952E+04  0.50400001928E-02 0.  1.
        1   -1    0    0  501    0  0.00000000000E+00  0.00000000000E+00 -0.20228007142E+04  0.20228007142E+04  0.50400001928E-02 0. -1.
    10030    2    1    2    0    0  0.00000000000E+00  0.00000000000E+00 -0.98899941901E+03  0.30566020094E+04  0.28921784165E+04 0.  0.
        5    1    3    3  502    0 -0.49779158317E+03 -0.11276878075E+04  0.30457735075E+03  0.12697502526E+04  0.46999998093E+01 0.  1.
       -5    1    3    3    0  502  0.49779158317E+03  0.11276878075E+04 -0.12935767698E+04  0.17868517568E+04  0.46999998093E+01 0. -1.
</event>
<event>
 5   0  0.2474769E-06  0.2856733E+04  0.7818609E-02  0.8285868E-01
       -1   -1    0    0    0  501  0.00000000000E+00  0.00000000000E+00  0.13168262340E+04  0.13168262340E+04  0.50400001928E-02 0.  1.
        1   -1    0    0  501    0  0.00000000000E+00  0.00000000000E+00 -0.15493549559E+04  0.15493549559E+04  0.50400001928E-02 0. -1.
    10030    2    1    2    0    0  0.00000000000E+00  0.00000000000E+00 -0.23252872197E+03  0.28661811899E+04  0.28567332754E+04 0.  0.
        1    1    3    3  502    0 -0.39652495912E+03  0.10100948668E+04 -0.10481567227E+04  0.15086935403E+04  0.50400001928E-02 0. -1.
       -1    1    3    3    0  502  0.39652495912E+03 -0.10100948668E+04  0.81562800072E+03  0.13574876496E+04  0.50400001928E-02 0.  1.
</event>
<event>
 5   0  0.2474769E-06  0.2812055E+04  0.7818609E-02  0.8299535E-01
       -1   -1    0    0    0  501  0.00000000000E+00  0.00000000000E+00  0.13351435188E+04  0.13351435188E+04  0.50400001928E-02 0. -1.
        1   -1    0    0  501    0  0.00000000000E+00  0.00000000000E+00 -0.14806752342E+04  0.14806752342E+04  0.50400001928E-02 0.  1.
    10030    2    1    2    0    0  0.00000000000E+00  0.00000000000E+00 -0.14553171538E+03  0.28158187531E+04  0.28120554351E+04 0.  0.
        1    1    3    3  502    0  0.96981629861E+02 -0.13400767476E+04 -0.48769078700E+03  0.14293542002E+04  0.50400001928E-02 0.  1.
       -1    1    3    3    0  502 -0.96981629861E+02  0.13400767476E+04  0.34215907162E+03  0.13864645528E+04  0.50400001928E-02 0. -1.
</event>
<event>
 5   0  0.6612533E-06  0.2978648E+04  0.7818609E-02  0.8249854E-01
        2   -1    0    0  501    0  0.00000000000E+00  0.00000000000E+00  0.18336696799E+04  0.18336696799E+04  0.25500000920E-02 0.  1.
       -2   -1    0    0    0  501  0.00000000000E+00  0.00000000000E+00 -0.12096433963E+04  0.12096433963E+04  0.25500000920E-02 0. -1.
    10030    2    1    2    0    0  0.00000000000E+00  0.00000000000E+00  0.62402628363E+03  0.30433130762E+04  0.29786482970E+04 0.  0.
        3    1    3    3  502    0 -0.96478928733E+03  0.46255080098E+03 -0.74648710418E+03  0.13046128235E+04  0.10100000352E+00 0. -1.
       -3    1    3    3    0  502  0.96478928733E+03 -0.46255080098E+03  0.13705133878E+04  0.17387002527E+04  0.10100000352E+00 0.  1.
</event>
<event>
 5   0  0.2474769E-06  0.2915708E+04  0.7818609E-02  0.8268219E-01
       -1   -1    0    0    0  501  0.00000000000E+00  0.00000000000E+00  0.10958229731E+04  0.10958229731E+04  0.50400001928E-02 0.  1.
        1   -1    0    0  501    0  0.00000000000E+00  0.00000000000E+00 -0.19394902396E+04  0.19394902396E+04  0.50400001928E-02 0. -1.
    10030    2    1    2    0    0  0.00000000000E+00  0.00000000000E+00 -0.84366726647E+03  0.30353132127E+04  0.29157077773E+04 0.  0.
        1    1    3    3  502    0 -0.47531448007E+03 -0.22191110695E+03  0.99417298620E+03  0.11240766526E+04  0.50400001928E-02 0.  1.
       -1    1    3    3    0  502  0.47531448007E+03  0.22191110695E+03 -0.18378402527E+04  0.19112365601E+04  0.50400001928E-02 0. -1.
</event>
<event>
 5   0  0.2429358E-06  0.2852695E+04  0.7818609E-02  0.8287093E-01
        1   -1    0    0  501    0  0.00000000000E+00  0.00000000000E+00  0.18449937209E+04  0.18449937209E+04  0.50400001928E-02 0.  1.
       -1   -1    0    0    0  501  0.00000000000E+00  0.00000000000E+00 -0.11026956206E+04  0.11026956206E+04  0.50400001928E-02 0. -1.
    10030    2    1    2    0    0  0.00000000000E+00  0.00000000000E+00  0.74229810031E+03  0.29476893416E+04  0.28526945130E+04 0.  0.
        2    1    3    3  502    0  0.14036681341E+04  0.22102803335E+03  0.24321634882E+03  0.14416281818E+04  0.25500000920E-02 0.  1.
       -2    1    3    3    0  502 -0.14036681341E+04 -0.22102803335E+03  0.49908175150E+03  0.15060611598E+04  0.25500000920E-02 0. -1.
</event>
<event>
 5   0  0.2348684E-06  0.2825310E+04  0.7818609E-02  0.8295454E-01
        1   -1    0    0  501    0  0.00000000000E+00  0.00000000000E+00  0.73036062495E+03  0.73036062496E+03  0.50400001928E-02 0. -1.
       -1   -1    0    0    0  501  0.00000000000E+00  0.00000000000E+00 -0.27323400007E+04  0.27323400007E+04  0.50400001928E-02 0.  1.
    10030    2    1    2    0    0  0.00000000000E+00  0.00000000000E+00 -0.20019793757E+04  0.34627006257E+04  0.28253095763E+04 0.  0.
        5    1    3    3  502    0 -0.13423871693E+04 -0.15344524798E+03 -0.49562794293E+03  0.14391726457E+04  0.46999998093E+01 0. -1.
       -5    1    3    3    0  502  0.13423871693E+04  0.15344524798E+03 -0.15063514328E+04  0.20235279799E+04  0.46999998093E+01 0.  1.
</event>
<event>
 5   0  0.6393633E-06  0.2887791E+04  0.7818609E-02  0.8276519E-01
        2   -1    0    0  501    0  0.00000000000E+00  0.00000000000E+00  0.19899587787E+04  0.19899587787E+04  0.25500000920E-02 0. -1.
       -2   -1    0    0    0  501  0.00000000000E+00  0.00000000000E+00 -0.10476771799E+04  0.10476771799E+04  0.25500000920E-02 0.  1.
    10030    2    1    2    0    0  0.00000000000E+00  0.00000000000E+00  0.94228159873E+03  0.30376359586E+04  0.28877911292E+04 0.  0.
        4    1    3    3  502    0 -0.88064595777E+03  0.83946316553E+03  0.12890460000E+04  0.17725340370E+04  0.12699999809E+01 0. -1.
       -4    1    3    3    0  502  0.88064595777E+03 -0.83946316553E+03 -0.34676440126E+03  0.12651019216E+04  0.12699999809E+01 0.  1.
</event>
<event>
 5   0  0.6612533E-06  0.2588776E+04  0.7818609E-02  0.8372024E-01
       -2   -1    0    0    0  501  0.00000000000E+00  0.00000000000E+00  0.10002947704E+04  0.10002947704E+04  0.25500000920E-02 0. -1.
        2   -1    0    0  501    0  0.00000000000E+00  0.00000000000E+00 -0.16749465555E+04  0.16749465555E+04  0.25500000920E-02 0.  1.
    10030    2    1    2    0    0  0.00000000000E+00  0.00000000000E+00 -0.67465178514E+03  0.26752413259E+04  0.25887759889E+04 0.  0.
        3    1    3    3  502    0  0.24934614605E+03  0.52358139657E+02 -0.16487775349E+04  0.16683471597E+04  0.10100000352E+00 0.  1.
       -3    1    3    3    0  502 -0.24934614605E+03 -0.52358139657E+02  0.97412574978E+03  0.10068941662E+04  0.10100000352E+00 0. -1.
</event>
<event>
 5   0  0.2336512E-06  0.2899225E+04  0.7818609E-02  0.8273108E-01
       -1   -1    0    0    0  501  0.00000000000E+00  0.00000000000E+00  0.11596497252E+04  0.11596497252E+04  0.50400001928E-02 0.  1.
        1   -1    0    0  501    0  0.00000000000E+00  0.00000000000E+00 -0.18120789319E+04  0.18120789319E+04  0.50400001928E-02 0. -1.
    10030    2    1    2    0    0  0.00000000000E+00  0.00000000000E+00 -0.65242920667E+03  0.29717286571E+04  0.28992253003E+04 0.  0.
        4    1    3    3  502    0  0.13536968975E+04  0.13883198921E+03  0.18588490443E+03  0.13734352632E+04  0.12699999809E+01 0.  1.
       -4    1    3    3    0  502 -0.13536968975E+04 -0.13883198921E+03 -0.83831411110E+03  0.15982933940E+04  0.12699999809E+01 0. -1.
</event>
<event>
 5   0  0.2429358E-06  0.2867658E+04  0.7818609E-02  0.8282566E-01
       -1   -1    0    0    0  501  0.00000000000E+00  0.00000000000E+00  0.20791086582E+04  0.20791086582E+04  0.50400001928E-02 0.  1.
        1   -1    0    0  501    0  0.00000000000E+00  0.00000000000E+00 -0.98882070389E+03  0.98882070390E+03  0.50400001928E-02 0. -1.
    10030    2    1    2    0    0  0.00000000000E+00  0.00000000000E+00  0.10902879543E+04  0.30679293621E+04  0.28676580597E+04 0.  0.
        2    1    3    3  502    0  0.21148885485E+03  0.14169600300E+04  0.48310790886E+03  0.15119181572E+04  0.25500000920E-02 0. -1.
       -2    1    3    3    0  502 -0.21148885485E+03 -0.14169600300E+04  0.60718004544E+03  0.15560112049E+04  0.25500000920E-02 0.  1.
</event>
<event>
 5   0  0.2336512E-06  0.2491332E+04  0.7818609E-02  0.8406080E-01
        1   -1    0    0  501    0  0.00000000000E+00  0.00000000000E+00  0.17777217889E+04  0.17777217889E+04  0.50400001928E-02 0.  1.
       -1   -1    0    0    0  501  0.00000000000E+00  0.00000000000E+00 -0.87284973006E+03  0.87284973008E+03  0.50400001928E-02 0. -1.
    10030    2    1    2    0    0  0.00000000000E+00  0.00000000000E+00  0.90487205881E+03  0.26505715190E+04  0.24913321606E+04 0.  0.
        4    1    3    3  502    0  0.11761979332E+04  0.39887439945E+03  0.55415012325E+03  0.13600096825E+04  0.12699999809E+01 0.  1.
       -4    1    3    3    0  502 -0.11761979332E+04 -0.39887439945E+03  0.35072193556E+03  0.12905618364E+04  0.12699999809E+01 0. -1.
</event>
<event>
 5   0  0.2508094E-06  0.2899918E+04  0.7818609E-02  0.8272902E-01
        1   -1    0    0  501    0  0.00000000000E+00  0.00000000000E+00  0.16588024155E+04  0.16588024155E+04  0.50400001928E-02 0. -1.
       -1   -1    0    0    0  501  0.00000000000E+00  0.00000000000E+00 -0.12674089726E+04  0.12674089726E+04  0.50400001928E-02 0.  1.
    10030    2    1    2    0    0  0.00000000000E+00  0.00000000000E+00  0.39139344289E+03  0.29262113882E+04  0.28999179749E+04 0.  0.
        3    1    3    3  502    0  0.40598953086E+03 -0.60988892406E+03 -0.10668831771E+04  0.12942301660E+04  0.10100000352E+00 0.  1.
       -3    1    3    3    0  502 -0.40598953086E+03  0.60988892406E+03  0.14582766200E+04  0.16319812221E+04  0.10100000352E+00 0. -1.
</event>
<event>
 5   0  0.2474769E-06  0.2899569E+04  0.7818609E-02  0.8273006E-01
        1   -1    0    0  501    0  0.00000000000E+00  0.00000000000E+00  0.13402483877E+04  0.13402483878E+04  0.50400001928E-02 0. -1.
       -1   -1    0    0    0  501  0.00000000000E+00  0.00000000000E+00 -0.15682729484E+04  0.15682729484E+04  0.50400001928E-02 0.  1.
    10030    2    1    2    0    0  0.00000000000E+00  0.00000000000E+00 -0.22802456064E+03  0.29085213361E+04  0.28995691340E+04 0.  0.
        1    1    3    3  502    0 -0.12898246540E+04  0.27598738588E+03 -0.71758309171E+03  0.15015798909E+04  0.50400001928E-02 0.  1.
       -1    1    3    3    0  502  0.12898246540E+04 -0.27598738588E+03  0.48955853107E+03  0.14069414453E+04  0.50400001928E-02 0. -1.
</event>
<event>
 5   0  0.6393633E-06  0.2933931E+04  0.7818609E-02  0.8262853E-01
        2   -1    0    0  501    0  0.00000000000E+00  0.00000000000E+00  0.20404481200E+04  0.20404481200E+04  0.25500000920E-02 0. -1.
       -2   -1    0    0    0  501  0.00000000000E+00  0.00000000000E+00 -0.10546640423E+04  0.10546640423E+04  0.25500000920E-02 0.  1.
    10030    2    1    2    0    0  0.00000000000E+00  0.00000000000E+00  0.98578407766E+03  0.30951121623E+04  0.29339306484E+04 0.  0.
        4    1    3    3  502    0 -0.18214276050E+03  0.14476540605E+04  0.33252985842E+03  0.14964812006E+04  0.12699999809E+01 0. -1.
       -4    1    3    3    0  502  0.18214276050E+03 -0.14476540605E+04  0.65325421924E+03  0.15986309617E+04  0.12699999809E+01 0.  1.
</event>
<event>
 5   0  0.6393633E-06  0.2863110E+04  0.7818609E-02  0.8283939E-01
        2   -1    0    0  501    0  0.00000000000E+00  0.00000000000E+00  0.13250651781E+04  0.13250651781E+04  0.25500000920E-02 0. -1.
       -2   -1    0    0    0  501  0.00000000000E+00  0.00000000000E+00 -0.15466025808E+04  0.15466025808E+04  0.25500000920E-02 0.  1.
    10030    2    1    2    0    0  0.00000000000E+00  0.00000000000E+00 -0.22153740269E+03  0.28716677589E+04  0.28631096550E+04 0.  0.
        4    1    3    3  502    0 -0.24886314124E+02  0.43224830314E+02  0.13241928654E+04  0.13251324734E+04  0.12699999809E+01 0. -1.
       -4    1    3    3    0  502  0.24886314124E+02 -0.43224830314E+02 -0.15457302680E+04  0.15465352854E+04  0.12699999809E+01 0.  1.
</event>
<event>
 5   0  0.2474769E-06  0.2892156E+04  0.7818609E-02  0.8275215E-01
       -1   -1    0    0    0  501  0.00000000000E+00  0.00000000000E+00  0.10111918788E+04  0.10111918788E+04  0.50400001928E-02 0.  1.
        1   -1    0    0  501    0  0.00000000000E+00  0.00000000000E+00 -0.20679974306E+04  0.20679974306E+04  0.50400001928E-02 0. -1.
    10030    2    1    2    0    0  0.00000000000E+00  0.00000000000E+00 -0.10568055518E+04  0.30791893094E+04  0.28921564322E+04 0.  0.
        1    1    3    3  502    0  0.42472372228E+03  0.93034246262E+03  0.56006957166E+03  0.11660211247E+04  0.50400001928E-02 0.  1.
       -1    1    3    3    0  502 -0.42472372228E+03 -0.93034246262E+03 -0.16168751235E+04  0.19131681847E+04  0.50400001928E-02 0. -1.
</event>
<event>
 5   0  0.2336512E-06  0.2882328E+04  0.7818609E-02  0.8278155E-01
        1   -1    0    0  501    0  0.00000000000E+00  0.00000000000E+00  0.11437927951E+04  0.11437927951E+04  0.50400001928E-02 0. -1.
       -1   -1    0    0    0  501  0.00000000000E+00  0.00000000000E+00 -0.18158479047E+04  0.18158479047E+04  0.50400001928E-02 0.  1.
    10030    2    1    2    0    0  0.00000000000E+00  0.00000000000E+00 -0.67205510957E+03  0.29596406998E+04  0.28823280524E+04 0.  0.
        4    1    3    3  502    0 -0.14059035791E+04  0.31478970681E+03 -0.29908041077E+03  0.14714306434E+04  0.12699999809E+01 0.  1.
       -4    1    3    3    0  502  0.14059035791E+04 -0.31478970681E+03 -0.37297469880E+03  0.14882100564E+04  0.12699999809E+01 0. -1.
</event>
<event>
 5   0  0.6393633E-06  0.2904468E+04  0.7818609E-02  0.8271549E-01
        2   -1    0    0  501    0  0.00000000000E+00  0.00000000000E+00  0.14008065361E+04  0.14008065361E+04  0.25500000920E-02 0. -1.
       -2   -1    0    0    0  501  0.00000000000E+00  0.00000000000E+00 -0.15055499677E+04  0.15055499677E+04  0.25500000920E-02 0.  1.
    10030    2    1    2    0    0  0.00000000000E+00  0.00000000000E+00 -0.10474343156E+03  0.29063565038E+04  0.29044684438E+04 0.  0.
        4    1    3    3  502    0 -0.13823958595E+04 -0.15472409353E+03  0.36506221814E+03  0.14381341709E+04  0.12699999809E+01 0. -1.
       -4    1    3    3    0  502  0.13823958595E+04  0.15472409353E+03 -0.46980564970E+03  0.14682223329E+04  0.12699999809E+01 0.  1.
</event>
<event>
 5   0  0.6393633E-06  0.2896498E+04  0.7818609E-02  0.8273920E-01
        2   -1    0    0  501    0  0.00000000000E+00  0.00000000000E+00  0.13191902911E+04  0.13191902911E+04  0.25500000920E-02 0.  1.
       -2   -1    0    0    0  501  0.00000000000E+00  0.00000000000E+00 -0.15899336984E+04  0.15899336984E+04  0.25500000920E-02 0. -1.
    10030    2    1    2    0    0  0.00000000000E+00  0.00000000000E+00 -0.27074340727E+03  0.29091239896E+04  0.28964979534E+04 0.  0.
        4    1    3    3  502    0  0.50887184462E+03 -0.78944285164E+03 -0.12425621800E+04  0.15576048775E+04  0.12699999809E+01 0. -1.
       -4    1    3    3    0  502 -0.50887184462E+03  0.78944285164E+03  0.97181877277E+03  0.13515191121E+04  0.12699999809E+01 0.  1.
</event>
<event>
 5   0  0.6733688E-06  0.2906833E+04  0.7818609E-02  0.8270847E-01
       -2   -1    0    0    0  501  0.00000000000E+00  0.00000000000E+00  0.17119441753E+04  0.17119441753E+04  0.25500000920E-02 0. -1.
        2   -1    0    0  501    0  0.00000000000E+00  0.00000000000E+00 -0.12339303619E+04  0.12339303619E+04  0.25500000920E-02 0.  1.
    10030    2    1    2    0    0  0.00000000000E+00  0.00000000000E+00  0.47801381341E+03  0.29458745373E+04  0.29068332569E+04 0.  0.
        5    1    3    3  502    0 -0.55975135868E+03  0.35470780227E+03  0.15499253056E+04  0.16856541020E+04  0.46999998093E+01 0. -1.
       -5    1    3    3    0  502  0.55975135868E+03 -0.35470780227E+03 -0.10719114922E+04  0.12602204353E+04  0.46999998093E+01 0.  1.
</event>
<event>
 5   0  0.6513041E-06  0.2877237E+04  0.7818609E-02  0.8279682E-01
       -2   -1    0    0    0  501  0.00000000000E+00  0.00000000000E+00  0.19385963839E+04  0.19385963839E+04  0.25500000920E-02 0. -1.
        2   -1    0    0  501    0  0.00000000000E+00  0.00000000000E+00 -0.10675886215E+04  0.10675886215E+04  0.25500000920E-02 0.  1.
    10030    2    1    2    0    0  0.00000000000E+00  0.00000000000E+00  0.87100776241E+03  0.30061850053E+04  0.28772371755E+04 0.  0.
        1    1    3    3  502    0 -0.97166916346E+03  0.50228805610E+03  0.14118284441E+04  0.17859713911E+04  0.50400001928E-02 0. -1.
       -1    1    3    3    0  502  0.97166916346E+03 -0.50228805610E+03 -0.54082068165E+03  0.12202136142E+04  0.50400001928E-02 0.  1.
</event>
<event>
 5   0  0.2348684E-06  0.2883399E+04  0.7818609E-02  0.8277834E-01
        1   -1    0    0  501    0  0.00000000000E+00  0.00000000000E+00  0.29228828370E+04  0.29228828370E+04  0.50400001928E-02 0. -1.
       -1   -1    0    0    0  501  0.00000000000E+00  0.00000000000E+00 -0.71111225048E+03  0.71111225050E+03  0.50400001928E-02 0.  1.
    10030    2    1    2    0    0  0.00000000000E+00  0.00000000000E+00  0.22117705866E+04  0.36339950875E+04  0.28833992385E+04 0.  0.
        5    1    3    3  502    0 -0.61027822050E+03 -0.72305249664E+03  0.24768124456E+04  0.26513895225E+04  0.46999998093E+01 0. -1.
       -5    1    3    3    0  502  0.61027822050E+03  0.72305249664E+03 -0.26504185908E+03  0.98260556501E+03  0.46999998093E+01 0.  1.
</event>
<event>
 5   0  0.6733688E-06  0.2933029E+04  0.7818609E-02  0.8263118E-01
        2   -1    0    0  501    0  0.00000000000E+00  0.00000000000E+00  0.18910662506E+04  0.18910662506E+04  0.25500000920E-02 0.  1.
       -2   -1    0    0    0  501  0.00000000000E+00  0.00000000000E+00 -0.11372760673E+04  0.11372760673E+04  0.25500000920E-02 0. -1.
    10030    2    1    2    0    0  0.00000000000E+00  0.00000000000E+00  0.75379018325E+03  0.30283423179E+04  0.29330287340E+04 0.  0.
        5    1    3    3  502    0  0.13664723504E+04  0.15873136268E+03 -0.14775136049E+03  0.13835804583E+04  0.46999998093E+01 0. -1.
       -5    1    3    3    0  502 -0.13664723504E+04 -0.15873136268E+03  0.90154154374E+03  0.16447618597E+04  0.46999998093E+01 0.  1.
</event>
<event>
 5   0  0.2429358E-06  0.2879165E+04  0.7818609E-02  0.8279104E-01
        1   -1    0    0  501    0  0.00000000000E+00  0.00000000000E+00  0.11114907662E+04  0.11114907662E+04  0.50400001928E-02 0.  1.
       -1   -1    0    0    0  501  0.00000000000E+00  0.00000000000E+00 -0.18645206016E+04  0.18645206016E+04  0.50400001928E-02 0. -1.
    10030    2    1    2    0    0  0.00000000000E+00  0.00000000000E+00 -0.75302983543E+03  0.29760113678E+04  0.28791647623E+04 0.  0.
        2    1    3    3  502    0  0.46863574295E+03 -0.65280263603E+03  0.85807646099E+03  0.11756130120E+04  0.25500000920E-02 0.  1.
       -2    1    3    3    0  502 -0.46863574295E+03  0.65280263603E+03 -0.16111062964E+04  0.18003983558E+04  0.25500000920E-02 0. -1.
</event>
<event>
 5   0  0.6733688E-06  0.2927346E+04  0.7818609E-02  0.8264787E-01
       -2   -1    0    0    0  501  0.00000000000E+00  0.00000000000E+00  0.90756651372E+03  0.90756651372E+03  0.25500000920E-02 0.  1.
        2   -1    0    0  501    0  0.00000000000E+00  0.00000000000E+00 -0.23605315147E+04  0.23605315147E+04  0.25500000920E-02 0. -1.
    10030    2    1    2    0    0  0.00000000000E+00  0.00000000000E+00 -0.14529650010E+04  0.32680980284E+04  0.29273464826E+04 0.  0.
        5    1    3    3  502    0  0.14633076125E+03  0.11919328296E+04 -0.16606660559E+04  0.20493780523E+04  0.46999998093E+01 0. -1.
       -5    1    3    3    0  502 -0.14633076125E+03 -0.11919328296E+04  0.20770105494E+03  0.12187199761E+04  0.46999998093E+01 0.  1.
</event>
<event>
 5   0  0.2508094E-06  0.2847464E+04  0.7818609E-02  0.8288682E-01
        1   -1    0    0  501    0  0.00000000000E+00  0.00000000000E+00  0.18681708666E+04  0.18681708666E+04  0.50400001928E-02 0.  1.
       -1   -1    0    0    0  501  0.00000000000E+00  0.00000000000E+00 -0.10850251797E+04  0.10850251797E+04  0.50400001928E-02 0. -1.
    10030    2    1    2    0    0  0.00000000000E+00  0.00000000000E+00  0.78314568687E+03  0.29531960464E+04  0.28474637349E+04 0.  0.
        3    1    3    3  502    0  0.10484655420E+04 -0.89641948948E+03  0.75702694860E+03  0.15735112662E+04  0.10100000352E+00 0.  1.
       -3    1    3    3    0  502 -0.10484655420E+04  0.89641948948E+03  0.26118738268E+02  0.13796847801E+04  0.10100000352E+00 0. -1.
</event>
<event>
 5   0  0.2336512E-06  0.2853456E+04  0.7818609E-02  0.8286862E-01
        1   -1    0    0  501    0  0.00000000000E+00  0.00000000000E+00  0.17514908901E+04  0.17514908901E+04  0.50400001928E-02 0. -1.
       -1   -1    0    0    0  501  0.00000000000E+00  0.00000000000E+00 -0.11621826619E+04  0.11621826619E+04  0.50400001928E-02 0.  1.
    10030    2    1    2    0    0  0.00000000000E+00  0.00000000000E+00  0.58930822818E+03  0.29136735520E+04  0.28534556909E+04 0.  0.
        4    1    3    3  502    0  0.12413971295E+04 -0.28457728684E+03  0.95126388424E+03  0.15896401026E+04  0.12699999809E+01 0. -1.
       -4    1    3    3    0  502 -0.12413971295E+04  0.28457728684E+03 -0.36195565606E+03  0.13240334494E+04  0.12699999809E+01 0.  1.
</event>
<event>
 5   0  0.2508094E-06  0.2906255E+04  0.7818609E-02  0.8271019E-01
        1   -1    0    0  501    0  0.00000000000E+00  0.00000000000E+00  0.19642038585E+04  0.19642038585E+04  0.50400001928E-02 0.  1.
       -1   -1    0    0    0  501  0.00000000000E+00  0.00000000000E+00 -0.10750304077E+04  0.10750304077E+04  0.50400001928E-02 0. -1.
    10030    2    1    2    0    0  0.00000000000E+00  0.00000000000E+00  0.88917345077E+03  0.30392342662E+04  0.29062545483E+04 0.  0.
        3    1    3    3  502    0 -0.56823021890E+03  0.54785827489E+02  0.18420286838E+04  0.19284596834E+04  0.10100000352E+00 0.  1.
       -3    1    3    3    0  502  0.56823021890E+03 -0.54785827489E+02 -0.95285523299E+03  0.11107745828E+04  0.10100000352E+00 0. -1.
</event>
<event>
 5   0  0.2508094E-06  0.2903391E+04  0.7818609E-02  0.8271869E-01
       -1   -1    0    0    0  501  0.00000000000E+00  0.00000000000E+00  0.15457439328E+04  0.15457439328E+04  0.50400001928E-02 0.  1.
        1   -1    0    0  501    0  0.00000000000E+00  0.00000000000E+00 -0.13633697270E+04  0.13633697271E+04  0.50400001928E-02 0. -1.
    10030    2    1    2    0    0  0.00000000000E+00  0.00000000000E+00  0.18237420577E+03  0.29091136599E+04  0.29033914540E+04 0.  0.
        3    1    3    3  502    0  0.31821813757E+03 -0.10296161608E+04  0.10657541873E+04  0.15156530671E+04  0.10100000352E+00 0.  1.
       -3    1    3    3    0  502 -0.31821813757E+03  0.10296161608E+04 -0.88337998155E+03  0.13934605928E+04  0.10100000352E+00 0. -1.
</event>
<event>
 5   0  0.6615403E-06  0.2867474E+04  0.7818609E-02  0.8282621E-01
        2   -1    0    0  501    0  0.00000000000E+00  0.00000000000E+00  0.15158786107E+04  0.15158786107E+04  0.25500000920E-02 0.  1.
       -2   -1    0    0    0  501  0.00000000000E+00  0.00000000000E+00 -0.13560463820E+04  0.13560463820E+04  0.25500000920E-02 0. -1.
    10030    2    1    2    0    0  0.00000000000E+00  0.00000000000E+00  0.15983222872E+03  0.28719249927E+04  0.28674739445E+04 0.  0.
        2    1    3    3  502    0 -0.11613721498E+04 -0.16648696485E+03 -0.74543740329E+03  0.13900288134E+04  0.25500000920E-02 0. -1.
       -2    1    3    3    0  502  0.11613721498E+04  0.16648696485E+03  0.90526963201E+03  0.14818961793E+04  0.25500000920E-02 0.  1.
</event>
<event>
 5   0  0.2348684E-06  0.2895728E+04  0.7818609E-02  0.8274150E-01
       -1   -1    0    0    0  501  0.00000000000E+00  0.00000000000E+00  0.24813692886E+04  0.24813692886E+04  0.50400001928E-02 0. -1.
        1   -1    0    0  501    0  0.00000000000E+00  0.00000000000E+00 -0.84481961576E+03  0.84481961578E+03  0.50400001928E-02 0.  1.
    10030    2    1    2    0    0  0.00000000000E+00  0.00000000000E+00  0.16365496728E+04  0.33261889044E+04  0.28957275072E+04 0.  0.
        5    1    3    3  502    0 -0.12563561702E+03  0.11141442208E+04 -0.23397352415E+03  0.11453677807E+04  0.46999998093E+01 0.  1.
       -5    1    3    3    0  502  0.12563561702E+03 -0.11141442208E+04  0.18705231970E+04  0.21808211237E+04  0.46999998093E+01 0. -1.
</event>
<event>
 5   0  0.2429358E-06  0.2897027E+04  0.7818609E-02  0.8273763E-01
       -1   -1    0    0    0  501  0.00000000000E+00  0.00000000000E+00  0.14580087874E+04  0.14580087874E+04  0.50400001928E-02 0. -1.
        1   -1    0    0  501    0  0.00000000000E+00  0.00000000000E+00 -0.14390802894E+04  0.14390802895E+04  0.50400001928E-02 0.  1.
    10030    2    1    2    0    0  0.00000000000E+00  0.00000000000E+00  0.18928497917E+02  0.28970890768E+04  0.28970272403E+04 0.  0.
        2    1    3    3  502    0  0.48122178780E+03 -0.13556435569E+04  0.17931440928E+03  0.14496542759E+04  0.25500000920E-02 0. -1.
       -2    1    3    3    0  502 -0.48122178780E+03  0.13556435569E+04 -0.16038591136E+03  0.14474348009E+04  0.25500000920E-02 0.  1.
</event>
<event>
 5   0  0.2508094E-06  0.2913079E+04  0.7818609E-02  0.8268997E-01
        1   -1    0    0  501    0  0.00000000000E+00  0.00000000000E+00  0.16154777807E+04  0.16154777807E+04  0.50400001928E-02 0. -1.
       -1   -1    0    0    0  501  0.00000000000E+00  0.00000000000E+00 -0.13132381288E+04  0.13132381288E+04  0.50400001928E-02 0.  1.
    10030    2    1    2    0    0  0.00000000000E+00  0.00000000000E+00  0.30223965191E+03  0.29287159096E+04  0.29130787960E+04 0.  0.
        3    1    3    3  502    0  0.13105166934E+04  0.62970409770E+03  0.63903054473E+02  0.14553572980E+04  0.10100000352E+00 0.  1.
       -3    1    3    3    0  502 -0.13105166934E+04 -0.62970409770E+03  0.23833659743E+03  0.14733586115E+04  0.10100000352E+00 0. -1.
</event>
<event>
 5   0  0.6513041E-06  0.2891809E+04  0.7818609E-02  0.8275319E-01
       -2   -1    0    0    0  501  0.00000000000E+00  0.00000000000E+00  0.13742363699E+04  0.13742363699E+04  0.25500000920E-02 0.  1.
        2   -1    0    0  501    0  0.00000000000E+00  0.00000000000E+00 -0.15213103748E+04  0.15213103748E+04  0.25500000920E-02 0. -1.
    10030    2    1    2    0    0  0.00000000000E+00  0.00000000000E+00 -0.14707400493E+03  0.28955467447E+04  0.28918091548E+04 0.  0.
        1    1    3    3  502    0  0.70608103577E+03  0.12591956252E+04 -0.15436304860E+03  0.14518787836E+04  0.50400001928E-02 0. -1.
       -1    1    3    3    0  502 -0.70608103577E+03 -0.12591956252E+04  0.72890436776E+01  0.14436679610E+04  0.50400001928E-02 0.  1.
</event>
<event>
 5   0  0.6615403E-06  0.2885217E+04  0.7818609E-02  0.8277289E-01
        2   -1    0    0  501    0  0.00000000000E+00  0.00000000000E+00  0.12830587842E+04  0.12830587842E+04  0.25500000920E-02 0.  1.
       -2   -1    0    0    0  501  0.00000000000E+00  0.00000000000E+00 -0.16219988830E+04  0.16219988830E+04  0.25500000920E-02 0. -1.
    10030    2    1    2    0    0  0.00000000000E+00  0.00000000000E+00 -0.33894009876E+03  0.29050576672E+04  0.28852174371E+04 0.  0.
        2    1    3    3  502    0  0.18221454324E+03  0.14275422457E+04 -0.68576643482E+02  0.14407573561E+04  0.25500000920E-02 0.  1.
       -2    1    3    3    0  502 -0.18221454324E+03 -0.14275422457E+04 -0.27036345527E+03  0.14643003111E+04  0.25500000920E-02 0. -1.
</event>
<event>
 5   0  0.2508094E-06  0.2554760E+04  0.7818609E-02  0.8383732E-01
        1   -1    0    0  501    0  0.00000000000E+00  0.00000000000E+00  0.17289224332E+04  0.17289224332E+04  0.50400001928E-02 0.  1.
       -1   -1    0    0    0  501  0.00000000000E+00  0.00000000000E+00 -0.94376716494E+03  0.94376716496E+03  0.50400001928E-02 0. -1.
    10030    2    1    2    0    0  0.00000000000E+00  0.00000000000E+00  0.78515526829E+03  0.26726895982E+04  0.25547604375E+04 0.  0.
        3    1    3    3  502    0  0.89928301860E+03 -0.65924139897E+03 -0.25940037036E+03  0.11448134049E+04  0.10100000352E+00 0. -1.
       -3    1    3    3    0  502 -0.89928301860E+03  0.65924139897E+03  0.10445556386E+04  0.15278761933E+04  0.10100000352E+00 0.  1.
</event>
<event>
 5   0  0.6513041E-06  0.2760984E+04  0.7818609E-02  0.8315484E-01
        2   -1    0    0  501    0  0.00000000000E+00  0.00000000000E+00  0.23328525973E+04  0.23328525973E+04  0.25500000920E-02 0. -1.
       -2   -1    0    0    0  501  0.00000000000E+00  0.00000000000E+00 -0.81692207749E+03  0.81692207749E+03  0.25500000920E-02 0.  1.
    10030    2    1    2    0    0  0.00000000000E+00  0.00000000000E+00  0.15159305198E+04  0.31497746748E+04  0.27609844551E+04 0.  0.
        1    1    3    3  502    0 -0.87073323257E+01 -0.50365652161E+03  0.22242633411E+04  0.22805905200E+04  0.50400001928E-02 0. -1.
       -1    1    3    3    0  502  0.87073323257E+01  0.50365652161E+03 -0.70833282121E+03  0.86918415485E+03  0.50400001928E-02 0.  1.
</event>
<event>
 5   0  0.2474769E-06  0.2360538E+04  0.7818609E-02  0.8454427E-01
        1   -1    0    0  501    0  0.00000000000E+00  0.00000000000E+00  0.16142677025E+04  0.16142677025E+04  0.50400001928E-02 0. -1.
       -1   -1    0    0    0  501  0.00000000000E+00  0.00000000000E+00 -0.86295186877E+03  0.86295186878E+03  0.50400001928E-02 0.  1.
    10030    2    1    2    0    0  0.00000000000E+00  0.00000000000E+00  0.75131583376E+03  0.24772195713E+04  0.23605383544E+04 0.  0.
        1    1    3    3  502    0  0.59636943277E+02 -0.97995195404E+03  0.10631530110E+04  0.14471201478E+04  0.50400001928E-02 0. -1.
       -1    1    3    3    0  502 -0.59636943277E+02  0.97995195404E+03 -0.31183717727E+03  0.10300994235E+04  0.50400001928E-02 0.  1.
</event>
<event>
 5   0  0.2508094E-06  0.3052063E+04  0.7818609E-02  0.8229018E-01
        1   -1    0    0  501    0  0.00000000000E+00  0.00000000000E+00  0.18186884552E+04  0.18186884552E+04  0.50400001928E-02 0.  1.
       -1   -1    0    0    0  501  0.00000000000E+00  0.00000000000E+00 -0.12804682719E+04  0.12804682719E+04  0.50400001928E-02 0. -1.
    10030    2    1    2    0    0  0.00000000000E+00  0.00000000000E+00  0.53822018329E+03  0.30991567272E+04  0.30520634747E+04 0.  0.
        3    1    3    3  502    0  0.26390734458E+03 -0.32269045538E+03  0.17597518261E+04  0.18084531280E+04  0.10100000352E+00 0.  1.
       -3    1    3    3    0  502 -0.26390734458E+03  0.32269045538E+03 -0.12215316428E+04  0.12907035992E+04  0.10100000352E+00 0. -1.
</event>
<event>
 5   0  0.6393633E-06  0.2880260E+04  0.7818609E-02  0.8278775E-01
        2   -1    0    0  501    0  0.00000000000E+00  0.00000000000E+00  0.20341670163E+04  0.20341670163E+04  0.25500000920E-02 0.  1.
       -2   -1    0    0    0  501  0.00000000000E+00  0.00000000000E+00 -0.10195694986E+04  0.10195694986E+04  0.25500000920E-02 0. -1.
    10030    2    1    2    0    0  0.00000000000E+00  0.00000000000E+00  0.10145975177E+04  0.30537365149E+04  0.28802601583E+04 0.  0.
        4    1    3    3  502    0  0.85222487794E+03 -0.11189433942E+04  0.83520196960E+03  0.16358134078E+04  0.12699999809E+01 0.  1.
       -4    1    3    3    0  502 -0.85222487794E+03  0.11189433942E+04  0.17939554812E+03  0.14179231071E+04  0.12699999809E+01 0. -1.
</event>
<event>
 5   0  0.2159500E-06  0.2861147E+04  0.7818609E-02  0.8284532E-01
        4   -1    0    0  501    0  0.00000000000E+00  0.00000000000E+00  0.14177189331E+04  0.14177195019E+04  0.12699999809E+01 0.  1.
       -4   -1    0    0    0  501  0.00000000000E+00  0.00000000000E+00 -0.14435431154E+04  0.14435436741E+04  0.12699999809E+01 0. -1.
    10030    2    1    2    0    0  0.00000000000E+00  0.00000000000E+00 -0.25824182312E+02  0.28612631760E+04  0.28611466362E+04 0.  0.
        3    1    3    3  502    0 -0.85207202979E+03  0.10398940567E+04  0.47612072613E+03  0.14262178477E+04  0.10100000352E+00 0.  1.
       -3    1    3    3    0  502  0.85207202979E+03 -0.10398940567E+04 -0.50194490844E+03  0.14350453283E+04  0.10100000352E+00 0. -1.
</event>
<event>
 5   0  0.6513041E-06  0.2906598E+04  0.7818609E-02  0.8270917E-01
       -2   -1    0    0    0  501  0.00000000000E+00  0.00000000000E+00  0.16102779744E+04  0.16102779744E+04  0.25500000920E-02 0.  1.
        2   -1    0    0  501    0  0.00000000000E+00  0.00000000000E+00 -0.13116233018E+04  0.13116233018E+04  0.25500000920E-02 0. -1.
    10030    2    1    2    0    0  0.00000000000E+00  0.00000000000E+00  0.29865467265E+03  0.29219012762E+04  0.29065980896E+04 0.  0.
        1    1    3    3  502    0 -0.52031846089E+03 -0.48550443879E+03 -0.11244795606E+04  0.13307517211E+04  0.50400001928E-02 0. -1.
       -1    1    3    3    0  502  0.52031846089E+03  0.48550443879E+03  0.14231342333E+04  0.15911495551E+04  0.50400001928E-02 0.  1.
</event>
<event>
 5   0  0.6733688E-06  0.2898126E+04  0.7818609E-02  0.8273435E-01
       -2   -1    0    0    0  501  0.00000000000E+00  0.00000000000E+00  0.10893734832E+04  0.10893734832E+04  0.25500000920E-02 0. -1.
        2   -1    0    0  501    0  0.00000000000E+00  0.00000000000E+00 -0.19275144361E+04  0.19275144361E+04  0.25500000920E-02 0.  1.
    10030    2    1    2    0    0  0.00000000000E+00  0.00000000000E+00 -0.83814095294E+03  0.30168879193E+04  0.28981256806E+04 0.  0.
        5    1    3    3  502    0  0.30188158593E+03 -0.12775100832E+04  0.21975188863E+03  0.13309686274E+04  0.46999998093E+01 0. -1.
       -5    1    3    3    0  502 -0.30188158593E+03  0.12775100832E+04 -0.10578928416E+04  0.16859192919E+04  0.46999998093E+01 0.  1.
</event>
<event>
 5   0  0.6393633E-06  0.2894925E+04  0.7818609E-02  0.8274389E-01
        2   -1    0    0  501    0  0.00000000000E+00  0.00000000000E+00  0.19860191301E+04  0.19860191301E+04  0.25500000920E-02 0. -1.
       -2   -1    0    0    0  501  0.00000000000E+00  0.00000000000E+00 -0.10549482392E+04  0.10549482392E+04  0.25500000920E-02 0.  1.
    10030    2    1    2    0    0  0.00000000000E+00  0.00000000000E+00  0.93107089093E+03  0.30409673693E+04  0.28949247896E+04 0.  0.
        4    1    3    3  502    0  0.98973755211E+03  0.94002433830E+03 -0.40339528167E+02  0.13655969644E+04  0.12699999809E+01 0.  1.
       -4    1    3    3    0  502 -0.98973755211E+03 -0.94002433830E+03  0.97141041910E+03  0.16753704050E+04  0.12699999809E+01 0. -1.
</event>
<event>
 5   0  0.2508094E-06  0.3004366E+04  0.7818609E-02  0.8242485E-01
        1   -1    0    0  501    0  0.00000000000E+00  0.00000000000E+00  0.15139448225E+04  0.15139448225E+04  0.50400001928E-02 0.  1.
       -1   -1    0    0    0  501  0.00000000000E+00  0.00000000000E+00 -0.14905123210E+04  0.14905123210E+04  0.50400001928E-02 0. -1.
    10030    2    1    2    0    0  0.00000000000E+00  0.00000000000E+00  0.23432501509E+02  0.30044571435E+04  0.30043657641E+04 0.  0.
        3    1    3    3  502    0  0.64569004623E+00  0.14856415689E+04 -0.21060135843E+03  0.15004946619E+04  0.10100000352E+00 0. -1.
       -3    1    3    3    0  502 -0.64569004623E+00 -0.14856415689E+04  0.23403385994E+03  0.15039624815E+04  0.10100000352E+00 0.  1.
</event>
<event>
 5   0  0.2508094E-06  0.2837783E+04  0.7818609E-02  0.8291633E-01
       -1   -1    0    0    0  501  0.00000000000E+00  0.00000000000E+00  0.16000878780E+04  0.16000878780E+04  0.50400001928E-02 0. -1.
        1   -1    0    0  501    0  0.00000000000E+00  0.00000000000E+00 -0.12582137072E+04  0.12582137072E+04  0.50400001928E-02 0.  1.
    10030    2    1    2    0    0  0.00000000000E+00  0.00000000000E+00  0.34187417088E+03  0.28583015852E+04  0.28377825856E+04 0.  0.
        3    1    3    3  502    0  0.10184842405E+04 -0.55824383733E+01  0.11659622796E+04  0.15481632212E+04  0.10100000352E+00 0. -1.
       -3    1    3    3    0  502 -0.10184842405E+04  0.55824383733E+01 -0.82408810870E+03  0.13101383640E+04  0.10100000352E+00 0.  1.
</event>
<event>
 5   0  0.6612533E-06  0.2823177E+04  0.7818609E-02  0.8296109E-01
       -2   -1    0    0    0  501  0.00000000000E+00  0.00000000000E+00  0.88166628321E+03  0.88166628321E+03  0.25500000920E-02 0.  1.
        2   -1    0    0  501    0  0.00000000000E+00  0.00000000000E+00 -0.22600191020E+04  0.22600191020E+04  0.25500000920E-02 0. -1.
    10030    2    1    2    0    0  0.00000000000E+00  0.00000000000E+00 -0.13783528187E+04  0.31416853852E+04  0.28231773884E+04 0.  0.
        3    1    3    3  502    0 -0.11815858660E+04 -0.74694894351E+03 -0.90754072556E+03  0.16666457517E+04  0.10100000352E+00 0. -1.
       -3    1    3    3    0  502  0.11815858660E+04  0.74694894351E+03 -0.47081209318E+03  0.14750396335E+04  0.10100000352E+00 0.  1.
</event>
<event>
 5   0  0.6393633E-06  0.2875390E+04  0.7818609E-02  0.8280238E-01
        2   -1    0    0  501    0  0.00000000000E+00  0.00000000000E+00  0.23485727850E+04  0.23485727850E+04  0.25500000920E-02 0.  1.
       -2   -1    0    0    0  501  0.00000000000E+00  0.00000000000E+00 -0.88009467022E+03  0.88009467023E+03  0.25500000920E-02 0. -1.
    10030    2    1    2    0    0  0.00000000000E+00  0.00000000000E+00  0.14684781147E+04  0.32286674552E+04  0.28753896367E+04 0.  0.
        4    1    3    3  502    0  0.35642182163E+03 -0.85664054227E+03  0.19673933396E+04  0.21752029099E+04  0.12699999809E+01 0.  1.
       -4    1    3    3    0  502 -0.35642182163E+03  0.85664054227E+03 -0.49891522490E+03  0.10534645453E+04  0.12699999809E+01 0. -1.
</event>
<event>
 5   0  0.2429358E-06  0.2935117E+04  0.7818609E-02  0.8262505E-01
        1   -1    0    0  501    0  0.00000000000E+00  0.00000000000E+00  0.14983303322E+04  0.14983303322E+04  0.50400001928E-02 0. -1.
       -1   -1    0    0    0  501  0.00000000000E+00  0.00000000000E+00 -0.14374182364E+04  0.14374182364E+04  0.50400001928E-02 0.  1.
    10030    2    1    2    0    0  0.00000000000E+00  0.00000000000E+00  0.60912095778E+02  0.29357485686E+04  0.29351165862E+04 0.  0.
        2    1    3    3  502    0 -0.79665829584E+03 -0.43392726619E+03  0.11842944981E+04  0.14918145900E+04  0.25500000920E-02 0. -1.
       -2    1    3    3    0  502  0.79665829584E+03  0.43392726619E+03 -0.11233824023E+04  0.14439339786E+04  0.25500000920E-02 0.  1.
</event>
<event>
 5   0  0.2474769E-06  0.2821468E+04  0.7818609E-02  0.8296634E-01
        1   -1    0    0  501    0  0.00000000000E+00  0.00000000000E+00  0.20758439703E+04  0.20758439703E+04  0.50400001928E-02 0.  1.
       -1   -1    0    0    0  501  0.00000000000E+00  0.00000000000E+00 -0.95872862624E+03  0.95872862626E+03  0.50400001928E-02 0. -1.
    10030    2    1    2    0    0  0.00000000000E+00  0.00000000000E+00  0.11171153441E+04  0.30345725966E+04  0.28214684389E+04 0.  0.
        1    1    3    3  502    0 -0.11630140576E+04 -0.72003976966E+03  0.92975105094E+03  0.16539334886E+04  0.50400001928E-02 0.  1.
       -1    1    3    3    0  502  0.11630140576E+04  0.72003976966E+03  0.18736429311E+03  0.13806391079E+04  0.50400001928E-02 0. -1.
</event>
<event>
 5   0  0.2429358E-06  0.2822772E+04  0.7818609E-02  0.8296233E-01
        1   -1    0    0  501    0  0.00000000000E+00  0.00000000000E+00  0.13227000594E+04  0.13227000594E+04  0.50400001928E-02 0. -1.
       -1   -1    0    0    0  501  0.00000000000E+00  0.00000000000E+00 -0.15060178510E+04  0.15060178510E+04  0.50400001928E-02 0.  1.
    10030    2    1    2    0    0  0.00000000000E+00  0.00000000000E+00 -0.18331779160E+03  0.28287179105E+04  0.28227716175E+04 0.  0.
        2    1    3    3  502    0  0.21968974166E+03 -0.42562589198E+03 -0.14220808901E+04  0.15005782354E+04  0.25500000920E-02 0.  1.
       -2    1    3    3    0  502 -0.21968974166E+03  0.42562589198E+03  0.12387630985E+04  0.13281396751E+04  0.25500000920E-02 0. -1.
</event>
<event>
 5   0  0.6393633E-06  0.2517861E+04  0.7818609E-02  0.8396650E-01
        2   -1    0    0  501    0  0.00000000000E+00  0.00000000000E+00  0.18164932221E+04  0.18164932221E+04  0.25500000920E-02 0. -1.
       -2   -1    0    0    0  501  0.00000000000E+00  0.00000000000E+00 -0.87250828803E+03  0.87250828803E+03  0.25500000920E-02 0.  1.
    10030    2    1    2    0    0  0.00000000000E+00  0.00000000000E+00  0.94398493407E+03  0.26890015101E+04  0.25178605135E+04 0.  0.
        4    1    3    3  502    0 -0.23548500400E+03  0.12362051356E+04  0.50971246426E+03  0.13577425137E+04  0.12699999809E+01 0. -1.
       -4    1    3    3    0  502  0.23548500400E+03 -0.12362051356E+04  0.43427246981E+03  0.13312589964E+04  0.12699999809E+01 0.  1.
</event>
<event>
 5   0  0.6393633E-06  0.2906843E+04  0.7818609E-02  0.8270844E-01
       -2   -1    0    0    0  501  0.00000000000E+00  0.00000000000E+00  0.83604657642E+03  0.83604657643E+03  0.25500000920E-02 0.  1.
        2   -1    0    0  501    0  0.00000000000E+00  0.00000000000E+00 -0.25266941783E+04  0.25266941783E+04  0.25500000920E-02 0. -1.
    10030    2    1    2    0    0  0.00000000000E+00  0.00000000000E+00 -0.16906476019E+04  0.33627407548E+04  0.29068429730E+04 0.  0.
        4    1    3    3  502    0 -0.69960781170E+03  0.43573314446E+03  0.53955823526E+03  0.98510870745E+03  0.12699999809E+01 0.  1.
       -4    1    3    3    0  502  0.69960781170E+03 -0.43573314446E+03 -0.22302058372E+04  0.23776320473E+04  0.12699999809E+01 0. -1.
</event>
<event>
 5   0  0.6733688E-06  0.2650809E+04  0.7818609E-02  0.8351144E-01
        2   -1    0    0  501    0  0.00000000000E+00  0.00000000000E+00  0.11080152266E+04  0.11080152266E+04  0.25500000920E-02 0. -1.
       -2   -1    0    0    0  501  0.00000000000E+00  0.00000000000E+00 -0.15854451758E+04  0.15854451758E+04  0.25500000920E-02 0.  1.
    10030    2    1    2    0    0  0.00000000000E+00  0.00000000000E+00 -0.47742994918E+03  0.26934604024E+04  0.26508092317E+04 0.  0.
        5    1    3    3  502    0 -0.25161050955E+03  0.10936829570E+04  0.47777252776E+03  0.12197290426E+04  0.46999998093E+01 0. -1.
       -5    1    3    3    0  502  0.25161050955E+03 -0.10936829570E+04 -0.95520247693E+03  0.14737313598E+04  0.46999998093E+01 0.  1.
</event>
<event>
 5   0  0.2508094E-06  0.2890945E+04  0.7818609E-02  0.8275577E-01
        1   -1    0    0  501    0  0.00000000000E+00  0.00000000000E+00  0.16816252129E+04  0.16816252129E+04  0.50400001928E-02 0. -1.
       -1   -1    0    0    0  501  0.00000000000E+00  0.00000000000E+00 -0.12424827017E+04  0.12424827018E+04  0.50400001928E-02 0.  1.
    10030    2    1    2    0    0  0.00000000000E+00  0.00000000000E+00  0.43914251118E+03  0.29241079147E+04  0.28909446469E+04 0.  0.
        3    1    3    3  502    0 -0.67404048897E+03 -0.88950715974E+03  0.11487148015E+04  0.16015927302E+04  0.10100000352E+00 0. -1.
       -3    1    3    3    0  502  0.67404048897E+03  0.88950715974E+03 -0.70957229029E+03  0.13225151845E+04  0.10100000352E+00 0.  1.
</event>
<event>
 5   0  0.2429358E-06  0.2818586E+04  0.7818609E-02  0.8297521E-01
        1   -1    0    0  501    0  0.00000000000E+00  0.00000000000E+00  0.13279502309E+04  0.13279502309E+04  0.50400001928E-02 0. -1.
       -1   -1    0    0    0  501  0.00000000000E+00  0.00000000000E+00 -0.14956187881E+04  0.14956187881E+04  0.50400001928E-02 0.  1.
    10030    2    1    2    0    0  0.00000000000E+00  0.00000000000E+00 -0.16766855720E+03  0.28235690189E+04  0.28185863939E+04 0.  0.
        2    1    3    3  502    0  0.90142507637E+02 -0.14049925912E+04 -0.20655668262E+02  0.14080328511E+04  0.25500000920E-02 0. -1.
       -2    1    3    3    0  502 -0.90142507637E+02  0.14049925912E+04 -0.14701288894E+03  0.14155361679E+04  0.25500000920E-02 0.  1.
</event>
<event>
 5   0  0.6513041E-06  0.2878271E+04  0.7818609E-02  0.8279372E-01
       -2   -1    0    0    0  501  0.00000000000E+00  0.00000000000E+00  0.15946028330E+04  0.15946028330E+04  0.25500000920E-02 0. -1.
        2   -1    0    0  501    0  0.00000000000E+00  0.00000000000E+00 -0.12988259703E+04  0.12988259703E+04  0.25500000920E-02 0.  1.
    10030    2    1    2    0    0  0.00000000000E+00  0.00000000000E+00  0.29577686272E+03  0.28934288032E+04  0.28782714060E+04 0.  0.
        1    1    3    3  502    0 -0.42978512149E+03  0.13731797719E+04  0.11992766292E+03  0.14438561497E+04  0.50400001928E-02 0.  1.
       -1    1    3    3    0  502  0.42978512149E+03 -0.13731797719E+04  0.17584919979E+03  0.14495726535E+04  0.50400001928E-02 0. -1.
</event>
<event>
 5   0  0.2336512E-06  0.2913356E+04  0.7818609E-02  0.8268915E-01
       -1   -1    0    0    0  501  0.00000000000E+00  0.00000000000E+00  0.15807607609E+04  0.15807607609E+04  0.50400001928E-02 0.  1.
        1   -1    0    0  501    0  0.00000000000E+00  0.00000000000E+00 -0.13423352051E+04  0.13423352051E+04  0.50400001928E-02 0. -1.
    10030    2    1    2    0    0  0.00000000000E+00  0.00000000000E+00  0.23842555583E+03  0.29230959660E+04  0.29133560168E+04 0.  0.
        4    1    3    3  502    0 -0.73612758306E+03 -0.26017834322E+03  0.13530934855E+04  0.15621908277E+04  0.12699999809E+01 0.  1.
       -4    1    3    3    0  502  0.73612758306E+03  0.26017834322E+03 -0.11146679297E+04  0.13609051382E+04  0.12699999809E+01 0. -1.
</event>
<event>
 5   0  0.6393633E-06  0.2861657E+04  0.7818609E-02  0.8284378E-01
       -2   -1    0    0    0  501  0.00000000000E+00  0.00000000000E+00  0.12628174352E+04  0.12628174352E+04  0.25500000920E-02 0.  1.
        2   -1    0    0  501    0  0.00000000000E+00  0.00000000000E+00 -0.16211930680E+04  0.16211930680E+04  0.25500000920E-02 0. -1.
    10030    2    1    2    0    0  0.00000000000E+00  0.00000000000E+00 -0.35837563276E+03  0.28840105031E+04  0.28616574722E+04 0.  0.
        4    1    3    3  502    0  0.11347666995E+04  0.62300478696E+03  0.43503060988E+03  0.13656806623E+04  0.12699999809E+01 0.  1.
       -4    1    3    3    0  502 -0.11347666995E+04 -0.62300478696E+03 -0.79340624265E+03  0.15183298409E+04  0.12699999809E+01 0. -1.
</event>
<event>
 5   0  0.6615403E-06  0.2894117E+04  0.7818609E-02  0.8274630E-01
        2   -1    0    0  501    0  0.00000000000E+00  0.00000000000E+00  0.22958744188E+04  0.22958744188E+04  0.25500000920E-02 0.  1.
       -2   -1    0    0    0  501  0.00000000000E+00  0.00000000000E+00 -0.91206102866E+03  0.91206102867E+03  0.25500000920E-02 0. -1.
    10030    2    1    2    0    0  0.00000000000E+00  0.00000000000E+00  0.13838133902E+04  0.32079354475E+04  0.28941165036E+04 0.  0.
        2    1    3    3  502    0  0.11526240108E+04  0.29098682650E+03  0.16064563881E+04  0.19984788141E+04  0.25500000920E-02 0.  1.
       -2    1    3    3    0  502 -0.11526240108E+04 -0.29098682650E+03 -0.22264299794E+03  0.12094566334E+04  0.25500000920E-02 0. -1.
</event>
<event>
 5   0  0.2336512E-06  0.2889084E+04  0.7818609E-02  0.8276133E-01
        1   -1    0    0  501    0  0.00000000000E+00  0.00000000000E+00  0.20060702003E+04  0.20060702003E+04  0.50400001928E-02 0. -1.
       -1   -1    0    0    0  501  0.00000000000E+00  0.00000000000E+00 -0.10401937554E+04  0.10401937555E+04  0.50400001928E-02 0.  1.
    10030    2    1    2    0    0  0.00000000000E+00  0.00000000000E+00  0.96587644488E+03  0.30462639558E+04  0.28890840731E+04 0.  0.
        4    1    3    3  502    0 -0.72608274033E+03  0.99166494345E+03  0.12832478002E+04  0.17768854874E+04  0.12699999809E+01 0. -1.
       -4    1    3    3    0  502  0.72608274033E+03 -0.99166494345E+03 -0.31737135529E+03  0.12693784684E+04  0.12699999809E+01 0.  1.
</event>
<event>
 5   0  0.6393633E-06  0.2790645E+04  0.7818609E-02  0.8306179E-01
        2   -1    0    0  501    0  0.00000000000E+00  0.00000000000E+00  0.13734052191E+04  0.13734052191E+04  0.25500000920E-02 0. -1.
       -2   -1    0    0    0  501  0.00000000000E+00  0.00000000000E+00 -0.14175890939E+04  0.14175890939E+04  0.25500000920E-02 0.  1.
    10030    2    1    2    0    0  0.00000000000E+00  0.00000000000E+00 -0.44183874722E+02  0.27909943130E+04  0.27906445565E+04 0.  0.
        4    1    3    3  502    0  0.22697966223E+03 -0.55694797271E+03  0.12371178211E+04  0.13755627676E+04  0.12699999809E+01 0. -1.
       -4    1    3    3    0  502 -0.22697966223E+03  0.55694797271E+03 -0.12813016958E+04  0.14154315455E+04  0.12699999809E+01 0.  1.
</event>
<event>
 5   0  0.2508094E-06  0.2725854E+04  0.7818609E-02  0.8326665E-01
        1   -1    0    0  501    0  0.00000000000E+00  0.00000000000E+00  0.14337900983E+04  0.14337900983E+04  0.50400001928E-02 0.  1.
       -1   -1    0    0    0  501  0.00000000000E+00  0.00000000000E+00 -0.12955664115E+04  0.12955664115E+04  0.50400001928E-02 0. -1.
    10030    2    1    2    0    0  0.00000000000E+00  0.00000000000E+00  0.13822368678E+03  0.27293565099E+04  0.27258542093E+04 0.  0.
        3    1    3    3  502    0 -0.57656530040E+03 -0.54044182281E+03 -0.10427496609E+04  0.13083698922E+04  0.10100000352E+00 0. -1.
       -3    1    3    3    0  502  0.57656530040E+03  0.54044182281E+03  0.11809733476E+04  0.14209866176E+04  0.10100000352E+00 0.  1.
</event>
<event>
 5   0  0.6733688E-06  0.2920620E+04  0.7818609E-02  0.8266769E-01
        2   -1    0    0  501    0  0.00000000000E+00  0.00000000000E+00  0.14000930344E+04  0.14000930344E+04  0.25500000920E-02 0.  1.
       -2   -1    0    0    0  501  0.00000000000E+00  0.00000000000E+00 -0.15231172522E+04  0.15231172522E+04  0.25500000920E-02 0. -1.
    10030    2    1    2    0    0  0.00000000000E+00  0.00000000000E+00 -0.12302421775E+03  0.29232102866E+04  0.29206203830E+04 0.  0.
        5    1    3    3  502    0 -0.60066317475E+03  0.40875416094E+03  0.12063422332E+04  0.14082470974E+04  0.46999998093E+01 0.  1.
       -5    1    3    3    0  502  0.60066317475E+03 -0.40875416094E+03 -0.13293664510E+04  0.15149631892E+04  0.46999998093E+01 0. -1.
</event>
<event>
 5   0  0.6733688E-06  0.2899765E+04  0.7818609E-02  0.8272947E-01
       -2   -1    0    0    0  501  0.00000000000E+00  0.00000000000E+00  0.73539839479E+03  0.73539839479E+03  0.25500000920E-02 0.  1.
        2   -1    0    0  501    0  0.00000000000E+00  0.00000000000E+00 -0.28585308141E+04  0.28585308141E+04  0.25500000920E-02 0. -1.
    10030    2    1    2    0    0  0.00000000000E+00  0.00000000000E+00 -0.21231324193E+04  0.35939292088E+04  0.28997647988E+04 0.  0.
        5    1    3    3  502    0 -0.89109098456E+03  0.92718237649E+03 -0.23161527486E+03  0.13066667623E+04  0.46999998093E+01 0.  1.
       -5    1    3    3    0  502  0.89109098456E+03 -0.92718237649E+03 -0.18915171444E+04  0.22872624466E+04  0.46999998093E+01 0. -1.
</event>
<event>
 5   0  0.6513041E-06  0.2870995E+04  0.7818609E-02  0.8281560E-01
       -2   -1    0    0    0  501  0.00000000000E+00  0.00000000000E+00  0.99893184912E+03  0.99893184912E+03  0.25500000920E-02 0.  1.
        2   -1    0    0  501    0  0.00000000000E+00  0.00000000000E+00 -0.20628560265E+04  0.20628560265E+04  0.25500000920E-02 0. -1.
    10030    2    1    2    0    0  0.00000000000E+00  0.00000000000E+00 -0.10639241774E+04  0.30617878756E+04  0.28709946604E+04 0.  0.
        1    1    3    3  502    0 -0.28214495668E+03  0.26441423284E+03  0.94234531842E+03  0.10185947979E+04  0.50400001928E-02 0.  1.
       -1    1    3    3    0  502  0.28214495668E+03 -0.26441423284E+03 -0.20062694958E+04  0.20431930777E+04  0.50400001928E-02 0. -1.
</event>
<event>
 5   0  0.2336512E-06  0.2907694E+04  0.7818609E-02  0.8270592E-01
        1   -1    0    0  501    0  0.00000000000E+00  0.00000000000E+00  0.13943314701E+04  0.13943314701E+04  0.50400001928E-02 0.  1.
       -1   -1    0    0    0  501  0.00000000000E+00  0.00000000000E+00 -0.15159033998E+04  0.15159033998E+04  0.50400001928E-02 0. -1.
    10030    2    1    2    0    0  0.00000000000E+00  0.00000000000E+00 -0.12157192972E+03  0.29102348700E+04  0.29076944929E+04 0.  0.
        4    1    3    3  502    0 -0.10367927198E+04  0.91452216374E+03 -0.51104595040E+03  0.14739265613E+04  0.12699999809E+01 0. -1.
       -4    1    3    3    0  502  0.10367927198E+04 -0.91452216374E+03  0.38947402068E+03  0.14363083087E+04  0.12699999809E+01 0.  1.
</event>
<event>
 5   0  0.2508094E-06  0.2878444E+04  0.7818609E-02  0.8279320E-01
        1   -1    0    0  501    0  0.00000000000E+00  0.00000000000E+00  0.19580413071E+04  0.19580413071E+04  0.50400001928E-02 0.  1.
       -1   -1    0    0    0  501  0.00000000000E+00  0.00000000000E+00 -0.10578734576E+04  0.10578734576E+04  0.50400001928E-02 0. -1.
    10030    2    1    2    0    0  0.00000000000E+00  0.00000000000E+00  0.90016784947E+03  0.30159147647E+04  0.28784439739E+04 0.  0.
        3    1    3    3  502    0 -0.31494931145E+03  0.83948878437E+03  0.16296505903E+04  0.18600256838E+04  0.10100000352E+00 0.  1.
       -3    1    3    3    0  502  0.31494931145E+03 -0.83948878437E+03 -0.72948274084E+03  0.11558890809E+04  0.10100000352E+00 0. -1.
</event>
<event>
 5   0  0.2508094E-06  0.2915928E+04  0.7818609E-02  0.8268154E-01
       -1   -1    0    0    0  501  0.00000000000E+00  0.00000000000E+00  0.10819303158E+04  0.10819303158E+04  0.50400001928E-02 0.  1.
        1   -1    0    0  501    0  0.00000000000E+00  0.00000000000E+00 -0.19646915380E+04  0.19646915380E+04  0.50400001928E-02 0. -1.
    10030    2    1    2    0    0  0.00000000000E+00  0.00000000000E+00 -0.88276122226E+03  0.30466218538E+04  0.29159282132E+04 0.  0.
        3    1    3    3  502    0  0.54570644793E+03 -0.61234794302E+03  0.81800480441E+03  0.11584029527E+04  0.10100000352E+00 0.  1.
       -3    1    3    3    0  502 -0.54570644793E+03  0.61234794302E+03 -0.17007660267E+04  0.18882189011E+04  0.10100000352E+00 0. -1.
</event>
<event>
 5   0  0.6393633E-06  0.2892897E+04  0.7818609E-02  0.8274994E-01
       -2   -1    0    0    0  501  0.00000000000E+00  0.00000000000E+00  0.77820262111E+03  0.77820262111E+03  0.25500000920E-02 0.  1.
        2   -1    0    0  501    0  0.00000000000E+00  0.00000000000E+00 -0.26885203610E+04  0.26885203610E+04  0.25500000920E-02 0. -1.
    10030    2    1    2    0    0  0.00000000000E+00  0.00000000000E+00 -0.19103177399E+04  0.34667229821E+04  0.28928972273E+04 0.  0.
        4    1    3    3  502    0 -0.19643347345E+03  0.12417239716E+04 -0.18124216674E+04  0.22057512200E+04  0.12699999809E+01 0. -1.
       -4    1    3    3    0  502  0.19643347345E+03 -0.12417239716E+04 -0.97896072512E+02  0.12609717622E+04  0.12699999809E+01 0.  1.
</event>
<event>
 5   0  0.2348684E-06  0.2887789E+04  0.7818609E-02  0.8276520E-01
        1   -1    0    0  501    0  0.00000000000E+00  0.00000000000E+00  0.27031468569E+04  0.27031468569E+04  0.50400001928E-02 0.  1.
       -1   -1    0    0    0  501  0.00000000000E+00  0.00000000000E+00 -0.77126080747E+03  0.77126080749E+03  0.50400001928E-02 0. -1.
    10030    2    1    2    0    0  0.00000000000E+00  0.00000000000E+00  0.19318860494E+04  0.34744076644E+04  0.28877889311E+04 0.  0.
        5    1    3    3  502    0  0.61660605351E+03 -0.81153798041E+03  0.21964489401E+04  0.24214059873E+04  0.46999998093E+01 0.  1.
       -5    1    3    3    0  502 -0.61660605351E+03  0.81153798041E+03 -0.26456289066E+03  0.10530016771E+04  0.46999998093E+01 0. -1.
</event>
<event>
 5   0  0.2336512E-06  0.2904946E+04  0.7818609E-02  0.8271407E-01
        1   -1    0    0  501    0  0.00000000000E+00  0.00000000000E+00  0.11865944404E+04  0.11865944404E+04  0.50400001928E-02 0.  1.
       -1   -1    0    0    0  501  0.00000000000E+00  0.00000000000E+00 -0.17779266585E+04  0.17779266585E+04  0.50400001928E-02 0. -1.
    10030    2    1    2    0    0  0.00000000000E+00  0.00000000000E+00 -0.59133221815E+03  0.29645210989E+04  0.29049460500E+04 0.  0.
        4    1    3    3  502    0 -0.22918006405E+03 -0.11141492932E+04  0.62608728765E+03  0.12983986498E+04  0.12699999809E+01 0.  1.
       -4    1    3    3    0  502  0.22918006405E+03  0.11141492932E+04 -0.12174195058E+04  0.16661224490E+04  0.12699999809E+01 0. -1.
</event>
<event>
 5   0  0.2429358E-06  0.2874686E+04  0.7818609E-02  0.8280449E-01
       -1   -1    0    0    0  501  0.00000000000E+00  0.00000000000E+00  0.19533349697E+04  0.19533349698E+04  0.50400001928E-02 0. -1.
        1   -1    0    0  501    0  0.00000000000E+00  0.00000000000E+00 -0.10576554897E+04  0.10576554897E+04  0.50400001928E-02 0.  1.
    10030    2    1    2    0    0  0.00000000000E+00  0.00000000000E+00  0.89567948009E+03  0.30109904594E+04  0.28746863856E+04 0.  0.
        2    1    3    3  502    0 -0.62945075386E+03 -0.69411611266E+03  0.15894503402E+04  0.18450901911E+04  0.25500000920E-02 0. -1.
       -2    1    3    3    0  502  0.62945075386E+03  0.69411611266E+03 -0.69377086008E+03  0.11659002683E+04  0.25500000920E-02 0.  1.
</event>
<event>
 5   0  0.6612533E-06  0.2898989E+04  0.7818609E-02  0.8273178E-01
       -2   -1    0    0    0  501  0.00000000000E+00  0.00000000000E+00  0.12725565373E+04  0.12725565373E+04  0.25500000920E-02 0.  1.
        2   -1    0    0  501    0  0.00000000000E+00  0.00000000000E+00 -0.16510335987E+04  0.16510335987E+04  0.25500000920E-02 0. -1.
    10030    2    1    2    0    0  0.00000000000E+00  0.00000000000E+00 -0.37847706141E+03  0.29235901360E+04  0.28989885128E+04 0.  0.
        3    1    3    3  502    0 -0.79808644834E+03  0.10413751634E+04 -0.81060798602E+03  0.15422352373E+04  0.10100000352E+00 0. -1.
       -3    1    3    3    0  502  0.79808644834E+03 -0.10413751634E+04  0.43213092460E+03  0.13813548987E+04  0.10100000352E+00 0.  1.
</event>
<event>
 5   0  0.6393633E-06  0.2900754E+04  0.7818609E-02  0.8272653E-01
       -2   -1    0    0    0  501  0.00000000000E+00  0.00000000000E+00  0.11323541330E+04  0.11323541330E+04  0.25500000920E-02 0. -1.
        2   -1    0    0  501    0  0.00000000000E+00  0.00000000000E+00 -0.18577174673E+04  0.18577174673E+04  0.25500000920E-02 0.  1.
    10030    2    1    2    0    0  0.00000000000E+00  0.00000000000E+00 -0.72536333432E+03  0.29900716004E+04  0.29007544206E+04 0.  0.
        4    1    3    3  502    0 -0.10476401847E+04  0.10005021026E+04 -0.43584623315E+03  0.15127848379E+04  0.12699999809E+01 0. -1.
       -4    1    3    3    0  502  0.10476401847E+04 -0.10005021026E+04 -0.28951710117E+03  0.14772867625E+04  0.12699999809E+01 0.  1.
</event>
<event>
 5   0  0.6513041E-06  0.2822044E+04  0.7818609E-02  0.8296457E-01
        2   -1    0    0  501    0  0.00000000000E+00  0.00000000000E+00  0.11988081961E+04  0.11988081961E+04  0.25500000920E-02 0. -1.
       -2   -1    0    0    0  501  0.00000000000E+00  0.00000000000E+00 -0.16608021153E+04  0.16608021153E+04  0.25500000920E-02 0.  1.
    10030    2    1    2    0    0  0.00000000000E+00  0.00000000000E+00 -0.46199391924E+03  0.28596103114E+04  0.28220440733E+04 0.  0.
        1    1    3    3  502    0  0.10317757964E+04 -0.14947507707E+03  0.73249096492E+03  0.12741456378E+04  0.50400001928E-02 0.  1.
       -1    1    3    3    0  502 -0.10317757964E+04  0.14947507707E+03 -0.11944848842E+04  0.15854646736E+04  0.50400001928E-02 0. -1.
</event>
<event>
 5   0  0.6612533E-06  0.2931137E+04  0.7818609E-02  0.8263673E-01
       -2   -1    0    0    0  501  0.00000000000E+00  0.00000000000E+00  0.16719121904E+04  0.16719121904E+04  0.25500000920E-02 0. -1.
        2   -1    0    0  501    0  0.00000000000E+00  0.00000000000E+00 -0.12846911004E+04  0.12846911004E+04  0.25500000920E-02 0.  1.
    10030    2    1    2    0    0  0.00000000000E+00  0.00000000000E+00  0.38722108999E+03  0.29566032908E+04  0.29311367840E+04 0.  0.
        3    1    3    3  502    0  0.57042957608E+03  0.36317798165E+03  0.15051390397E+04  0.16500702066E+04  0.10100000352E+00 0. -1.
       -3    1    3    3    0  502 -0.57042957608E+03 -0.36317798165E+03 -0.11179179497E+04  0.13065330842E+04  0.10100000352E+00 0.  1.
</event>
<event>
 5   0  0.2348684E-06  0.2901239E+04  0.7818609E-02  0.8272509E-01
       -1   -1    0    0    0  501  0.00000000000E+00  0.00000000000E+00  0.95592732270E+03  0.95592732272E+03  0.50400001928E-02 0.  1.
        1   -1    0    0  501    0  0.00000000000E+00  0.00000000000E+00 -0.22013144063E+04  0.22013144063E+04  0.50400001928E-02 0. -1.
    10030    2    1    2    0    0  0.00000000000E+00  0.00000000000E+00 -0.12453870836E+04  0.31572417290E+04  0.29012387608E+04 0.  0.
        5    1    3    3  502    0  0.18760501639E+03 -0.11009968741E+04 -0.16300555481E+04  0.19759789824E+04  0.46999998093E+01 0. -1.
       -5    1    3    3    0  502 -0.18760501639E+03  0.11009968741E+04  0.38466846457E+03  0.11812627466E+04  0.46999998093E+01 0.  1.
</event>
<event>
 5   0  0.2336512E-06  0.2442990E+04  0.7818609E-02  0.8423582E-01
        1   -1    0    0  501    0  0.00000000000E+00  0.00000000000E+00  0.17346033027E+04  0.17346033027E+04  0.50400001928E-02 0. -1.
       -1   -1    0    0    0  501  0.00000000000E+00  0.00000000000E+00 -0.86016813481E+03  0.86016813482E+03  0.50400001928E-02 0.  1.
    10030    2    1    2    0    0  0.00000000000E+00  0.00000000000E+00  0.87443516786E+03  0.25947714375E+04  0.24429903704E+04 0.  0.
        4    1    3    3  502    0 -0.11491497928E+03  0.41787132704E+03  0.16501984297E+04  0.17061589518E+04  0.12699999809E+01 0. -1.
       -4    1    3    3    0  502  0.11491497928E+03 -0.41787132704E+03 -0.77576326185E+03  0.88861248571E+03  0.12699999809E+01 0.  1.
</event>
<event>
 5   0  0.2348684E-06  0.2924054E+04  0.7818609E-02  0.8265757E-01
        1   -1    0    0  501    0  0.00000000000E+00  0.00000000000E+00  0.15005589441E+04  0.15005589442E+04  0.50400001928E-02 0.  1.
       -1   -1    0    0    0  501  0.00000000000E+00  0.00000000000E+00 -0.14244841383E+04  0.14244841383E+04  0.50400001928E-02 0. -1.
    10030    2    1    2    0    0  0.00000000000E+00  0.00000000000E+00  0.76074805864E+02  0.29250430824E+04  0.29240536346E+04 0.  0.
        5    1    3    3  502    0  0.19567859036E+03 -0.81418115449E+03 -0.11608335141E+04  0.14313411894E+04  0.46999998093E+01 0. -1.
       -5    1    3    3    0  502 -0.19567859036E+03  0.81418115449E+03  0.12369083200E+04  0.14937018930E+04  0.46999998093E+01 0.  1.
</event>
<event>
 5   0  0.2474769E-06  0.2909433E+04  0.7818609E-02  0.8270077E-01
       -1   -1    0    0    0  501  0.00000000000E+00  0.00000000000E+00  0.10972248326E+04  0.10972248326E+04  0.50400001928E-02 0.  1.
        1   -1    0    0  501    0  0.00000000000E+00  0.00000000000E+00 -0.19286834559E+04  0.19286834559E+04  0.50400001928E-02 0. -1.
    10030    2    1    2    0    0  0.00000000000E+00  0.00000000000E+00 -0.83145862330E+03  0.30259082885E+04  0.29094325096E+04 0.  0.
        1    1    3    3  502    0  0.12517818632E+04 -0.63143140863E+03 -0.12207001271E+02  0.14020743446E+04  0.50400001928E-02 0. -1.
       -1    1    3    3    0  502 -0.12517818632E+04  0.63143140863E+03 -0.81925162203E+03  0.16238339438E+04  0.50400001928E-02 0.  1.
</event>
<event>
 5   0  0.6393633E-06  0.2885483E+04  0.7818609E-02  0.8277210E-01
       -2   -1    0    0    0  501  0.00000000000E+00  0.00000000000E+00  0.96423679902E+03  0.96423679902E+03  0.25500000920E-02 0. -1.
        2   -1    0    0  501    0  0.00000000000E+00  0.00000000000E+00 -0.21587046951E+04  0.21587046951E+04  0.25500000920E-02 0.  1.
    10030    2    1    2    0    0  0.00000000000E+00  0.00000000000E+00 -0.11944678961E+04  0.31229414941E+04  0.28854826322E+04 0.  0.
        4    1    3    3  502    0  0.52874417915E+03  0.29448201860E+03 -0.20146721653E+04  0.21036148917E+04  0.12699999809E+01 0.  1.
       -4    1    3    3    0  502 -0.52874417915E+03 -0.29448201860E+03  0.82020426919E+03  0.10193266024E+04  0.12699999809E+01 0. -1.
</event>
<event>
 5   0  0.6513041E-06  0.2905048E+04  0.7818609E-02  0.8271377E-01
        2   -1    0    0  501    0  0.00000000000E+00  0.00000000000E+00  0.14703077312E+04  0.14703077312E+04  0.25500000920E-02 0.  1.
       -2   -1    0    0    0  501  0.00000000000E+00  0.00000000000E+00 -0.14349557449E+04  0.14349557450E+04  0.25500000920E-02 0. -1.
    10030    2    1    2    0    0  0.00000000000E+00  0.00000000000E+00  0.35351986234E+02  0.29052634761E+04  0.29050483822E+04 0.  0.
        1    1    3    3  502    0 -0.11602640968E+04 -0.77644883247E+03  0.41863081076E+03  0.14575106585E+04  0.50400001928E-02 0.  1.
       -1    1    3    3    0  502  0.11602640968E+04  0.77644883247E+03 -0.38327882453E+03  0.14477528177E+04  0.50400001928E-02 0. -1.
</event>
<event>
 5   0  0.6615403E-06  0.2967158E+04  0.7818609E-02  0.8253172E-01
        2   -1    0    0  501    0  0.00000000000E+00  0.00000000000E+00  0.24863571069E+04  0.24863571069E+04  0.25500000920E-02 0. -1.
       -2   -1    0    0    0  501  0.00000000000E+00  0.00000000000E+00 -0.88523368554E+03  0.88523368554E+03  0.25500000920E-02 0.  1.
    10030    2    1    2    0    0  0.00000000000E+00  0.00000000000E+00  0.16011234213E+04  0.33715907924E+04  0.29671582804E+04 0.  0.
        2    1    3    3  502    0 -0.40248452378E+03  0.11234053931E+04  0.18021685360E+04  0.21614450956E+04  0.25500000920E-02 0. -1.
       -2    1    3    3    0  502  0.40248452378E+03 -0.11234053931E+04 -0.20104511470E+03  0.12101456968E+04  0.25500000920E-02 0.  1.
</event>
<event>
 5   0  0.2508094E-06  0.2900741E+04  0.7818609E-02  0.8272657E-01
       -1   -1    0    0    0  501  0.00000000000E+00  0.00000000000E+00  0.15310165056E+04  0.15310165057E+04  0.50400001928E-02 0. -1.
        1   -1    0    0  501    0  0.00000000000E+00  0.00000000000E+00 -0.13739722090E+04  0.13739722091E+04  0.50400001928E-02 0.  1.
    10030    2    1    2    0    0  0.00000000000E+00  0.00000000000E+00  0.15704429660E+03  0.29049887147E+04  0.29007406850E+04 0.  0.
        3    1    3    3  502    0 -0.56398529932E+03  0.98959160489E+03  0.97772523858E+03  0.15011054642E+04  0.10100000352E+00 0. -1.
       -3    1    3    3    0  502  0.56398529932E+03 -0.98959160489E+03 -0.82068094198E+03  0.14038832505E+04  0.10100000352E+00 0.  1.
</event>
<event>
 5   0  0.6612533E-06  0.2901260E+04  0.7818609E-02  0.8272503E-01
       -2   -1    0    0    0  501  0.00000000000E+00  0.00000000000E+00  0.83879463185E+03  0.83879463186E+03  0.25500000920E-02 0. -1.
        2   -1    0    0  501    0  0.00000000000E+00  0.00000000000E+00 -0.25087518365E+04  0.25087518365E+04  0.25500000920E-02 0.  1.
    10030    2    1    2    0    0  0.00000000000E+00  0.00000000000E+00 -0.16699572047E+04  0.33475464684E+04  0.29012601215E+04 0.  0.
        3    1    3    3  502    0 -0.85375354304E+03 -0.53149538347E+03  0.37127638232E+03  0.10720208100E+04  0.10100000352E+00 0. -1.
       -3    1    3    3    0  502  0.85375354304E+03  0.53149538347E+03 -0.20412335870E+04  0.22755256583E+04  0.10100000352E+00 0.  1.
</event>
<event>
 5   0  0.6733688E-06  0.2695279E+04  0.7818609E-02  0.8336538E-01
        2   -1    0    0  501    0  0.00000000000E+00  0.00000000000E+00  0.22405043812E+04  0.22405043812E+04  0.25500000920E-02 0. -1.
       -2   -1    0    0    0  501  0.00000000000E+00  0.00000000000E+00 -0.81059061648E+03  0.81059061649E+03  0.25500000920E-02 0.  1.
    10030    2    1    2    0    0  0.00000000000E+00  0.00000000000E+00  0.14299137648E+04  0.30510949977E+04  0.26952787074E+04 0.  0.
        5    1    3    3  502    0 -0.80244765428E+03  0.19146720200E+03  0.19212446864E+04  0.20908814319E+04  0.46999998093E+01 0. -1.
       -5    1    3    3    0  502  0.80244765428E+03 -0.19146720200E+03 -0.49133092169E+03  0.96021356578E+03  0.46999998093E+01 0.  1.
</event>
<event>
 5   0  0.6513041E-06  0.2703314E+04  0.7818609E-02  0.8333931E-01
        2   -1    0    0  501    0  0.00000000000E+00  0.00000000000E+00  0.12974188372E+04  0.12974188372E+04  0.25500000920E-02 0.  1.
       -2   -1    0    0    0  501  0.00000000000E+00  0.00000000000E+00 -0.14081622209E+04  0.14081622209E+04  0.25500000920E-02 0. -1.
    10030    2    1    2    0    0  0.00000000000E+00  0.00000000000E+00 -0.11074338373E+03  0.27055810581E+04  0.27033136638E+04 0.  0.
        1    1    3    3  502    0 -0.79516927720E+03 -0.10910702677E+04 -0.12060060559E+03  0.13554604437E+04  0.50400001928E-02 0. -1.
       -1    1    3    3    0  502  0.79516927720E+03  0.10910702677E+04  0.98572218543E+01  0.13501206144E+04  0.50400001928E-02 0.  1.
</event>
<event>
 5   0  0.2508094E-06  0.2890948E+04  0.7818609E-02  0.8275576E-01
       -1   -1    0    0    0  501  0.00000000000E+00  0.00000000000E+00  0.14040262799E+04  0.14040262800E+04  0.50400001928E-02 0.  1.
        1   -1    0    0  501    0  0.00000000000E+00  0.00000000000E+00 -0.14881450076E+04  0.14881450076E+04  0.50400001928E-02 0. -1.
    10030    2    1    2    0    0  0.00000000000E+00  0.00000000000E+00 -0.84118727630E+02  0.28921712875E+04  0.28909477332E+04 0.  0.
        3    1    3    3  502    0  0.50881476707E+03  0.11208135317E+04  0.71607351594E+03  0.14240353684E+04  0.10100000352E+00 0.  1.
       -3    1    3    3    0  502 -0.50881476707E+03 -0.11208135317E+04 -0.80019224357E+03  0.14681359191E+04  0.10100000352E+00 0. -1.
</event>
<event>
 5   0  0.2336512E-06  0.2936048E+04  0.7818609E-02  0.8262232E-01
        1   -1    0    0  501    0  0.00000000000E+00  0.00000000000E+00  0.25656262771E+04  0.25656262772E+04  0.50400001928E-02 0.  1.
       -1   -1    0    0    0  501  0.00000000000E+00  0.00000000000E+00 -0.83998771931E+03  0.83998771933E+03  0.50400001928E-02 0. -1.
    10030    2    1    2    0    0  0.00000000000E+00  0.00000000000E+00  0.17256385578E+04  0.34056139965E+04  0.29360480685E+04 0.  0.
        4    1    3    3  502    0  0.12645298081E+04 -0.63991448725E+03  0.41875073287E+03  0.14777956475E+04  0.12699999809E+01 0. -1.
       -4    1    3    3    0  502 -0.12645298081E+04  0.63991448725E+03  0.13068878250E+04  0.19278183490E+04  0.12699999809E+01 0.  1.
</event>
<event>
 5   0  0.2508094E-06  0.2859122E+04  0.7818609E-02  0.8285145E-01
       -1   -1    0    0    0  501  0.00000000000E+00  0.00000000000E+00  0.70614599301E+03  0.70614599303E+03  0.50400001928E-02 0. -1.
        1   -1    0    0  501    0  0.00000000000E+00  0.00000000000E+00 -0.28940829479E+04  0.28940829479E+04  0.50400001928E-02 0.  1.
    10030    2    1    2    0    0  0.00000000000E+00  0.00000000000E+00 -0.21879369549E+04  0.36002289409E+04  0.28591222969E+04 0.  0.
        3    1    3    3  502    0  0.90778874147E+03 -0.10527885769E+04 -0.15138739152E+04  0.20553000823E+04  0.10100000352E+00 0. -1.
       -3    1    3    3    0  502 -0.90778874147E+03  0.10527885769E+04 -0.67406303962E+03  0.15449288586E+04  0.10100000352E+00 0.  1.
</event>
<event>
 5   0  0.6393633E-06  0.2886659E+04  0.7818609E-02  0.8276858E-01
        2   -1    0    0  501    0  0.00000000000E+00  0.00000000000E+00  0.13404221262E+04  0.13404221262E+04  0.25500000920E-02 0. -1.
       -2   -1    0    0    0  501  0.00000000000E+00  0.00000000000E+00 -0.15541369399E+04  0.15541369399E+04  0.25500000920E-02 0.  1.
    10030    2    1    2    0    0  0.00000000000E+00  0.00000000000E+00 -0.21371481369E+03  0.28945590660E+04  0.28866586506E+04 0.  0.
        4    1    3    3  502    0 -0.80376857440E+03 -0.40719199920E+03 -0.12374843318E+04  0.15307574366E+04  0.12699999809E+01 0.  1.
       -4    1    3    3    0  502  0.80376857440E+03  0.40719199920E+03  0.10237695181E+04  0.13638016294E+04  0.12699999809E+01 0. -1.
</event>
<event>
 5   0  0.6733688E-06  0.2890505E+04  0.7818609E-02  0.8275708E-01
        2   -1    0    0  501    0  0.00000000000E+00  0.00000000000E+00  0.83823146436E+03  0.83823146437E+03  0.25500000920E-02 0.  1.
       -2   -1    0    0    0  501  0.00000000000E+00  0.00000000000E+00 -0.24918583630E+04  0.24918583630E+04  0.25500000920E-02 0. -1.
    10030    2    1    2    0    0  0.00000000000E+00  0.00000000000E+00 -0.16536268987E+04  0.33300898274E+04  0.28905045128E+04 0.  0.
        5    1    3    3  502    0  0.33193352933E+03  0.30631449066E+03 -0.24084479378E+04  0.24504391432E+04  0.46999998093E+01 0. -1.
       -5    1    3    3    0  502 -0.33193352933E+03 -0.30631449066E+03  0.75482103918E+03  0.87965068423E+03  0.46999998093E+01 0.  1.
</event>
<event>
 5   0  0.6615403E-06  0.2839195E+04  0.7818609E-02  0.8291202E-01
       -2   -1    0    0    0  501  0.00000000000E+00  0.00000000000E+00  0.97009615500E+03  0.97009615501E+03  0.25500000920E-02 0. -1.
        2   -1    0    0  501    0  0.00000000000E+00  0.00000000000E+00 -0.20773790056E+04  0.20773790056E+04  0.25500000920E-02 0.  1.
    10030    2    1    2    0    0  0.00000000000E+00  0.00000000000E+00 -0.11072828506E+04  0.30474751607E+04  0.28391952281E+04 0.  0.
        2    1    3    3  502    0  0.61623720430E+03  0.10394343634E+04 -0.13533371616E+04  0.18143024997E+04  0.25500000920E-02 0.  1.
       -2    1    3    3    0  502 -0.61623720430E+03 -0.10394343634E+04  0.24605431091E+03  0.12331726609E+04  0.25500000920E-02 0. -1.
</event>
<event>
 5   0  0.6612533E-06  0.2936694E+04  0.7818609E-02  0.8262043E-01
        2   -1    0    0  501    0  0.00000000000E+00  0.00000000000E+00  0.29419926125E+04  0.29419926125E+04  0.25500000920E-02 0. -1.
       -2   -1    0    0    0  501  0.00000000000E+00  0.00000000000E+00 -0.73285144564E+03  0.73285144565E+03  0.25500000920E-02 0.  1.
    10030    2    1    2    0    0  0.00000000000E+00  0.00000000000E+00  0.22091411669E+04  0.36748440582E+04  0.29366944268E+04 0.  0.
        3    1    3    3  502    0 -0.12879225596E+04  0.43684637451E+03  0.17973102700E+04  0.22538641244E+04  0.10100000352E+00 0. -1.
       -3    1    3    3    0  502  0.12879225596E+04 -0.43684637451E+03  0.41183089691E+03  0.14209799338E+04  0.10100000352E+00 0.  1.
</event>
<event>
 5   0  0.6615403E-06  0.2875961E+04  0.7818609E-02  0.8280066E-01
       -2   -1    0    0    0  501  0.00000000000E+00  0.00000000000E+00  0.14021071534E+04  0.14021071534E+04  0.25500000920E-02 0. -1.
        2   -1    0    0  501    0  0.00000000000E+00  0.00000000000E+00 -0.14747712373E+04  0.14747712374E+04  0.25500000920E-02 0.  1.
    10030    2    1    2    0    0  0.00000000000E+00  0.00000000000E+00 -0.72664083995E+02  0.28768783907E+04  0.28759605710E+04 0.  0.
        2    1    3    3  502    0  0.95433453941E+03 -0.60687981265E+02 -0.11106160470E+04  0.14655734195E+04  0.25500000920E-02 0.  1.
       -2    1    3    3    0  502 -0.95433453941E+03  0.60687981265E+02  0.10379519630E+04  0.14113049712E+04  0.25500000920E-02 0. -1.
</event>
<event>
 5   0  0.6612533E-06  0.2959499E+04  0.7818609E-02  0.8255392E-01
        2   -1    0    0  501    0  0.00000000000E+00  0.00000000000E+00  0.17297287827E+04  0.17297287827E+04  0.25500000920E-02 0. -1.
       -2   -1    0    0    0  501  0.00000000000E+00  0.00000000000E+00 -0.12658967885E+04  0.12658967885E+04  0.25500000920E-02 0.  1.
    10030    2    1    2    0    0  0.00000000000E+00  0.00000000000E+00  0.46383199421E+03  0.29956255712E+04  0.29594986812E+04 0.  0.
        3    1    3    3  502    0  0.44447533686E+02  0.13770082486E+04  0.77844297054E+03  0.15824350756E+04  0.10100000352E+00 0. -1.
       -3    1    3    3    0  502 -0.44447533686E+02 -0.13770082486E+04 -0.31461097633E+03  0.14131904955E+04  0.10100000352E+00 0.  1.
</event>
<event>
 5   0  0.6612533E-06  0.2911423E+04  0.7818609E-02  0.8269487E-01
        2   -1    0    0  501    0  0.00000000000E+00  0.00000000000E+00  0.21607955606E+04  0.21607955606E+04  0.25500000920E-02 0. -1.
       -2   -1    0    0    0  501  0.00000000000E+00  0.00000000000E+00 -0.98070194206E+03  0.98070194206E+03  0.25500000920E-02 0.  1.
    10030    2    1    2    0    0  0.00000000000E+00  0.00000000000E+00  0.11800936185E+04  0.31414975026E+04  0.29114232964E+04 0.  0.
        3    1    3    3  502    0 -0.96376220538E+03 -0.65917115229E+03 -0.34799257926E+03  0.12183772166E+04  0.10100000352E+00 0.  1.
       -3    1    3    3    0  502  0.96376220538E+03  0.65917115229E+03  0.15280861978E+04  0.19231202860E+04  0.10100000352E+00 0. -1.
</event>
<event>
 5   0  0.6393633E-06  0.2917370E+04  0.7818609E-02  0.8267728E-01
        2   -1    0    0  501    0  0.00000000000E+00  0.00000000000E+00  0.23815412505E+04  0.23815412505E+04  0.25500000920E-02 0.  1.
       -2   -1    0    0    0  501  0.00000000000E+00  0.00000000000E+00 -0.89343900035E+03  0.89343900036E+03  0.25500000920E-02 0. -1.
    10030    2    1    2    0    0  0.00000000000E+00  0.00000000000E+00  0.14881022501E+04  0.32749802508E+04  0.29173699348E+04 0.  0.
        4    1    3    3  502    0  0.53008631171E+03 -0.67537068419E+02 -0.77960321002E+03  0.94516428807E+03  0.12699999809E+01 0. -1.
       -4    1    3    3    0  502 -0.53008631171E+03  0.67537068419E+02  0.22677054601E+04  0.23298159627E+04  0.12699999809E+01 0.  1.
</event>
<event>
 5   0  0.2348684E-06  0.2439450E+04  0.7818609E-02  0.8424880E-01
        1   -1    0    0  501    0  0.00000000000E+00  0.00000000000E+00  0.73250293858E+03  0.73250293860E+03  0.50400001928E-02 0. -1.
       -1   -1    0    0    0  501  0.00000000000E+00  0.00000000000E+00 -0.20310220140E+04  0.20310220140E+04  0.50400001928E-02 0.  1.
    10030    2    1    2    0    0  0.00000000000E+00  0.00000000000E+00 -0.12985190754E+04  0.27635249526E+04  0.24394504247E+04 0.  0.
        5    1    3    3  502    0  0.38223707332E+03  0.21019809979E+03 -0.19396214463E+04  0.19880749147E+04  0.46999998093E+01 0.  1.
       -5    1    3    3    0  502 -0.38223707332E+03 -0.21019809979E+03  0.64110237089E+03  0.77545003793E+03  0.46999998093E+01 0. -1.
</event>
<event>
 5   0  0.2429358E-06  0.2910664E+04  0.7818609E-02  0.8269712E-01
       -1   -1    0    0    0  501  0.00000000000E+00  0.00000000000E+00  0.11328005330E+04  0.11328005330E+04  0.50400001928E-02 0. -1.
        1   -1    0    0  501    0  0.00000000000E+00  0.00000000000E+00 -0.18696947363E+04  0.18696947363E+04  0.50400001928E-02 0.  1.
    10030    2    1    2    0    0  0.00000000000E+00  0.00000000000E+00 -0.73689420330E+03  0.30024952693E+04  0.29106639750E+04 0.  0.
        2    1    3    3  502    0 -0.64808734281E+03  0.12628474027E+04 -0.69981464416E+03  0.15825742645E+04  0.25500000920E-02 0.  1.
       -2    1    3    3    0  502  0.64808734281E+03 -0.12628474027E+04 -0.37079559138E+02  0.14199210049E+04  0.25500000920E-02 0. -1.
</event>
<event>
 5   0  0.2429358E-06  0.2707520E+04  0.7818609E-02  0.8332569E-01
        1   -1    0    0  501    0  0.00000000000E+00  0.00000000000E+00  0.20047986109E+04  0.20047986109E+04  0.50400001928E-02 0. -1.
       -1   -1    0    0    0  501  0.00000000000E+00  0.00000000000E+00 -0.91413966910E+03  0.91413966911E+03  0.50400001928E-02 0.  1.
    10030    2    1    2    0    0  0.00000000000E+00  0.00000000000E+00  0.10906589418E+04  0.29189382800E+04  0.27075198532E+04 0.  0.
        2    1    3    3  502    0 -0.22606230552E+03  0.82215291110E+03  0.16789232533E+04  0.18830355455E+04  0.25500000920E-02 0. -1.
       -2    1    3    3    0  502  0.22606230552E+03 -0.82215291110E+03 -0.58826431148E+03  0.10359027345E+04  0.25500000920E-02 0.  1.
</event>
<event>
 5   0  0.2508094E-06  0.2907309E+04  0.7818609E-02  0.8270706E-01
       -1   -1    0    0    0  501  0.00000000000E+00  0.00000000000E+00  0.11717982636E+04  0.11717982636E+04  0.50400001928E-02 0.  1.
        1   -1    0    0  501    0  0.00000000000E+00  0.00000000000E+00 -0.18033063004E+04  0.18033063004E+04  0.50400001928E-02 0. -1.
    10030    2    1    2    0    0  0.00000000000E+00  0.00000000000E+00 -0.63150803680E+03  0.29751045641E+04  0.29073088530E+04 0.  0.
        3    1    3    3  502    0  0.97260000877E+02  0.54536624084E+03 -0.16910534672E+04  0.17794790484E+04  0.10100000352E+00 0. -1.
       -3    1    3    3    0  502 -0.97260000877E+02 -0.54536624084E+03  0.10595454304E+04  0.11956255157E+04  0.10100000352E+00 0.  1.
</event>
<event>
 5   0  0.6513041E-06  0.2903418E+04  0.7818609E-02  0.8271861E-01
       -2   -1    0    0    0  501  0.00000000000E+00  0.00000000000E+00  0.17618156381E+04  0.17618156381E+04  0.25500000920E-02 0. -1.
        2   -1    0    0  501    0  0.00000000000E+00  0.00000000000E+00 -0.11961862067E+04  0.11961862067E+04  0.25500000920E-02 0.  1.
    10030    2    1    2    0    0  0.00000000000E+00  0.00000000000E+00  0.56562943138E+03  0.29580018448E+04  0.29034183750E+04 0.  0.
        1    1    3    3  502    0  0.97864490551E+03  0.10341633794E+04 -0.57409842582E+01  0.14238232704E+04  0.50400001928E-02 0.  1.
       -1    1    3    3    0  502 -0.97864490551E+03 -0.10341633794E+04  0.57137041563E+03  0.15341785744E+04  0.50400001928E-02 0. -1.
</event>
<event>
 5   0  0.2508094E-06  0.2720401E+04  0.7818609E-02  0.8328416E-01
       -1   -1    0    0    0  501  0.00000000000E+00  0.00000000000E+00  0.71382731581E+03  0.71382731583E+03  0.50400001928E-02 0. -1.
        1   -1    0    0  501    0  0.00000000000E+00  0.00000000000E+00 -0.25918668675E+04  0.25918668675E+04  0.50400001928E-02 0.  1.
    10030    2    1    2    0    0  0.00000000000E+00  0.00000000000E+00 -0.18780395517E+04  0.33056941834E+04  0.27204009771E+04 0.  0.
        3    1    3    3  502    0 -0.93427727674E+03  0.87102237258E+03 -0.15071478401E+04  0.19756134808E+04  0.10100000352E+00 0. -1.
       -3    1    3    3    0  502  0.93427727674E+03 -0.87102237258E+03 -0.37089171159E+03  0.13300807025E+04  0.10100000352E+00 0.  1.
</event>
<event>
 5   0  0.6612533E-06  0.2892879E+04  0.7818609E-02  0.8274999E-01
        2   -1    0    0  501    0  0.00000000000E+00  0.00000000000E+00  0.12670554696E+04  0.12670554696E+04  0.25500000920E-02 0.  1.
       -2   -1    0    0    0  501  0.00000000000E+00  0.00000000000E+00 -0.16512201068E+04  0.16512201068E+04  0.25500000920E-02 0. -1.
    10030    2    1    2    0    0  0.00000000000E+00  0.00000000000E+00 -0.38416463725E+03  0.29182755764E+04  0.28928791663E+04 0.  0.
        3    1    3    3  502    0  0.14422625047E+04  0.52483343969E+01 -0.81397707093E+02  0.14445671582E+04  0.10100000352E+00 0. -1.
       -3    1    3    3    0  502 -0.14422625047E+04 -0.52483343969E+01 -0.30276693015E+03  0.14737084182E+04  0.10100000352E+00 0.  1.
</event>
<event>
 5   0  0.2474769E-06  0.2476683E+04  0.7818609E-02  0.8411340E-01
       -1   -1    0    0    0  501  0.00000000000E+00  0.00000000000E+00  0.18243875258E+04  0.18243875258E+04  0.50400001928E-02 0.  1.
        1   -1    0    0  501    0  0.00000000000E+00  0.00000000000E+00 -0.84055029901E+03  0.84055029902E+03  0.50400001928E-02 0. -1.
    10030    2    1    2    0    0  0.00000000000E+00  0.00000000000E+00  0.98383722677E+03  0.26649378248E+04  0.24766828463E+04 0.  0.
        1    1    3    3  502    0 -0.19263658094E+03  0.38655687250E+03 -0.75688208652E+03  0.87143878782E+03  0.50400001928E-02 0. -1.
       -1    1    3    3    0  502  0.19263658094E+03 -0.38655687250E+03  0.17407193133E+04  0.17934990370E+04  0.50400001928E-02 0.  1.
</event>
<event>
 5   0  0.6393633E-06  0.2944497E+04  0.7818609E-02  0.8259760E-01
        2   -1    0    0  501    0  0.00000000000E+00  0.00000000000E+00  0.16607171411E+04  0.16607171411E+04  0.25500000920E-02 0. -1.
       -2   -1    0    0    0  501  0.00000000000E+00  0.00000000000E+00 -0.13051684574E+04  0.13051684574E+04  0.25500000920E-02 0.  1.
    10030    2    1    2    0    0  0.00000000000E+00  0.00000000000E+00  0.35554868372E+03  0.29658855985E+04  0.29444969888E+04 0.  0.
        4    1    3    3  502    0  0.62901197620E+02  0.16497031057E+03 -0.12944659381E+04  0.13064514694E+04  0.12699999809E+01 0.  1.
       -4    1    3    3    0  502 -0.62901197620E+02 -0.16497031057E+03  0.16500146218E+04  0.16594341292E+04  0.12699999809E+01 0. -1.
</event>
<event>
 5   0  0.6393633E-06  0.2916317E+04  0.7818609E-02  0.8268039E-01
        2   -1    0    0  501    0  0.00000000000E+00  0.00000000000E+00  0.21862082662E+04  0.21862082662E+04  0.25500000920E-02 0.  1.
       -2   -1    0    0    0  501  0.00000000000E+00  0.00000000000E+00 -0.97256373146E+03  0.97256373146E+03  0.25500000920E-02 0. -1.
    10030    2    1    2    0    0  0.00000000000E+00  0.00000000000E+00  0.12136445347E+04  0.31587719976E+04  0.29163174512E+04 0.  0.
        4    1    3    3  502    0  0.96794726457E+03 -0.10804471639E+04  0.76724829292E+03  0.16410239294E+04  0.12699999809E+01 0.  1.
       -4    1    3    3    0  502 -0.96794726457E+03  0.10804471639E+04  0.44639624179E+03  0.15177480682E+04  0.12699999809E+01 0. -1.
</event>
<event>
 5   0  0.2348684E-06  0.2896133E+04  0.7818609E-02  0.8274029E-01
       -1   -1    0    0    0  501  0.00000000000E+00  0.00000000000E+00  0.19299548728E+04  0.19299548728E+04  0.50400001928E-02 0. -1.
        1   -1    0    0  501    0  0.00000000000E+00  0.00000000000E+00 -0.10865003759E+04  0.10865003759E+04  0.50400001928E-02 0.  1.
    10030    2    1    2    0    0  0.00000000000E+00  0.00000000000E+00  0.84345449688E+03  0.30164552487E+04  0.28961330734E+04 0.  0.
        5    1    3    3  502    0  0.72279917265E+03 -0.12170920491E+04  0.73956584235E+03  0.15971009439E+04  0.46999998093E+01 0. -1.
       -5    1    3    3    0  502 -0.72279917265E+03  0.12170920491E+04  0.10388865453E+03  0.14193543048E+04  0.46999998093E+01 0.  1.
</event>
<event>
 5   0  0.2508094E-06  0.2918132E+04  0.7818609E-02  0.8267503E-01
        1   -1    0    0  501    0  0.00000000000E+00  0.00000000000E+00  0.19307811774E+04  0.19307811774E+04  0.50400001928E-02 0.  1.
       -1   -1    0    0    0  501  0.00000000000E+00  0.00000000000E+00 -0.11025972086E+04  0.11025972086E+04  0.50400001928E-02 0. -1.
    10030    2    1    2    0    0  0.00000000000E+00  0.00000000000E+00  0.82818396875E+03  0.30333783860E+04  0.29181322359E+04 0.  0.
        3    1    3    3  502    0 -0.11614891204E+04 -0.56697904377E+03 -0.28966229610E+03  0.13245476469E+04  0.10100000352E+00 0.  1.
       -3    1    3    3    0  502  0.11614891204E+04  0.56697904377E+03  0.11178462648E+04  0.17088307391E+04  0.10100000352E+00 0. -1.
</event>
<event>
 5   0  0.2429358E-06  0.2778986E+04  0.7818609E-02  0.8309822E-01
       -1   -1    0    0    0  501  0.00000000000E+00  0.00000000000E+00  0.93343724461E+03  0.93343724463E+03  0.50400001928E-02 0. -1.
        1   -1    0    0  501    0  0.00000000000E+00  0.00000000000E+00 -0.20683664531E+04  0.20683664531E+04  0.50400001928E-02 0.  1.
    10030    2    1    2    0    0  0.00000000000E+00  0.00000000000E+00 -0.11349292085E+04  0.30018036978E+04  0.27789856300E+04 0.  0.
        2    1    3    3  502    0  0.38944540640E+03 -0.68040448499E+03 -0.18066487849E+04  0.19694156036E+04  0.25500000920E-02 0.  1.
       -2    1    3    3    0  502 -0.38944540640E+03  0.68040448499E+03  0.67171957634E+03  0.10323880942E+04  0.25500000920E-02 0. -1.
</event>
<event>
 5   0  0.6393633E-06  0.2867824E+04  0.7818609E-02  0.8282515E-01
       -2   -1    0    0    0  501  0.00000000000E+00  0.00000000000E+00  0.74012356750E+03  0.74012356751E+03  0.25500000920E-02 0. -1.
        2   -1    0    0  501    0  0.00000000000E+00  0.00000000000E+00 -0.27780554624E+04  0.27780554624E+04  0.25500000920E-02 0.  1.
    10030    2    1    2    0    0  0.00000000000E+00  0.00000000000E+00 -0.20379318949E+04  0.35181790299E+04  0.28678244853E+04 0.  0.
        4    1    3    3  502    0 -0.13984898942E+04 -0.21634382993E+03 -0.73514795025E+03  0.15946857868E+04  0.12699999809E+01 0. -1.
       -4    1    3    3    0  502  0.13984898942E+04  0.21634382993E+03 -0.13027839447E+04  0.19234932431E+04  0.12699999809E+01 0.  1.
</event>
<event>
 5   0  0.2508094E-06  0.2797989E+04  0.7818609E-02  0.8303893E-01
        1   -1    0    0  501    0  0.00000000000E+00  0.00000000000E+00  0.11799752259E+04  0.11799752259E+04  0.50400001928E-02 0. -1.
       -1   -1    0    0    0  501  0.00000000000E+00  0.00000000000E+00 -0.16586662410E+04  0.16586662410E+04  0.50400001928E-02 0.  1.
    10030    2    1    2    0    0  0.00000000000E+00  0.00000000000E+00 -0.47869101508E+03  0.28386414669E+04  0.27979886150E+04 0.  0.
        3    1    3    3  502    0  0.63734746532E+02  0.95276086263E+03  0.79794296137E+03  0.12443987942E+04  0.10100000352E+00 0. -1.
       -3    1    3    3    0  502 -0.63734746532E+02 -0.95276086263E+03 -0.12766339765E+04  0.15942426727E+04  0.10100000352E+00 0.  1.
</event>
<event>
 5   0  0.6615403E-06  0.2906154E+04  0.7818609E-02  0.8271049E-01
        2   -1    0    0  501    0  0.00000000000E+00  0.00000000000E+00  0.12192067635E+04  0.12192067635E+04  0.25500000920E-02 0. -1.
       -2   -1    0    0    0  501  0.00000000000E+00  0.00000000000E+00 -0.17318082115E+04  0.17318082115E+04  0.25500000920E-02 0.  1.
    10030    2    1    2    0    0  0.00000000000E+00  0.00000000000E+00 -0.51260144807E+03  0.29510149750E+04  0.29061536673E+04 0.  0.
        2    1    3    3  502    0  0.39022250021E+03  0.24948764198E+02  0.11647796618E+04  0.12286609382E+04  0.25500000920E-02 0. -1.
       -2    1    3    3    0  502 -0.39022250021E+03 -0.24948764198E+02 -0.16773811098E+04  0.17223540368E+04  0.25500000920E-02 0.  1.
</event>
<event>
 5   0  0.6393633E-06  0.2893623E+04  0.7818609E-02  0.8274777E-01
       -2   -1    0    0    0  501  0.00000000000E+00  0.00000000000E+00  0.12819388078E+04  0.12819388078E+04  0.25500000920E-02 0. -1.
        2   -1    0    0  501    0  0.00000000000E+00  0.00000000000E+00 -0.16328890160E+04  0.16328890160E+04  0.25500000920E-02 0.  1.
    10030    2    1    2    0    0  0.00000000000E+00  0.00000000000E+00 -0.35095020823E+03  0.29148278238E+04  0.28936231948E+04 0.  0.
        4    1    3    3  502    0  0.79536327574E+03  0.96593927085E+03  0.55622290139E+03  0.13693162324E+04  0.12699999809E+01 0. -1.
       -4    1    3    3    0  502 -0.79536327574E+03 -0.96593927085E+03 -0.90717310962E+03  0.15455115914E+04  0.12699999809E+01 0.  1.
</event>
<event>
 5   0  0.2348684E-06  0.2897740E+04  0.7818609E-02  0.8273550E-01
        1   -1    0    0  501    0  0.00000000000E+00  0.00000000000E+00  0.17288361670E+04  0.17288361670E+04  0.50400001928E-02 0. -1.
       -1   -1    0    0    0  501  0.00000000000E+00  0.00000000000E+00 -0.12142411027E+04  0.12142411028E+04  0.50400001928E-02 0.  1.
    10030    2    1    2    0    0  0.00000000000E+00  0.00000000000E+00  0.51459506427E+03  0.29430772698E+04  0.28977397633E+04 0.  0.
        5    1    3    3  502    0  0.50072494987E+03  0.62010508346E+03  0.14861643598E+04  0.16864051662E+04  0.46999998093E+01 0. -1.
       -5    1    3    3    0  502 -0.50072494987E+03 -0.62010508346E+03 -0.97156929557E+03  0.12566721036E+04  0.46999998093E+01 0.  1.
</event>
<event>
 5   0  0.2429358E-06  0.2893965E+04  0.7818609E-02  0.8274675E-01
        1   -1    0    0  501    0  0.00000000000E+00  0.00000000000E+00  0.84239125329E+03  0.84239125331E+03  0.50400001928E-02 0. -1.
       -1   -1    0    0    0  501  0.00000000000E+00  0.00000000000E+00 -0.24854946675E+04  0.24854946675E+04  0.50400001928E-02 0.  1.
    10030    2    1    2    0    0  0.00000000000E+00  0.00000000000E+00 -0.16431034142E+04  0.33278859208E+04  0.28939654235E+04 0.  0.
        2    1    3    3  502    0 -0.99434332308E+03  0.10409090016E+04 -0.99035712354E+03  0.17472885926E+04  0.25500000920E-02 0.  1.
       -2    1    3    3    0  502  0.99434332308E+03 -0.10409090016E+04 -0.65274629068E+03  0.15805973282E+04  0.25500000920E-02 0. -1.
</event>
<event>
 5   0  0.6615403E-06  0.2893312E+04  0.7818609E-02  0.8274870E-01
       -2   -1    0    0    0  501  0.00000000000E+00  0.00000000000E+00  0.11213814509E+04  0.11213814510E+04  0.25500000920E-02 0. -1.
        2   -1    0    0  501    0  0.00000000000E+00  0.00000000000E+00 -0.18662811025E+04  0.18662811025E+04  0.25500000920E-02 0.  1.
    10030    2    1    2    0    0  0.00000000000E+00  0.00000000000E+00 -0.74489965152E+03  0.29876625534E+04  0.28933116048E+04 0.  0.
        2    1    3    3  502    0 -0.14086703935E+04 -0.30751950923E+03 -0.25073981603E+03  0.14634859006E+04  0.25500000920E-02 0.  1.
       -2    1    3    3    0  502  0.14086703935E+04  0.30751950923E+03 -0.49415983549E+03  0.15241766528E+04  0.25500000920E-02 0. -1.
</event>
<event>
 5   0  0.6612533E-06  0.2909792E+04  0.7818609E-02  0.8269970E-01
        2   -1    0    0  501    0  0.00000000000E+00  0.00000000000E+00  0.20326416007E+04  0.20326416007E+04  0.25500000920E-02 0. -1.
       -2   -1    0    0    0  501  0.00000000000E+00  0.00000000000E+00 -0.10413655254E+04  0.10413655254E+04  0.25500000920E-02 0.  1.
    10030    2    1    2    0    0  0.00000000000E+00  0.00000000000E+00  0.99127607533E+03  0.30740071260E+04  0.29097923557E+04 0.  0.
        3    1    3    3  502    0  0.96458290533E+03  0.76417824014E+03  0.13155395242E+04  0.18013974614E+04  0.10100000352E+00 0. -1.
       -3    1    3    3    0  502 -0.96458290533E+03 -0.76417824014E+03 -0.32426344891E+03  0.12726096646E+04  0.10100000352E+00 0.  1.
</event>
<event>
 5   0  0.6733688E-06  0.2874747E+04  0.7818609E-02  0.8280431E-01
        2   -1    0    0  501    0  0.00000000000E+00  0.00000000000E+00  0.20083087724E+04  0.20083087724E+04  0.25500000920E-02 0. -1.
       -2   -1    0    0    0  501  0.00000000000E+00  0.00000000000E+00 -0.10287471548E+04  0.10287471548E+04  0.25500000920E-02 0.  1.
    10030    2    1    2    0    0  0.00000000000E+00  0.00000000000E+00  0.97956161766E+03  0.30370559272E+04  0.28747465527E+04 0.  0.
        5    1    3    3  502    0  0.86233054601E+03  0.11836635379E+03 -0.71865256877E+03  0.11287640005E+04  0.46999998093E+01 0.  1.
       -5    1    3    3    0  502 -0.86233054601E+03 -0.11836635379E+03  0.16982141864E+04  0.19082919266E+04  0.46999998093E+01 0. -1.
</event>
<event>
 5   0  0.2429358E-06  0.2543230E+04  0.7818609E-02  0.8387744E-01
       -1   -1    0    0    0  501  0.00000000000E+00  0.00000000000E+00  0.15713758595E+04  0.15713758595E+04  0.50400001928E-02 0. -1.
        1   -1    0    0  501    0  0.00000000000E+00  0.00000000000E+00 -0.10290377746E+04  0.10290377746E+04  0.50400001928E-02 0.  1.
    10030    2    1    2    0    0  0.00000000000E+00  0.00000000000E+00  0.54233808495E+03  0.26004136341E+04  0.25432303219E+04 0.  0.
        2    1    3    3  502    0  0.96787517615E+03  0.71040095957E+03 -0.15724249985E+03  0.12108579949E+04  0.25500000920E-02 0.  1.
       -2    1    3    3    0  502 -0.96787517615E+03 -0.71040095957E+03  0.69958058480E+03  0.13895556393E+04  0.25500000920E-02 0. -1.
</event>
<event>
 5   0  0.6615403E-06  0.2917525E+04  0.7818609E-02  0.8267682E-01
       -2   -1    0    0    0  501  0.00000000000E+00  0.00000000000E+00  0.12338688628E+04  0.12338688628E+04  0.25500000920E-02 0. -1.
        2   -1    0    0  501    0  0.00000000000E+00  0.00000000000E+00 -0.17246473187E+04  0.17246473187E+04  0.25500000920E-02 0.  1.
    10030    2    1    2    0    0  0.00000000000E+00  0.00000000000E+00 -0.49077845597E+03  0.29585161815E+04  0.29175254075E+04 0.  0.
        2    1    3    3  502    0 -0.42719662304E+03 -0.13459694884E+03  0.11624156003E+04  0.12457220080E+04  0.25500000920E-02 0. -1.
       -2    1    3    3    0  502  0.42719662304E+03  0.13459694884E+03 -0.16531940562E+04  0.17127941735E+04  0.25500000920E-02 0.  1.
</event>
<event>
 5   0  0.2429358E-06  0.2912065E+04  0.7818609E-02  0.8269297E-01
       -1   -1    0    0    0  501  0.00000000000E+00  0.00000000000E+00  0.18763861700E+04  0.18763861700E+04  0.50400001928E-02 0. -1.
        1   -1    0    0  501    0  0.00000000000E+00  0.00000000000E+00 -0.11298475240E+04  0.11298475240E+04  0.50400001928E-02 0.  1.
    10030    2    1    2    0    0  0.00000000000E+00  0.00000000000E+00  0.74653864605E+03  0.30062336940E+04  0.29120647439E+04 0.  0.
        2    1    3    3  502    0  0.13717773710E+04 -0.48590783247E+03  0.32539410939E+03  0.14912279851E+04  0.25500000920E-02 0. -1.
       -2    1    3    3    0  502 -0.13717773710E+04  0.48590783247E+03  0.42114453666E+03  0.15150057089E+04  0.25500000920E-02 0.  1.
</event>
<event>
 5   0  0.6733688E-06  0.2895183E+04  0.7818609E-02  0.8274312E-01
        2   -1    0    0  501    0  0.00000000000E+00  0.00000000000E+00  0.18884726739E+04  0.18884726739E+04  0.25500000920E-02 0.  1.
       -2   -1    0    0    0  501  0.00000000000E+00  0.00000000000E+00 -0.11096383204E+04  0.11096383204E+04  0.25500000920E-02 0. -1.
    10030    2    1    2    0    0  0.00000000000E+00  0.00000000000E+00  0.77883435348E+03  0.29981109943E+04  0.28951833420E+04 0.  0.
        5    1    3    3  502    0 -0.89582712557E+03 -0.82245386408E+03 -0.42371350892E+03  0.12878244543E+04  0.46999998093E+01 0. -1.
       -5    1    3    3    0  502  0.89582712557E+03  0.82245386408E+03  0.12025478624E+04  0.17102865400E+04  0.46999998093E+01 0.  1.
</event>
<event>
 5   0  0.2474769E-06  0.2877490E+04  0.7818609E-02  0.8279607E-01
       -1   -1    0    0    0  501  0.00000000000E+00  0.00000000000E+00  0.11786445788E+04  0.11786445788E+04  0.50400001928E-02 0. -1.
        1   -1    0    0  501    0  0.00000000000E+00  0.00000000000E+00 -0.17562432631E+04  0.17562432631E+04  0.50400001928E-02 0.  1.
    10030    2    1    2    0    0  0.00000000000E+00  0.00000000000E+00 -0.57759868434E+03  0.29348878419E+04  0.28774896011E+04 0.  0.
        1    1    3    3  502    0  0.10360424623E+04 -0.48912963163E+03 -0.11764200865E+04  0.16421315416E+04  0.50400001928E-02 0.  1.
       -1    1    3    3    0  502 -0.10360424623E+04  0.48912963163E+03  0.59882140213E+03  0.12927563003E+04  0.50400001928E-02 0. -1.
</event>
<event>
 5   0  0.2336512E-06  0.2891219E+04  0.7818609E-02  0.8275495E-01
        1   -1    0    0  501    0  0.00000000000E+00  0.00000000000E+00  0.26884121175E+04  0.26884121175E+04  0.50400001928E-02 0.  1.
       -1   -1    0    0    0  501  0.00000000000E+00  0.00000000000E+00 -0.77733119988E+03  0.77733119990E+03  0.50400001928E-02 0. -1.
    10030    2    1    2    0    0  0.00000000000E+00  0.00000000000E+00  0.19110809176E+04  0.34657433174E+04  0.28912188551E+04 0.  0.
        4    1    3    3  502    0 -0.93943072199E+03 -0.45440233834E+03 -0.24363660122E+03  0.10716211891E+04  0.12699999809E+01 0. -1.
       -4    1    3    3    0  502  0.93943072199E+03  0.45440233834E+03  0.21547175188E+04  0.23941221283E+04  0.12699999809E+01 0.  1.
</event>
<event>
 5   0  0.2474769E-06  0.2990488E+04  0.7818609E-02  0.8246452E-01
       -1   -1    0    0    0  501  0.00000000000E+00  0.00000000000E+00  0.11933449662E+04  0.11933449662E+04  0.50400001928E-02 0. -1.
        1   -1    0    0  501    0  0.00000000000E+00  0.00000000000E+00 -0.18735190653E+04  0.18735190653E+04  0.50400001928E-02 0.  1.
    10030    2    1    2    0    0  0.00000000000E+00  0.00000000000E+00 -0.68017409907E+03  0.30668640315E+04  0.29904879506E+04 0.  0.
        1    1    3    3  502    0  0.10548100409E+04  0.31664531077E+03 -0.13772854818E+04  0.17634635731E+04  0.50400001928E-02 0.  1.
       -1    1    3    3    0  502 -0.10548100409E+04 -0.31664531077E+03  0.69711138272E+03  0.13034004584E+04  0.50400001928E-02 0. -1.
</event>
<event>
 5   0  0.6733688E-06  0.2920624E+04  0.7818609E-02  0.8266768E-01
       -2   -1    0    0    0  501  0.00000000000E+00  0.00000000000E+00  0.24412034620E+04  0.24412034620E+04  0.25500000920E-02 0. -1.
        2   -1    0    0  501    0  0.00000000000E+00  0.00000000000E+00 -0.87354918543E+03  0.87354918543E+03  0.25500000920E-02 0.  1.
    10030    2    1    2    0    0  0.00000000000E+00  0.00000000000E+00  0.15676542765E+04  0.33147526474E+04  0.29206241084E+04 0.  0.
        5    1    3    3  502    0  0.63202793407E+03  0.13164357861E+04  0.78969353761E+03  0.16601507346E+04  0.46999998093E+01 0.  1.
       -5    1    3    3    0  502 -0.63202793407E+03 -0.13164357861E+04  0.77796073892E+03  0.16546019128E+04  0.46999998093E+01 0. -1.
</event>
<event>
 5   0  0.2348684E-06  0.2906145E+04  0.7818609E-02  0.8271052E-01
        1   -1    0    0  501    0  0.00000000000E+00  0.00000000000E+00  0.12048337633E+04  0.12048337633E+04  0.50400001928E-02 0.  1.
       -1   -1    0    0    0  501  0.00000000000E+00  0.00000000000E+00 -0.17524570997E+04  0.17524570997E+04  0.50400001928E-02 0. -1.
    10030    2    1    2    0    0  0.00000000000E+00  0.00000000000E+00 -0.54762333641E+03  0.29572908630E+04  0.29061448569E+04 0.  0.
        5    1    3    3  502    0 -0.76023216426E+03  0.11866369957E+04  0.86448780844E+02  0.14119333500E+04  0.46999998093E+01 0. -1.
       -5    1    3    3    0  502  0.76023216426E+03 -0.11866369957E+04 -0.63407211725E+03  0.15453575130E+04  0.46999998093E+01 0.  1.
</event>
<event>
 5   0  0.2508094E-06  0.2901783E+04  0.7818609E-02  0.8272347E-01
        1   -1    0    0  501    0  0.00000000000E+00  0.00000000000E+00  0.12141160410E+04  0.12141160410E+04  0.50400001928E-02 0. -1.
       -1   -1    0    0    0  501  0.00000000000E+00  0.00000000000E+00 -0.17338427229E+04  0.17338427229E+04  0.50400001928E-02 0.  1.
    10030    2    1    2    0    0  0.00000000000E+00  0.00000000000E+00 -0.51972668184E+03  0.29479587639E+04  0.29017830811E+04 0.  0.
        3    1    3    3  502    0  0.59481196754E+03  0.11821578139E+04 -0.86412902922E+03  0.15805117409E+04  0.10100000352E+00 0.  1.
       -3    1    3    3    0  502 -0.59481196754E+03 -0.11821578139E+04  0.34440234738E+03  0.13674470230E+04  0.10100000352E+00 0. -1.
</event>
<event>
 5   0  0.6513041E-06  0.2885250E+04  0.7818609E-02  0.8277280E-01
        2   -1    0    0  501    0  0.00000000000E+00  0.00000000000E+00  0.12831067750E+04  0.12831067750E+04  0.25500000920E-02 0. -1.
       -2   -1    0    0    0  501  0.00000000000E+00  0.00000000000E+00 -0.16219744044E+04  0.16219744044E+04  0.25500000920E-02 0.  1.
    10030    2    1    2    0    0  0.00000000000E+00  0.00000000000E+00 -0.33886762941E+03  0.29050811794E+04  0.28852496233E+04 0.  0.
        1    1    3    3  502    0 -0.88498552756E+03  0.43662818253E+03  0.89009311520E+03  0.13289504534E+04  0.50400001928E-02 0. -1.
       -1    1    3    3    0  502  0.88498552756E+03 -0.43662818253E+03 -0.12289607446E+04  0.15761307261E+04  0.50400001928E-02 0.  1.
</event>
<event>
 5   0  0.2508094E-06  0.2844171E+04  0.7818609E-02  0.8289685E-01
        1   -1    0    0  501    0  0.00000000000E+00  0.00000000000E+00  0.11399983396E+04  0.11399983396E+04  0.50400001928E-02 0. -1.
       -1   -1    0    0    0  501  0.00000000000E+00  0.00000000000E+00 -0.17739736038E+04  0.17739736038E+04  0.50400001928E-02 0.  1.
    10030    2    1    2    0    0  0.00000000000E+00  0.00000000000E+00 -0.63397526420E+03  0.29139719434E+04  0.28441708548E+04 0.  0.
        3    1    3    3  502    0 -0.94556321445E+03 -0.83553348759E+03  0.35494383970E+03  0.13107979024E+04  0.10100000352E+00 0. -1.
       -3    1    3    3    0  502  0.94556321445E+03  0.83553348759E+03 -0.98891910390E+03  0.16031740410E+04  0.10100000352E+00 0.  1.
</event>
<event>
 5   0  0.6612533E-06  0.2903129E+04  0.7818609E-02  0.8271947E-01
        2   -1    0    0  501    0  0.00000000000E+00  0.00000000000E+00  0.25860181598E+04  0.25860181598E+04  0.25500000920E-02 0.  1.
       -2   -1    0    0    0  501  0.00000000000E+00  0.00000000000E+00 -0.81478152652E+03  0.81478152653E+03  0.25500000920E-02 0. -1.
    10030    2    1    2    0    0  0.00000000000E+00  0.00000000000E+00  0.17712366333E+04  0.34007996863E+04  0.29031292247E+04 0.  0.
        3    1    3    3  502    0 -0.81595459092E+03  0.11452389732E+04  0.46376585804E+03  0.14806866588E+04  0.10100000352E+00 0. -1.
       -3    1    3    3    0  502  0.81595459092E+03 -0.11452389732E+04  0.13074707753E+04  0.19201130276E+04  0.10100000352E+00 0.  1.
</event>
<event>
 5   0  0.2474769E-06  0.2346651E+04  0.7818609E-02  0.8459751E-01
       -1   -1    0    0    0  501  0.00000000000E+00  0.00000000000E+00  0.10234450218E+04  0.10234450218E+04  0.50400001928E-02 0. -1.
        1   -1    0    0  501    0  0.00000000000E+00  0.00000000000E+00 -0.13451555374E+04  0.13451555374E+04  0.50400001928E-02 0.  1.
    10030    2    1    2    0    0  0.00000000000E+00  0.00000000000E+00 -0.32171051563E+03  0.23686005592E+04  0.23466510080E+04 0.  0.
        1    1    3    3  502    0  0.59862441522E+03  0.97280732135E+02  0.85296892987E+03  0.10465996019E+04  0.50400001928E-02 0. -1.
       -1    1    3    3    0  502 -0.59862441522E+03 -0.97280732135E+02 -0.11746794455E+04  0.13220009573E+04  0.50400001928E-02 0.  1.
</event>
<event>
 5   0  0.2474769E-06  0.2984449E+04  0.7818609E-02  0.8248186E-01
        1   -1    0    0  501    0  0.00000000000E+00  0.00000000000E+00  0.18674588012E+04  0.18674588012E+04  0.50400001928E-02 0.  1.
       -1   -1    0    0    0  501  0.00000000000E+00  0.00000000000E+00 -0.11923871745E+04  0.11923871746E+04  0.50400001928E-02 0. -1.
    10030    2    1    2    0    0  0.00000000000E+00  0.00000000000E+00  0.67507162663E+03  0.30598459757E+04  0.29844489766E+04 0.  0.
        1    1    3    3  502    0 -0.14691966891E+04  0.45538715537E+02  0.73899096360E+02  0.14717587310E+04  0.50400001928E-02 0.  1.
       -1    1    3    3    0  502  0.14691966891E+04 -0.45538715537E+02  0.60117253027E+03  0.15880872448E+04  0.50400001928E-02 0. -1.
</event>
<event>
 5   0  0.6513041E-06  0.2888776E+04  0.7818609E-02  0.8276225E-01
        2   -1    0    0  501    0  0.00000000000E+00  0.00000000000E+00  0.14876403010E+04  0.14876403010E+04  0.25500000920E-02 0.  1.
       -2   -1    0    0    0  501  0.00000000000E+00  0.00000000000E+00 -0.14023928324E+04  0.14023928324E+04  0.25500000920E-02 0. -1.
    10030    2    1    2    0    0  0.00000000000E+00  0.00000000000E+00  0.85247468606E+02  0.28900331334E+04  0.28887755851E+04 0.  0.
        1    1    3    3  502    0  0.93016609617E+03 -0.24593588038E+03 -0.10351393792E+04  0.14132257280E+04  0.50400001928E-02 0. -1.
       -1    1    3    3    0  502 -0.93016609617E+03  0.24593588038E+03  0.11203868478E+04  0.14768074054E+04  0.50400001928E-02 0.  1.
</event>
<event>
 5   0  0.2508094E-06  0.2997088E+04  0.7818609E-02  0.8244563E-01
        1   -1    0    0  501    0  0.00000000000E+00  0.00000000000E+00  0.14658527640E+04  0.14658527640E+04  0.50400001928E-02 0. -1.
       -1   -1    0    0    0  501  0.00000000000E+00  0.00000000000E+00 -0.15319646550E+04  0.15319646550E+04  0.50400001928E-02 0.  1.
    10030    2    1    2    0    0  0.00000000000E+00  0.00000000000E+00 -0.66111890955E+02  0.29978174190E+04  0.29970883363E+04 0.  0.
        3    1    3    3  502    0  0.69459170025E+03 -0.88037413250E+03  0.96122730164E+03  0.14769814416E+04  0.10100000352E+00 0. -1.
       -3    1    3    3    0  502 -0.69459170025E+03  0.88037413250E+03 -0.10273391926E+04  0.15208359774E+04  0.10100000352E+00 0.  1.
</event>
<event>
 5   0  0.2474769E-06  0.2898835E+04  0.7818609E-02  0.8273224E-01
       -1   -1    0    0    0  501  0.00000000000E+00  0.00000000000E+00  0.90870165585E+03  0.90870165586E+03  0.50400001928E-02 0. -1.
        1   -1    0    0  501    0  0.00000000000E+00  0.00000000000E+00 -0.23118825608E+04  0.23118825608E+04  0.50400001928E-02 0.  1.
    10030    2    1    2    0    0  0.00000000000E+00  0.00000000000E+00 -0.14031809049E+04  0.32205842166E+04  0.28988352910E+04 0.  0.
        1    1    3    3  502    0  0.14713872782E+03  0.14296673356E+04 -0.91006965130E+03  0.17011247061E+04  0.50400001928E-02 0. -1.
       -1    1    3    3    0  502 -0.14713872782E+03 -0.14296673356E+04 -0.49311125362E+03  0.15194595105E+04  0.50400001928E-02 0.  1.
</event>
<event>
 5   0  0.6612533E-06  0.2890332E+04  0.7818609E-02  0.8275760E-01
        2   -1    0    0  501    0  0.00000000000E+00  0.00000000000E+00  0.16200548100E+04  0.16200548100E+04  0.25500000920E-02 0.  1.
       -2   -1    0    0    0  501  0.00000000000E+00  0.00000000000E+00 -0.12891565155E+04  0.12891565155E+04  0.25500000920E-02 0. -1.
    10030    2    1    2    0    0  0.00000000000E+00  0.00000000000E+00  0.33089829441E+03  0.29092113255E+04  0.28903316168E+04 0.  0.
        3    1    3    3  502    0  0.11524160407E+04  0.11531138630E+03  0.10354706222E+04  0.15535632805E+04  0.10100000352E+00 0.  1.
       -3    1    3    3    0  502 -0.11524160407E+04 -0.11531138630E+03 -0.70457232781E+03  0.13556480450E+04  0.10100000352E+00 0. -1.
</event>
<event>
 5   0  0.6733688E-06  0.3182166E+04  0.7818609E-02  0.8193543E-01
        2   -1    0    0  501    0  0.00000000000E+00  0.00000000000E+00  0.24295775136E+04  0.24295775136E+04  0.25500000920E-02 0.  1.
       -2   -1    0    0    0  501  0.00000000000E+00  0.00000000000E+00 -0.10419691183E+04  0.10419691183E+04  0.25500000920E-02 0. -1.
    10030    2    1    2    0    0  0.00000000000E+00  0.00000000000E+00  0.13876083954E+04  0.34715466319E+04  0.31821657654E+04 0.  0.
        5    1    3    3  502    0  0.79634396893E+02 -0.39448871162E+03 -0.98551800076E+03  0.10645331374E+04  0.46999998093E+01 0. -1.
       -5    1    3    3    0  502 -0.79634396893E+02  0.39448871162E+03  0.23731263961E+04  0.24070134945E+04  0.46999998093E+01 0.  1.
</event>
<event>
 5   0  0.6615403E-06  0.2892321E+04  0.7818609E-02  0.8275166E-01
       -2   -1    0    0    0  501  0.00000000000E+00  0.00000000000E+00  0.14974439332E+04  0.14974439332E+04  0.25500000920E-02 0.  1.
        2   -1    0    0  501    0  0.00000000000E+00  0.00000000000E+00 -0.13966332205E+04  0.13966332205E+04  0.25500000920E-02 0. -1.
    10030    2    1    2    0    0  0.00000000000E+00  0.00000000000E+00  0.10081071274E+03  0.28940771537E+04  0.28923208280E+04 0.  0.
        2    1    3    3  502    0  0.93377292175E+03  0.66669934432E+03 -0.83044736304E+03  0.14163554313E+04  0.25500000920E-02 0. -1.
       -2    1    3    3    0  502 -0.93377292175E+03 -0.66669934432E+03  0.93125807578E+03  0.14777217224E+04  0.25500000920E-02 0.  1.
</event>
<event>
 5   0  0.6615403E-06  0.2894750E+04  0.7818609E-02  0.8274441E-01
       -2   -1    0    0    0  501  0.00000000000E+00  0.00000000000E+00  0.10574709187E+04  0.10574709187E+04  0.25500000920E-02 0.  1.
        2   -1    0    0  501    0  0.00000000000E+00  0.00000000000E+00 -0.19810424980E+04  0.19810424980E+04  0.25500000920E-02 0. -1.
    10030    2    1    2    0    0  0.00000000000E+00  0.00000000000E+00 -0.92357157932E+03  0.30385134167E+04  0.28947503038E+04 0.  0.
        2    1    3    3  502    0 -0.26818512788E+03 -0.70578206679E+03  0.83438625277E+03  0.11252786355E+04  0.25500000920E-02 0.  1.
       -2    1    3    3    0  502  0.26818512788E+03  0.70578206679E+03 -0.17579578321E+04  0.19132347812E+04  0.25500000920E-02 0. -1.
</event>
<event>
 5   0  0.6612533E-06  0.2883314E+04  0.7818609E-02  0.8277859E-01
        2   -1    0    0  501    0  0.00000000000E+00  0.00000000000E+00  0.21284823743E+04  0.21284823743E+04  0.25500000920E-02 0. -1.
       -2   -1    0    0    0  501  0.00000000000E+00  0.00000000000E+00 -0.97645855825E+03  0.97645855825E+03  0.25500000920E-02 0.  1.
    10030    2    1    2    0    0  0.00000000000E+00  0.00000000000E+00  0.11520238160E+04  0.31049409325E+04  0.28833139478E+04 0.  0.
        3    1    3    3  502    0 -0.13127731147E+04 -0.20156695582E+03  0.11797986440E+04  0.17764929887E+04  0.10100000352E+00 0. -1.
       -3    1    3    3    0  502  0.13127731147E+04  0.20156695582E+03 -0.27774827962E+02  0.13284479438E+04  0.10100000352E+00 0.  1.
</event>
<event>
 5   0  0.2429358E-06  0.2894810E+04  0.7818609E-02  0.8274423E-01
        1   -1    0    0  501    0  0.00000000000E+00  0.00000000000E+00  0.26660919828E+04  0.26660919828E+04  0.50400001928E-02 0.  1.
       -1   -1    0    0    0  501  0.00000000000E+00  0.00000000000E+00 -0.78578705648E+03  0.78578705650E+03  0.50400001928E-02 0. -1.
    10030    2    1    2    0    0  0.00000000000E+00  0.00000000000E+00  0.18803049263E+04  0.34518790393E+04  0.28948095422E+04 0.  0.
        2    1    3    3  502    0  0.11116743658E+04 -0.40097068325E+03  0.19366642983E+04  0.22687586890E+04  0.25500000920E-02 0.  1.
       -2    1    3    3    0  502 -0.11116743658E+04  0.40097068325E+03 -0.56359372067E+02  0.11831203503E+04  0.25500000920E-02 0. -1.
</event>
<event>
 5   0  0.6513041E-06  0.2847062E+04  0.7818609E-02  0.8288804E-01
        2   -1    0    0  501    0  0.00000000000E+00  0.00000000000E+00  0.24257937881E+04  0.24257937881E+04  0.25500000920E-02 0. -1.
       -2   -1    0    0    0  501  0.00000000000E+00  0.00000000000E+00 -0.83537237997E+03  0.83537237997E+03  0.25500000920E-02 0.  1.
    10030    2    1    2    0    0  0.00000000000E+00  0.00000000000E+00  0.15904214082E+04  0.32611661681E+04  0.28470624371E+04 0.  0.
        1    1    3    3  502    0  0.10262847312E+04  0.86776806512E+02  0.19208155044E+04  0.21795235180E+04  0.50400001928E-02 0. -1.
       -1    1    3    3    0  502 -0.10262847312E+04 -0.86776806512E+02 -0.33039409627E+03  0.10816426501E+04  0.50400001928E-02 0.  1.
</event>
<event>
 5   0  0.2508094E-06  0.2928292E+04  0.7818609E-02  0.8264509E-01
        1   -1    0    0  501    0  0.00000000000E+00  0.00000000000E+00  0.17353052727E+04  0.17353052727E+04  0.50400001928E-02 0. -1.
       -1   -1    0    0    0  501  0.00000000000E+00  0.00000000000E+00 -0.12353584337E+04  0.12353584337E+04  0.50400001928E-02 0.  1.
    10030    2    1    2    0    0  0.00000000000E+00  0.00000000000E+00  0.49994683901E+03  0.29706637064E+04  0.29282923377E+04 0.  0.
        3    1    3    3  502    0  0.20529439772E+03 -0.12052127606E+04  0.10672610507E+04  0.16228769974E+04  0.10100000352E+00 0. -1.
       -3    1    3    3    0  502 -0.20529439772E+03  0.12052127606E+04 -0.56731421170E+03  0.13477867090E+04  0.10100000352E+00 0.  1.
</event>
<event>
 5   0  0.2508094E-06  0.2882780E+04  0.7818609E-02  0.8278020E-01
       -1   -1    0    0    0  501  0.00000000000E+00  0.00000000000E+00  0.13905552388E+04  0.13905552388E+04  0.50400001928E-02 0.  1.
        1   -1    0    0  501    0  0.00000000000E+00  0.00000000000E+00 -0.14940826988E+04  0.14940826989E+04  0.50400001928E-02 0. -1.
    10030    2    1    2    0    0  0.00000000000E+00  0.00000000000E+00 -0.10352746005E+03  0.28846379377E+04  0.28827795782E+04 0.  0.
        3    1    3    3  502    0 -0.10024304654E+02 -0.12110127786E+04 -0.83390183892E+03  0.14703893103E+04  0.10100000352E+00 0. -1.
       -3    1    3    3    0  502  0.10024304654E+02  0.12110127786E+04  0.73037437887E+03  0.14142486274E+04  0.10100000352E+00 0.  1.
</event>
<event>
 5   0  0.2336512E-06  0.2895536E+04  0.7818609E-02  0.8274207E-01
        1   -1    0    0  501    0  0.00000000000E+00  0.00000000000E+00  0.20041643940E+04  0.20041643940E+04  0.50400001928E-02 0. -1.
       -1   -1    0    0    0  501  0.00000000000E+00  0.00000000000E+00 -0.10458387095E+04  0.10458387095E+04  0.50400001928E-02 0.  1.
    10030    2    1    2    0    0  0.00000000000E+00  0.00000000000E+00  0.95832568447E+03  0.30500031035E+04  0.28955363603E+04 0.  0.
        4    1    3    3  502    0  0.11562684440E+04  0.86035929433E+03  0.33451930147E+03  0.14795538537E+04  0.12699999809E+01 0.  1.
       -4    1    3    3    0  502 -0.11562684440E+04 -0.86035929433E+03  0.62380638300E+03  0.15704492499E+04  0.12699999809E+01 0. -1.
</event>
<event>
 5   0  0.6393633E-06  0.2921188E+04  0.7818609E-02  0.8266601E-01
        2   -1    0    0  501    0  0.00000000000E+00  0.00000000000E+00  0.12302360836E+04  0.12302360836E+04  0.25500000920E-02 0.  1.
       -2   -1    0    0    0  501  0.00000000000E+00  0.00000000000E+00 -0.17340852005E+04  0.17340852005E+04  0.25500000920E-02 0. -1.
    10030    2    1    2    0    0  0.00000000000E+00  0.00000000000E+00 -0.50384911687E+03  0.29643212841E+04  0.29211875569E+04 0.  0.
        4    1    3    3  502    0  0.38919888196E+03 -0.13786021302E+04  0.37440269244E+02  0.14329769676E+04  0.12699999809E+01 0.  1.
       -4    1    3    3    0  502 -0.38919888196E+03  0.13786021302E+04 -0.54128938612E+03  0.15313443165E+04  0.12699999809E+01 0. -1.
</event>
<event>
 5   0  0.2508094E-06  0.2860337E+04  0.7818609E-02  0.8284777E-01
       -1   -1    0    0    0  501  0.00000000000E+00  0.00000000000E+00  0.86356062209E+03  0.86356062211E+03  0.50400001928E-02 0.  1.
        1   -1    0    0  501    0  0.00000000000E+00  0.00000000000E+00 -0.23685446584E+04  0.23685446584E+04  0.50400001928E-02 0. -1.
    10030    2    1    2    0    0  0.00000000000E+00  0.00000000000E+00 -0.15049840363E+04  0.32321052805E+04  0.28603369722E+04 0.  0.
        3    1    3    3  502    0  0.91022001932E+03 -0.91105234788E+02 -0.19947340610E+04  0.21944850493E+04  0.10100000352E+00 0. -1.
       -3    1    3    3    0  502 -0.91022001932E+03  0.91105234788E+02  0.48975002466E+03  0.10376202312E+04  0.10100000352E+00 0.  1.
</event>
<event>
 5   0  0.6733688E-06  0.2910271E+04  0.7818609E-02  0.8269828E-01
       -2   -1    0    0    0  501  0.00000000000E+00  0.00000000000E+00  0.12109397712E+04  0.12109397713E+04  0.25500000920E-02 0. -1.
        2   -1    0    0  501    0  0.00000000000E+00  0.00000000000E+00 -0.17485755485E+04  0.17485755485E+04  0.25500000920E-02 0.  1.
    10030    2    1    2    0    0  0.00000000000E+00  0.00000000000E+00 -0.53763577729E+03  0.29595153198E+04  0.29102712415E+04 0.  0.
        5    1    3    3  502    0 -0.11949621156E+04 -0.15344663159E+03 -0.10986634204E+04  0.16305102661E+04  0.46999998093E+01 0.  1.
       -5    1    3    3    0  502  0.11949621156E+04  0.15344663159E+03  0.56102764306E+03  0.13290050537E+04  0.46999998093E+01 0. -1.
</event>
<event>
 5   0  0.2508094E-06  0.2915428E+04  0.7818609E-02  0.8268302E-01
       -1   -1    0    0    0  501  0.00000000000E+00  0.00000000000E+00  0.14469123700E+04  0.14469123700E+04  0.50400001928E-02 0.  1.
        1   -1    0    0  501    0  0.00000000000E+00  0.00000000000E+00 -0.14685962252E+04  0.14685962253E+04  0.50400001928E-02 0. -1.
    10030    2    1    2    0    0  0.00000000000E+00  0.00000000000E+00 -0.21683855235E+02  0.29155085953E+04  0.29154279582E+04 0.  0.
        3    1    3    3  502    0  0.44158208154E+03 -0.48993417966E+03 -0.13108393437E+04  0.14674229214E+04  0.10100000352E+00 0. -1.
       -3    1    3    3    0  502 -0.44158208154E+03  0.48993417966E+03  0.12891554885E+04  0.14480856738E+04  0.10100000352E+00 0.  1.
</event>
<event>
 5   0  0.6513041E-06  0.2918371E+04  0.7818609E-02  0.8267433E-01
        2   -1    0    0  501    0  0.00000000000E+00  0.00000000000E+00  0.21673632485E+04  0.21673632485E+04  0.25500000920E-02 0.  1.
       -2   -1    0    0    0  501  0.00000000000E+00  0.00000000000E+00 -0.98240184642E+03  0.98240184643E+03  0.25500000920E-02 0. -1.
    10030    2    1    2    0    0  0.00000000000E+00  0.00000000000E+00  0.11849614021E+04  0.31497650949E+04  0.29183705434E+04 0.  0.
        1    1    3    3  502    0 -0.11491191887E+04  0.80694219630E+03  0.16402740082E+03  0.14136957262E+04  0.50400001928E-02 0. -1.
       -1    1    3    3    0  502  0.11491191887E+04 -0.80694219630E+03  0.10209340012E+04  0.17360693687E+04  0.50400001928E-02 0.  1.
</event>
<event>
 5   0  0.2508094E-06  0.2916979E+04  0.7818609E-02  0.8267844E-01
        1   -1    0    0  501    0  0.00000000000E+00  0.00000000000E+00  0.17921596841E+04  0.17921596841E+04  0.50400001928E-02 0.  1.
       -1   -1    0    0    0  501  0.00000000000E+00  0.00000000000E+00 -0.11869428577E+04  0.11869428577E+04  0.50400001928E-02 0. -1.
    10030    2    1    2    0    0  0.00000000000E+00  0.00000000000E+00  0.60521682633E+03  0.29791025418E+04  0.29169786677E+04 0.  0.
        3    1    3    3  502    0  0.80452265748E+02  0.53116388528E+03  0.16874301651E+04  0.17708834553E+04  0.10100000352E+00 0.  1.
       -3    1    3    3    0  502 -0.80452265748E+02 -0.53116388528E+03 -0.10822133388E+04  0.12082190865E+04  0.10100000352E+00 0. -1.
</event>
<event>
 5   0  0.6733688E-06  0.2533151E+04  0.7818609E-02  0.8391269E-01
       -2   -1    0    0    0  501  0.00000000000E+00  0.00000000000E+00  0.13776905745E+04  0.13776905745E+04  0.25500000920E-02 0.  1.
        2   -1    0    0  501    0  0.00000000000E+00  0.00000000000E+00 -0.11644226529E+04  0.11644226529E+04  0.25500000920E-02 0. -1.
    10030    2    1    2    0    0  0.00000000000E+00  0.00000000000E+00  0.21326792152E+03  0.25421132274E+04  0.25331514867E+04 0.  0.
        5    1    3    3  502    0 -0.16869861705E+03 -0.13289279112E+03  0.13592775857E+04  0.13761458361E+04  0.46999998093E+01 0.  1.
       -5    1    3    3    0  502  0.16869861705E+03  0.13289279112E+03 -0.11460096641E+04  0.11659673913E+04  0.46999998093E+01 0. -1.
</event>
<event>
 5   0  0.6612533E-06  0.2908602E+04  0.7818609E-02  0.8270323E-01
       -2   -1    0    0    0  501  0.00000000000E+00  0.00000000000E+00  0.97799338545E+03  0.97799338545E+03  0.25500000920E-02 0. -1.
        2   -1    0    0  501    0  0.00000000000E+00  0.00000000000E+00 -0.21625818552E+04  0.21625818552E+04  0.25500000920E-02 0.  1.
    10030    2    1    2    0    0  0.00000000000E+00  0.00000000000E+00 -0.11845884698E+04  0.31405752407E+04  0.29086015540E+04 0.  0.
        3    1    3    3  502    0 -0.32718713248E+03 -0.11046742727E+03  0.93308048850E+03  0.99493400805E+03  0.10100000352E+00 0. -1.
       -3    1    3    3    0  502  0.32718713248E+03  0.11046742727E+03 -0.21176689583E+04  0.21456412326E+04  0.10100000352E+00 0.  1.
</event>
<event>
 5   0  0.6612533E-06  0.2906337E+04  0.7818609E-02  0.8270994E-01
        2   -1    0    0  501    0  0.00000000000E+00  0.00000000000E+00  0.29780191563E+04  0.29780191563E+04  0.25500000920E-02 0. -1.
       -2   -1    0    0    0  501  0.00000000000E+00  0.00000000000E+00 -0.70909513965E+03  0.70909513966E+03  0.25500000920E-02 0.  1.
    10030    2    1    2    0    0  0.00000000000E+00  0.00000000000E+00  0.22689240167E+04  0.36871142960E+04  0.29063371515E+04 0.  0.
        3    1    3    3  502    0  0.88354881819E+03  0.11522953083E+04  0.10620723295E+04  0.17990110158E+04  0.10100000352E+00 0.  1.
       -3    1    3    3    0  502 -0.88354881819E+03 -0.11522953083E+04  0.12068516872E+04  0.18881032802E+04  0.10100000352E+00 0. -1.
</event>
<event>
 5   0  0.2474769E-06  0.2784638E+04  0.7818609E-02  0.8308054E-01
       -1   -1    0    0    0  501  0.00000000000E+00  0.00000000000E+00  0.11153567741E+04  0.11153567741E+04  0.50400001928E-02 0. -1.
        1   -1    0    0  501    0  0.00000000000E+00  0.00000000000E+00 -0.17380553857E+04  0.17380553857E+04  0.50400001928E-02 0.  1.
    10030    2    1    2    0    0  0.00000000000E+00  0.00000000000E+00 -0.62269861160E+03  0.28534121599E+04  0.27846377490E+04 0.  0.
        1    1    3    3  502    0 -0.15288361447E+03 -0.13421753496E+04 -0.65693808193E+03  0.15021237340E+04  0.50400001928E-02 0.  1.
       -1    1    3    3    0  502  0.15288361447E+03  0.13421753496E+04  0.34239470333E+02  0.13512884259E+04  0.50400001928E-02 0. -1.
</event>
<event>
 5   0  0.2336512E-06  0.2889286E+04  0.7818609E-02  0.8276072E-01
        1   -1    0    0  501    0  0.00000000000E+00  0.00000000000E+00  0.13684453515E+04  0.13684453515E+04  0.50400001928E-02 0.  1.
       -1   -1    0    0    0  501  0.00000000000E+00  0.00000000000E+00 -0.15250837529E+04  0.15250837530E+04  0.50400001928E-02 0. -1.
    10030    2    1    2    0    0  0.00000000000E+00  0.00000000000E+00 -0.15663840149E+03  0.28935291044E+04  0.28892862595E+04 0.  0.
        4    1    3    3  502    0  0.43704596488E+03  0.43234517097E+03 -0.13875494130E+04  0.15176384644E+04  0.12699999809E+01 0. -1.
       -4    1    3    3    0  502 -0.43704596488E+03 -0.43234517097E+03  0.12309110115E+04  0.13758906400E+04  0.12699999809E+01 0.  1.
</event>
<event>
 5   0  0.2474769E-06  0.2911984E+04  0.7818609E-02  0.8269321E-01
        1   -1    0    0  501    0  0.00000000000E+00  0.00000000000E+00  0.16236765087E+04  0.16236765087E+04  0.50400001928E-02 0.  1.
       -1   -1    0    0    0  501  0.00000000000E+00  0.00000000000E+00 -0.13056247828E+04  0.13056247828E+04  0.50400001928E-02 0. -1.
    10030    2    1    2    0    0  0.00000000000E+00  0.00000000000E+00  0.31805172592E+03  0.29293012915E+04  0.29119837149E+04 0.  0.
        1    1    3    3  502    0  0.11032814744E+03 -0.33606432683E+03 -0.12617476869E+04  0.13103887810E+04  0.50400001928E-02 0. -1.
       -1    1    3    3    0  502 -0.11032814744E+03  0.33606432683E+03  0.15797994128E+04  0.16189125105E+04  0.50400001928E-02 0.  1.
</event>
<event>
 5   0  0.2159500E-06  0.2904123E+04  0.7818609E-02  0.8271652E-01
        3   -1    0    0  501    0  0.00000000000E+00  0.00000000000E+00  0.16769086968E+04  0.16769086999E+04  0.10100000352E+00 0.  1.
       -3   -1    0    0    0  501  0.00000000000E+00  0.00000000000E+00 -0.12573628288E+04  0.12573628329E+04  0.10100000352E+00 0. -1.
    10030    2    1    2    0    0  0.00000000000E+00  0.00000000000E+00  0.41954586797E+03  0.29342715328E+04  0.29041230505E+04 0.  0.
        4    1    3    3  502    0  0.57691006374E+03  0.13147989515E+04  0.42872410693E+03  0.14984416830E+04  0.12699999809E+01 0.  1.
       -4    1    3    3    0  502 -0.57691006374E+03 -0.13147989515E+04 -0.91782389626E+01  0.14358298498E+04  0.12699999809E+01 0. -1.
</event>
<event>
 5   0  0.2348684E-06  0.2900096E+04  0.7818609E-02  0.8272849E-01
       -1   -1    0    0    0  501  0.00000000000E+00  0.00000000000E+00  0.10161640891E+04  0.10161640891E+04  0.50400001928E-02 0. -1.
        1   -1    0    0  501    0  0.00000000000E+00  0.00000000000E+00 -0.20691928672E+04  0.20691928672E+04  0.50400001928E-02 0.  1.
    10030    2    1    2    0    0  0.00000000000E+00  0.00000000000E+00 -0.10530287782E+04  0.30853569563E+04  0.29000961950E+04 0.  0.
        5    1    3    3  502    0 -0.53342564517E+03 -0.98468168232E+03  0.45345590700E+03  0.12082157440E+04  0.46999998093E+01 0. -1.
       -5    1    3    3    0  502  0.53342564517E+03  0.98468168232E+03 -0.15064846852E+04  0.18771412123E+04  0.46999998093E+01 0.  1.
</event>
<event>
 5   0  0.2336512E-06  0.2901911E+04  0.7818609E-02  0.8272309E-01
       -1   -1    0    0    0  501  0.00000000000E+00  0.00000000000E+00  0.12096960101E+04  0.12096960101E+04  0.50400001928E-02 0.  1.
        1   -1    0    0  501    0  0.00000000000E+00  0.00000000000E+00 -0.17403314972E+04  0.17403314973E+04  0.50400001928E-02 0. -1.
    10030    2    1    2    0    0  0.00000000000E+00  0.00000000000E+00 -0.53063548719E+03  0.29500275073E+04  0.29019111416E+04 0.  0.
        4    1    3    3  502    0 -0.39549901004E+03  0.13801587740E+04 -0.52047043748E+02  0.14366517379E+04  0.12699999809E+01 0.  1.
       -4    1    3    3    0  502  0.39549901004E+03 -0.13801587740E+04 -0.47858844344E+03  0.15133757694E+04  0.12699999809E+01 0. -1.
</event>
<event>
 5   0  0.2429358E-06  0.2991316E+04  0.7818609E-02  0.8246215E-01
        1   -1    0    0  501    0  0.00000000000E+00  0.00000000000E+00  0.13388757770E+04  0.13388757770E+04  0.50400001928E-02 0.  1.
       -1   -1    0    0    0  501  0.00000000000E+00  0.00000000000E+00 -0.16707999483E+04  0.16707999483E+04  0.50400001928E-02 0. -1.
    10030    2    1    2    0    0  0.00000000000E+00  0.00000000000E+00 -0.33192417138E+03  0.30096757253E+04  0.29913164854E+04 0.  0.
        2    1    3    3  502    0 -0.74671135131E+03 -0.93551435283E+03 -0.10682540851E+04  0.16043477606E+04  0.25500000920E-02 0. -1.
       -2    1    3    3    0  502  0.74671135131E+03  0.93551435283E+03  0.73632991376E+03  0.14053279647E+04  0.25500000920E-02 0.  1.
</event>
<event>
 5   0  0.6615403E-06  0.2913450E+04  0.7818609E-02  0.8268887E-01
        2   -1    0    0  501    0  0.00000000000E+00  0.00000000000E+00  0.25301659462E+04  0.25301659462E+04  0.25500000920E-02 0. -1.
       -2   -1    0    0    0  501  0.00000000000E+00  0.00000000000E+00 -0.83869914576E+03  0.83869914576E+03  0.25500000920E-02 0.  1.
    10030    2    1    2    0    0  0.00000000000E+00  0.00000000000E+00  0.16914668004E+04  0.33688650920E+04  0.29134502005E+04 0.  0.
        2    1    3    3  502    0 -0.83691237138E+03 -0.13552143166E+03  0.22154951615E+04  0.23721735153E+04  0.25500000920E-02 0. -1.
       -2    1    3    3    0  502  0.83691237138E+03  0.13552143166E+03 -0.52402836109E+03  0.99669157669E+03  0.25500000920E-02 0.  1.
</event>
<event>
 5   0  0.2348684E-06  0.2909656E+04  0.7818609E-02  0.8270010E-01
       -1   -1    0    0    0  501  0.00000000000E+00  0.00000000000E+00  0.11280846493E+04  0.11280846493E+04  0.50400001928E-02 0.  1.
        1   -1    0    0  501    0  0.00000000000E+00  0.00000000000E+00 -0.18762106198E+04  0.18762106198E+04  0.50400001928E-02 0. -1.
    10030    2    1    2    0    0  0.00000000000E+00  0.00000000000E+00 -0.74812597049E+03  0.30042952691E+04  0.29096559241E+04 0.  0.
        5    1    3    3  502    0 -0.12204594086E+04  0.11244908468E+03 -0.11833528159E+04  0.17036760083E+04  0.46999998093E+01 0. -1.
       -5    1    3    3    0  502  0.12204594086E+04 -0.11244908468E+03  0.43522684537E+03  0.13006192608E+04  0.46999998093E+01 0.  1.
</event>
<event>
 5   0  0.2508094E-06  0.2902905E+04  0.7818609E-02  0.8272014E-01
       -1   -1    0    0    0  501  0.00000000000E+00  0.00000000000E+00  0.89724440868E+03  0.89724440869E+03  0.50400001928E-02 0.  1.
        1   -1    0    0  501    0  0.00000000000E+00  0.00000000000E+00 -0.23479825872E+04  0.23479825872E+04  0.50400001928E-02 0. -1.
    10030    2    1    2    0    0  0.00000000000E+00  0.00000000000E+00 -0.14507381785E+04  0.32452269959E+04  0.29029049230E+04 0.  0.
        3    1    3    3  502    0  0.14003210957E+04 -0.37531595066E+03 -0.80404587544E+03  0.16577849721E+04  0.10100000352E+00 0. -1.
       -3    1    3    3    0  502 -0.14003210957E+04  0.37531595066E+03 -0.64669230308E+03  0.15874420238E+04  0.10100000352E+00 0.  1.
</event>
<event>
 5   0  0.6615403E-06  0.2882497E+04  0.7818609E-02  0.8278104E-01
       -2   -1    0    0    0  501  0.00000000000E+00  0.00000000000E+00  0.13437109368E+04  0.13437109368E+04  0.25500000920E-02 0. -1.
        2   -1    0    0  501    0  0.00000000000E+00  0.00000000000E+00 -0.15458663605E+04  0.15458663605E+04  0.25500000920E-02 0.  1.
    10030    2    1    2    0    0  0.00000000000E+00  0.00000000000E+00 -0.20215542363E+03  0.28895772973E+04  0.28824972058E+04 0.  0.
        2    1    3    3  502    0 -0.88213873137E+02  0.13712527234E+04 -0.53698116012E+03  0.14752845438E+04  0.25500000920E-02 0.  1.
       -2    1    3    3    0  502  0.88213873137E+02 -0.13712527234E+04  0.33482573649E+03  0.14142927535E+04  0.25500000920E-02 0. -1.
</event>
<event>
 5   0  0.2429358E-06  0.2896102E+04  0.7818609E-02  0.8274038E-01
       -1   -1    0    0    0  501  0.00000000000E+00  0.00000000000E+00  0.24305663801E+04  0.24305663801E+04  0.50400001928E-02 0. -1.
        1   -1    0    0  501    0  0.00000000000E+00  0.00000000000E+00 -0.86270068810E+03  0.86270068811E+03  0.50400001928E-02 0.  1.
    10030    2    1    2    0    0  0.00000000000E+00  0.00000000000E+00  0.15678656920E+04  0.32932670682E+04  0.28961017169E+04 0.  0.
        2    1    3    3  502    0 -0.37213015020E+03 -0.89420185636E+03 -0.44015451538E+03  0.10638673818E+04  0.25500000920E-02 0.  1.
       -2    1    3    3    0  502  0.37213015020E+03  0.89420185636E+03  0.20080202074E+04  0.22293996864E+04  0.25500000920E-02 0. -1.
</event>
<event>
 5   0  0.2348684E-06  0.2786318E+04  0.7818609E-02  0.8307529E-01
        1   -1    0    0  501    0  0.00000000000E+00  0.00000000000E+00  0.19725042238E+04  0.19725042238E+04  0.50400001928E-02 0.  1.
       -1   -1    0    0    0  501  0.00000000000E+00  0.00000000000E+00 -0.98397327493E+03  0.98397327495E+03  0.50400001928E-02 0. -1.
    10030    2    1    2    0    0  0.00000000000E+00  0.00000000000E+00  0.98853094889E+03  0.29564774988E+04  0.27863175992E+04 0.  0.
        5    1    3    3  502    0 -0.13418167858E+03 -0.74876992702E+03 -0.74414811485E+03  0.10641614696E+04  0.46999998093E+01 0. -1.
       -5    1    3    3    0  502  0.13418167858E+03  0.74876992702E+03  0.17326790637E+04  0.18923160292E+04  0.46999998093E+01 0.  1.
</event>
<event>
 5   0  0.6513041E-06  0.2904709E+04  0.7818609E-02  0.8271478E-01
        2   -1    0    0  501    0  0.00000000000E+00  0.00000000000E+00  0.25934943256E+04  0.25934943256E+04  0.25500000920E-02 0. -1.
       -2   -1    0    0    0  501  0.00000000000E+00  0.00000000000E+00 -0.81331712839E+03  0.81331712839E+03  0.25500000920E-02 0.  1.
    10030    2    1    2    0    0  0.00000000000E+00  0.00000000000E+00  0.17801771972E+04  0.34068114540E+04  0.29047088373E+04 0.  0.
        1    1    3    3  502    0 -0.12152410552E+04 -0.76337842306E+03  0.62841787621E+03  0.15666736949E+04  0.50400001928E-02 0.  1.
       -1    1    3    3    0  502  0.12152410552E+04  0.76337842306E+03  0.11517593210E+04  0.18401377591E+04  0.50400001928E-02 0. -1.
</event>
<event>
 5   0  0.6615403E-06  0.2796460E+04  0.7818609E-02  0.8304368E-01
       -2   -1    0    0    0  501  0.00000000000E+00  0.00000000000E+00  0.10899298579E+04  0.10899298579E+04  0.25500000920E-02 0.  1.
        2   -1    0    0  501    0  0.00000000000E+00  0.00000000000E+00 -0.17937364498E+04  0.17937364498E+04  0.25500000920E-02 0. -1.
    10030    2    1    2    0    0  0.00000000000E+00  0.00000000000E+00 -0.70380659188E+03  0.28836663077E+04  0.27964598433E+04 0.  0.
        2    1    3    3  502    0  0.57514299271E+03 -0.17201985972E+02  0.96218421029E+03  0.11211083020E+04  0.25500000920E-02 0.  1.
       -2    1    3    3    0  502 -0.57514299271E+03  0.17201985972E+02 -0.16659908022E+04  0.17625580057E+04  0.25500000920E-02 0. -1.
</event>
<event>
 5   0  0.6393633E-06  0.2922895E+04  0.7818609E-02  0.8266098E-01
        2   -1    0    0  501    0  0.00000000000E+00  0.00000000000E+00  0.20848414103E+04  0.20848414103E+04  0.25500000920E-02 0. -1.
       -2   -1    0    0    0  501  0.00000000000E+00  0.00000000000E+00 -0.10244564517E+04  0.10244564517E+04  0.25500000920E-02 0.  1.
    10030    2    1    2    0    0  0.00000000000E+00  0.00000000000E+00  0.10603849586E+04  0.31092978620E+04  0.29228953000E+04 0.  0.
        4    1    3    3  502    0 -0.12036081676E+04 -0.43487388407E+03 -0.22053282178E+03  0.12986239850E+04  0.12699999809E+01 0.  1.
       -4    1    3    3    0  502  0.12036081676E+04  0.43487388407E+03  0.12809177804E+04  0.18106738770E+04  0.12699999809E+01 0. -1.
</event>
<event>
 5   0  0.6733688E-06  0.2902174E+04  0.7818609E-02  0.8272231E-01
       -2   -1    0    0    0  501  0.00000000000E+00  0.00000000000E+00  0.19975836871E+04  0.19975836871E+04  0.25500000920E-02 0.  1.
        2   -1    0    0  501    0  0.00000000000E+00  0.00000000000E+00 -0.10541002878E+04  0.10541002878E+04  0.25500000920E-02 0. -1.
    10030    2    1    2    0    0  0.00000000000E+00  0.00000000000E+00  0.94348339926E+03  0.30516839749E+04  0.29021740400E+04 0.  0.
        5    1    3    3  502    0  0.18583547072E+03  0.14261571689E+04  0.26900790280E+03  0.14631631605E+04  0.46999998093E+01 0. -1.
       -5    1    3    3    0  502 -0.18583547072E+03 -0.14261571689E+04  0.67447549645E+03  0.15885208144E+04  0.46999998093E+01 0.  1.
</event>
<event>
 5   0  0.6393633E-06  0.2877352E+04  0.7818609E-02  0.8279648E-01
        2   -1    0    0  501    0  0.00000000000E+00  0.00000000000E+00  0.18158178077E+04  0.18158178077E+04  0.25500000920E-02 0.  1.
       -2   -1    0    0    0  501  0.00000000000E+00  0.00000000000E+00 -0.11398661372E+04  0.11398661372E+04  0.25500000920E-02 0. -1.
    10030    2    1    2    0    0  0.00000000000E+00  0.00000000000E+00  0.67595167045E+03  0.29556839449E+04  0.28773524153E+04 0.  0.
        4    1    3    3  502    0 -0.11058663984E+04  0.73528113132E+03  0.90640160430E+03  0.16078383981E+04  0.12699999809E+01 0. -1.
       -4    1    3    3    0  502  0.11058663984E+04 -0.73528113132E+03 -0.23044993385E+03  0.13478455468E+04  0.12699999809E+01 0.  1.
</event>
<event>
 5   0  0.6513041E-06  0.2805657E+04  0.7818609E-02  0.8301514E-01
        2   -1    0    0  501    0  0.00000000000E+00  0.00000000000E+00  0.20870373212E+04  0.20870373212E+04  0.25500000920E-02 0.  1.
       -2   -1    0    0    0  501  0.00000000000E+00  0.00000000000E+00 -0.94292870067E+03  0.94292870067E+03  0.25500000920E-02 0. -1.
    10030    2    1    2    0    0  0.00000000000E+00  0.00000000000E+00  0.11441086205E+04  0.30299660219E+04  0.28056567071E+04 0.  0.
        1    1    3    3  502    0  0.86003880960E+03 -0.86529477319E+03  0.13198950532E+04  0.17973660590E+04  0.50400001928E-02 0.  1.
       -1    1    3    3    0  502 -0.86003880960E+03  0.86529477319E+03 -0.17578643268E+03  0.12325999629E+04  0.50400001928E-02 0. -1.
</event>
<event>
 5   0  0.2336512E-06  0.2852838E+04  0.7818609E-02  0.8287050E-01
       -1   -1    0    0    0  501  0.00000000000E+00  0.00000000000E+00  0.10317090348E+04  0.10317090348E+04  0.50400001928E-02 0. -1.
        1   -1    0    0  501    0  0.00000000000E+00  0.00000000000E+00 -0.19721363018E+04  0.19721363018E+04  0.50400001928E-02 0.  1.
    10030    2    1    2    0    0  0.00000000000E+00  0.00000000000E+00 -0.94042726706E+03  0.30038453366E+04  0.28528377734E+04 0.  0.
        4    1    3    3  502    0 -0.51822422435E+03  0.78591513422E+03 -0.15985967803E+04  0.18551906165E+04  0.12699999809E+01 0.  1.
       -4    1    3    3    0  502  0.51822422435E+03 -0.78591513422E+03  0.65816951320E+03  0.11486547201E+04  0.12699999809E+01 0. -1.
</event>
<event>
 5   0  0.6615403E-06  0.2887062E+04  0.7818609E-02  0.8276737E-01
       -2   -1    0    0    0  501  0.00000000000E+00  0.00000000000E+00  0.10359817994E+04  0.10359817994E+04  0.25500000920E-02 0. -1.
        2   -1    0    0  501    0  0.00000000000E+00  0.00000000000E+00 -0.20114070923E+04  0.20114070923E+04  0.25500000920E-02 0.  1.
    10030    2    1    2    0    0  0.00000000000E+00  0.00000000000E+00 -0.97542529294E+03  0.30473888917E+04  0.28870615780E+04 0.  0.
        2    1    3    3  502    0 -0.57227014006E+03 -0.51333246767E+03  0.80193009302E+03  0.11108983795E+04  0.25500000920E-02 0. -1.
       -2    1    3    3    0  502  0.57227014006E+03  0.51333246767E+03 -0.17773553860E+04  0.19364905121E+04  0.25500000920E-02 0.  1.
</event>
<event>
 5   0  0.6612533E-06  0.2868301E+04  0.7818609E-02  0.8282372E-01
       -2   -1    0    0    0  501  0.00000000000E+00  0.00000000000E+00  0.13062692708E+04  0.13062692708E+04  0.25500000920E-02 0. -1.
        2   -1    0    0  501    0  0.00000000000E+00  0.00000000000E+00 -0.15745512537E+04  0.15745512537E+04  0.25500000920E-02 0.  1.
    10030    2    1    2    0    0  0.00000000000E+00  0.00000000000E+00 -0.26828198288E+03  0.28808205245E+04  0.28683011822E+04 0.  0.
        3    1    3    3  502    0 -0.45979256618E+03  0.56475789574E+02  0.12290558315E+04  0.13134599217E+04  0.10100000352E+00 0. -1.
       -3    1    3    3    0  502  0.45979256618E+03 -0.56475789574E+02 -0.14973378144E+04  0.15673606028E+04  0.10100000352E+00 0.  1.
</event>
<event>
 5   0  0.2159500E-06  0.2895194E+04  0.7818609E-02  0.8274309E-01
       -4   -1    0    0    0  501  0.00000000000E+00  0.00000000000E+00  0.13977015909E+04  0.13977021679E+04  0.12699999809E+01 0. -1.
        4   -1    0    0  501    0  0.00000000000E+00  0.00000000000E+00 -0.14992722770E+04  0.14992728149E+04  0.12699999809E+01 0.  1.
    10030    2    1    2    0    0  0.00000000000E+00  0.00000000000E+00 -0.10157068613E+03  0.28969749828E+04  0.28951938531E+04 0.  0.
        1    1    3    3  502    0  0.57319092430E+03  0.54063559171E+03  0.11643349067E+04  0.14058842248E+04  0.50400001928E-02 0. -1.
       -1    1    3    3    0  502 -0.57319092430E+03 -0.54063559171E+03 -0.12659055928E+04  0.14910907580E+04  0.50400001928E-02 0.  1.
</event>
<event>
 5   0  0.6513041E-06  0.2964340E+04  0.7818609E-02  0.8253988E-01
        2   -1    0    0  501    0  0.00000000000E+00  0.00000000000E+00  0.11002080993E+04  0.11002080993E+04  0.25500000920E-02 0.  1.
       -2   -1    0    0    0  501  0.00000000000E+00  0.00000000000E+00 -0.19967383323E+04  0.19967383323E+04  0.25500000920E-02 0. -1.
    10030    2    1    2    0    0  0.00000000000E+00  0.00000000000E+00 -0.89653023300E+03  0.30969464317E+04  0.29643398493E+04 0.  0.
        1    1    3    3  502    0  0.53610703624E+03 -0.11824842438E+04 -0.11951935814E+04  0.17647003820E+04  0.50400001928E-02 0. -1.
       -1    1    3    3    0  502 -0.53610703624E+03  0.11824842438E+04  0.29866334845E+03  0.13322460497E+04  0.50400001928E-02 0.  1.
</event>
<event>
 5   0  0.2474769E-06  0.2882753E+04  0.7818609E-02  0.8278027E-01
       -1   -1    0    0    0  501  0.00000000000E+00  0.00000000000E+00  0.14829407817E+04  0.14829407818E+04  0.50400001928E-02 0.  1.
        1   -1    0    0  501    0  0.00000000000E+00  0.00000000000E+00 -0.14009775996E+04  0.14009775997E+04  0.50400001928E-02 0. -1.
    10030    2    1    2    0    0  0.00000000000E+00  0.00000000000E+00  0.81963182099E+02  0.28839183814E+04  0.28827534177E+04 0.  0.
        1    1    3    3  502    0 -0.86067928181E+03  0.24478991302E+02 -0.11154261846E+04  0.14090931909E+04  0.50400001928E-02 0. -1.
       -1    1    3    3    0  502  0.86067928181E+03 -0.24478991302E+02  0.11973893667E+04  0.14748251906E+04  0.50400001928E-02 0.  1.
</event>
<event>
 5   0  0.6615403E-06  0.2903023E+04  0.7818609E-02  0.8271979E-01
       -2   -1    0    0    0  501  0.00000000000E+00  0.00000000000E+00  0.16377679307E+04  0.16377679307E+04  0.25500000920E-02 0. -1.
        2   -1    0    0  501    0  0.00000000000E+00  0.00000000000E+00 -0.12864369880E+04  0.12864369880E+04  0.25500000920E-02 0.  1.
    10030    2    1    2    0    0  0.00000000000E+00  0.00000000000E+00  0.35133094273E+03  0.29242049187E+04  0.29030227307E+04 0.  0.
        2    1    3    3  502    0 -0.76237923697E+03  0.63445551527E+03 -0.89184526997E+03  0.13338455261E+04  0.25500000920E-02 0.  1.
       -2    1    3    3    0  502  0.76237923697E+03 -0.63445551527E+03  0.12431762127E+04  0.15903593926E+04  0.25500000920E-02 0. -1.
</event>
<event>
 5   0  0.2348684E-06  0.2749882E+04  0.7818609E-02  0.8318999E-01
        1   -1    0    0  501    0  0.00000000000E+00  0.00000000000E+00  0.11625113922E+04  0.11625113922E+04  0.50400001928E-02 0.  1.
       -1   -1    0    0    0  501  0.00000000000E+00  0.00000000000E+00 -0.16261885543E+04  0.16261885543E+04  0.50400001928E-02 0. -1.
    10030    2    1    2    0    0  0.00000000000E+00  0.00000000000E+00 -0.46367716205E+03  0.27886999465E+04  0.27498819759E+04 0.  0.
        5    1    3    3  502    0 -0.12337398804E+04  0.55238178856E+03  0.23108096453E+02  0.13519599872E+04  0.46999998093E+01 0.  1.
       -5    1    3    3    0  502  0.12337398804E+04 -0.55238178856E+03 -0.48678525850E+03  0.14367399593E+04  0.46999998093E+01 0. -1.
</event>
<event>
 5   0  0.6733688E-06  0.2884222E+04  0.7818609E-02  0.8277587E-01
       -2   -1    0    0    0  501  0.00000000000E+00  0.00000000000E+00  0.17333461544E+04  0.17333461544E+04  0.25500000920E-02 0.  1.
        2   -1    0    0  501    0  0.00000000000E+00  0.00000000000E+00 -0.11998086824E+04  0.11998086824E+04  0.25500000920E-02 0. -1.
    10030    2    1    2    0    0  0.00000000000E+00  0.00000000000E+00  0.53353747206E+03  0.29331548368E+04  0.28842217430E+04 0.  0.
        5    1    3    3  502    0 -0.90074482349E+03  0.13310577293E+03 -0.87050792462E+03  0.12597081093E+04  0.46999998093E+01 0. -1.
       -5    1    3    3    0  502  0.90074482349E+03 -0.13310577293E+03  0.14040453967E+04  0.16734467275E+04  0.46999998093E+01 0.  1.
</event>
<event>
 5   0  0.2336512E-06  0.2887224E+04  0.7818609E-02  0.8276689E-01
       -1   -1    0    0    0  501  0.00000000000E+00  0.00000000000E+00  0.15960079653E+04  0.15960079653E+04  0.50400001928E-02 0. -1.
        1   -1    0    0  501    0  0.00000000000E+00  0.00000000000E+00 -0.13057677960E+04  0.13057677961E+04  0.50400001928E-02 0.  1.
    10030    2    1    2    0    0  0.00000000000E+00  0.00000000000E+00  0.29024016928E+03  0.29017757614E+04  0.28872241363E+04 0.  0.
        4    1    3    3  502    0 -0.50355643430E+03 -0.13333933050E+04  0.37541991354E+03  0.14739228313E+04  0.12699999809E+01 0. -1.
       -4    1    3    3    0  502  0.50355643430E+03  0.13333933050E+04 -0.85179744258E+02  0.14278529301E+04  0.12699999809E+01 0.  1.
</event>
<event>
 5   0  0.6393633E-06  0.2883804E+04  0.7818609E-02  0.8277713E-01
        2   -1    0    0  501    0  0.00000000000E+00  0.00000000000E+00  0.19807650039E+04  0.19807650039E+04  0.25500000920E-02 0.  1.
       -2   -1    0    0    0  501  0.00000000000E+00  0.00000000000E+00 -0.10496353245E+04  0.10496353245E+04  0.25500000920E-02 0. -1.
    10030    2    1    2    0    0  0.00000000000E+00  0.00000000000E+00  0.93112967941E+03  0.30304003283E+04  0.28838036809E+04 0.  0.
        4    1    3    3  502    0 -0.73087858520E+03 -0.46165621183E+02  0.17707860895E+04  0.19162462677E+04  0.12699999809E+01 0.  1.
       -4    1    3    3    0  502  0.73087858520E+03  0.46165621183E+02 -0.83965641010E+03  0.11141540606E+04  0.12699999809E+01 0. -1.
</event>
<event>
 5   0  0.2474769E-06  0.2880122E+04  0.7818609E-02  0.8278817E-01
       -1   -1    0    0    0  501  0.00000000000E+00  0.00000000000E+00  0.11205958692E+04  0.11205958692E+04  0.50400001928E-02 0.  1.
        1   -1    0    0  501    0  0.00000000000E+00  0.00000000000E+00 -0.18506002666E+04  0.18506002666E+04  0.50400001928E-02 0. -1.
    10030    2    1    2    0    0  0.00000000000E+00  0.00000000000E+00 -0.73000439744E+03  0.29711961358E+04  0.28801215352E+04 0.  0.
        1    1    3    3  502    0 -0.51661013095E+03 -0.11172677932E+04 -0.11360328090E+04  0.16750354899E+04  0.50400001928E-02 0. -1.
       -1    1    3    3    0  502  0.51661013095E+03  0.11172677932E+04  0.40602841153E+03  0.12961606460E+04  0.50400001928E-02 0.  1.
</event>
<event>
 5   0  0.6513041E-06  0.2785020E+04  0.7818609E-02  0.8307934E-01
        2   -1    0    0  501    0  0.00000000000E+00  0.00000000000E+00  0.10921258893E+04  0.10921258893E+04  0.25500000920E-02 0.  1.
       -2   -1    0    0    0  501  0.00000000000E+00  0.00000000000E+00 -0.17755135287E+04  0.17755135287E+04  0.25500000920E-02 0. -1.
    10030    2    1    2    0    0  0.00000000000E+00  0.00000000000E+00 -0.68338763941E+03  0.28676394181E+04  0.27850201375E+04 0.  0.
        1    1    3    3  502    0 -0.73960284314E+03 -0.64216050644E+03  0.67746802670E+03  0.11909430754E+04  0.50400001928E-02 0.  1.
       -1    1    3    3    0  502  0.73960284314E+03  0.64216050644E+03 -0.13608556661E+04  0.16766963427E+04  0.50400001928E-02 0. -1.
</event>
<event>
 5   0  0.2336512E-06  0.3201787E+04  0.7818609E-02  0.8188345E-01
       -1   -1    0    0    0  501  0.00000000000E+00  0.00000000000E+00  0.10734105200E+04  0.10734105200E+04  0.50400001928E-02 0. -1.
        1   -1    0    0  501    0  0.00000000000E+00  0.00000000000E+00 -0.23875857437E+04  0.23875857437E+04  0.50400001928E-02 0.  1.
    10030    2    1    2    0    0  0.00000000000E+00  0.00000000000E+00 -0.13141752237E+04  0.34609962638E+04  0.32017867854E+04 0.  0.
        4    1    3    3  502    0  0.12075716374E+03 -0.11899882459E+04 -0.18072813850E+04  0.21672383200E+04  0.12699999809E+01 0.  1.
       -4    1    3    3    0  502 -0.12075716374E+03  0.11899882459E+04  0.49310616130E+03  0.12937579438E+04  0.12699999809E+01 0. -1.
</event>
<event>
 5   0  0.6612533E-06  0.2886195E+04  0.7818609E-02  0.8276997E-01
       -2   -1    0    0    0  501  0.00000000000E+00  0.00000000000E+00  0.18151361285E+04  0.18151361285E+04  0.25500000920E-02 0. -1.
        2   -1    0    0  501    0  0.00000000000E+00  0.00000000000E+00 -0.11473139724E+04  0.11473139724E+04  0.25500000920E-02 0.  1.
    10030    2    1    2    0    0  0.00000000000E+00  0.00000000000E+00  0.66782215613E+03  0.29624501009E+04  0.28861954487E+04 0.  0.
        3    1    3    3  502    0 -0.11964134768E+04 -0.70767773620E+03  0.73186323894E+03  0.15709350071E+04  0.10100000352E+00 0. -1.
       -3    1    3    3    0  502  0.11964134768E+04  0.70767773620E+03 -0.64041082811E+02  0.13915150938E+04  0.10100000352E+00 0.  1.
</event>
<event>
 5   0  0.2508094E-06  0.2378882E+04  0.7818609E-02  0.8447452E-01
       -1   -1    0    0    0  501  0.00000000000E+00  0.00000000000E+00  0.65649794859E+03  0.65649794861E+03  0.50400001928E-02 0.  1.
        1   -1    0    0  501    0  0.00000000000E+00  0.00000000000E+00 -0.21550261031E+04  0.21550261032E+04  0.50400001928E-02 0. -1.
    10030    2    1    2    0    0  0.00000000000E+00  0.00000000000E+00 -0.14985281546E+04  0.28115240518E+04  0.23788822719E+04 0.  0.
        3    1    3    3  502    0 -0.72891120356E+03 -0.33272495597E+02 -0.18594346033E+04  0.19974773230E+04  0.10100000352E+00 0. -1.
       -3    1    3    3    0  502  0.72891120356E+03  0.33272495597E+02  0.36090644877E+03  0.81404672876E+03  0.10100000352E+00 0.  1.
</event>
<event>
 5   0  0.6513041E-06  0.2942207E+04  0.7818609E-02  0.8260429E-01
        2   -1    0    0  501    0  0.00000000000E+00  0.00000000000E+00  0.21498749690E+04  0.21498749690E+04  0.25500000920E-02 0.  1.
       -2   -1    0    0    0  501  0.00000000000E+00  0.00000000000E+00 -0.10066378357E+04  0.10066378357E+04  0.25500000920E-02 0. -1.
    10030    2    1    2    0    0  0.00000000000E+00  0.00000000000E+00  0.11432371333E+04  0.31565128046E+04  0.29422069850E+04 0.  0.
        1    1    3    3  502    0  0.49434791923E+03 -0.29670653475E+02 -0.91451840332E+03  0.10400019822E+04  0.50400001928E-02 0. -1.
       -1    1    3    3    0  502 -0.49434791923E+03  0.29670653475E+02  0.20577555366E+04  0.21165108224E+04  0.50400001928E-02 0.  1.
</event>
<event>
 5   0  0.2336512E-06  0.2906549E+04  0.7818609E-02  0.8270932E-01
       -1   -1    0    0    0  501  0.00000000000E+00  0.00000000000E+00  0.10754258115E+04  0.10754258115E+04  0.50400001928E-02 0. -1.
        1   -1    0    0  501    0  0.00000000000E+00  0.00000000000E+00 -0.19638794935E+04  0.19638794935E+04  0.50400001928E-02 0.  1.
    10030    2    1    2    0    0  0.00000000000E+00  0.00000000000E+00 -0.88845368196E+03  0.30393053050E+04  0.29065489489E+04 0.  0.
        4    1    3    3  502    0  0.13998052506E+04  0.26874145374E+03 -0.14785892816E+03  0.14330179986E+04  0.12699999809E+01 0. -1.
       -4    1    3    3    0  502 -0.13998052506E+04 -0.26874145374E+03 -0.74059475379E+03  0.16062873065E+04  0.12699999809E+01 0.  1.
</event>
<event>
 5   0  0.6612533E-06  0.2886294E+04  0.7818609E-02  0.8276967E-01
        2   -1    0    0  501    0  0.00000000000E+00  0.00000000000E+00  0.24983847401E+04  0.24983847401E+04  0.25500000920E-02 0. -1.
       -2   -1    0    0    0  501  0.00000000000E+00  0.00000000000E+00 -0.83360802571E+03  0.83360802571E+03  0.25500000920E-02 0.  1.
    10030    2    1    2    0    0  0.00000000000E+00  0.00000000000E+00  0.16647767144E+04  0.33319927658E+04  0.28862942128E+04 0.  0.
        3    1    3    3  502    0 -0.37132114200E+03  0.75509039696E+03 -0.52110703214E+03  0.98974413220E+03  0.10100000352E+00 0.  1.
       -3    1    3    3    0  502  0.37132114200E+03 -0.75509039696E+03  0.21858837466E+04  0.23422486336E+04  0.10100000352E+00 0. -1.
</event>
<event>
 5   0  0.2336512E-06  0.2907316E+04  0.7818609E-02  0.8270704E-01
       -1   -1    0    0    0  501  0.00000000000E+00  0.00000000000E+00  0.33487688093E+04  0.33487688093E+04  0.50400001928E-02 0. -1.
        1   -1    0    0  501    0  0.00000000000E+00  0.00000000000E+00 -0.63101445907E+03  0.63101445909E+03  0.50400001928E-02 0.  1.
    10030    2    1    2    0    0  0.00000000000E+00  0.00000000000E+00  0.27177543502E+04  0.39797832684E+04  0.29073159710E+04 0.  0.
        4    1    3    3  502    0 -0.43432973822E+02 -0.10433220700E+04 -0.25466697516E+02  0.10445369934E+04  0.12699999809E+01 0.  1.
       -4    1    3    3    0  502  0.43432973822E+02  0.10433220700E+04  0.27432210477E+04  0.29352462749E+04  0.12699999809E+01 0. -1.
</event>
<event>
 5   0  0.2159500E-06  0.2935716E+04  0.7818609E-02  0.8262330E-01
       -3   -1    0    0    0  501  0.00000000000E+00  0.00000000000E+00  0.14569186974E+04  0.14569187009E+04  0.10100000352E+00 0.  1.
        3   -1    0    0  501    0  0.00000000000E+00  0.00000000000E+00 -0.14788789633E+04  0.14788789667E+04  0.10100000352E+00 0. -1.
    10030    2    1    2    0    0  0.00000000000E+00  0.00000000000E+00 -0.21960265937E+02  0.29357976676E+04  0.29357155332E+04 0.  0.
        4    1    3    3  502    0  0.71609559276E+03 -0.12778227270E+04 -0.10575087166E+03  0.14686077350E+04  0.12699999809E+01 0.  1.
       -4    1    3    3    0  502 -0.71609559276E+03  0.12778227270E+04  0.83790605722E+02  0.14671899326E+04  0.12699999809E+01 0. -1.
</event>
<event>
 5   0  0.2336512E-06  0.2910614E+04  0.7818609E-02  0.8269726E-01
       -1   -1    0    0    0  501  0.00000000000E+00  0.00000000000E+00  0.10313412942E+04  0.10313412942E+04  0.50400001928E-02 0.  1.
        1   -1    0    0  501    0  0.00000000000E+00  0.00000000000E+00 -0.20535578087E+04  0.20535578087E+04  0.50400001928E-02 0. -1.
    10030    2    1    2    0    0  0.00000000000E+00  0.00000000000E+00 -0.10222165145E+04  0.30848991029E+04  0.29106143463E+04 0.  0.
        4    1    3    3  502    0  0.54684633967E+03 -0.10762273007E+04  0.35034015684E+03  0.12569987909E+04  0.12699999809E+01 0.  1.
       -4    1    3    3    0  502 -0.54684633967E+03  0.10762273007E+04 -0.13725566713E+04  0.18279003120E+04  0.12699999809E+01 0. -1.
</event>
<event>
 5   0  0.2348684E-06  0.2861735E+04  0.7818609E-02  0.8284354E-01
       -1   -1    0    0    0  501  0.00000000000E+00  0.00000000000E+00  0.95365429321E+03  0.95365429322E+03  0.50400001928E-02 0.  1.
        1   -1    0    0  501    0  0.00000000000E+00  0.00000000000E+00 -0.21468803481E+04  0.21468803481E+04  0.50400001928E-02 0. -1.
    10030    2    1    2    0    0  0.00000000000E+00  0.00000000000E+00 -0.11932260549E+04  0.31005346413E+04  0.28617349011E+04 0.  0.
        5    1    3    3  502    0  0.92884702658E+03  0.62643712292E+02  0.58064869124E+03  0.10972037305E+04  0.46999998093E+01 0.  1.
       -5    1    3    3    0  502 -0.92884702658E+03 -0.62643712292E+02 -0.17738747461E+04  0.20033309109E+04  0.46999998093E+01 0. -1.
</event>
<event>
 5   0  0.6615403E-06  0.3051264E+04  0.7818609E-02  0.8229242E-01
        2   -1    0    0  501    0  0.00000000000E+00  0.00000000000E+00  0.13832245004E+04  0.13832245004E+04  0.25500000920E-02 0.  1.
       -2   -1    0    0    0  501  0.00000000000E+00  0.00000000000E+00 -0.16827013676E+04  0.16827013676E+04  0.25500000920E-02 0. -1.
    10030    2    1    2    0    0  0.00000000000E+00  0.00000000000E+00 -0.29947686719E+03  0.30659258680E+04  0.30512644976E+04 0.  0.
        2    1    3    3  502    0 -0.22602571073E+03  0.54860312488E+03  0.12625402140E+04  0.13950128324E+04  0.25500000920E-02 0.  1.
       -2    1    3    3    0  502  0.22602571073E+03 -0.54860312488E+03 -0.15620170812E+04  0.16709130356E+04  0.25500000920E-02 0. -1.
</event>
<event>
 5   0  0.6393633E-06  0.2918908E+04  0.7818609E-02  0.8267274E-01
       -2   -1    0    0    0  501  0.00000000000E+00  0.00000000000E+00  0.13032841462E+04  0.13032841462E+04  0.25500000920E-02 0. -1.
        2   -1    0    0  501    0  0.00000000000E+00  0.00000000000E+00 -0.16343378638E+04  0.16343378638E+04  0.25500000920E-02 0.  1.
    10030    2    1    2    0    0  0.00000000000E+00  0.00000000000E+00 -0.33105371762E+03  0.29376220099E+04  0.29189084448E+04 0.  0.
        4    1    3    3  502    0  0.51512138830E+03  0.10571515688E+04 -0.10354093769E+04  0.15668419431E+04  0.12699999809E+01 0.  1.
       -4    1    3    3    0  502 -0.51512138830E+03 -0.10571515688E+04  0.70435565924E+03  0.13707800668E+04  0.12699999809E+01 0. -1.
</event>
<event>
 5   0  0.6733688E-06  0.2884870E+04  0.7818609E-02  0.8277393E-01
       -2   -1    0    0    0  501  0.00000000000E+00  0.00000000000E+00  0.75878228347E+03  0.75878228347E+03  0.25500000920E-02 0. -1.
        2   -1    0    0  501    0  0.00000000000E+00  0.00000000000E+00 -0.27420505355E+04  0.27420505355E+04  0.25500000920E-02 0.  1.
    10030    2    1    2    0    0  0.00000000000E+00  0.00000000000E+00 -0.19832682520E+04  0.35008328190E+04  0.28848704420E+04 0.  0.
        5    1    3    3  502    0  0.11313742700E+04  0.64969189523E+03 -0.17382070763E+04  0.21733598937E+04  0.46999998093E+01 0. -1.
       -5    1    3    3    0  502 -0.11313742700E+04 -0.64969189523E+03 -0.24506117578E+03  0.13274729253E+04  0.46999998093E+01 0.  1.
</event>
<event>
 5   0  0.6733688E-06  0.2897550E+04  0.7818609E-02  0.8273607E-01
       -2   -1    0    0    0  501  0.00000000000E+00  0.00000000000E+00  0.13792189728E+04  0.13792189728E+04  0.25500000920E-02 0.  1.
        2   -1    0    0  501    0  0.00000000000E+00  0.00000000000E+00 -0.15218383870E+04  0.15218383870E+04  0.25500000920E-02 0. -1.
    10030    2    1    2    0    0  0.00000000000E+00  0.00000000000E+00 -0.14261941420E+03  0.29010573597E+04  0.28975495694E+04 0.  0.
        5    1    3    3  502    0 -0.11245369960E+04  0.17257624169E+03  0.82674901143E+03  0.14063790501E+04  0.46999998093E+01 0.  1.
       -5    1    3    3    0  502  0.11245369960E+04 -0.17257624169E+03 -0.96936842562E+03  0.14946783096E+04  0.46999998093E+01 0. -1.
</event>
<event>
 5   0  0.2336512E-06  0.2905829E+04  0.7818609E-02  0.8271145E-01
        1   -1    0    0  501    0  0.00000000000E+00  0.00000000000E+00  0.14333010713E+04  0.14333010713E+04  0.50400001928E-02 0.  1.
       -1   -1    0    0    0  501  0.00000000000E+00  0.00000000000E+00 -0.14727962164E+04  0.14727962164E+04  0.50400001928E-02 0. -1.
    10030    2    1    2    0    0  0.00000000000E+00  0.00000000000E+00 -0.39495145172E+02  0.29060972877E+04  0.29058288971E+04 0.  0.
        4    1    3    3  502    0  0.86574784141E+03  0.97272223028E+03  0.62471160438E+03  0.14442901591E+04  0.12699999809E+01 0.  1.
       -4    1    3    3    0  502 -0.86574784141E+03 -0.97272223028E+03 -0.66420674955E+03  0.14618071286E+04  0.12699999809E+01 0. -1.
</event>
<event>
 5   0  0.2474769E-06  0.2915586E+04  0.7818609E-02  0.8268255E-01
       -1   -1    0    0    0  501  0.00000000000E+00  0.00000000000E+00  0.12680517414E+04  0.12680517414E+04  0.50400001928E-02 0.  1.
        1   -1    0    0  501    0  0.00000000000E+00  0.00000000000E+00 -0.16759258604E+04  0.16759258604E+04  0.50400001928E-02 0. -1.
    10030    2    1    2    0    0  0.00000000000E+00  0.00000000000E+00 -0.40787411895E+03  0.29439776018E+04  0.29155861886E+04 0.  0.
        1    1    3    3  502    0  0.31018624247E+03 -0.35643589379E+03  0.11885857025E+04  0.12790613838E+04  0.50400001928E-02 0.  1.
       -1    1    3    3    0  502 -0.31018624247E+03  0.35643589379E+03 -0.15964598214E+04  0.16649162180E+04  0.50400001928E-02 0. -1.
</event>
<event>
 5   0  0.6612533E-06  0.2908907E+04  0.7818609E-02  0.8270232E-01
        2   -1    0    0  501    0  0.00000000000E+00  0.00000000000E+00  0.15799300921E+04  0.15799300921E+04  0.25500000920E-02 0. -1.
       -2   -1    0    0    0  501  0.00000000000E+00  0.00000000000E+00 -0.13389419231E+04  0.13389419231E+04  0.25500000920E-02 0.  1.
    10030    2    1    2    0    0  0.00000000000E+00  0.00000000000E+00  0.24098816902E+03  0.29188720152E+04  0.29089067609E+04 0.  0.
        3    1    3    3  502    0  0.77941799276E+03 -0.54562434588E+03 -0.98338203372E+03  0.13682976901E+04  0.10100000352E+00 0.  1.
       -3    1    3    3    0  502 -0.77941799276E+03  0.54562434588E+03  0.12243702027E+04  0.15505743252E+04  0.10100000352E+00 0. -1.
</event>
<event>
 5   0  0.6513041E-06  0.2952452E+04  0.7818609E-02  0.8257440E-01
        2   -1    0    0  501    0  0.00000000000E+00  0.00000000000E+00  0.17359225646E+04  0.17359225646E+04  0.25500000920E-02 0.  1.
       -2   -1    0    0    0  501  0.00000000000E+00  0.00000000000E+00 -0.12553800992E+04  0.12553800992E+04  0.25500000920E-02 0. -1.
    10030    2    1    2    0    0  0.00000000000E+00  0.00000000000E+00  0.48054246540E+03  0.29913026639E+04  0.29524516196E+04 0.  0.
        1    1    3    3  502    0 -0.14313071725E+03 -0.13775535836E+04  0.75797695987E+03  0.15788189731E+04  0.50400001928E-02 0.  1.
       -1    1    3    3    0  502  0.14313071725E+03  0.13775535836E+04 -0.27743449447E+03  0.14124836908E+04  0.50400001928E-02 0. -1.
</event>
<event>
 5   0  0.6733688E-06  0.2946168E+04  0.7818609E-02  0.8259272E-01
       -2   -1    0    0    0  501  0.00000000000E+00  0.00000000000E+00  0.13579514554E+04  0.13579514554E+04  0.25500000920E-02 0. -1.
        2   -1    0    0  501    0  0.00000000000E+00  0.00000000000E+00 -0.15979783958E+04  0.15979783958E+04  0.25500000920E-02 0.  1.
    10030    2    1    2    0    0  0.00000000000E+00  0.00000000000E+00 -0.24002694047E+03  0.29559298512E+04  0.29461684190E+04 0.  0.
        5    1    3    3  502    0 -0.95615657790E+03 -0.11771883083E+03 -0.12380942981E+04  0.15687551452E+04  0.46999998093E+01 0.  1.
       -5    1    3    3    0  502  0.95615657790E+03  0.11771883083E+03  0.99806735763E+03  0.13871747060E+04  0.46999998093E+01 0. -1.
</event>
<event>
 5   0  0.2508094E-06  0.2967902E+04  0.7818609E-02  0.8252956E-01
       -1   -1    0    0    0  501  0.00000000000E+00  0.00000000000E+00  0.16071331650E+04  0.16071331650E+04  0.50400001928E-02 0. -1.
        1   -1    0    0  501    0  0.00000000000E+00  0.00000000000E+00 -0.13702107050E+04  0.13702107050E+04  0.50400001928E-02 0.  1.
    10030    2    1    2    0    0  0.00000000000E+00  0.00000000000E+00  0.23692246000E+03  0.29773438700E+04  0.29679023347E+04 0.  0.
        3    1    3    3  502    0  0.14344070422E+04  0.36076866950E+03 -0.20603001035E+01  0.14790814212E+04  0.10100000352E+00 0.  1.
       -3    1    3    3    0  502 -0.14344070422E+04 -0.36076866950E+03  0.23898276010E+03  0.14982624488E+04  0.10100000352E+00 0. -1.
</event>
<event>
 5   0  0.6615403E-06  0.2900145E+04  0.7818609E-02  0.8272834E-01
       -2   -1    0    0    0  501  0.00000000000E+00  0.00000000000E+00  0.16659134891E+04  0.16659134891E+04  0.25500000920E-02 0.  1.
        2   -1    0    0  501    0  0.00000000000E+00  0.00000000000E+00 -0.12621963167E+04  0.12621963168E+04  0.25500000920E-02 0. -1.
    10030    2    1    2    0    0  0.00000000000E+00  0.00000000000E+00  0.40371717239E+03  0.29281098059E+04  0.29001447343E+04 0.  0.
        2    1    3    3  502    0 -0.31226890274E+03 -0.27139480002E+03  0.16050595100E+04  0.16575231629E+04  0.25500000920E-02 0.  1.
       -2    1    3    3    0  502  0.31226890274E+03  0.27139480002E+03 -0.12013423376E+04  0.12705866429E+04  0.25500000920E-02 0. -1.
</event>
<event>
 5   0  0.2474769E-06  0.3092924E+04  0.7818609E-02  0.8217683E-01
        1   -1    0    0  501    0  0.00000000000E+00  0.00000000000E+00  0.25217109925E+04  0.25217109925E+04  0.50400001928E-02 0.  1.
       -1   -1    0    0    0  501  0.00000000000E+00  0.00000000000E+00 -0.94838150249E+03  0.94838150250E+03  0.50400001928E-02 0. -1.
    10030    2    1    2    0    0  0.00000000000E+00  0.00000000000E+00  0.15733294900E+04  0.34700924950E+04  0.30929235749E+04 0.  0.
        1    1    3    3  502    0 -0.89782434377E+03 -0.36660390735E+03 -0.56482922040E+03  0.11222829525E+04  0.50400001928E-02 0. -1.
       -1    1    3    3    0  502  0.89782434377E+03  0.36660390735E+03  0.21381587104E+04  0.23478095426E+04  0.50400001928E-02 0.  1.
</event>
<event>
 5   0  0.6612533E-06  0.2934805E+04  0.7818609E-02  0.8262597E-01
       -2   -1    0    0    0  501  0.00000000000E+00  0.00000000000E+00  0.71443353193E+03  0.71443353194E+03  0.25500000920E-02 0. -1.
        2   -1    0    0  501    0  0.00000000000E+00  0.00000000000E+00 -0.30139547869E+04  0.30139547869E+04  0.25500000920E-02 0.  1.
    10030    2    1    2    0    0  0.00000000000E+00  0.00000000000E+00 -0.22995212550E+04  0.37283883188E+04  0.29348051816E+04 0.  0.
        3    1    3    3  502    0  0.75725401520E+03 -0.63566954752E+03  0.22777035326E+03  0.10145879761E+04  0.10100000352E+00 0. -1.
       -3    1    3    3    0  502 -0.75725401520E+03  0.63566954752E+03 -0.25272916082E+04  0.27138003428E+04  0.10100000352E+00 0.  1.
</event>
<event>
 5   0  0.6615403E-06  0.2909658E+04  0.7818609E-02  0.8270010E-01
        2   -1    0    0  501    0  0.00000000000E+00  0.00000000000E+00  0.24159581792E+04  0.24159581792E+04  0.25500000920E-02 0. -1.
       -2   -1    0    0    0  501  0.00000000000E+00  0.00000000000E+00 -0.87606099240E+03  0.87606099240E+03  0.25500000920E-02 0.  1.
    10030    2    1    2    0    0  0.00000000000E+00  0.00000000000E+00  0.15398971868E+04  0.32920191716E+04  0.29096575194E+04 0.  0.
        2    1    3    3  502    0  0.94413660209E+03  0.81672504520E+03  0.16151763857E+04  0.20413790632E+04  0.25500000920E-02 0. -1.
       -2    1    3    3    0  502 -0.94413660209E+03 -0.81672504520E+03 -0.75279198904E+02  0.12506401084E+04  0.25500000920E-02 0.  1.
</event>
<event>
 5   0  0.2474769E-06  0.2910751E+04  0.7818609E-02  0.8269686E-01
        1   -1    0    0  501    0  0.00000000000E+00  0.00000000000E+00  0.18820839232E+04  0.18820839232E+04  0.50400001928E-02 0.  1.
       -1   -1    0    0    0  501  0.00000000000E+00  0.00000000000E+00 -0.11254109905E+04  0.11254109905E+04  0.50400001928E-02 0. -1.
    10030    2    1    2    0    0  0.00000000000E+00  0.00000000000E+00  0.75667293267E+03  0.30074949137E+04  0.29107510593E+04 0.  0.
        1    1    3    3  502    0  0.29452097087E+03 -0.49252822095E+03 -0.10035732554E+04  0.11560648466E+04  0.50400001928E-02 0. -1.
       -1    1    3    3    0  502 -0.29452097087E+03  0.49252822095E+03  0.17602461880E+04  0.18514300671E+04  0.50400001928E-02 0.  1.
</event>
<event>
 5   0  0.6733688E-06  0.2601554E+04  0.7818609E-02  0.8367674E-01
        2   -1    0    0  501    0  0.00000000000E+00  0.00000000000E+00  0.11568274384E+04  0.11568274384E+04  0.25500000920E-02 0.  1.
       -2   -1    0    0    0  501  0.00000000000E+00  0.00000000000E+00 -0.14626384819E+04  0.14626384819E+04  0.25500000920E-02 0. -1.
    10030    2    1    2    0    0  0.00000000000E+00  0.00000000000E+00 -0.30581104346E+03  0.26194659204E+04  0.26015536346E+04 0.  0.
        5    1    3    3  502    0  0.51845776159E+03  0.31471087214E+03 -0.13115486366E+04  0.14449994117E+04  0.46999998093E+01 0. -1.
       -5    1    3    3    0  502 -0.51845776159E+03 -0.31471087214E+03  0.10057375932E+04  0.11744665086E+04  0.46999998093E+01 0.  1.
</event>
<event>
 5   0  0.6615403E-06  0.2908104E+04  0.7818609E-02  0.8270471E-01
        2   -1    0    0  501    0  0.00000000000E+00  0.00000000000E+00  0.15515436965E+04  0.15515436965E+04  0.25500000920E-02 0. -1.
       -2   -1    0    0    0  501  0.00000000000E+00  0.00000000000E+00 -0.13626858227E+04  0.13626858227E+04  0.25500000920E-02 0.  1.
    10030    2    1    2    0    0  0.00000000000E+00  0.00000000000E+00  0.18885787379E+03  0.29142295192E+04  0.29081035735E+04 0.  0.
        2    1    3    3  502    0 -0.56108265073E+03 -0.38578245736E+03 -0.11930438545E+04  0.13736795420E+04  0.25500000920E-02 0.  1.
       -2    1    3    3    0  502  0.56108265073E+03  0.38578245736E+03  0.13819017283E+04  0.15405499772E+04  0.25500000920E-02 0. -1.
</event>
<event>
 5   0  0.6733688E-06  0.2913731E+04  0.7818609E-02  0.8268804E-01
       -2   -1    0    0    0  501  0.00000000000E+00  0.00000000000E+00  0.10730063493E+04  0.10730063493E+04  0.25500000920E-02 0. -1.
        2   -1    0    0  501    0  0.00000000000E+00  0.00000000000E+00 -0.19780470132E+04  0.19780470132E+04  0.25500000920E-02 0.  1.
    10030    2    1    2    0    0  0.00000000000E+00  0.00000000000E+00 -0.90504066381E+03  0.30510533625E+04  0.29137309446E+04 0.  0.
        5    1    3    3  502    0  0.11698527065E+04  0.48139388689E+03  0.30412720980E+03  0.13010806582E+04  0.46999998093E+01 0. -1.
       -5    1    3    3    0  502 -0.11698527065E+04 -0.48139388689E+03 -0.12091678736E+04  0.17499727043E+04  0.46999998093E+01 0.  1.
</event>
<event>
 5   0  0.2474769E-06  0.2908567E+04  0.7818609E-02  0.8270333E-01
        1   -1    0    0  501    0  0.00000000000E+00  0.00000000000E+00  0.20865529196E+04  0.20865529196E+04  0.50400001928E-02 0. -1.
       -1   -1    0    0    0  501  0.00000000000E+00  0.00000000000E+00 -0.10136049457E+04  0.10136049457E+04  0.50400001928E-02 0.  1.
    10030    2    1    2    0    0  0.00000000000E+00  0.00000000000E+00  0.10729479739E+04  0.31001578653E+04  0.29085669040E+04 0.  0.
        1    1    3    3  502    0 -0.74446879295E+03 -0.11808969955E+04  0.97098992113E+03  0.17004625619E+04  0.50400001928E-02 0. -1.
       -1    1    3    3    0  502  0.74446879295E+03  0.11808969955E+04  0.10195805281E+03  0.13996953033E+04  0.50400001928E-02 0.  1.
</event>
<event>
 5   0  0.6393633E-06  0.2912179E+04  0.7818609E-02  0.8269263E-01
       -2   -1    0    0    0  501  0.00000000000E+00  0.00000000000E+00  0.16981145938E+04  0.16981145938E+04  0.25500000920E-02 0.  1.
        2   -1    0    0  501    0  0.00000000000E+00  0.00000000000E+00 -0.12485592639E+04  0.12485592639E+04  0.25500000920E-02 0. -1.
    10030    2    1    2    0    0  0.00000000000E+00  0.00000000000E+00  0.44955532991E+03  0.29466738577E+04  0.29121790517E+04 0.  0.
        4    1    3    3  502    0 -0.87507873840E+03 -0.64148889470E+03 -0.75776724302E+03  0.13234362878E+04  0.12699999809E+01 0.  1.
       -4    1    3    3    0  502  0.87507873840E+03  0.64148889470E+03  0.12073225729E+04  0.16232375699E+04  0.12699999809E+01 0. -1.
</event>
<event>
 5   0  0.6612533E-06  0.2910707E+04  0.7818609E-02  0.8269699E-01
        2   -1    0    0  501    0  0.00000000000E+00  0.00000000000E+00  0.13009982016E+04  0.13009982016E+04  0.25500000920E-02 0. -1.
       -2   -1    0    0    0  501  0.00000000000E+00  0.00000000000E+00 -0.16280222810E+04  0.16280222810E+04  0.25500000920E-02 0.  1.
    10030    2    1    2    0    0  0.00000000000E+00  0.00000000000E+00 -0.32702407942E+03  0.29290204827E+04  0.29107071717E+04 0.  0.
        3    1    3    3  502    0 -0.99913327399E+02  0.10508550279E+04  0.84467729543E+03  0.13519462661E+04  0.10100000352E+00 0. -1.
       -3    1    3    3    0  502  0.99913327399E+02 -0.10508550279E+04 -0.11717013748E+04  0.15770742166E+04  0.10100000352E+00 0.  1.
</event>
<event>
 5   0  0.6733688E-06  0.2923609E+04  0.7818609E-02  0.8265888E-01
       -2   -1    0    0    0  501  0.00000000000E+00  0.00000000000E+00  0.18583083103E+04  0.18583083103E+04  0.25500000920E-02 0.  1.
        2   -1    0    0  501    0  0.00000000000E+00  0.00000000000E+00 -0.11499021370E+04  0.11499021370E+04  0.25500000920E-02 0. -1.
    10030    2    1    2    0    0  0.00000000000E+00  0.00000000000E+00  0.70840617335E+03  0.30082104473E+04  0.29236092059E+04 0.  0.
        5    1    3    3  502    0  0.91368781788E+03  0.46392775761E+03  0.14268652283E+04  0.17567073924E+04  0.46999998093E+01 0.  1.
       -5    1    3    3    0  502 -0.91368781788E+03 -0.46392775761E+03 -0.71845905496E+03  0.12515030549E+04  0.46999998093E+01 0. -1.
</event>
<event>
 5   0  0.6612533E-06  0.2892609E+04  0.7818609E-02  0.8275080E-01
       -2   -1    0    0    0  501  0.00000000000E+00  0.00000000000E+00  0.11892906184E+04  0.11892906184E+04  0.25500000920E-02 0. -1.
        2   -1    0    0  501    0  0.00000000000E+00  0.00000000000E+00 -0.17588603648E+04  0.17588603648E+04  0.25500000920E-02 0.  1.
    10030    2    1    2    0    0  0.00000000000E+00  0.00000000000E+00 -0.56956974642E+03  0.29481509832E+04  0.28926086018E+04 0.  0.
        3    1    3    3  502    0  0.23480794322E+03 -0.12470158433E+04 -0.99209369524E+03  0.16107244314E+04  0.10100000352E+00 0.  1.
       -3    1    3    3    0  502 -0.23480794322E+03  0.12470158433E+04  0.42252394882E+03  0.13374265517E+04  0.10100000352E+00 0. -1.
</event>
<event>
 5   0  0.2508094E-06  0.2889699E+04  0.7818609E-02  0.8275949E-01
       -1   -1    0    0    0  501  0.00000000000E+00  0.00000000000E+00  0.18179390075E+04  0.18179390075E+04  0.50400001928E-02 0.  1.
        1   -1    0    0  501    0  0.00000000000E+00  0.00000000000E+00 -0.11483278587E+04  0.11483278587E+04  0.50400001928E-02 0. -1.
    10030    2    1    2    0    0  0.00000000000E+00  0.00000000000E+00  0.66961114881E+03  0.29662668662E+04  0.28896989516E+04 0.  0.
        3    1    3    3  502    0 -0.13616785033E+04  0.41718438778E+03  0.84671148765E+02  0.14266675763E+04  0.10100000352E+00 0.  1.
       -3    1    3    3    0  502  0.13616785033E+04 -0.41718438778E+03  0.58494000004E+03  0.15395992899E+04  0.10100000352E+00 0. -1.
</event>
<event>
 5   0  0.2508094E-06  0.2833092E+04  0.7818609E-02  0.8293068E-01
        1   -1    0    0  501    0  0.00000000000E+00  0.00000000000E+00  0.22699569149E+04  0.22699569149E+04  0.50400001928E-02 0. -1.
       -1   -1    0    0    0  501  0.00000000000E+00  0.00000000000E+00 -0.88398266927E+03  0.88398266928E+03  0.50400001928E-02 0.  1.
    10030    2    1    2    0    0  0.00000000000E+00  0.00000000000E+00  0.13859742456E+04  0.31539395842E+04  0.28330920019E+04 0.  0.
        3    1    3    3  502    0 -0.81475137599E+03  0.65432867002E+03  0.17576620223E+04  0.20448329046E+04  0.10100000352E+00 0. -1.
       -3    1    3    3    0  502  0.81475137599E+03 -0.65432867002E+03 -0.37168777666E+03  0.11091066795E+04  0.10100000352E+00 0.  1.
</event>
<event>
 5   0  0.6393633E-06  0.2924207E+04  0.7818609E-02  0.8265711E-01
        2   -1    0    0  501    0  0.00000000000E+00  0.00000000000E+00  0.16677035803E+04  0.16677035803E+04  0.25500000920E-02 0.  1.
       -2   -1    0    0    0  501  0.00000000000E+00  0.00000000000E+00 -0.12818508952E+04  0.12818508952E+04  0.25500000920E-02 0. -1.
    10030    2    1    2    0    0  0.00000000000E+00  0.00000000000E+00  0.38585268509E+03  0.29495544756E+04  0.29242074670E+04 0.  0.
        4    1    3    3  502    0 -0.81611379827E+03  0.27023397069E+03 -0.99998192137E+03  0.13187242269E+04  0.12699999809E+01 0. -1.
       -4    1    3    3    0  502  0.81611379827E+03 -0.27023397069E+03  0.13858346065E+04  0.16308302487E+04  0.12699999809E+01 0.  1.
</event>
<event>
 5   0  0.2348684E-06  0.2904978E+04  0.7818609E-02  0.8271398E-01
        1   -1    0    0  501    0  0.00000000000E+00  0.00000000000E+00  0.15791465894E+04  0.15791465894E+04  0.50400001928E-02 0.  1.
       -1   -1    0    0    0  501  0.00000000000E+00  0.00000000000E+00 -0.13359899390E+04  0.13359899390E+04  0.50400001928E-02 0. -1.
    10030    2    1    2    0    0  0.00000000000E+00  0.00000000000E+00  0.24315665042E+03  0.29151365284E+04  0.29049777663E+04 0.  0.
        5    1    3    3  502    0  0.74083353805E+03 -0.99582945049E+03 -0.63550763152E+03  0.13944183968E+04  0.46999998093E+01 0. -1.
       -5    1    3    3    0  502 -0.74083353805E+03  0.99582945049E+03  0.87866428194E+03  0.15207181316E+04  0.46999998093E+01 0.  1.
</event>
<event>
 5   0  0.2348684E-06  0.2906224E+04  0.7818609E-02  0.8271028E-01
       -1   -1    0    0    0  501  0.00000000000E+00  0.00000000000E+00  0.99444786257E+03  0.99444786259E+03  0.50400001928E-02 0.  1.
        1   -1    0    0  501    0  0.00000000000E+00  0.00000000000E+00 -0.21233233124E+04  0.21233233124E+04  0.50400001928E-02 0. -1.
    10030    2    1    2    0    0  0.00000000000E+00  0.00000000000E+00 -0.11288754498E+04  0.31177711750E+04  0.29062238934E+04 0.  0.
        5    1    3    3  502    0  0.34476918819E+03  0.42813773494E+03  0.87859375038E+03  0.10363960543E+04  0.46999998093E+01 0.  1.
       -5    1    3    3    0  502 -0.34476918819E+03 -0.42813773494E+03 -0.20074692002E+04  0.20813751207E+04  0.46999998093E+01 0. -1.
</event>
<event>
 5   0  0.2159500E-06  0.2923684E+04  0.7818609E-02  0.8265866E-01
        3   -1    0    0  501    0  0.00000000000E+00  0.00000000000E+00  0.91703393498E+03  0.91703394054E+03  0.10100000352E+00 0. -1.
       -3   -1    0    0    0  501  0.00000000000E+00  0.00000000000E+00 -0.23303193354E+04  0.23303193376E+04  0.10100000352E+00 0.  1.
    10030    2    1    2    0    0  0.00000000000E+00  0.00000000000E+00 -0.14132854005E+04  0.32473532782E+04  0.29236839244E+04 0.  0.
        3    1    3    3  502    0 -0.10719279100E+04  0.86166888362E+02  0.39319615756E+03  0.11450141508E+04  0.10100000352E+00 0. -1.
       -3    1    3    3    0  502  0.10719279100E+04 -0.86166888362E+02 -0.18064815580E+04  0.21023391274E+04  0.10100000352E+00 0.  1.
</event>
<event>
 5   0  0.2508094E-06  0.2906277E+04  0.7818609E-02  0.8271012E-01
        1   -1    0    0  501    0  0.00000000000E+00  0.00000000000E+00  0.22450464364E+04  0.22450464364E+04  0.50400001928E-02 0.  1.
       -1   -1    0    0    0  501  0.00000000000E+00  0.00000000000E+00 -0.94056451466E+03  0.94056451467E+03  0.50400001928E-02 0. -1.
    10030    2    1    2    0    0  0.00000000000E+00  0.00000000000E+00  0.13044819217E+04  0.31856109510E+04  0.29062766639E+04 0.  0.
        3    1    3    3  502    0 -0.11572797608E+04  0.76919811517E+03  0.18636173912E+03  0.14020317019E+04  0.10100000352E+00 0. -1.
       -3    1    3    3    0  502  0.11572797608E+04 -0.76919811517E+03  0.11181201826E+04  0.17835792491E+04  0.10100000352E+00 0.  1.
</event>
<event>
 5   0  0.6513041E-06  0.2918173E+04  0.7818609E-02  0.8267491E-01
       -2   -1    0    0    0  501  0.00000000000E+00  0.00000000000E+00  0.82538976821E+03  0.82538976821E+03  0.25500000920E-02 0.  1.
        2   -1    0    0  501    0  0.00000000000E+00  0.00000000000E+00 -0.25793071282E+04  0.25793071282E+04  0.25500000920E-02 0. -1.
    10030    2    1    2    0    0  0.00000000000E+00  0.00000000000E+00 -0.17539173600E+04  0.34046968964E+04  0.29181732044E+04 0.  0.
        1    1    3    3  502    0 -0.15263828636E+03  0.79309133924E+02 -0.25674359317E+04  0.25731917240E+04  0.50400001928E-02 0. -1.
       -1    1    3    3    0  502  0.15263828636E+03 -0.79309133924E+02  0.81351857170E+03  0.83150517239E+03  0.50400001928E-02 0.  1.
</event>
<event>
 5   0  0.2429358E-06  0.2887135E+04  0.7818609E-02  0.8276715E-01
       -1   -1    0    0    0  501  0.00000000000E+00  0.00000000000E+00  0.15938813714E+04  0.15938813714E+04  0.50400001928E-02 0.  1.
        1   -1    0    0  501    0  0.00000000000E+00  0.00000000000E+00 -0.13074295801E+04  0.13074295801E+04  0.50400001928E-02 0. -1.
    10030    2    1    2    0    0  0.00000000000E+00  0.00000000000E+00  0.28645179128E+03  0.29013109515E+04  0.28871353638E+04 0.  0.
        2    1    3    3  502    0  0.20621095031E+03  0.13767679533E+04  0.52703663055E+03  0.14885498188E+04  0.25500000920E-02 0. -1.
       -2    1    3    3    0  502 -0.20621095031E+03 -0.13767679533E+04 -0.24058483927E+03  0.14127611327E+04  0.25500000920E-02 0.  1.
</event>
<event>
 5   0  0.2508094E-06  0.2894317E+04  0.7818609E-02  0.8274570E-01
        1   -1    0    0  501    0  0.00000000000E+00  0.00000000000E+00  0.20185046409E+04  0.20185046409E+04  0.50400001928E-02 0.  1.
       -1   -1    0    0    0  501  0.00000000000E+00  0.00000000000E+00 -0.10375341414E+04  0.10375341414E+04  0.50400001928E-02 0. -1.
    10030    2    1    2    0    0  0.00000000000E+00  0.00000000000E+00  0.98097049953E+03  0.30560387823E+04  0.28943168310E+04 0.  0.
        3    1    3    3  502    0  0.71174557415E+02  0.50381408472E+03  0.19209427619E+04  0.19871878508E+04  0.10100000352E+00 0.  1.
       -3    1    3    3    0  502 -0.71174557415E+02 -0.50381408472E+03 -0.93997226239E+03  0.10688509315E+04  0.10100000352E+00 0. -1.
</event>
<event>
 5   0  0.2429358E-06  0.2910336E+04  0.7818609E-02  0.8269809E-01
       -1   -1    0    0    0  501  0.00000000000E+00  0.00000000000E+00  0.16459774725E+04  0.16459774725E+04  0.50400001928E-02 0.  1.
        1   -1    0    0  501    0  0.00000000000E+00  0.00000000000E+00 -0.12864780037E+04  0.12864780037E+04  0.50400001928E-02 0. -1.
    10030    2    1    2    0    0  0.00000000000E+00  0.00000000000E+00  0.35949946878E+03  0.29324554763E+04  0.29103359346E+04 0.  0.
        2    1    3    3  502    0  0.56373584017E+03 -0.12969452751E+04  0.52535616454E+03  0.15085967797E+04  0.25500000920E-02 0.  1.
       -2    1    3    3    0  502 -0.56373584017E+03  0.12969452751E+04 -0.16585669576E+03  0.14238586965E+04  0.25500000920E-02 0. -1.
</event>
<event>
 5   0  0.2508094E-06  0.2913653E+04  0.7818609E-02  0.8268827E-01
       -1   -1    0    0    0  501  0.00000000000E+00  0.00000000000E+00  0.16357726404E+04  0.16357726405E+04  0.50400001928E-02 0. -1.
        1   -1    0    0  501    0  0.00000000000E+00  0.00000000000E+00 -0.12974563194E+04  0.12974563194E+04  0.50400001928E-02 0.  1.
    10030    2    1    2    0    0  0.00000000000E+00  0.00000000000E+00  0.33831632100E+03  0.29332289599E+04  0.29136530676E+04 0.  0.
        3    1    3    3  502    0 -0.11372409860E+04  0.81168896293E+03 -0.24615143309E+03  0.14187129981E+04  0.10100000352E+00 0.  1.
       -3    1    3    3    0  502  0.11372409860E+04 -0.81168896293E+03  0.58446775409E+03  0.15145159618E+04  0.10100000352E+00 0. -1.
</event>
<event>
 5   0  0.6733688E-06  0.2929537E+04  0.7818609E-02  0.8264143E-01
       -2   -1    0    0    0  501  0.00000000000E+00  0.00000000000E+00  0.11093373210E+04  0.11093373210E+04  0.25500000920E-02 0.  1.
        2   -1    0    0  501    0  0.00000000000E+00  0.00000000000E+00 -0.19340790470E+04  0.19340790470E+04  0.25500000920E-02 0. -1.
    10030    2    1    2    0    0  0.00000000000E+00  0.00000000000E+00 -0.82474172605E+03  0.30434163680E+04  0.29295365290E+04 0.  0.
        5    1    3    3  502    0 -0.95617283534E+03 -0.69182064830E+03  0.48890260501E+03  0.12774702140E+04  0.46999998093E+01 0.  1.
       -5    1    3    3    0  502  0.95617283534E+03  0.69182064830E+03 -0.13136443311E+04  0.17659461540E+04  0.46999998093E+01 0. -1.
</event>
<event>
 5   0  0.6513041E-06  0.2879101E+04  0.7818609E-02  0.8279123E-01
        2   -1    0    0  501    0  0.00000000000E+00  0.00000000000E+00  0.16964257689E+04  0.16964257689E+04  0.25500000920E-02 0. -1.
       -2   -1    0    0    0  501  0.00000000000E+00  0.00000000000E+00 -0.12215715769E+04  0.12215715769E+04  0.25500000920E-02 0.  1.
    10030    2    1    2    0    0  0.00000000000E+00  0.00000000000E+00  0.47485419197E+03  0.29179973457E+04  0.28791009024E+04 0.  0.
        1    1    3    3  502    0  0.10594267966E+04 -0.60376262251E+03 -0.53801799258E+03  0.13328082390E+04  0.50400001928E-02 0.  1.
       -1    1    3    3    0  502 -0.10594267966E+04  0.60376262251E+03  0.10128721845E+04  0.15851891067E+04  0.50400001928E-02 0. -1.
</event>
<event>
 5   0  0.2474769E-06  0.2864545E+04  0.7818609E-02  0.8283505E-01
        1   -1    0    0  501    0  0.00000000000E+00  0.00000000000E+00  0.15409448697E+04  0.15409448697E+04  0.50400001928E-02 0.  1.
       -1   -1    0    0    0  501  0.00000000000E+00  0.00000000000E+00 -0.13312645168E+04  0.13312645168E+04  0.50400001928E-02 0. -1.
    10030    2    1    2    0    0  0.00000000000E+00  0.00000000000E+00  0.20968035291E+03  0.28722093866E+04  0.28645454980E+04 0.  0.
        1    1    3    3  502    0 -0.38775705863E+03 -0.70817150118E+02 -0.12758095281E+04  0.13353129061E+04  0.50400001928E-02 0. -1.
       -1    1    3    3    0  502  0.38775705863E+03  0.70817150118E+02  0.14854898810E+04  0.15368964805E+04  0.50400001928E-02 0.  1.
</event>
<event>
 5   0  0.6615403E-06  0.2867795E+04  0.7818609E-02  0.8282524E-01
       -2   -1    0    0    0  501  0.00000000000E+00  0.00000000000E+00  0.95818990014E+03  0.95818990015E+03  0.25500000920E-02 0. -1.
        2   -1    0    0  501    0  0.00000000000E+00  0.00000000000E+00 -0.21457766738E+04  0.21457766738E+04  0.25500000920E-02 0.  1.
    10030    2    1    2    0    0  0.00000000000E+00  0.00000000000E+00 -0.11875867736E+04  0.31039665739E+04  0.28677946487E+04 0.  0.
        2    1    3    3  502    0 -0.31389271495E+02  0.13792842745E+04 -0.17091156901E+03  0.13901874552E+04  0.25500000920E-02 0. -1.
       -2    1    3    3    0  502  0.31389271495E+02 -0.13792842745E+04 -0.10166752046E+04  0.17137791187E+04  0.25500000920E-02 0.  1.
</event>
<event>
 5   0  0.6733688E-06  0.2712859E+04  0.7818609E-02  0.8330845E-01
        2   -1    0    0  501    0  0.00000000000E+00  0.00000000000E+00  0.19535744884E+04  0.19535744885E+04  0.25500000920E-02 0.  1.
       -2   -1    0    0    0  501  0.00000000000E+00  0.00000000000E+00 -0.94181238556E+03  0.94181238557E+03  0.25500000920E-02 0. -1.
    10030    2    1    2    0    0  0.00000000000E+00  0.00000000000E+00  0.10117621029E+04  0.28953868740E+04  0.27128587500E+04 0.  0.
        5    1    3    3  502    0 -0.43171556689E+03  0.12812753226E+04  0.38977867760E+03  0.14071226991E+04  0.46999998093E+01 0. -1.
       -5    1    3    3    0  502  0.43171556689E+03 -0.12812753226E+04  0.62198342529E+03  0.14882641749E+04  0.46999998093E+01 0.  1.
</event>
<event>
 5   0  0.2429358E-06  0.2946392E+04  0.7818609E-02  0.8259207E-01
        1   -1    0    0  501    0  0.00000000000E+00  0.00000000000E+00  0.17436636147E+04  0.17436636147E+04  0.50400001928E-02 0.  1.
       -1   -1    0    0    0  501  0.00000000000E+00  0.00000000000E+00 -0.12446816583E+04  0.12446816584E+04  0.50400001928E-02 0. -1.
    10030    2    1    2    0    0  0.00000000000E+00  0.00000000000E+00  0.49898195633E+03  0.29883452730E+04  0.29463917727E+04 0.  0.
        2    1    3    3  502    0 -0.67267644772E+02 -0.23072385325E+03  0.17236473087E+04  0.17403213719E+04  0.25500000920E-02 0.  1.
       -2    1    3    3    0  502  0.67267644772E+02  0.23072385325E+03 -0.12246653524E+04  0.12480239012E+04  0.25500000920E-02 0. -1.
</event>
<event>
 5   0  0.6615403E-06  0.2869339E+04  0.7818609E-02  0.8282059E-01
        2   -1    0    0  501    0  0.00000000000E+00  0.00000000000E+00  0.17283393027E+04  0.17283393027E+04  0.25500000920E-02 0.  1.
       -2   -1    0    0    0  501  0.00000000000E+00  0.00000000000E+00 -0.11908987608E+04  0.11908987608E+04  0.25500000920E-02 0. -1.
    10030    2    1    2    0    0  0.00000000000E+00  0.00000000000E+00  0.53744054194E+03  0.29192380635E+04  0.28693393900E+04 0.  0.
        2    1    3    3  502    0  0.20355796357E+03  0.10604063100E+04  0.12298067010E+04  0.16365579455E+04  0.25500000920E-02 0.  1.
       -2    1    3    3    0  502 -0.20355796357E+03 -0.10604063100E+04 -0.69236615910E+03  0.12826801180E+04  0.25500000920E-02 0. -1.
</event>
<event>
 5   0  0.6612533E-06  0.2908814E+04  0.7818609E-02  0.8270260E-01
        2   -1    0    0  501    0  0.00000000000E+00  0.00000000000E+00  0.14262818305E+04  0.14262818305E+04  0.25500000920E-02 0.  1.
       -2   -1    0    0    0  501  0.00000000000E+00  0.00000000000E+00 -0.14830866361E+04  0.14830866362E+04  0.25500000920E-02 0. -1.
    10030    2    1    2    0    0  0.00000000000E+00  0.00000000000E+00 -0.56804805626E+02  0.29093684667E+04  0.29088138629E+04 0.  0.
        3    1    3    3  502    0  0.84440400091E+03  0.94801424760E+03  0.68134573351E+03  0.14408265507E+04  0.10100000352E+00 0.  1.
       -3    1    3    3    0  502 -0.84440400091E+03 -0.94801424760E+03 -0.73815053913E+03  0.14685419160E+04  0.10100000352E+00 0. -1.
</event>
<event>
 5   0  0.2159500E-06  0.2893990E+04  0.7818609E-02  0.8274668E-01
        3   -1    0    0  501    0  0.00000000000E+00  0.00000000000E+00  0.14046101587E+04  0.14046101623E+04  0.10100000352E+00 0.  1.
       -3   -1    0    0    0  501  0.00000000000E+00  0.00000000000E+00 -0.14906589075E+04  0.14906589109E+04  0.10100000352E+00 0. -1.
    10030    2    1    2    0    0  0.00000000000E+00  0.00000000000E+00 -0.86048748815E+02  0.28952690732E+04  0.28939900862E+04 0.  0.
        4    1    3    3  502    0  0.22166786548E+02 -0.11670500552E+04 -0.89856068181E+03  0.14730614752E+04  0.12699999809E+01 0. -1.
       -4    1    3    3    0  502 -0.22166786548E+02  0.11670500552E+04  0.81251193299E+03  0.14222075981E+04  0.12699999809E+01 0.  1.
</event>
<event>
 5   0  0.2348684E-06  0.2926436E+04  0.7818609E-02  0.8265055E-01
        1   -1    0    0  501    0  0.00000000000E+00  0.00000000000E+00  0.20886211996E+04  0.20886211996E+04  0.50400001928E-02 0. -1.
       -1   -1    0    0    0  501  0.00000000000E+00  0.00000000000E+00 -0.10250815913E+04  0.10250815913E+04  0.50400001928E-02 0.  1.
    10030    2    1    2    0    0  0.00000000000E+00  0.00000000000E+00  0.10635396083E+04  0.31137027909E+04  0.29264361554E+04 0.  0.
        5    1    3    3  502    0 -0.12219688580E+03  0.25181463350E+03 -0.99632419023E+03  0.10349041842E+04  0.46999998093E+01 0.  1.
       -5    1    3    3    0  502  0.12219688580E+03 -0.25181463350E+03  0.20598637985E+04  0.20787986067E+04  0.46999998093E+01 0. -1.
</event>
<event>
 5   0  0.6513041E-06  0.2894482E+04  0.7818609E-02  0.8274521E-01
        2   -1    0    0  501    0  0.00000000000E+00  0.00000000000E+00  0.12994018818E+04  0.12994018818E+04  0.25500000920E-02 0.  1.
       -2   -1    0    0    0  501  0.00000000000E+00  0.00000000000E+00 -0.16119009817E+04  0.16119009817E+04  0.25500000920E-02 0. -1.
    10030    2    1    2    0    0  0.00000000000E+00  0.00000000000E+00 -0.31249909990E+03  0.29113028635E+04  0.28944824538E+04 0.  0.
        1    1    3    3  502    0 -0.82331713602E+02  0.11332588469E+04  0.74531477127E+03  0.13588775638E+04  0.50400001928E-02 0.  1.
       -1    1    3    3    0  502  0.82331713602E+02 -0.11332588469E+04 -0.10578138712E+04  0.15524252997E+04  0.50400001928E-02 0. -1.
</event>
<event>
 5   0  0.2336512E-06  0.2886544E+04  0.7818609E-02  0.8276892E-01
       -1   -1    0    0    0  501  0.00000000000E+00  0.00000000000E+00  0.11351270229E+04  0.11351270229E+04  0.50400001928E-02 0.  1.
        1   -1    0    0  501    0  0.00000000000E+00  0.00000000000E+00 -0.18350673498E+04  0.18350673498E+04  0.50400001928E-02 0. -1.
    10030    2    1    2    0    0  0.00000000000E+00  0.00000000000E+00 -0.69994032694E+03  0.29701943727E+04  0.28865443267E+04 0.  0.
        4    1    3    3  502    0  0.85532052062E+02 -0.12826869948E+04  0.32511497140E+03  0.13260101871E+04  0.12699999809E+01 0.  1.
       -4    1    3    3    0  502 -0.85532052062E+02  0.12826869948E+04 -0.10250552983E+04  0.16441841856E+04  0.12699999809E+01 0. -1.
</event>
<event>
 5   0  0.2429358E-06  0.2895973E+04  0.7818609E-02  0.8274076E-01
       -1   -1    0    0    0  501  0.00000000000E+00  0.00000000000E+00  0.18738330394E+04  0.18738330394E+04  0.50400001928E-02 0. -1.
        1   -1    0    0  501    0  0.00000000000E+00  0.00000000000E+00 -0.11189180422E+04  0.11189180422E+04  0.50400001928E-02 0.  1.
    10030    2    1    2    0    0  0.00000000000E+00  0.00000000000E+00  0.75491499724E+03  0.29927510816E+04  0.28959734777E+04 0.  0.
        2    1    3    3  502    0 -0.11142900268E+04  0.87767008238E+03  0.67824881571E+03  0.15722495010E+04  0.25500000920E-02 0. -1.
       -2    1    3    3    0  502  0.11142900268E+04 -0.87767008238E+03  0.76666181529E+02  0.14205015807E+04  0.25500000920E-02 0.  1.
</event>
<event>
 5   0  0.6393633E-06  0.2926034E+04  0.7818609E-02  0.8265174E-01
       -2   -1    0    0    0  501  0.00000000000E+00  0.00000000000E+00  0.16147434882E+04  0.16147434882E+04  0.25500000920E-02 0.  1.
        2   -1    0    0  501    0  0.00000000000E+00  0.00000000000E+00 -0.13255469036E+04  0.13255469036E+04  0.25500000920E-02 0. -1.
    10030    2    1    2    0    0  0.00000000000E+00  0.00000000000E+00  0.28919658461E+03  0.29402903918E+04  0.29260336505E+04 0.  0.
        4    1    3    3  502    0 -0.76661859969E+03 -0.86087691546E+03  0.10498781507E+04  0.15591853274E+04  0.12699999809E+01 0.  1.
       -4    1    3    3    0  502  0.76661859969E+03  0.86087691546E+03 -0.76068156612E+03  0.13811050644E+04  0.12699999809E+01 0. -1.
</event>
<event>
 5   0  0.6615403E-06  0.2922235E+04  0.7818609E-02  0.8266292E-01
       -2   -1    0    0    0  501  0.00000000000E+00  0.00000000000E+00  0.96403995854E+03  0.96403995855E+03  0.25500000920E-02 0.  1.
        2   -1    0    0  501    0  0.00000000000E+00  0.00000000000E+00 -0.22144979729E+04  0.22144979729E+04  0.25500000920E-02 0. -1.
    10030    2    1    2    0    0  0.00000000000E+00  0.00000000000E+00 -0.12504580144E+04  0.31785379315E+04  0.29222351268E+04 0.  0.
        2    1    3    3  502    0  0.98121287176E+03  0.31804681898E+03 -0.17508526348E+04  0.20320968057E+04  0.25500000920E-02 0. -1.
       -2    1    3    3    0  502 -0.98121287176E+03 -0.31804681898E+03  0.50039462043E+03  0.11464411258E+04  0.25500000920E-02 0.  1.
</event>
<event>
 5   0  0.6612533E-06  0.2924693E+04  0.7818609E-02  0.8265568E-01
        2   -1    0    0  501    0  0.00000000000E+00  0.00000000000E+00  0.13498593489E+04  0.13498593489E+04  0.25500000920E-02 0.  1.
       -2   -1    0    0    0  501  0.00000000000E+00  0.00000000000E+00 -0.15842071570E+04  0.15842071570E+04  0.25500000920E-02 0. -1.
    10030    2    1    2    0    0  0.00000000000E+00  0.00000000000E+00 -0.23434780815E+03  0.29340665059E+04  0.29246926960E+04 0.  0.
        3    1    3    3  502    0  0.14509997220E+04 -0.13331004321E+03 -0.24120295903E+03  0.14769396191E+04  0.10100000352E+00 0.  1.
       -3    1    3    3    0  502 -0.14509997220E+04  0.13331004321E+03  0.68551508789E+01  0.14571268868E+04  0.10100000352E+00 0. -1.
</event>
<event>
 5   0  0.2429358E-06  0.2909061E+04  0.7818609E-02  0.8270187E-01
       -1   -1    0    0    0  501  0.00000000000E+00  0.00000000000E+00  0.27172171888E+04  0.27172171888E+04  0.50400001928E-02 0.  1.
        1   -1    0    0  501    0  0.00000000000E+00  0.00000000000E+00 -0.77861239966E+03  0.77861239967E+03  0.50400001928E-02 0. -1.
    10030    2    1    2    0    0  0.00000000000E+00  0.00000000000E+00  0.19386047892E+04  0.34958295885E+04  0.29090610140E+04 0.  0.
        2    1    3    3  502    0  0.90280382453E+03 -0.31154789644E+03 -0.34903957330E+03  0.10168310878E+04  0.25500000920E-02 0. -1.
       -2    1    3    3    0  502 -0.90280382453E+03  0.31154789644E+03  0.22876443625E+04  0.24789985007E+04  0.25500000920E-02 0.  1.
</event>
<event>
 5   0  0.6393633E-06  0.2894249E+04  0.7818609E-02  0.8274591E-01
       -2   -1    0    0    0  501  0.00000000000E+00  0.00000000000E+00  0.12452898375E+04  0.12452898375E+04  0.25500000920E-02 0.  1.
        2   -1    0    0  501    0  0.00000000000E+00  0.00000000000E+00 -0.16816720501E+04  0.16816720501E+04  0.25500000920E-02 0. -1.
    10030    2    1    2    0    0  0.00000000000E+00  0.00000000000E+00 -0.43638221263E+03  0.29269618876E+04  0.28942488586E+04 0.  0.
        4    1    3    3  502    0 -0.13574680697E+04  0.21991025999E+03 -0.67393693910E+03  0.15314283181E+04  0.12699999809E+01 0. -1.
       -4    1    3    3    0  502  0.13574680697E+04 -0.21991025999E+03  0.23755472646E+03  0.13955335695E+04  0.12699999809E+01 0.  1.
</event>
<event>
 5   0  0.6612533E-06  0.2804419E+04  0.7818609E-02  0.8301898E-01
       -2   -1    0    0    0  501  0.00000000000E+00  0.00000000000E+00  0.88917047071E+03  0.88917047071E+03  0.25500000920E-02 0.  1.
        2   -1    0    0  501    0  0.00000000000E+00  0.00000000000E+00 -0.22112641998E+04  0.22112641998E+04  0.25500000920E-02 0. -1.
    10030    2    1    2    0    0  0.00000000000E+00  0.00000000000E+00 -0.13220937291E+04  0.31004346705E+04  0.28044185347E+04 0.  0.
        3    1    3    3  502    0  0.10180350384E+04 -0.95980210380E+03 -0.55866878369E+03  0.15065610635E+04  0.10100000352E+00 0. -1.
       -3    1    3    3    0  502 -0.10180350384E+04  0.95980210380E+03 -0.76342494542E+03  0.15938736071E+04  0.10100000352E+00 0.  1.
</event>
<event>
 5   0  0.2508094E-06  0.2787251E+04  0.7818609E-02  0.8307237E-01
       -1   -1    0    0    0  501  0.00000000000E+00  0.00000000000E+00  0.14321841937E+04  0.14321841937E+04  0.50400001928E-02 0.  1.
        1   -1    0    0  501    0  0.00000000000E+00  0.00000000000E+00 -0.13561053069E+04  0.13561053069E+04  0.50400001928E-02 0. -1.
    10030    2    1    2    0    0  0.00000000000E+00  0.00000000000E+00  0.76078886794E+02  0.27882895006E+04  0.27872513955E+04 0.  0.
        3    1    3    3  502    0 -0.89566111255E+03 -0.10443884954E+04 -0.18393600628E+03  0.13880881177E+04  0.10100000352E+00 0. -1.
       -3    1    3    3    0  502  0.89566111255E+03  0.10443884954E+04  0.26001489308E+03  0.14002013829E+04  0.10100000352E+00 0.  1.
</event>
<event>
 5   0  0.6612533E-06  0.2913698E+04  0.7818609E-02  0.8268813E-01
        2   -1    0    0  501    0  0.00000000000E+00  0.00000000000E+00  0.17252208898E+04  0.17252208898E+04  0.25500000920E-02 0. -1.
       -2   -1    0    0    0  501  0.00000000000E+00  0.00000000000E+00 -0.12302247485E+04  0.12302247485E+04  0.25500000920E-02 0.  1.
    10030    2    1    2    0    0  0.00000000000E+00  0.00000000000E+00  0.49499614132E+03  0.29554456382E+04  0.29136982927E+04 0.  0.
        3    1    3    3  502    0 -0.21151953905E+03  0.34110464731E+03  0.16680340571E+04  0.17156428887E+04  0.10100000352E+00 0. -1.
       -3    1    3    3    0  502  0.21151953905E+03 -0.34110464731E+03 -0.11730379157E+04  0.12398027495E+04  0.10100000352E+00 0.  1.
</event>
<event>
 5   0  0.2429358E-06  0.2799709E+04  0.7818609E-02  0.8303359E-01
       -1   -1    0    0    0  501  0.00000000000E+00  0.00000000000E+00  0.90950074546E+03  0.90950074548E+03  0.50400001928E-02 0.  1.
        1   -1    0    0  501    0  0.00000000000E+00  0.00000000000E+00 -0.21545809715E+04  0.21545809715E+04  0.50400001928E-02 0. -1.
    10030    2    1    2    0    0  0.00000000000E+00  0.00000000000E+00 -0.12450802261E+04  0.30640817170E+04  0.27997092705E+04 0.  0.
        2    1    3    3  502    0  0.85081645812E+03 -0.88956371535E+03  0.10702662767E+03  0.12355836467E+04  0.25500000920E-02 0.  1.
       -2    1    3    3    0  502 -0.85081645812E+03  0.88956371535E+03 -0.13521068537E+04  0.18284980703E+04  0.25500000920E-02 0. -1.
</event>
<event>
 5   0  0.2474769E-06  0.2908756E+04  0.7818609E-02  0.8270277E-01
       -1   -1    0    0    0  501  0.00000000000E+00  0.00000000000E+00  0.11372642343E+04  0.11372642343E+04  0.50400001928E-02 0.  1.
        1   -1    0    0  501    0  0.00000000000E+00  0.00000000000E+00 -0.18599158278E+04  0.18599158278E+04  0.50400001928E-02 0. -1.
    10030    2    1    2    0    0  0.00000000000E+00  0.00000000000E+00 -0.72265159357E+03  0.29971800621E+04  0.29087562633E+04 0.  0.
        1    1    3    3  502    0  0.14710068075E+03 -0.61011734448E+03 -0.17132055777E+04  0.18245424456E+04  0.50400001928E-02 0. -1.
       -1    1    3    3    0  502 -0.14710068075E+03  0.61011734448E+03  0.99055398410E+03  0.11726376165E+04  0.50400001928E-02 0.  1.
</event>
<event>
 5   0  0.6393633E-06  0.2846656E+04  0.7818609E-02  0.8288928E-01
       -2   -1    0    0    0  501  0.00000000000E+00  0.00000000000E+00  0.19425603486E+04  0.19425603486E+04  0.25500000920E-02 0.  1.
        2   -1    0    0  501    0  0.00000000000E+00  0.00000000000E+00 -0.10428830640E+04  0.10428830640E+04  0.25500000920E-02 0. -1.
    10030    2    1    2    0    0  0.00000000000E+00  0.00000000000E+00  0.89967728459E+03  0.29854434125E+04  0.28466564867E+04 0.  0.
        4    1    3    3  502    0 -0.88741674306E+03  0.99610741989E+03  0.97013413549E+03  0.16495151777E+04  0.12699999809E+01 0.  1.
       -4    1    3    3    0  502  0.88741674306E+03 -0.99610741989E+03 -0.70456850901E+02  0.13359282348E+04  0.12699999809E+01 0. -1.
</event>
<event>
 5   0  0.6393633E-06  0.2715666E+04  0.7818609E-02  0.8329940E-01
        2   -1    0    0  501    0  0.00000000000E+00  0.00000000000E+00  0.24645805666E+04  0.24645805666E+04  0.25500000920E-02 0.  1.
       -2   -1    0    0    0  501  0.00000000000E+00  0.00000000000E+00 -0.74808283342E+03  0.74808283342E+03  0.25500000920E-02 0. -1.
    10030    2    1    2    0    0  0.00000000000E+00  0.00000000000E+00  0.17164977332E+04  0.32126634001E+04  0.27156659688E+04 0.  0.
        4    1    3    3  502    0 -0.11013868699E+04  0.79304598290E+03  0.80898908906E+03  0.15800126351E+04  0.12699999809E+01 0.  1.
       -4    1    3    3    0  502  0.11013868699E+04 -0.79304598290E+03  0.90750864416E+03  0.16326507649E+04  0.12699999809E+01 0. -1.
</event>
<event>
 5   0  0.6393633E-06  0.2906068E+04  0.7818609E-02  0.8271074E-01
       -2   -1    0    0    0  501  0.00000000000E+00  0.00000000000E+00  0.11265139382E+04  0.11265139382E+04  0.25500000920E-02 0.  1.
        2   -1    0    0  501    0  0.00000000000E+00  0.00000000000E+00 -0.18741963129E+04  0.18741963129E+04  0.25500000920E-02 0. -1.
    10030    2    1    2    0    0  0.00000000000E+00  0.00000000000E+00 -0.74768237477E+03  0.30007102511E+04  0.29060683195E+04 0.  0.
        4    1    3    3  502    0 -0.45703674076E+03 -0.97095429331E+03 -0.13853731641E+04  0.17523969980E+04  0.12699999809E+01 0. -1.
       -4    1    3    3    0  502  0.45703674076E+03  0.97095429331E+03  0.63769078929E+03  0.12483132531E+04  0.12699999809E+01 0.  1.
</event>
<event>
 5   0  0.2474769E-06  0.2947838E+04  0.7818609E-02  0.8258785E-01
        1   -1    0    0  501    0  0.00000000000E+00  0.00000000000E+00  0.15120298115E+04  0.15120298115E+04  0.50400001928E-02 0.  1.
       -1   -1    0    0    0  501  0.00000000000E+00  0.00000000000E+00 -0.14367688054E+04  0.14367688054E+04  0.50400001928E-02 0. -1.
    10030    2    1    2    0    0  0.00000000000E+00  0.00000000000E+00  0.75261006100E+02  0.29487986169E+04  0.29478380321E+04 0.  0.
        1    1    3    3  502    0  0.14099938884E+04 -0.24847203840E+03  0.38791049307E+03  0.14833393643E+04  0.50400001928E-02 0.  1.
       -1    1    3    3    0  502 -0.14099938884E+04  0.24847203840E+03 -0.31264948697E+03  0.14654592525E+04  0.50400001928E-02 0. -1.
</event>
<event>
 5   0  0.6612533E-06  0.2919796E+04  0.7818609E-02  0.8267012E-01
       -2   -1    0    0    0  501  0.00000000000E+00  0.00000000000E+00  0.10417438596E+04  0.10417438596E+04  0.25500000920E-02 0. -1.
        2   -1    0    0  501    0  0.00000000000E+00  0.00000000000E+00 -0.20458987400E+04  0.20458987400E+04  0.25500000920E-02 0.  1.
    10030    2    1    2    0    0  0.00000000000E+00  0.00000000000E+00 -0.10041548804E+04  0.30876425996E+04  0.29197961914E+04 0.  0.
        3    1    3    3  502    0  0.60074867743E+03  0.35568020468E+03 -0.18579270841E+04  0.19847671000E+04  0.10100000352E+00 0.  1.
       -3    1    3    3    0  502 -0.60074867743E+03 -0.35568020468E+03  0.85377220373E+03  0.11028754995E+04  0.10100000352E+00 0. -1.
</event>
<event>
 5   0  0.6513041E-06  0.2864482E+04  0.7818609E-02  0.8283524E-01
        2   -1    0    0  501    0  0.00000000000E+00  0.00000000000E+00  0.12272244029E+04  0.12272244029E+04  0.25500000920E-02 0.  1.
       -2   -1    0    0    0  501  0.00000000000E+00  0.00000000000E+00 -0.16715069751E+04  0.16715069751E+04  0.25500000920E-02 0. -1.
    10030    2    1    2    0    0  0.00000000000E+00  0.00000000000E+00 -0.44428257219E+03  0.28987313781E+04  0.28644819075E+04 0.  0.
        1    1    3    3  502    0  0.12981814695E+04  0.60528453355E+02 -0.83131506152E+03  0.15427324956E+04  0.50400001928E-02 0. -1.
       -1    1    3    3    0  502 -0.12981814695E+04 -0.60528453355E+02  0.38703248933E+03  0.13559988825E+04  0.50400001928E-02 0.  1.
</event>
<event>
 5   0  0.2429358E-06  0.2836804E+04  0.7818609E-02  0.8291933E-01
       -1   -1    0    0    0  501  0.00000000000E+00  0.00000000000E+00  0.14245172025E+04  0.14245172025E+04  0.50400001928E-02 0.  1.
        1   -1    0    0  501    0  0.00000000000E+00  0.00000000000E+00 -0.14123126367E+04  0.14123126367E+04  0.50400001928E-02 0. -1.
    10030    2    1    2    0    0  0.00000000000E+00  0.00000000000E+00  0.12204565789E+02  0.28368298392E+04  0.28368035859E+04 0.  0.
        2    1    3    3  502    0  0.12212952436E+04 -0.21438976371E+03  0.69483109958E+03  0.14213779581E+04  0.25500000920E-02 0.  1.
       -2    1    3    3    0  502 -0.12212952436E+04  0.21438976371E+03 -0.68262653379E+03  0.14154518810E+04  0.25500000920E-02 0. -1.
</event>
<event>
 5   0  0.2474769E-06  0.2907530E+04  0.7818609E-02  0.8270641E-01
        1   -1    0    0  501    0  0.00000000000E+00  0.00000000000E+00  0.13761074197E+04  0.13761074197E+04  0.50400001928E-02 0. -1.
       -1   -1    0    0    0  501  0.00000000000E+00  0.00000000000E+00 -0.15358048821E+04  0.15358048821E+04  0.50400001928E-02 0.  1.
    10030    2    1    2    0    0  0.00000000000E+00  0.00000000000E+00 -0.15969746239E+03  0.29119123017E+04  0.29075298749E+04 0.  0.
        1    1    3    3  502    0  0.48928395113E+03  0.10018978290E+03  0.12874913995E+04  0.13809673715E+04  0.50400001928E-02 0. -1.
       -1    1    3    3    0  502 -0.48928395113E+03 -0.10018978290E+03 -0.14471888619E+04  0.15309449302E+04  0.50400001928E-02 0.  1.
</event>
<event>
 5   0  0.2429358E-06  0.2987694E+04  0.7818609E-02  0.8247254E-01
        1   -1    0    0  501    0  0.00000000000E+00  0.00000000000E+00  0.20883705013E+04  0.20883705013E+04  0.50400001928E-02 0. -1.
       -1   -1    0    0    0  501  0.00000000000E+00  0.00000000000E+00 -0.10685743963E+04  0.10685743963E+04  0.50400001928E-02 0.  1.
    10030    2    1    2    0    0  0.00000000000E+00  0.00000000000E+00  0.10197961051E+04  0.31569448976E+04  0.29876942599E+04 0.  0.
        2    1    3    3  502    0  0.14876073390E+04 -0.12445081572E+03  0.45091802312E+03  0.15594199768E+04  0.25500000920E-02 0. -1.
       -2    1    3    3    0  502 -0.14876073390E+04  0.12445081572E+03  0.56887808194E+03  0.15975249208E+04  0.25500000920E-02 0.  1.
</event>
<event>
 5   0  0.6612533E-06  0.2940409E+04  0.7818609E-02  0.8260955E-01
        2   -1    0    0  501    0  0.00000000000E+00  0.00000000000E+00  0.13832637000E+04  0.13832637000E+04  0.25500000920E-02 0.  1.
       -2   -1    0    0    0  501  0.00000000000E+00  0.00000000000E+00 -0.15626096278E+04  0.15626096278E+04  0.25500000920E-02 0. -1.
    10030    2    1    2    0    0  0.00000000000E+00  0.00000000000E+00 -0.17934592784E+03  0.29458733279E+04  0.29404089345E+04 0.  0.
        3    1    3    3  502    0 -0.12634322619E+04  0.64745003935E+03  0.29320020419E+03  0.14496271947E+04  0.10100000352E+00 0. -1.
       -3    1    3    3    0  502  0.12634322619E+04 -0.64745003935E+03 -0.47254613203E+03  0.14962461331E+04  0.10100000352E+00 0.  1.
</event>
<event>
 5   0  0.2429358E-06  0.2906784E+04  0.7818609E-02  0.8270862E-01
        1   -1    0    0  501    0  0.00000000000E+00  0.00000000000E+00  0.26012265204E+04  0.26012265204E+04  0.50400001928E-02 0. -1.
       -1   -1    0    0    0  501  0.00000000000E+00  0.00000000000E+00 -0.81205833569E+03  0.81205833570E+03  0.50400001928E-02 0.  1.
    10030    2    1    2    0    0  0.00000000000E+00  0.00000000000E+00  0.17891681847E+04  0.34132848561E+04  0.29067835688E+04 0.  0.
        2    1    3    3  502    0 -0.24643162439E+03 -0.41162436004E+03 -0.71639882739E+03  0.86220092738E+03  0.25500000920E-02 0.  1.
       -2    1    3    3    0  502  0.24643162439E+03  0.41162436004E+03  0.25055670121E+04  0.25510839287E+04  0.25500000920E-02 0. -1.
</event>
<event>
 5   0  0.6393633E-06  0.2853551E+04  0.7818609E-02  0.8286833E-01
        2   -1    0    0  501    0  0.00000000000E+00  0.00000000000E+00  0.14761959765E+04  0.14761959765E+04  0.25500000920E-02 0. -1.
       -2   -1    0    0    0  501  0.00000000000E+00  0.00000000000E+00 -0.13790096619E+04  0.13790096619E+04  0.25500000920E-02 0.  1.
    10030    2    1    2    0    0  0.00000000000E+00  0.00000000000E+00  0.97186314625E+02  0.28552056384E+04  0.28535511311E+04 0.  0.
        4    1    3    3  502    0 -0.51370400851E+03  0.13179266082E+04  0.23542192842E+03  0.14339621509E+04  0.12699999809E+01 0. -1.
       -4    1    3    3    0  502  0.51370400851E+03 -0.13179266082E+04 -0.13823561379E+03  0.14212434875E+04  0.12699999809E+01 0.  1.
</event>
<event>
 5   0  0.2508094E-06  0.2899512E+04  0.7818609E-02  0.8273023E-01
       -1   -1    0    0    0  501  0.00000000000E+00  0.00000000000E+00  0.10235957013E+04  0.10235957013E+04  0.50400001928E-02 0. -1.
        1   -1    0    0  501    0  0.00000000000E+00  0.00000000000E+00 -0.20533427967E+04  0.20533427967E+04  0.50400001928E-02 0.  1.
    10030    2    1    2    0    0  0.00000000000E+00  0.00000000000E+00 -0.10297470954E+04  0.30769384980E+04  0.28995122762E+04 0.  0.
        3    1    3    3  502    0 -0.72080552265E+03  0.94285873522E+03 -0.13984389349E+04  0.18341686566E+04  0.10100000352E+00 0.  1.
       -3    1    3    3    0  502  0.72080552265E+03 -0.94285873522E+03  0.36869183942E+03  0.12427698414E+04  0.10100000352E+00 0. -1.
</event>
<event>
 5   0  0.2474769E-06  0.2911854E+04  0.7818609E-02  0.8269359E-01
        1   -1    0    0  501    0  0.00000000000E+00  0.00000000000E+00  0.81636577023E+03  0.81636577024E+03  0.50400001928E-02 0. -1.
       -1   -1    0    0    0  501  0.00000000000E+00  0.00000000000E+00 -0.25965360726E+04  0.25965360726E+04  0.50400001928E-02 0.  1.
    10030    2    1    2    0    0  0.00000000000E+00  0.00000000000E+00 -0.17801703023E+04  0.34129018428E+04  0.29118538225E+04 0.  0.
        1    1    3    3  502    0  0.21941832891E+03  0.10118085697E+03 -0.25728722377E+04  0.25841930114E+04  0.50400001928E-02 0.  1.
       -1    1    3    3    0  502 -0.21941832891E+03 -0.10118085697E+03  0.79270193535E+03  0.82870883138E+03  0.50400001928E-02 0. -1.
</event>
<event>
 5   0  0.6393633E-06  0.2842109E+04  0.7818609E-02  0.8290313E-01
        2   -1    0    0  501    0  0.00000000000E+00  0.00000000000E+00  0.15127713025E+04  0.15127713025E+04  0.25500000920E-02 0.  1.
       -2   -1    0    0    0  501  0.00000000000E+00  0.00000000000E+00 -0.13348981423E+04  0.13348981423E+04  0.25500000920E-02 0. -1.
    10030    2    1    2    0    0  0.00000000000E+00  0.00000000000E+00  0.17787316023E+03  0.28476694448E+04  0.28421087955E+04 0.  0.
        4    1    3    3  502    0  0.10456004638E+04  0.96171459735E+03  0.12391464904E+03  0.14260195475E+04  0.12699999809E+01 0. -1.
       -4    1    3    3    0  502 -0.10456004638E+04 -0.96171459735E+03  0.53958511193E+02  0.14216498973E+04  0.12699999809E+01 0.  1.
</event>
<event>
 5   0  0.6733688E-06  0.3086516E+04  0.7818609E-02  0.8219448E-01
       -2   -1    0    0    0  501  0.00000000000E+00  0.00000000000E+00  0.10062376342E+04  0.10062376342E+04  0.25500000920E-02 0.  1.
        2   -1    0    0  501    0  0.00000000000E+00  0.00000000000E+00 -0.23668811898E+04  0.23668811898E+04  0.25500000920E-02 0. -1.
    10030    2    1    2    0    0  0.00000000000E+00  0.00000000000E+00 -0.13606435556E+04  0.33731188240E+04  0.30865157889E+04 0.  0.
        5    1    3    3  502    0 -0.29123857545E+03 -0.14671396641E+04 -0.10954693745E+04  0.18540210199E+04  0.46999998093E+01 0. -1.
       -5    1    3    3    0  502  0.29123857545E+03  0.14671396641E+04 -0.26517418106E+03  0.15190978040E+04  0.46999998093E+01 0.  1.
</event>
<event>
 5   0  0.2429358E-06  0.2893402E+04  0.7818609E-02  0.8274843E-01
        1   -1    0    0  501    0  0.00000000000E+00  0.00000000000E+00  0.13016893384E+04  0.13016893384E+04  0.50400001928E-02 0.  1.
       -1   -1    0    0    0  501  0.00000000000E+00  0.00000000000E+00 -0.16078675325E+04  0.16078675325E+04  0.50400001928E-02 0. -1.
    10030    2    1    2    0    0  0.00000000000E+00  0.00000000000E+00 -0.30617819414E+03  0.29095568709E+04  0.28934021667E+04 0.  0.
        2    1    3    3  502    0  0.11691287941E+04 -0.78932473752E+03  0.16971464542E+03  0.14208091847E+04  0.25500000920E-02 0. -1.
       -2    1    3    3    0  502 -0.11691287941E+04  0.78932473752E+03 -0.47589283956E+03  0.14887476862E+04  0.25500000920E-02 0.  1.
</event>
<event>
 5   0  0.2336512E-06  0.2901444E+04  0.7818609E-02  0.8272448E-01
        1   -1    0    0  501    0  0.00000000000E+00  0.00000000000E+00  0.22140386739E+04  0.22140386739E+04  0.50400001928E-02 0. -1.
       -1   -1    0    0    0  501  0.00000000000E+00  0.00000000000E+00 -0.95056791694E+03  0.95056791695E+03  0.50400001928E-02 0.  1.
    10030    2    1    2    0    0  0.00000000000E+00  0.00000000000E+00  0.12634707570E+04  0.31646065909E+04  0.29014438684E+04 0.  0.
        4    1    3    3  502    0  0.19017988208E+03 -0.14363025690E+04  0.71232228761E+03  0.16144776590E+04  0.12699999809E+01 0. -1.
       -4    1    3    3    0  502 -0.19017988208E+03  0.14363025690E+04  0.55114846938E+03  0.15501289319E+04  0.12699999809E+01 0.  1.
</event>
<event>
 5   0  0.2474769E-06  0.2894420E+04  0.7818609E-02  0.8274540E-01
       -1   -1    0    0    0  501  0.00000000000E+00  0.00000000000E+00  0.34463148478E+04  0.34463148478E+04  0.50400001928E-02 0.  1.
        1   -1    0    0  501    0  0.00000000000E+00  0.00000000000E+00 -0.60772657785E+03  0.60772657788E+03  0.50400001928E-02 0. -1.
    10030    2    1    2    0    0  0.00000000000E+00  0.00000000000E+00  0.28385882699E+04  0.40540414256E+04  0.28944202381E+04 0.  0.
        1    1    3    3  502    0 -0.35144639467E+03 -0.29726752120E+03  0.33410493901E+04  0.33726093125E+04  0.50400001928E-02 0.  1.
       -1    1    3    3    0  502  0.35144639467E+03  0.29726752120E+03 -0.50246112021E+03  0.68143211315E+03  0.50400001928E-02 0. -1.
</event>
<event>
 5   0  0.2348684E-06  0.2798781E+04  0.7818609E-02  0.8303647E-01
        1   -1    0    0  501    0  0.00000000000E+00  0.00000000000E+00  0.20414186545E+04  0.20414186545E+04  0.50400001928E-02 0. -1.
       -1   -1    0    0    0  501  0.00000000000E+00  0.00000000000E+00 -0.95928099051E+03  0.95928099052E+03  0.50400001928E-02 0.  1.
    10030    2    1    2    0    0  0.00000000000E+00  0.00000000000E+00  0.10821376640E+04  0.30006996450E+04  0.27987812412E+04 0.  0.
        5    1    3    3  502    0  0.12663184665E+04 -0.57949341171E+02  0.11765818306E+04  0.17295338906E+04  0.46999998093E+01 0. -1.
       -5    1    3    3    0  502 -0.12663184665E+04  0.57949341171E+02 -0.94444166605E+02  0.12711657544E+04  0.46999998093E+01 0.  1.
</event>
<event>
 5   0  0.2508094E-06  0.2895228E+04  0.7818609E-02  0.8274299E-01
       -1   -1    0    0    0  501  0.00000000000E+00  0.00000000000E+00  0.91700012374E+03  0.91700012375E+03  0.50400001928E-02 0.  1.
        1   -1    0    0  501    0  0.00000000000E+00  0.00000000000E+00 -0.22852632419E+04  0.22852632419E+04  0.50400001928E-02 0. -1.
    10030    2    1    2    0    0  0.00000000000E+00  0.00000000000E+00 -0.13682631182E+04  0.32022633657E+04  0.28952282643E+04 0.  0.
        3    1    3    3  502    0  0.81306368474E+03 -0.16934705634E+03  0.62728758305E+03  0.10407885006E+04  0.10100000352E+00 0.  1.
       -3    1    3    3    0  502 -0.81306368474E+03  0.16934705634E+03 -0.19955507012E+04  0.21614748651E+04  0.10100000352E+00 0. -1.
</event>
<event>
 5   0  0.6513041E-06  0.2940719E+04  0.7818609E-02  0.8260864E-01
        2   -1    0    0  501    0  0.00000000000E+00  0.00000000000E+00  0.80934964541E+03  0.80934964541E+03  0.25500000920E-02 0. -1.
       -2   -1    0    0    0  501  0.00000000000E+00  0.00000000000E+00 -0.26712272833E+04  0.26712272833E+04  0.25500000920E-02 0.  1.
    10030    2    1    2    0    0  0.00000000000E+00  0.00000000000E+00 -0.18618776379E+04  0.34805769287E+04  0.29407188608E+04 0.  0.
        1    1    3    3  502    0  0.19276491767E+03  0.96818331692E+03  0.35879425737E+03  0.10503668730E+04  0.50400001928E-02 0. -1.
       -1    1    3    3    0  502 -0.19276491767E+03 -0.96818331692E+03 -0.22206718952E+04  0.24302100557E+04  0.50400001928E-02 0.  1.
</event>
<event>
 5   0  0.2348684E-06  0.2787567E+04  0.7818609E-02  0.8307139E-01
        1   -1    0    0  501    0  0.00000000000E+00  0.00000000000E+00  0.12862964735E+04  0.12862964736E+04  0.50400001928E-02 0.  1.
       -1   -1    0    0    0  501  0.00000000000E+00  0.00000000000E+00 -0.15102523627E+04  0.15102523627E+04  0.50400001928E-02 0. -1.
    10030    2    1    2    0    0  0.00000000000E+00  0.00000000000E+00 -0.22395588914E+03  0.27965488362E+04  0.27875668877E+04 0.  0.
        5    1    3    3  502    0  0.11478502317E+04  0.10970897714E+03 -0.89745282665E+03  0.14611775662E+04  0.46999998093E+01 0. -1.
       -5    1    3    3    0  502 -0.11478502317E+04 -0.10970897714E+03  0.67349693751E+03  0.13353712700E+04  0.46999998093E+01 0.  1.
</event>
<event>
 5   0  0.2474769E-06  0.2936068E+04  0.7818609E-02  0.8262227E-01
        1   -1    0    0  501    0  0.00000000000E+00  0.00000000000E+00  0.22857872423E+04  0.22857872423E+04  0.50400001928E-02 0.  1.
       -1   -1    0    0    0  501  0.00000000000E+00  0.00000000000E+00 -0.94283627713E+03  0.94283627714E+03  0.50400001928E-02 0. -1.
    10030    2    1    2    0    0  0.00000000000E+00  0.00000000000E+00  0.13429509652E+04  0.32286235195E+04  0.29360675291E+04 0.  0.
        1    1    3    3  502    0 -0.30961465003E+03 -0.66134142200E+03  0.20719073581E+04  0.21968235724E+04  0.50400001928E-02 0.  1.
       -1    1    3    3    0  502  0.30961465003E+03  0.66134142200E+03 -0.72895639287E+03  0.10317999470E+04  0.50400001928E-02 0. -1.
</event>
<event>
 5   0  0.2508094E-06  0.2906827E+04  0.7818609E-02  0.8270849E-01
       -1   -1    0    0    0  501  0.00000000000E+00  0.00000000000E+00  0.12708111257E+04  0.12708111257E+04  0.50400001928E-02 0.  1.
        1   -1    0    0  501    0  0.00000000000E+00  0.00000000000E+00 -0.16622543432E+04  0.16622543432E+04  0.50400001928E-02 0. -1.
    10030    2    1    2    0    0  0.00000000000E+00  0.00000000000E+00 -0.39144321744E+03  0.29330654689E+04  0.29068273517E+04 0.  0.
        3    1    3    3  502    0  0.11054803672E+04  0.76380287287E+03  0.36329141795E+03  0.13919275611E+04  0.10100000352E+00 0.  1.
       -3    1    3    3    0  502 -0.11054803672E+04 -0.76380287287E+03 -0.75473463538E+03  0.15411379078E+04  0.10100000352E+00 0. -1.
</event>
<event>
 5   0  0.2336512E-06  0.2907698E+04  0.7818609E-02  0.8270591E-01
        1   -1    0    0  501    0  0.00000000000E+00  0.00000000000E+00  0.15490386329E+04  0.15490386329E+04  0.50400001928E-02 0.  1.
       -1   -1    0    0    0  501  0.00000000000E+00  0.00000000000E+00 -0.13645091539E+04  0.13645091539E+04  0.50400001928E-02 0. -1.
    10030    2    1    2    0    0  0.00000000000E+00  0.00000000000E+00  0.18452947898E+03  0.29135477868E+04  0.29076983298E+04 0.  0.
        4    1    3    3  502    0 -0.11219487250E+04 -0.86783800639E+03  0.41191124216E+03  0.14770186970E+04  0.12699999809E+01 0. -1.
       -4    1    3    3    0  502  0.11219487250E+04  0.86783800639E+03 -0.22738176318E+03  0.14365290898E+04  0.12699999809E+01 0.  1.
</event>
<event>
 5   0  0.2508094E-06  0.2769604E+04  0.7818609E-02  0.8312768E-01
       -1   -1    0    0    0  501  0.00000000000E+00  0.00000000000E+00  0.65118560020E+03  0.65118560022E+03  0.50400001928E-02 0.  1.
        1   -1    0    0  501    0  0.00000000000E+00  0.00000000000E+00 -0.29448990984E+04  0.29448990984E+04  0.50400001928E-02 0. -1.
    10030    2    1    2    0    0  0.00000000000E+00  0.00000000000E+00 -0.22937134982E+04  0.35960846986E+04  0.27696035001E+04 0.  0.
        3    1    3    3  502    0 -0.44382265210E+03 -0.96575590237E+03  0.57441851501E+01  0.10628715893E+04  0.10100000352E+00 0.  1.
       -3    1    3    3    0  502  0.44382265210E+03  0.96575590237E+03 -0.22994576834E+04  0.25332131093E+04  0.10100000352E+00 0. -1.
</event>
<event>
 5   0  0.6513041E-06  0.2983140E+04  0.7818609E-02  0.8248562E-01
        2   -1    0    0  501    0  0.00000000000E+00  0.00000000000E+00  0.18692524395E+04  0.18692524395E+04  0.25500000920E-02 0.  1.
       -2   -1    0    0    0  501  0.00000000000E+00  0.00000000000E+00 -0.11901984888E+04  0.11901984888E+04  0.25500000920E-02 0. -1.
    10030    2    1    2    0    0  0.00000000000E+00  0.00000000000E+00  0.67905395070E+03  0.30594509284E+04  0.29831402439E+04 0.  0.
        1    1    3    3  502    0 -0.28711991761E+03  0.15383018901E+03  0.18323299416E+04  0.18610573847E+04  0.50400001928E-02 0.  1.
       -1    1    3    3    0  502  0.28711991761E+03 -0.15383018901E+03 -0.11532759909E+04  0.11983935436E+04  0.50400001928E-02 0. -1.
</event>
<event>
 5   0  0.6612533E-06  0.2806140E+04  0.7818609E-02  0.8301365E-01
       -2   -1    0    0    0  501  0.00000000000E+00  0.00000000000E+00  0.87273822546E+03  0.87273822547E+03  0.25500000920E-02 0.  1.
        2   -1    0    0  501    0  0.00000000000E+00  0.00000000000E+00 -0.22556656166E+04  0.22556656166E+04  0.25500000920E-02 0. -1.
    10030    2    1    2    0    0  0.00000000000E+00  0.00000000000E+00 -0.13829273911E+04  0.31284038421E+04  0.28061401301E+04 0.  0.
        3    1    3    3  502    0  0.38574467813E+03 -0.99780494868E+03  0.32064611273E+03  0.11167934510E+04  0.10100000352E+00 0.  1.
       -3    1    3    3    0  502 -0.38574467813E+03  0.99780494868E+03 -0.17035735039E+04  0.20116103911E+04  0.10100000352E+00 0. -1.
</event>
<event>
 5   0  0.2508094E-06  0.2919980E+04  0.7818609E-02  0.8266957E-01
        1   -1    0    0  501    0  0.00000000000E+00  0.00000000000E+00  0.20639600392E+04  0.20639600392E+04  0.50400001928E-02 0. -1.
       -1   -1    0    0    0  501  0.00000000000E+00  0.00000000000E+00 -0.10327580880E+04  0.10327580880E+04  0.50400001928E-02 0.  1.
    10030    2    1    2    0    0  0.00000000000E+00  0.00000000000E+00  0.10312019512E+04  0.30967181272E+04  0.29199804271E+04 0.  0.
        3    1    3    3  502    0  0.14334180179E+04 -0.27237441485E+03  0.57067059747E+03  0.15666971554E+04  0.10100000352E+00 0. -1.
       -3    1    3    3    0  502 -0.14334180179E+04  0.27237441485E+03  0.46053135376E+03  0.15300209717E+04  0.10100000352E+00 0.  1.
</event>
<event>
 5   0  0.2159500E-06  0.2902729E+04  0.7818609E-02  0.8272066E-01
       -4   -1    0    0    0  501  0.00000000000E+00  0.00000000000E+00  0.20168023867E+04  0.20168027866E+04  0.12699999809E+01 0.  1.
        4   -1    0    0  501    0  0.00000000000E+00  0.00000000000E+00 -0.10444536455E+04  0.10444544176E+04  0.12699999809E+01 0. -1.
    10030    2    1    2    0    0  0.00000000000E+00  0.00000000000E+00  0.97234874124E+03  0.30612572042E+04  0.29027286466E+04 0.  0.
        5    1    3    3  502    0 -0.11419864525E+04  0.52623065740E+03  0.12505943482E+04  0.17734317230E+04  0.46999998093E+01 0.  1.
       -5    1    3    3    0  502  0.11419864525E+04 -0.52623065740E+03 -0.27824560692E+03  0.12878254813E+04  0.46999998093E+01 0. -1.
</event>
<event>
 5   0  0.2336512E-06  0.2780196E+04  0.7818609E-02  0.8309443E-01
       -1   -1    0    0    0  501  0.00000000000E+00  0.00000000000E+00  0.21268167544E+04  0.21268167544E+04  0.50400001928E-02 0. -1.
        1   -1    0    0  501    0  0.00000000000E+00  0.00000000000E+00 -0.90857473325E+03  0.90857473327E+03  0.50400001928E-02 0.  1.
    10030    2    1    2    0    0  0.00000000000E+00  0.00000000000E+00  0.12182420211E+04  0.30353914876E+04  0.27801956516E+04 0.  0.
        4    1    3    3  502    0  0.36057642663E+03  0.89261921232E+03  0.17039567029E+04  0.19571035935E+04  0.12699999809E+01 0. -1.
       -4    1    3    3    0  502 -0.36057642663E+03 -0.89261921232E+03 -0.48571468175E+03  0.10782878941E+04  0.12699999809E+01 0.  1.
</event>
<event>
 5   0  0.2429358E-06  0.2861778E+04  0.7818609E-02  0.8284341E-01
       -1   -1    0    0    0  501  0.00000000000E+00  0.00000000000E+00  0.13182835331E+04  0.13182835331E+04  0.50400001928E-02 0.  1.
        1   -1    0    0  501    0  0.00000000000E+00  0.00000000000E+00 -0.15531125899E+04  0.15531125899E+04  0.50400001928E-02 0. -1.
    10030    2    1    2    0    0  0.00000000000E+00  0.00000000000E+00 -0.23482905676E+03  0.28713961231E+04  0.28617775961E+04 0.  0.
        2    1    3    3  502    0  0.74857568375E+03  0.13117760689E+03  0.10990421279E+04  0.13362135749E+04  0.25500000920E-02 0.  1.
       -2    1    3    3    0  502 -0.74857568375E+03 -0.13117760689E+03 -0.13338711847E+04  0.15351825481E+04  0.25500000920E-02 0. -1.
</event>
<event>
 5   0  0.2474769E-06  0.2900754E+04  0.7818609E-02  0.8272653E-01
        1   -1    0    0  501    0  0.00000000000E+00  0.00000000000E+00  0.11973830452E+04  0.11973830452E+04  0.50400001928E-02 0.  1.
       -1   -1    0    0    0  501  0.00000000000E+00  0.00000000000E+00 -0.17568253417E+04  0.17568253417E+04  0.50400001928E-02 0. -1.
    10030    2    1    2    0    0  0.00000000000E+00  0.00000000000E+00 -0.55944229646E+03  0.29542083869E+04  0.29007536107E+04 0.  0.
        1    1    3    3  502    0  0.13643492043E+04  0.46421931340E+03 -0.11348153391E+03  0.14456231808E+04  0.50400001928E-02 0. -1.
       -1    1    3    3    0  502 -0.13643492043E+04 -0.46421931340E+03 -0.44596076255E+03  0.15085852061E+04  0.50400001928E-02 0.  1.
</event>
<event>
 5   0  0.2348684E-06  0.2890366E+04  0.7818609E-02  0.8275750E-01
       -1   -1    0    0    0  501  0.00000000000E+00  0.00000000000E+00  0.11420039068E+04  0.11420039068E+04  0.50400001928E-02 0.  1.
        1   -1    0    0  501    0  0.00000000000E+00  0.00000000000E+00 -0.18288501474E+04  0.18288501474E+04  0.50400001928E-02 0. -1.
    10030    2    1    2    0    0  0.00000000000E+00  0.00000000000E+00 -0.68684624060E+03  0.29708540542E+04  0.28903660760E+04 0.  0.
        5    1    3    3  502    0  0.86463531370E+03 -0.90802169456E+03  0.39522229300E+03  0.13146559909E+04  0.46999998093E+01 0.  1.
       -5    1    3    3    0  502 -0.86463531370E+03  0.90802169456E+03 -0.10820685336E+04  0.16561980633E+04  0.46999998093E+01 0. -1.
</event>
<event>
 5   0  0.6733688E-06  0.2909354E+04  0.7818609E-02  0.8270100E-01
       -2   -1    0    0    0  501  0.00000000000E+00  0.00000000000E+00  0.88851249430E+03  0.88851249431E+03  0.25500000920E-02 0.  1.
        2   -1    0    0  501    0  0.00000000000E+00  0.00000000000E+00 -0.23816041767E+04  0.23816041767E+04  0.25500000920E-02 0. -1.
    10030    2    1    2    0    0  0.00000000000E+00  0.00000000000E+00 -0.14930916824E+04  0.32701166710E+04  0.29093539265E+04 0.  0.
        5    1    3    3  502    0  0.86970251784E+03 -0.92778066441E+03  0.47370948369E+02  0.12725665120E+04  0.46999998093E+01 0.  1.
       -5    1    3    3    0  502 -0.86970251784E+03  0.92778066441E+03 -0.15404626307E+04  0.19975501589E+04  0.46999998093E+01 0. -1.
</event>
<event>
 5   0  0.6393633E-06  0.2904000E+04  0.7818609E-02  0.8271688E-01
       -2   -1    0    0    0  501  0.00000000000E+00  0.00000000000E+00  0.16091644916E+04  0.16091644916E+04  0.25500000920E-02 0.  1.
        2   -1    0    0  501    0  0.00000000000E+00  0.00000000000E+00 -0.13101851188E+04  0.13101851188E+04  0.25500000920E-02 0. -1.
    10030    2    1    2    0    0  0.00000000000E+00  0.00000000000E+00  0.29897937284E+03  0.29193496104E+04  0.29039995665E+04 0.  0.
        4    1    3    3  502    0 -0.39939129767E+03 -0.11645569010E+04  0.92336102436E+03  0.15389292961E+04  0.12699999809E+01 0.  1.
       -4    1    3    3    0  502  0.39939129767E+03  0.11645569010E+04 -0.62438165152E+03  0.13804203142E+04  0.12699999809E+01 0. -1.
</event>
<event>
 5   0  0.2348684E-06  0.2883964E+04  0.7818609E-02  0.8277665E-01
        1   -1    0    0  501    0  0.00000000000E+00  0.00000000000E+00  0.23969108476E+04  0.23969108476E+04  0.50400001928E-02 0. -1.
       -1   -1    0    0    0  501  0.00000000000E+00  0.00000000000E+00 -0.86749691726E+03  0.86749691727E+03  0.50400001928E-02 0.  1.
    10030    2    1    2    0    0  0.00000000000E+00  0.00000000000E+00  0.15294139303E+04  0.32644077649E+04  0.28839644736E+04 0.  0.
        5    1    3    3  502    0  0.10558450350E+04  0.87688810195E+03  0.26416266799E+03  0.13976929157E+04  0.46999998093E+01 0.  1.
       -5    1    3    3    0  502 -0.10558450350E+04 -0.87688810195E+03  0.12652512623E+04  0.18667148492E+04  0.46999998093E+01 0. -1.
</event>
<event>
 5   0  0.2159500E-06  0.2880043E+04  0.7818609E-02  0.8278840E-01
        3   -1    0    0  501    0  0.00000000000E+00  0.00000000000E+00  0.31183689927E+04  0.31183689944E+04  0.10100000352E+00 0.  1.
       -3   -1    0    0    0  501  0.00000000000E+00  0.00000000000E+00 -0.66498265779E+03  0.66498266546E+03  0.10100000352E+00 0. -1.
    10030    2    1    2    0    0  0.00000000000E+00  0.00000000000E+00  0.24533863350E+04  0.37833516598E+04  0.28800425819E+04 0.  0.
        1    1    3    3  502    0 -0.14599772930E+03 -0.10351542282E+04  0.25276665399E+04  0.27353167549E+04  0.50400001928E-02 0.  1.
       -1    1    3    3    0  502  0.14599772930E+03  0.10351542282E+04 -0.74280204931E+02  0.10480349049E+04  0.50400001928E-02 0. -1.
</event>
<event>
 5   0  0.6513041E-06  0.2918873E+04  0.7818609E-02  0.8267284E-01
       -2   -1    0    0    0  501  0.00000000000E+00  0.00000000000E+00  0.11097723575E+04  0.11097723575E+04  0.25500000920E-02 0. -1.
        2   -1    0    0  501    0  0.00000000000E+00  0.00000000000E+00 -0.19192714774E+04  0.19192714774E+04  0.25500000920E-02 0.  1.
    10030    2    1    2    0    0  0.00000000000E+00  0.00000000000E+00 -0.80949911998E+03  0.30290438349E+04  0.29188726811E+04 0.  0.
        1    1    3    3  502    0 -0.30347554842E+03 -0.13972815632E+03 -0.18790528139E+04  0.19085232102E+04  0.50400001928E-02 0.  1.
       -1    1    3    3    0  502  0.30347554842E+03  0.13972815632E+03  0.10695536940E+04  0.11205206247E+04  0.50400001928E-02 0. -1.
</event>
<event>
 5   0  0.6393633E-06  0.2869626E+04  0.7818609E-02  0.8281972E-01
        2   -1    0    0  501    0  0.00000000000E+00  0.00000000000E+00  0.15753422838E+04  0.15753422838E+04  0.25500000920E-02 0.  1.
       -2   -1    0    0    0  501  0.00000000000E+00  0.00000000000E+00 -0.13068199517E+04  0.13068199517E+04  0.25500000920E-02 0. -1.
    10030    2    1    2    0    0  0.00000000000E+00  0.00000000000E+00  0.26852233211E+03  0.28821622355E+04  0.28696262664E+04 0.  0.
        4    1    3    3  502    0  0.66917802121E+02  0.45029149094E+03 -0.12323617250E+04  0.13137569993E+04  0.12699999809E+01 0. -1.
       -4    1    3    3    0  502 -0.66917802121E+02 -0.45029149094E+03  0.15008840571E+04  0.15684052362E+04  0.12699999809E+01 0.  1.
</event>
<event>
 5   0  0.6393633E-06  0.2911695E+04  0.7818609E-02  0.8269406E-01
        2   -1    0    0  501    0  0.00000000000E+00  0.00000000000E+00  0.29073805511E+04  0.29073805511E+04  0.25500000920E-02 0. -1.
       -2   -1    0    0    0  501  0.00000000000E+00  0.00000000000E+00 -0.72900419908E+03  0.72900419909E+03  0.25500000920E-02 0.  1.
    10030    2    1    2    0    0  0.00000000000E+00  0.00000000000E+00  0.21783763520E+04  0.36363847502E+04  0.29116954718E+04 0.  0.
        4    1    3    3  502    0 -0.26507363973E+03 -0.12396340387E+04  0.19832867463E+04  0.23538021402E+04  0.12699999809E+01 0. -1.
       -4    1    3    3    0  502  0.26507363973E+03  0.12396340387E+04  0.19508960573E+03  0.12825826100E+04  0.12699999809E+01 0.  1.
</event>
<event>
 5   0  0.2474769E-06  0.2921259E+04  0.7818609E-02  0.8266580E-01
       -1   -1    0    0    0  501  0.00000000000E+00  0.00000000000E+00  0.10214587711E+04  0.10214587712E+04  0.50400001928E-02 0. -1.
        1   -1    0    0  501    0  0.00000000000E+00  0.00000000000E+00 -0.20886197534E+04  0.20886197534E+04  0.50400001928E-02 0.  1.
    10030    2    1    2    0    0  0.00000000000E+00  0.00000000000E+00 -0.10671609822E+04  0.31100785245E+04  0.29212592947E+04 0.  0.
        1    1    3    3  502    0 -0.35332731301E+03  0.54992127640E+03  0.85705834466E+03  0.10778694756E+04  0.50400001928E-02 0. -1.
       -1    1    3    3    0  502  0.35332731301E+03 -0.54992127640E+03 -0.19242193269E+04  0.20322090489E+04  0.50400001928E-02 0.  1.
</event>
<event>
 5   0  0.2508094E-06  0.2856822E+04  0.7818609E-02  0.8285841E-01
       -1   -1    0    0    0  501  0.00000000000E+00  0.00000000000E+00  0.15203569961E+04  0.15203569962E+04  0.50400001928E-02 0.  1.
        1   -1    0    0  501    0  0.00000000000E+00  0.00000000000E+00 -0.13420258073E+04  0.13420258073E+04  0.50400001928E-02 0. -1.
    10030    2    1    2    0    0  0.00000000000E+00  0.00000000000E+00  0.17833118885E+03  0.28623828035E+04  0.28568222382E+04 0.  0.
        3    1    3    3  502    0 -0.13822958996E+04  0.21811083453E+03  0.37615639409E+03  0.14490714038E+04  0.10100000352E+00 0.  1.
       -3    1    3    3    0  502  0.13822958996E+04 -0.21811083453E+03 -0.19782520524E+03  0.14133113996E+04  0.10100000352E+00 0. -1.
</event>
<event>
 5   0  0.2508094E-06  0.2856037E+04  0.7818609E-02  0.8286079E-01
       -1   -1    0    0    0  501  0.00000000000E+00  0.00000000000E+00  0.17736022680E+04  0.17736022680E+04  0.50400001928E-02 0. -1.
        1   -1    0    0  501    0  0.00000000000E+00  0.00000000000E+00 -0.11497713355E+04  0.11497713355E+04  0.50400001928E-02 0.  1.
    10030    2    1    2    0    0  0.00000000000E+00  0.00000000000E+00  0.62383093252E+03  0.29233736034E+04  0.28560371484E+04 0.  0.
        3    1    3    3  502    0 -0.63755093543E+03  0.46173639866E+03  0.15314614011E+04  0.17219308146E+04  0.10100000352E+00 0. -1.
       -3    1    3    3    0  502  0.63755093543E+03 -0.46173639866E+03 -0.90763046858E+03  0.12014427888E+04  0.10100000352E+00 0.  1.
</event>
<event>
 5   0  0.6393633E-06  0.2826671E+04  0.7818609E-02  0.8295036E-01
       -2   -1    0    0    0  501  0.00000000000E+00  0.00000000000E+00  0.11890210654E+04  0.11890210654E+04  0.25500000920E-02 0. -1.
        2   -1    0    0  501    0  0.00000000000E+00  0.00000000000E+00 -0.16799678710E+04  0.16799678710E+04  0.25500000920E-02 0.  1.
    10030    2    1    2    0    0  0.00000000000E+00  0.00000000000E+00 -0.49094680557E+03  0.28689889364E+04  0.28266709663E+04 0.  0.
        4    1    3    3  502    0  0.12923123079E+04  0.51857471311E+03 -0.49101403191E+03  0.14765118444E+04  0.12699999809E+01 0. -1.
       -4    1    3    3    0  502 -0.12923123079E+04 -0.51857471311E+03  0.67226341638E-01  0.13924770920E+04  0.12699999809E+01 0.  1.
</event>
<event>
 5   0  0.2336512E-06  0.2860110E+04  0.7818609E-02  0.8284846E-01
       -1   -1    0    0    0  501  0.00000000000E+00  0.00000000000E+00  0.15704447598E+04  0.15704447598E+04  0.50400001928E-02 0. -1.
        1   -1    0    0  501    0  0.00000000000E+00  0.00000000000E+00 -0.13022156888E+04  0.13022156888E+04  0.50400001928E-02 0.  1.
    10030    2    1    2    0    0  0.00000000000E+00  0.00000000000E+00  0.26822907098E+03  0.28726604487E+04  0.28601103508E+04 0.  0.
        4    1    3    3  502    0 -0.27212550305E+03  0.55167660451E+03 -0.11625409391E+04  0.13152575464E+04  0.12699999809E+01 0.  1.
       -4    1    3    3    0  502  0.27212550305E+03 -0.55167660451E+03  0.14307700101E+04  0.15574029023E+04  0.12699999809E+01 0. -1.
</event>
<event>
 5   0  0.6513041E-06  0.2875053E+04  0.7818609E-02  0.8280339E-01
       -2   -1    0    0    0  501  0.00000000000E+00  0.00000000000E+00  0.23955246497E+04  0.23955246497E+04  0.25500000920E-02 0. -1.
        2   -1    0    0  501    0  0.00000000000E+00  0.00000000000E+00 -0.86264315039E+03  0.86264315039E+03  0.25500000920E-02 0.  1.
    10030    2    1    2    0    0  0.00000000000E+00  0.00000000000E+00  0.15328814993E+04  0.32581678000E+04  0.28750533425E+04 0.  0.
        1    1    3    3  502    0  0.10625110829E+04 -0.63428181129E+03  0.15955308034E+04  0.20191487716E+04  0.50400001928E-02 0. -1.
       -1    1    3    3    0  502 -0.10625110829E+04  0.63428181129E+03 -0.62649304123E+02  0.12390190284E+04  0.50400001928E-02 0.  1.
</event>
<event>
 5   0  0.2348684E-06  0.2875118E+04  0.7818609E-02  0.8280319E-01
        1   -1    0    0  501    0  0.00000000000E+00  0.00000000000E+00  0.16075252775E+04  0.16075252775E+04  0.50400001928E-02 0.  1.
       -1   -1    0    0    0  501  0.00000000000E+00  0.00000000000E+00 -0.12855636996E+04  0.12855636996E+04  0.50400001928E-02 0. -1.
    10030    2    1    2    0    0  0.00000000000E+00  0.00000000000E+00  0.32196157791E+03  0.28930889771E+04  0.28751181839E+04 0.  0.
        5    1    3    3  502    0 -0.52504222866E+03  0.48761340951E+03  0.14150118628E+04  0.15861011446E+04  0.46999998093E+01 0.  1.
       -5    1    3    3    0  502  0.52504222866E+03 -0.48761340951E+03 -0.10930502849E+04  0.13069878325E+04  0.46999998093E+01 0. -1.
</event>
<event>
 5   0  0.6612533E-06  0.2898747E+04  0.7818609E-02  0.8273251E-01
       -2   -1    0    0    0  501  0.00000000000E+00  0.00000000000E+00  0.10916410168E+04  0.10916410168E+04  0.25500000920E-02 0. -1.
        2   -1    0    0  501    0  0.00000000000E+00  0.00000000000E+00 -0.19243348531E+04  0.19243348531E+04  0.25500000920E-02 0.  1.
    10030    2    1    2    0    0  0.00000000000E+00  0.00000000000E+00 -0.83269383622E+03  0.30159758699E+04  0.28987465262E+04 0.  0.
        3    1    3    3  502    0  0.76758129867E+01  0.80685764277E+03 -0.16690334590E+04  0.18538475858E+04  0.10100000352E+00 0.  1.
       -3    1    3    3    0  502 -0.76758129867E+01 -0.80685764277E+03  0.83633962282E+03  0.11621282841E+04  0.10100000352E+00 0. -1.
</event>
<event>
 5   0  0.6513041E-06  0.2908858E+04  0.7818609E-02  0.8270247E-01
       -2   -1    0    0    0  501  0.00000000000E+00  0.00000000000E+00  0.96122750420E+03  0.96122750421E+03  0.25500000920E-02 0. -1.
        2   -1    0    0  501    0  0.00000000000E+00  0.00000000000E+00 -0.22006895286E+04  0.22006895286E+04  0.25500000920E-02 0.  1.
    10030    2    1    2    0    0  0.00000000000E+00  0.00000000000E+00 -0.12394620244E+04  0.31619170328E+04  0.29088577161E+04 0.  0.
        1    1    3    3  502    0 -0.13815184174E+03 -0.35322652760E+03  0.90652471421E+03  0.98267083435E+03  0.50400001928E-02 0. -1.
       -1    1    3    3    0  502  0.13815184174E+03  0.35322652760E+03 -0.21459867386E+04  0.21792461985E+04  0.50400001928E-02 0.  1.
</event>
<event>
 5   0  0.2348684E-06  0.2893742E+04  0.7818609E-02  0.8274742E-01
        1   -1    0    0  501    0  0.00000000000E+00  0.00000000000E+00  0.16425399312E+04  0.16425399312E+04  0.50400001928E-02 0.  1.
       -1   -1    0    0    0  501  0.00000000000E+00  0.00000000000E+00 -0.12745113369E+04  0.12745113369E+04  0.50400001928E-02 0. -1.
    10030    2    1    2    0    0  0.00000000000E+00  0.00000000000E+00  0.36802859432E+03  0.29170512681E+04  0.28937420504E+04 0.  0.
        5    1    3    3  502    0 -0.88758142639E+03  0.67061481918E+03  0.11166088623E+04  0.15761860505E+04  0.46999998093E+01 0.  1.
       -5    1    3    3    0  502  0.88758142639E+03 -0.67061481918E+03 -0.74858026803E+03  0.13408652176E+04  0.46999998093E+01 0. -1.
</event>
<event>
 5   0  0.2429358E-06  0.2897994E+04  0.7818609E-02  0.8273475E-01
       -1   -1    0    0    0  501  0.00000000000E+00  0.00000000000E+00  0.22505466253E+04  0.22505466253E+04  0.50400001928E-02 0.  1.
        1   -1    0    0  501    0  0.00000000000E+00  0.00000000000E+00 -0.93292526082E+03  0.93292526083E+03  0.50400001928E-02 0. -1.
    10030    2    1    2    0    0  0.00000000000E+00  0.00000000000E+00  0.13176213645E+04  0.31834718861E+04  0.28979936490E+04 0.  0.
        2    1    3    3  502    0  0.14292453035E+03 -0.13568082036E+04  0.11949864342E+04  0.18136561143E+04  0.25500000920E-02 0.  1.
       -2    1    3    3    0  502 -0.14292453035E+03  0.13568082036E+04  0.12263493023E+03  0.13698157719E+04  0.25500000920E-02 0. -1.
</event>
<event>
 5   0  0.6615403E-06  0.2901221E+04  0.7818609E-02  0.8272514E-01
       -2   -1    0    0    0  501  0.00000000000E+00  0.00000000000E+00  0.11210955942E+04  0.11210955942E+04  0.25500000920E-02 0.  1.
        2   -1    0    0  501    0  0.00000000000E+00  0.00000000000E+00 -0.18769767611E+04  0.18769767611E+04  0.25500000920E-02 0. -1.
    10030    2    1    2    0    0  0.00000000000E+00  0.00000000000E+00 -0.75588116686E+03  0.29980723553E+04  0.29012206930E+04 0.  0.
        2    1    3    3  502    0  0.98820072138E+03  0.93627968146E+02 -0.14710642739E+04  0.17746371348E+04  0.25500000920E-02 0. -1.
       -2    1    3    3    0  502 -0.98820072138E+03 -0.93627968146E+02  0.71518310707E+03  0.12234352205E+04  0.25500000920E-02 0.  1.
</event>
<event>
 5   0  0.6615403E-06  0.2905014E+04  0.7818609E-02  0.8271387E-01
       -2   -1    0    0    0  501  0.00000000000E+00  0.00000000000E+00  0.15028765095E+04  0.15028765095E+04  0.25500000920E-02 0.  1.
        2   -1    0    0  501    0  0.00000000000E+00  0.00000000000E+00 -0.14038254762E+04  0.14038254762E+04  0.25500000920E-02 0. -1.
    10030    2    1    2    0    0  0.00000000000E+00  0.00000000000E+00  0.99051033262E+02  0.29067019857E+04  0.29050138255E+04 0.  0.
        2    1    3    3  502    0 -0.55421483943E+03 -0.41066760449E+03  0.13285384104E+04  0.14969356291E+04  0.25500000920E-02 0.  1.
       -2    1    3    3    0  502  0.55421483943E+03  0.41066760449E+03 -0.12294873772E+04  0.14097663566E+04  0.25500000920E-02 0. -1.
</event>
<event>
 5   0  0.2508094E-06  0.2908295E+04  0.7818609E-02  0.8270414E-01
       -1   -1    0    0    0  501  0.00000000000E+00  0.00000000000E+00  0.14834777668E+04  0.14834777668E+04  0.50400001928E-02 0. -1.
        1   -1    0    0  501    0  0.00000000000E+00  0.00000000000E+00 -0.14253974895E+04  0.14253974895E+04  0.50400001928E-02 0.  1.
    10030    2    1    2    0    0  0.00000000000E+00  0.00000000000E+00  0.58080277287E+02  0.29088752563E+04  0.29082953664E+04 0.  0.
        3    1    3    3  502    0  0.34251225068E+03 -0.24604182347E+03  0.14209692504E+04  0.14822296858E+04  0.10100000352E+00 0. -1.
       -3    1    3    3    0  502 -0.34251225068E+03  0.24604182347E+03 -0.13628889731E+04  0.14266455705E+04  0.10100000352E+00 0.  1.
</event>
<event>
 5   0  0.2429358E-06  0.2893199E+04  0.7818609E-02  0.8274904E-01
       -1   -1    0    0    0  501  0.00000000000E+00  0.00000000000E+00  0.93564121003E+03  0.93564121005E+03  0.50400001928E-02 0. -1.
        1   -1    0    0  501    0  0.00000000000E+00  0.00000000000E+00 -0.22365952306E+04  0.22365952306E+04  0.50400001928E-02 0.  1.
    10030    2    1    2    0    0  0.00000000000E+00  0.00000000000E+00 -0.13009540205E+04  0.31722364406E+04  0.28931993833E+04 0.  0.
        2    1    3    3  502    0 -0.26832025957E+03  0.23981681249E+03 -0.21867313826E+04  0.22161457544E+04  0.25500000920E-02 0.  1.
       -2    1    3    3    0  502  0.26832025957E+03 -0.23981681249E+03  0.88577736201E+03  0.95609068624E+03  0.25500000920E-02 0. -1.
</event>
<event>
 5   0  0.6513041E-06  0.2909710E+04  0.7818609E-02  0.8269994E-01
       -2   -1    0    0    0  501  0.00000000000E+00  0.00000000000E+00  0.18791127678E+04  0.18791127678E+04  0.25500000920E-02 0. -1.
        2   -1    0    0  501    0  0.00000000000E+00  0.00000000000E+00 -0.11263841199E+04  0.11263841199E+04  0.25500000920E-02 0.  1.
    10030    2    1    2    0    0  0.00000000000E+00  0.00000000000E+00  0.75272864792E+03  0.30054968877E+04  0.29097098007E+04 0.  0.
        1    1    3    3  502    0  0.99742475480E+03  0.64891657655E+02  0.14683006419E+04  0.17762246040E+04  0.50400001928E-02 0. -1.
       -1    1    3    3    0  502 -0.99742475480E+03 -0.64891657655E+02 -0.71557199403E+03  0.12292722837E+04  0.50400001928E-02 0.  1.
</event>
<event>
 5   0  0.2336512E-06  0.2877819E+04  0.7818609E-02  0.8279508E-01
        1   -1    0    0  501    0  0.00000000000E+00  0.00000000000E+00  0.11471544700E+04  0.11471544700E+04  0.50400001928E-02 0.  1.
       -1   -1    0    0    0  501  0.00000000000E+00  0.00000000000E+00 -0.18048670055E+04  0.18048670055E+04  0.50400001928E-02 0. -1.
    10030    2    1    2    0    0  0.00000000000E+00  0.00000000000E+00 -0.65771253554E+03  0.29520214755E+04  0.28778194892E+04 0.  0.
        4    1    3    3  502    0  0.33494498294E+02 -0.14284581822E+04 -0.15463904400E+03  0.14371950134E+04  0.12699999809E+01 0.  1.
       -4    1    3    3    0  502 -0.33494498294E+02  0.14284581822E+04 -0.50307349154E+03  0.15148264622E+04  0.12699999809E+01 0. -1.
</event>
<event>
 5   0  0.6513041E-06  0.3011526E+04  0.7818609E-02  0.8240447E-01
       -2   -1    0    0    0  501  0.00000000000E+00  0.00000000000E+00  0.15875300625E+04  0.15875300625E+04  0.25500000920E-02 0. -1.
        2   -1    0    0  501    0  0.00000000000E+00  0.00000000000E+00 -0.14282073803E+04  0.14282073803E+04  0.25500000920E-02 0.  1.
    10030    2    1    2    0    0  0.00000000000E+00  0.00000000000E+00  0.15932268219E+03  0.30157374428E+04  0.30115259598E+04 0.  0.
        1    1    3    3  502    0 -0.68556099584E+03  0.93907023461E+01 -0.12628252772E+04  0.14369445866E+04  0.50400001928E-02 0.  1.
       -1    1    3    3    0  502  0.68556099584E+03 -0.93907023461E+01  0.14221479594E+04  0.15787928562E+04  0.50400001928E-02 0. -1.
</event>
<event>
 5   0  0.2474769E-06  0.2899405E+04  0.7818609E-02  0.8273054E-01
        1   -1    0    0  501    0  0.00000000000E+00  0.00000000000E+00  0.14391658474E+04  0.14391658474E+04  0.50400001928E-02 0. -1.
       -1   -1    0    0    0  501  0.00000000000E+00  0.00000000000E+00 -0.14603167213E+04  0.14603167213E+04  0.50400001928E-02 0.  1.
    10030    2    1    2    0    0  0.00000000000E+00  0.00000000000E+00 -0.21150873928E+02  0.28994825687E+04  0.28994054230E+04 0.  0.
        1    1    3    3  502    0 -0.67652887948E+03 -0.10054282021E+04  0.78509688624E+03  0.14439370884E+04  0.50400001928E-02 0. -1.
       -1    1    3    3    0  502  0.67652887948E+03  0.10054282021E+04 -0.80624776017E+03  0.14555454803E+04  0.50400001928E-02 0.  1.
</event>
<event>
 5   0  0.6393633E-06  0.2870550E+04  0.7818609E-02  0.8281694E-01
        2   -1    0    0  501    0  0.00000000000E+00  0.00000000000E+00  0.67489318435E+03  0.67489318435E+03  0.25500000920E-02 0. -1.
       -2   -1    0    0    0  501  0.00000000000E+00  0.00000000000E+00 -0.30523551829E+04  0.30523551829E+04  0.25500000920E-02 0.  1.
    10030    2    1    2    0    0  0.00000000000E+00  0.00000000000E+00 -0.23774619985E+04  0.37272483672E+04  0.28705495705E+04 0.  0.
        4    1    3    3  502    0 -0.22905069426E+03 -0.58714850308E+03  0.48560987429E+03  0.79562940375E+03  0.12699999809E+01 0. -1.
       -4    1    3    3    0  502  0.22905069426E+03  0.58714850308E+03 -0.28630718728E+04  0.29316189635E+04  0.12699999809E+01 0.  1.
</event>
<event>
 5   0  0.2159500E-06  0.2416796E+04  0.7818609E-02  0.8433242E-01
       -3   -1    0    0    0  501  0.00000000000E+00  0.00000000000E+00  0.22209143735E+04  0.22209143758E+04  0.10100000352E+00 0. -1.
        3   -1    0    0  501    0  0.00000000000E+00  0.00000000000E+00 -0.65748832513E+03  0.65748833289E+03  0.10100000352E+00 0.  1.
    10030    2    1    2    0    0  0.00000000000E+00  0.00000000000E+00  0.15634260484E+04  0.28784027087E+04  0.24167956357E+04 0.  0.
        1    1    3    3  502    0  0.10650670336E+03  0.12028461214E+04  0.83554326471E+03  0.14684396538E+04  0.50400001928E-02 0. -1.
       -1    1    3    3    0  502 -0.10650670336E+03 -0.12028461214E+04  0.72788278367E+03  0.14099630549E+04  0.50400001928E-02 0.  1.
</event>
<event>
 5   0  0.6612533E-06  0.2860362E+04  0.7818609E-02  0.8284770E-01
       -2   -1    0    0    0  501  0.00000000000E+00  0.00000000000E+00  0.18715673167E+04  0.18715673167E+04  0.25500000920E-02 0.  1.
        2   -1    0    0  501    0  0.00000000000E+00  0.00000000000E+00 -0.10928902675E+04  0.10928902675E+04  0.25500000920E-02 0. -1.
    10030    2    1    2    0    0  0.00000000000E+00  0.00000000000E+00  0.77867704926E+03  0.29644575842E+04  0.28603620088E+04 0.  0.
        3    1    3    3  502    0  0.74797796652E+03  0.71754853961E+03  0.14106299274E+04  0.17504924300E+04  0.10100000352E+00 0.  1.
       -3    1    3    3    0  502 -0.74797796652E+03 -0.71754853961E+03 -0.63195287818E+03  0.12139651542E+04  0.10100000352E+00 0. -1.
</event>
<event>
 5   0  0.6615403E-06  0.2842906E+04  0.7818609E-02  0.8290070E-01
       -2   -1    0    0    0  501  0.00000000000E+00  0.00000000000E+00  0.81497427972E+03  0.81497427972E+03  0.25500000920E-02 0. -1.
        2   -1    0    0  501    0  0.00000000000E+00  0.00000000000E+00 -0.24792536560E+04  0.24792536560E+04  0.25500000920E-02 0.  1.
    10030    2    1    2    0    0  0.00000000000E+00  0.00000000000E+00 -0.16642793763E+04  0.32942279358E+04  0.28429055296E+04 0.  0.
        2    1    3    3  502    0  0.15074314938E+03 -0.49280187913E+03 -0.23671937920E+04  0.24226398077E+04  0.25500000920E-02 0.  1.
       -2    1    3    3    0  502 -0.15074314938E+03  0.49280187913E+03  0.70291441567E+03  0.87158812803E+03  0.25500000920E-02 0. -1.
</event>
<event>
 5   0  0.6513041E-06  0.2910783E+04  0.7818609E-02  0.8269676E-01
       -2   -1    0    0    0  501  0.00000000000E+00  0.00000000000E+00  0.14571472037E+04  0.14571472037E+04  0.25500000920E-02 0.  1.
        2   -1    0    0  501    0  0.00000000000E+00  0.00000000000E+00 -0.14536379088E+04  0.14536379088E+04  0.25500000920E-02 0. -1.
    10030    2    1    2    0    0  0.00000000000E+00  0.00000000000E+00  0.35092948836E+01  0.29107851126E+04  0.29107829971E+04 0.  0.
        1    1    3    3  502    0 -0.47248308841E+03 -0.11450515633E+04  0.76581086994E+03  0.14563137162E+04  0.50400001928E-02 0.  1.
       -1    1    3    3    0  502  0.47248308841E+03  0.11450515633E+04 -0.76230157506E+03  0.14544713964E+04  0.50400001928E-02 0. -1.
</event>
<event>
 5   0  0.2336512E-06  0.2873327E+04  0.7818609E-02  0.8280858E-01
       -1   -1    0    0    0  501  0.00000000000E+00  0.00000000000E+00  0.74228214759E+03  0.74228214760E+03  0.50400001928E-02 0.  1.
        1   -1    0    0  501    0  0.00000000000E+00  0.00000000000E+00 -0.27806167567E+04  0.27806167567E+04  0.50400001928E-02 0. -1.
    10030    2    1    2    0    0  0.00000000000E+00  0.00000000000E+00 -0.20383346091E+04  0.35228989043E+04  0.28733271153E+04 0.  0.
        4    1    3    3  502    0 -0.69623002986E+03  0.29628194425E+03  0.47818507972E+03  0.89508760931E+03  0.12699999809E+01 0.  1.
       -4    1    3    3    0  502  0.69623002986E+03 -0.29628194425E+03 -0.25165196889E+04  0.26278112950E+04  0.12699999809E+01 0. -1.
</event>
<event>
 5   0  0.6615403E-06  0.2906801E+04  0.7818609E-02  0.8270857E-01
       -2   -1    0    0    0  501  0.00000000000E+00  0.00000000000E+00  0.12194374768E+04  0.12194374768E+04  0.25500000920E-02 0. -1.
        2   -1    0    0  501    0  0.00000000000E+00  0.00000000000E+00 -0.17322515007E+04  0.17322515007E+04  0.25500000920E-02 0.  1.
    10030    2    1    2    0    0  0.00000000000E+00  0.00000000000E+00 -0.51281402387E+03  0.29516889775E+04  0.29068005774E+04 0.  0.
        2    1    3    3  502    0 -0.53408981247E+03 -0.59511608573E+03  0.97598943238E+03  0.12617331158E+04  0.25500000920E-02 0. -1.
       -2    1    3    3    0  502  0.53408981247E+03  0.59511608573E+03 -0.14888034562E+04  0.16899558617E+04  0.25500000920E-02 0.  1.
</event>
<event>
 5   0  0.2348684E-06  0.2937814E+04  0.7818609E-02  0.8261715E-01
       -1   -1    0    0    0  501  0.00000000000E+00  0.00000000000E+00  0.11532102432E+04  0.11532102432E+04  0.50400001928E-02 0.  1.
        1   -1    0    0  501    0  0.00000000000E+00  0.00000000000E+00 -0.18710270770E+04  0.18710270771E+04  0.50400001928E-02 0. -1.
    10030    2    1    2    0    0  0.00000000000E+00  0.00000000000E+00 -0.71781683387E+03  0.30242373202E+04  0.29378138747E+04 0.  0.
        5    1    3    3  502    0  0.62795904407E+03  0.10299758418E+03  0.10039426916E+04  0.11886395928E+04  0.46999998093E+01 0.  1.
       -5    1    3    3    0  502 -0.62795904407E+03 -0.10299758418E+03 -0.17217595255E+04  0.18355977275E+04  0.46999998093E+01 0. -1.
</event>
<event>
 5   0  0.2336512E-06  0.2830977E+04  0.7818609E-02  0.8293715E-01
        1   -1    0    0  501    0  0.00000000000E+00  0.00000000000E+00  0.16204357728E+04  0.16204357729E+04  0.50400001928E-02 0.  1.
       -1   -1    0    0    0  501  0.00000000000E+00  0.00000000000E+00 -0.12364625537E+04  0.12364625537E+04  0.50400001928E-02 0. -1.
    10030    2    1    2    0    0  0.00000000000E+00  0.00000000000E+00  0.38397321916E+03  0.28568983266E+04  0.28309773251E+04 0.  0.
        4    1    3    3  502    0 -0.90945021473E+02  0.53099638118E+03 -0.11289593048E+04  0.12509112193E+04  0.12699999809E+01 0. -1.
       -4    1    3    3    0  502  0.90945021473E+02 -0.53099638118E+03  0.15129325240E+04  0.16059871073E+04  0.12699999809E+01 0.  1.
</event>
<event>
 5   0  0.2429358E-06  0.2865589E+04  0.7818609E-02  0.8283190E-01
       -1   -1    0    0    0  501  0.00000000000E+00  0.00000000000E+00  0.13341927346E+04  0.13341927346E+04  0.50400001928E-02 0. -1.
        1   -1    0    0  501    0  0.00000000000E+00  0.00000000000E+00 -0.15386833824E+04  0.15386833824E+04  0.50400001928E-02 0.  1.
    10030    2    1    2    0    0  0.00000000000E+00  0.00000000000E+00 -0.20449064784E+03  0.28728761170E+04  0.28655890771E+04 0.  0.
        2    1    3    3  502    0  0.13159141679E+04 -0.30226109046E+02  0.46519440414E+03  0.13960478318E+04  0.25500000920E-02 0.  1.
       -2    1    3    3    0  502 -0.13159141679E+04  0.30226109046E+02 -0.66968505198E+03  0.14768282852E+04  0.25500000920E-02 0. -1.
</event>
<event>
 5   0  0.2348684E-06  0.2672740E+04  0.7818609E-02  0.8343904E-01
       -1   -1    0    0    0  501  0.00000000000E+00  0.00000000000E+00  0.91581248799E+03  0.91581248801E+03  0.50400001928E-02 0. -1.
        1   -1    0    0  501    0  0.00000000000E+00  0.00000000000E+00 -0.19500555286E+04  0.19500555286E+04  0.50400001928E-02 0.  1.
    10030    2    1    2    0    0  0.00000000000E+00  0.00000000000E+00 -0.10342430406E+04  0.28658680166E+04  0.26727403207E+04 0.  0.
        5    1    3    3  502    0  0.46478871654E+02 -0.11416129504E+04  0.22608785726E+03  0.11647223803E+04  0.46999998093E+01 0. -1.
       -5    1    3    3    0  502 -0.46478871654E+02  0.11416129504E+04 -0.12603308979E+04  0.17011456364E+04  0.46999998093E+01 0.  1.
</event>
<event>
 5   0  0.6513041E-06  0.2904936E+04  0.7818609E-02  0.8271410E-01
        2   -1    0    0  501    0  0.00000000000E+00  0.00000000000E+00  0.12469574667E+04  0.12469574667E+04  0.25500000920E-02 0. -1.
       -2   -1    0    0    0  501  0.00000000000E+00  0.00000000000E+00 -0.16918483577E+04  0.16918483577E+04  0.25500000920E-02 0.  1.
    10030    2    1    2    0    0  0.00000000000E+00  0.00000000000E+00 -0.44489089104E+03  0.29388058244E+04  0.29049357598E+04 0.  0.
        1    1    3    3  502    0  0.74795439747E+03 -0.34626082134E+03 -0.14323540766E+04  0.16525648362E+04  0.50400001928E-02 0.  1.
       -1    1    3    3    0  502 -0.74795439747E+03  0.34626082134E+03  0.98746318552E+03  0.12862409883E+04  0.50400001928E-02 0. -1.
</event>
<event>
 5   0  0.6393633E-06  0.2875221E+04  0.7818609E-02  0.8280288E-01
        2   -1    0    0  501    0  0.00000000000E+00  0.00000000000E+00  0.20403271781E+04  0.20403271781E+04  0.25500000920E-02 0. -1.
       -2   -1    0    0    0  501  0.00000000000E+00  0.00000000000E+00 -0.10129374294E+04  0.10129374294E+04  0.25500000920E-02 0.  1.
    10030    2    1    2    0    0  0.00000000000E+00  0.00000000000E+00  0.10273897488E+04  0.30532646075E+04  0.28752208728E+04 0.  0.
        4    1    3    3  502    0 -0.13217737127E+04  0.53979326427E+03  0.69221062074E+03  0.15867008767E+04  0.12699999809E+01 0. -1.
       -4    1    3    3    0  502  0.13217737127E+04 -0.53979326427E+03  0.33517912802E+03  0.14665637308E+04  0.12699999809E+01 0.  1.
</event>
<event>
 5   0  0.6612533E-06  0.2886898E+04  0.7818609E-02  0.8276786E-01
        2   -1    0    0  501    0  0.00000000000E+00  0.00000000000E+00  0.19810164064E+04  0.19810164064E+04  0.25500000920E-02 0. -1.
       -2   -1    0    0    0  501  0.00000000000E+00  0.00000000000E+00 -0.10517554010E+04  0.10517554010E+04  0.25500000920E-02 0.  1.
    10030    2    1    2    0    0  0.00000000000E+00  0.00000000000E+00  0.92926100542E+03  0.30327718075E+04  0.28868977848E+04 0.  0.
        3    1    3    3  502    0  0.93019397660E+03 -0.98069699157E+03 -0.67436875860E+02  0.13533569987E+04  0.10100000352E+00 0.  1.
       -3    1    3    3    0  502 -0.93019397660E+03  0.98069699157E+03  0.99669788128E+03  0.16794148088E+04  0.10100000352E+00 0. -1.
</event>
<event>
 5   0  0.2429358E-06  0.2810935E+04  0.7818609E-02  0.8299881E-01
        1   -1    0    0  501    0  0.00000000000E+00  0.00000000000E+00  0.16104814564E+04  0.16104814564E+04  0.50400001928E-02 0. -1.
       -1   -1    0    0    0  501  0.00000000000E+00  0.00000000000E+00 -0.12265520881E+04  0.12265520881E+04  0.50400001928E-02 0.  1.
    10030    2    1    2    0    0  0.00000000000E+00  0.00000000000E+00  0.38392936828E+03  0.28370335446E+04  0.28109353556E+04 0.  0.
        2    1    3    3  502    0 -0.30568336296E+03  0.55286504765E+03  0.14591041425E+04  0.15899959050E+04  0.25500000920E-02 0. -1.
       -2    1    3    3    0  502  0.30568336296E+03 -0.55286504765E+03 -0.10751747742E+04  0.12470376395E+04  0.25500000920E-02 0.  1.
</event>
<event>
 5   0  0.2429358E-06  0.2385024E+04  0.7818609E-02  0.8445132E-01
       -1   -1    0    0    0  501  0.00000000000E+00  0.00000000000E+00  0.84079637712E+03  0.84079637713E+03  0.50400001928E-02 0.  1.
        1   -1    0    0  501    0  0.00000000000E+00  0.00000000000E+00 -0.16913540747E+04  0.16913540747E+04  0.50400001928E-02 0. -1.
    10030    2    1    2    0    0  0.00000000000E+00  0.00000000000E+00 -0.85055769756E+03  0.25321504518E+04  0.23850235877E+04 0.  0.
        2    1    3    3  502    0 -0.81173597926E+02 -0.58603845686E+03 -0.15245509084E+04  0.16353243404E+04  0.25500000920E-02 0. -1.
       -2    1    3    3    0  502  0.81173597926E+02  0.58603845686E+03  0.67399321083E+03  0.89682611145E+03  0.25500000920E-02 0.  1.
</event>
<event>
 5   0  0.2159500E-06  0.2915664E+04  0.7818609E-02  0.8268232E-01
        3   -1    0    0  501    0  0.00000000000E+00  0.00000000000E+00  0.87340957456E+03  0.87340958040E+03  0.10100000352E+00 0.  1.
       -3   -1    0    0    0  501  0.00000000000E+00  0.00000000000E+00 -0.24333079620E+04  0.24333079641E+04  0.10100000352E+00 0. -1.
    10030    2    1    2    0    0  0.00000000000E+00  0.00000000000E+00 -0.15598983874E+04  0.33067175445E+04  0.29156642365E+04 0.  0.
        5    1    3    3  502    0 -0.68142655815E+03  0.42774691301E+03  0.59880995019E+03  0.10029481653E+04  0.46999998093E+01 0.  1.
       -5    1    3    3    0  502  0.68142655815E+03 -0.42774691301E+03 -0.21587083376E+04  0.23037693792E+04  0.46999998093E+01 0. -1.
</event>
<event>
 5   0  0.2159500E-06  0.2917476E+04  0.7818609E-02  0.8267697E-01
        3   -1    0    0  501    0  0.00000000000E+00  0.00000000000E+00  0.10192779036E+04  0.10192779086E+04  0.10100000352E+00 0.  1.
       -3   -1    0    0    0  501  0.00000000000E+00  0.00000000000E+00 -0.20876707865E+04  0.20876707889E+04  0.10100000352E+00 0. -1.
    10030    2    1    2    0    0  0.00000000000E+00  0.00000000000E+00 -0.10683928829E+04  0.31069486975E+04  0.29174761107E+04 0.  0.
        1    1    3    3  502    0  0.54826063016E+03  0.13508310440E+04 -0.58831494439E+03  0.15720841904E+04  0.50400001928E-02 0.  1.
       -1    1    3    3    0  502 -0.54826063016E+03 -0.13508310440E+04 -0.48007793851E+03  0.15348645071E+04  0.50400001928E-02 0. -1.
</event>
<event>
 5   0  0.2336512E-06  0.2914983E+04  0.7818609E-02  0.8268434E-01
        1   -1    0    0  501    0  0.00000000000E+00  0.00000000000E+00  0.10350256767E+04  0.10350256767E+04  0.50400001928E-02 0.  1.
       -1   -1    0    0    0  501  0.00000000000E+00  0.00000000000E+00 -0.20523945967E+04  0.20523945967E+04  0.50400001928E-02 0. -1.
    10030    2    1    2    0    0  0.00000000000E+00  0.00000000000E+00 -0.10173689201E+04  0.30874202734E+04  0.29149827487E+04 0.  0.
        4    1    3    3  502    0 -0.67748995568E+03 -0.52362121239E+03  0.74053901494E+03  0.11320651305E+04  0.12699999809E+01 0.  1.
       -4    1    3    3    0  502  0.67748995568E+03  0.52362121239E+03 -0.17579079350E+04  0.19553551429E+04  0.12699999809E+01 0. -1.
</event>
<event>
 5   0  0.2474769E-06  0.2908717E+04  0.7818609E-02  0.8270289E-01
        1   -1    0    0  501    0  0.00000000000E+00  0.00000000000E+00  0.17009247175E+04  0.17009247175E+04  0.50400001928E-02 0. -1.
       -1   -1    0    0    0  501  0.00000000000E+00  0.00000000000E+00 -0.12435341888E+04  0.12435341888E+04  0.50400001928E-02 0.  1.
    10030    2    1    2    0    0  0.00000000000E+00  0.00000000000E+00  0.45739052868E+03  0.29444589064E+04  0.29087165822E+04 0.  0.
        1    1    3    3  502    0  0.38388936967E+03 -0.13740769552E+04  0.51447532346E+03  0.15166223608E+04  0.50400001928E-02 0. -1.
       -1    1    3    3    0  502 -0.38388936967E+03  0.13740769552E+04 -0.57084794781E+02  0.14278365455E+04  0.50400001928E-02 0.  1.
</event>
<event>
 5   0  0.6393633E-06  0.2871905E+04  0.7818609E-02  0.8281286E-01
       -2   -1    0    0    0  501  0.00000000000E+00  0.00000000000E+00  0.94064255325E+03  0.94064255325E+03  0.25500000920E-02 0.  1.
        2   -1    0    0  501    0  0.00000000000E+00  0.00000000000E+00 -0.21920756359E+04  0.21920756359E+04  0.25500000920E-02 0. -1.
    10030    2    1    2    0    0  0.00000000000E+00  0.00000000000E+00 -0.12514330827E+04  0.31327181892E+04  0.28719050284E+04 0.  0.
        4    1    3    3  502    0 -0.52951547738E+03  0.97679316087E+03 -0.16179667839E+04  0.19627352462E+04  0.12699999809E+01 0. -1.
       -4    1    3    3    0  502  0.52951547738E+03 -0.97679316087E+03  0.36653370121E+03  0.11699829430E+04  0.12699999809E+01 0.  1.
</event>
<event>
 5   0  0.6733688E-06  0.2896996E+04  0.7818609E-02  0.8273772E-01
        2   -1    0    0  501    0  0.00000000000E+00  0.00000000000E+00  0.24577632451E+04  0.24577632451E+04  0.25500000920E-02 0.  1.
       -2   -1    0    0    0  501  0.00000000000E+00  0.00000000000E+00 -0.85368110361E+03  0.85368110362E+03  0.25500000920E-02 0. -1.
    10030    2    1    2    0    0  0.00000000000E+00  0.00000000000E+00  0.16040821415E+04  0.33114443487E+04  0.28969957125E+04 0.  0.
        5    1    3    3  502    0 -0.11739817755E+04 -0.72440433242E+03  0.29711170075E+03  0.14111315668E+04  0.46999998093E+01 0. -1.
       -5    1    3    3    0  502  0.11739817755E+04  0.72440433242E+03  0.13069704407E+04  0.19003127819E+04  0.46999998093E+01 0.  1.
</event>
<event>
 5   0  0.2348684E-06  0.2900843E+04  0.7818609E-02  0.8272627E-01
        1   -1    0    0  501    0  0.00000000000E+00  0.00000000000E+00  0.22400768431E+04  0.22400768431E+04  0.50400001928E-02 0.  1.
       -1   -1    0    0    0  501  0.00000000000E+00  0.00000000000E+00 -0.93912961414E+03  0.93912961416E+03  0.50400001928E-02 0. -1.
    10030    2    1    2    0    0  0.00000000000E+00  0.00000000000E+00  0.13009472289E+04  0.31792064572E+04  0.29008429818E+04 0.  0.
        5    1    3    3  502    0  0.14260947981E+04 -0.11774653789E+03  0.39091441827E+03  0.14833903036E+04  0.46999998093E+01 0. -1.
       -5    1    3    3    0  502 -0.14260947981E+04  0.11774653789E+03  0.91003281065E+03  0.16958161536E+04  0.46999998093E+01 0.  1.
</event>
<event>
 5   0  0.6513041E-06  0.3035809E+04  0.7818609E-02  0.8233579E-01
       -2   -1    0    0    0  501  0.00000000000E+00  0.00000000000E+00  0.13195799259E+04  0.13195799259E+04  0.25500000920E-02 0.  1.
        2   -1    0    0  501    0  0.00000000000E+00  0.00000000000E+00 -0.17460356152E+04  0.17460356152E+04  0.25500000920E-02 0. -1.
    10030    2    1    2    0    0  0.00000000000E+00  0.00000000000E+00 -0.42645568926E+03  0.30656155411E+04  0.30358086552E+04 0.  0.
        1    1    3    3  502    0 -0.54570967450E+03  0.13921142532E+04 -0.47704453868E+03  0.15695071311E+04  0.50400001928E-02 0.  1.
       -1    1    3    3    0  502  0.54570967450E+03 -0.13921142532E+04  0.50588849414E+02  0.14961084100E+04  0.50400001928E-02 0. -1.
</event>
<event>
 5   0  0.6615403E-06  0.2941082E+04  0.7818609E-02  0.8260758E-01
        2   -1    0    0  501    0  0.00000000000E+00  0.00000000000E+00  0.19993003339E+04  0.19993003339E+04  0.25500000920E-02 0. -1.
       -2   -1    0    0    0  501  0.00000000000E+00  0.00000000000E+00 -0.10816236901E+04  0.10816236901E+04  0.25500000920E-02 0.  1.
    10030    2    1    2    0    0  0.00000000000E+00  0.00000000000E+00  0.91767664378E+03  0.30809240241E+04  0.29410818451E+04 0.  0.
        2    1    3    3  502    0  0.22359587395E+03  0.41649961144E+02 -0.10630871489E+04  0.10871449399E+04  0.25500000920E-02 0.  1.
       -2    1    3    3    0  502 -0.22359587395E+03 -0.41649961144E+02  0.19807637927E+04  0.19937790842E+04  0.25500000920E-02 0. -1.
</event>
<event>
 5   0  0.6615403E-06  0.2908094E+04  0.7818609E-02  0.8270473E-01
        2   -1    0    0  501    0  0.00000000000E+00  0.00000000000E+00  0.18031636354E+04  0.18031636354E+04  0.25500000920E-02 0.  1.
       -2   -1    0    0    0  501  0.00000000000E+00  0.00000000000E+00 -0.11725242547E+04  0.11725242547E+04  0.25500000920E-02 0. -1.
    10030    2    1    2    0    0  0.00000000000E+00  0.00000000000E+00  0.63063938070E+03  0.29756878900E+04  0.29080942884E+04 0.  0.
        2    1    3    3  502    0 -0.47427729115E+03 -0.31162197003E+03 -0.10545297766E+04  0.11975308976E+04  0.25500000920E-02 0. -1.
       -2    1    3    3    0  502  0.47427729115E+03  0.31162197003E+03  0.16851691572E+04  0.17781569924E+04  0.25500000920E-02 0.  1.
</event>
<event>
 5   0  0.2336512E-06  0.2900118E+04  0.7818609E-02  0.8272842E-01
        1   -1    0    0  501    0  0.00000000000E+00  0.00000000000E+00  0.24709189684E+04  0.24709189684E+04  0.50400001928E-02 0. -1.
       -1   -1    0    0    0  501  0.00000000000E+00  0.00000000000E+00 -0.85096713715E+03  0.85096713717E+03  0.50400001928E-02 0.  1.
    10030    2    1    2    0    0  0.00000000000E+00  0.00000000000E+00  0.16199518312E+04  0.33218861055E+04  0.29001178188E+04 0.  0.
        4    1    3    3  502    0  0.64443414843E+03  0.35870348859E+03  0.22400256877E+04  0.23583214918E+04  0.12699999809E+01 0. -1.
       -4    1    3    3    0  502 -0.64443414843E+03 -0.35870348859E+03 -0.62007385648E+03  0.96356461371E+03  0.12699999809E+01 0.  1.
</event>
<event>
 5   0  0.2474769E-06  0.2904516E+04  0.7818609E-02  0.8271535E-01
        1   -1    0    0  501    0  0.00000000000E+00  0.00000000000E+00  0.13062092535E+04  0.13062092535E+04  0.50400001928E-02 0. -1.
       -1   -1    0    0    0  501  0.00000000000E+00  0.00000000000E+00 -0.16146362335E+04  0.16146362335E+04  0.50400001928E-02 0.  1.
    10030    2    1    2    0    0  0.00000000000E+00  0.00000000000E+00 -0.30842698000E+03  0.29208454871E+04  0.29045156493E+04 0.  0.
        1    1    3    3  502    0 -0.36987645699E+03  0.29471256106E+03  0.12266009268E+04  0.13146155030E+04  0.50400001928E-02 0. -1.
       -1    1    3    3    0  502  0.36987645699E+03 -0.29471256106E+03 -0.15350279068E+04  0.16062299841E+04  0.50400001928E-02 0.  1.
</event>
<event>
 5   0  0.6733688E-06  0.2685924E+04  0.7818609E-02  0.8339586E-01
       -2   -1    0    0    0  501  0.00000000000E+00  0.00000000000E+00  0.23468595361E+04  0.23468595361E+04  0.25500000920E-02 0. -1.
        2   -1    0    0  501    0  0.00000000000E+00  0.00000000000E+00 -0.76849404514E+03  0.76849404515E+03  0.25500000920E-02 0.  1.
    10030    2    1    2    0    0  0.00000000000E+00  0.00000000000E+00  0.15783654910E+04  0.31153535813E+04  0.26859244802E+04 0.  0.
        5    1    3    3  502    0 -0.23740700890E+03 -0.67120873140E+03  0.21099419003E+04  0.22268273758E+04  0.46999998093E+01 0. -1.
       -5    1    3    3    0  502  0.23740700890E+03  0.67120873140E+03 -0.53157640928E+03  0.88852620551E+03  0.46999998093E+01 0.  1.
</event>
<event>
 5   0  0.2348684E-06  0.2915555E+04  0.7818609E-02  0.8268265E-01
        1   -1    0    0  501    0  0.00000000000E+00  0.00000000000E+00  0.23995538957E+04  0.23995538957E+04  0.50400001928E-02 0. -1.
       -1   -1    0    0    0  501  0.00000000000E+00  0.00000000000E+00 -0.88562910759E+03  0.88562910760E+03  0.50400001928E-02 0.  1.
    10030    2    1    2    0    0  0.00000000000E+00  0.00000000000E+00  0.15139247881E+04  0.32851830033E+04  0.29155546816E+04 0.  0.
        5    1    3    3  502    0 -0.30832986892E+03  0.11532963886E+04 -0.18572251420E+03  0.12081700254E+04  0.46999998093E+01 0.  1.
       -5    1    3    3    0  502  0.30832986892E+03 -0.11532963886E+04  0.16996473023E+04  0.20770129779E+04  0.46999998093E+01 0. -1.
</event>
<event>
 5   0  0.6615403E-06  0.2619335E+04  0.7818609E-02  0.8361663E-01
       -2   -1    0    0    0  501  0.00000000000E+00  0.00000000000E+00  0.11413337690E+04  0.11413337690E+04  0.25500000920E-02 0. -1.
        2   -1    0    0  501    0  0.00000000000E+00  0.00000000000E+00 -0.15028283142E+04  0.15028283142E+04  0.25500000920E-02 0.  1.
    10030    2    1    2    0    0  0.00000000000E+00  0.00000000000E+00 -0.36149454517E+03  0.26441620831E+04  0.26193348041E+04 0.  0.
        2    1    3    3  502    0 -0.11474878048E+04  0.98487433555E+01  0.45642754252E+03  0.12349701865E+04  0.25500000920E-02 0. -1.
       -2    1    3    3    0  502  0.11474878048E+04 -0.98487433555E+01 -0.81792208769E+03  0.14091918966E+04  0.25500000920E-02 0.  1.
</event>
<event>
 5   0  0.6393633E-06  0.2918792E+04  0.7818609E-02  0.8267308E-01
        2   -1    0    0  501    0  0.00000000000E+00  0.00000000000E+00  0.15558160778E+04  0.15558160778E+04  0.25500000920E-02 0.  1.
       -2   -1    0    0    0  501  0.00000000000E+00  0.00000000000E+00 -0.13689515032E+04  0.13689515032E+04  0.25500000920E-02 0. -1.
    10030    2    1    2    0    0  0.00000000000E+00  0.00000000000E+00  0.18686457457E+03  0.29247675810E+04  0.29187920505E+04 0.  0.
        4    1    3    3  502    0 -0.22323392627E+03  0.10529916262E+04  0.10809499372E+04  0.15254766895E+04  0.12699999809E+01 0.  1.
       -4    1    3    3    0  502  0.22323392627E+03 -0.10529916262E+04 -0.89408536259E+03  0.13992908915E+04  0.12699999809E+01 0. -1.
</event>
<event>
 5   0  0.2336512E-06  0.2910864E+04  0.7818609E-02  0.8269653E-01
        1   -1    0    0  501    0  0.00000000000E+00  0.00000000000E+00  0.18049949803E+04  0.18049949803E+04  0.50400001928E-02 0. -1.
       -1   -1    0    0    0  501  0.00000000000E+00  0.00000000000E+00 -0.11735664900E+04  0.11735664901E+04  0.50400001928E-02 0.  1.
    10030    2    1    2    0    0  0.00000000000E+00  0.00000000000E+00  0.63142849023E+03  0.29785614703E+04  0.29108635307E+04 0.  0.
        4    1    3    3  502    0  0.59840562181E+03 -0.46831814167E+03  0.15859009388E+04  0.17585489958E+04  0.12699999809E+01 0. -1.
       -4    1    3    3    0  502 -0.59840562181E+03  0.46831814167E+03 -0.95447244857E+03  0.12200124745E+04  0.12699999809E+01 0.  1.
</event>
<event>
 5   0  0.6733688E-06  0.2868538E+04  0.7818609E-02  0.8282300E-01
        2   -1    0    0  501    0  0.00000000000E+00  0.00000000000E+00  0.18610046925E+04  0.18610046925E+04  0.25500000920E-02 0.  1.
       -2   -1    0    0    0  501  0.00000000000E+00  0.00000000000E+00 -0.11053856435E+04  0.11053856435E+04  0.25500000920E-02 0. -1.
    10030    2    1    2    0    0  0.00000000000E+00  0.00000000000E+00  0.75561904907E+03  0.29663903360E+04  0.28685382128E+04 0.  0.
        5    1    3    3  502    0  0.90399322648E+03  0.11078254464E+04  0.26161650947E+03  0.14535976958E+04  0.46999998093E+01 0. -1.
       -5    1    3    3    0  502 -0.90399322648E+03 -0.11078254464E+04  0.49400253959E+03  0.15127926402E+04  0.46999998093E+01 0.  1.
</event>
<event>
 5   0  0.6612533E-06  0.2883620E+04  0.7818609E-02  0.8277768E-01
       -2   -1    0    0    0  501  0.00000000000E+00  0.00000000000E+00  0.13862483553E+04  0.13862483553E+04  0.25500000920E-02 0. -1.
        2   -1    0    0  501    0  0.00000000000E+00  0.00000000000E+00 -0.14995981758E+04  0.14995981758E+04  0.25500000920E-02 0.  1.
    10030    2    1    2    0    0  0.00000000000E+00  0.00000000000E+00 -0.11334982045E+03  0.28858465311E+04  0.28836196038E+04 0.  0.
        3    1    3    3  502    0 -0.55371102999E+03 -0.42879737409E+03 -0.13179467353E+04  0.14924632994E+04  0.10100000352E+00 0.  1.
       -3    1    3    3    0  502  0.55371102999E+03  0.42879737409E+03  0.12045969149E+04  0.13933832317E+04  0.10100000352E+00 0. -1.
</event>
<event>
 5   0  0.6393633E-06  0.2881691E+04  0.7818609E-02  0.8278346E-01
        2   -1    0    0  501    0  0.00000000000E+00  0.00000000000E+00  0.18354194435E+04  0.18354194435E+04  0.25500000920E-02 0.  1.
       -2   -1    0    0    0  501  0.00000000000E+00  0.00000000000E+00 -0.11310959019E+04  0.11310959019E+04  0.25500000920E-02 0. -1.
    10030    2    1    2    0    0  0.00000000000E+00  0.00000000000E+00  0.70432354163E+03  0.29665153454E+04  0.28816907612E+04 0.  0.
        4    1    3    3  502    0 -0.56037232940E+03  0.28114106155E+03  0.16876443651E+04  0.18003340135E+04  0.12699999809E+01 0.  1.
       -4    1    3    3    0  502  0.56037232940E+03 -0.28114106155E+03 -0.98332082350E+03  0.11661813319E+04  0.12699999809E+01 0. -1.
</event>
<event>
 5   0  0.2429358E-06  0.2924992E+04  0.7818609E-02  0.8265480E-01
       -1   -1    0    0    0  501  0.00000000000E+00  0.00000000000E+00  0.25841312852E+04  0.25841312852E+04  0.50400001928E-02 0. -1.
        1   -1    0    0  501    0  0.00000000000E+00  0.00000000000E+00 -0.82770352327E+03  0.82770352329E+03  0.50400001928E-02 0.  1.
    10030    2    1    2    0    0  0.00000000000E+00  0.00000000000E+00  0.17564277619E+04  0.34118348084E+04  0.29249920132E+04 0.  0.
        2    1    3    3  502    0 -0.11788848589E+03 -0.14512347830E+04  0.71779314644E+03  0.16233320953E+04  0.25500000920E-02 0.  1.
       -2    1    3    3    0  502  0.11788848589E+03  0.14512347830E+04  0.10386346154E+04  0.17885027131E+04  0.25500000920E-02 0. -1.
</event>
<event>
 5   0  0.6733688E-06  0.2878119E+04  0.7818609E-02  0.8279418E-01
       -2   -1    0    0    0  501  0.00000000000E+00  0.00000000000E+00  0.17834393258E+04  0.17834393258E+04  0.25500000920E-02 0. -1.
        2   -1    0    0  501    0  0.00000000000E+00  0.00000000000E+00 -0.11611791002E+04  0.11611791002E+04  0.25500000920E-02 0.  1.
    10030    2    1    2    0    0  0.00000000000E+00  0.00000000000E+00  0.62226022561E+03  0.29446184260E+04  0.28781191578E+04 0.  0.
        5    1    3    3  502    0 -0.71922975761E+03 -0.43150676914E+03 -0.88523847356E+03  0.12194911976E+04  0.46999998093E+01 0.  1.
       -5    1    3    3    0  502  0.71922975761E+03  0.43150676914E+03  0.15074986992E+04  0.17251272284E+04  0.46999998093E+01 0. -1.
</event>
<event>
 5   0  0.2348684E-06  0.2909833E+04  0.7818609E-02  0.8269958E-01
       -1   -1    0    0    0  501  0.00000000000E+00  0.00000000000E+00  0.58652092452E+03  0.58652092454E+03  0.50400001928E-02 0.  1.
        1   -1    0    0  501    0  0.00000000000E+00  0.00000000000E+00 -0.36090488786E+04  0.36090488786E+04  0.50400001928E-02 0. -1.
    10030    2    1    2    0    0  0.00000000000E+00  0.00000000000E+00 -0.30225279540E+04  0.41955698031E+04  0.29098334557E+04 0.  0.
        5    1    3    3  502    0  0.49462889866E+03 -0.12069991098E+04 -0.24404031583E+04  0.27671455082E+04  0.46999998093E+01 0. -1.
       -5    1    3    3    0  502 -0.49462889866E+03  0.12069991098E+04 -0.58212479575E+03  0.14284242949E+04  0.46999998093E+01 0.  1.
</event>
<event>
 5   0  0.6393633E-06  0.2851300E+04  0.7818609E-02  0.8287516E-01
       -2   -1    0    0    0  501  0.00000000000E+00  0.00000000000E+00  0.83287218906E+03  0.83287218906E+03  0.25500000920E-02 0.  1.
        2   -1    0    0  501    0  0.00000000000E+00  0.00000000000E+00 -0.24403233539E+04  0.24403233539E+04  0.25500000920E-02 0. -1.
    10030    2    1    2    0    0  0.00000000000E+00  0.00000000000E+00 -0.16074511648E+04  0.32731955430E+04  0.28512996712E+04 0.  0.
        4    1    3    3  502    0 -0.44349198147E+03 -0.98704679151E+03 -0.18692517553E+04  0.21598727379E+04  0.12699999809E+01 0. -1.
       -4    1    3    3    0  502  0.44349198147E+03  0.98704679151E+03  0.26180059045E+03  0.11133228051E+04  0.12699999809E+01 0.  1.
</event>
<event>
 5   0  0.2474769E-06  0.2788177E+04  0.7818609E-02  0.8306948E-01
       -1   -1    0    0    0  501  0.00000000000E+00  0.00000000000E+00  0.11174641141E+04  0.11174641141E+04  0.50400001928E-02 0. -1.
        1   -1    0    0  501    0  0.00000000000E+00  0.00000000000E+00 -0.17391905128E+04  0.17391905128E+04  0.50400001928E-02 0.  1.
    10030    2    1    2    0    0  0.00000000000E+00  0.00000000000E+00 -0.62172639874E+03  0.28566546269E+04  0.27881771720E+04 0.  0.
        1    1    3    3  502    0  0.23465386904E+03  0.11632787212E+04 -0.10604064638E+04  0.15914589816E+04  0.50400001928E-02 0.  1.
       -1    1    3    3    0  502 -0.23465386904E+03 -0.11632787212E+04  0.43868006509E+03  0.12651956453E+04  0.50400001928E-02 0. -1.
</event>
<event>
 5   0  0.6733688E-06  0.2894019E+04  0.7818609E-02  0.8274659E-01
       -2   -1    0    0    0  501  0.00000000000E+00  0.00000000000E+00  0.12255849136E+04  0.12255849136E+04  0.25500000920E-02 0. -1.
        2   -1    0    0  501    0  0.00000000000E+00  0.00000000000E+00 -0.17084387609E+04  0.17084387609E+04  0.25500000920E-02 0.  1.
    10030    2    1    2    0    0  0.00000000000E+00  0.00000000000E+00 -0.48285384726E+03  0.29340236745E+04  0.28940191922E+04 0.  0.
        5    1    3    3  502    0 -0.18192393036E+03 -0.11571264099E+04  0.61989138145E+03  0.13252642226E+04  0.46999998093E+01 0.  1.
       -5    1    3    3    0  502  0.18192393036E+03  0.11571264099E+04 -0.11027452287E+04  0.16087594520E+04  0.46999998093E+01 0. -1.
</event>
<event>
 5   0  0.2348684E-06  0.2903345E+04  0.7818609E-02  0.8271883E-01
       -1   -1    0    0    0  501  0.00000000000E+00  0.00000000000E+00  0.12874867097E+04  0.12874867097E+04  0.50400001928E-02 0. -1.
        1   -1    0    0  501    0  0.00000000000E+00  0.00000000000E+00 -0.16367959121E+04  0.16367959121E+04  0.50400001928E-02 0.  1.
    10030    2    1    2    0    0  0.00000000000E+00  0.00000000000E+00 -0.34930920245E+03  0.29242826218E+04  0.29033449559E+04 0.  0.
        5    1    3    3  502    0 -0.18354627689E+03  0.14201842288E+04  0.65219158635E+02  0.14334880914E+04  0.46999998093E+01 0. -1.
       -5    1    3    3    0  502  0.18354627689E+03 -0.14201842288E+04 -0.41452836109E+03  0.14907945304E+04  0.46999998093E+01 0.  1.
</event>
<event>
 5   0  0.2348684E-06  0.2910091E+04  0.7818609E-02  0.8269882E-01
        1   -1    0    0  501    0  0.00000000000E+00  0.00000000000E+00  0.24445122427E+04  0.24445122427E+04  0.50400001928E-02 0.  1.
       -1   -1    0    0    0  501  0.00000000000E+00  0.00000000000E+00 -0.86608558075E+03  0.86608558077E+03  0.50400001928E-02 0. -1.
    10030    2    1    2    0    0  0.00000000000E+00  0.00000000000E+00  0.15784266620E+04  0.33105978235E+04  0.29100905865E+04 0.  0.
        5    1    3    3  502    0 -0.57469146248E+03  0.11993653992E+04  0.14606900133E+04  0.19754455302E+04  0.46999998093E+01 0.  1.
       -5    1    3    3    0  502  0.57469146248E+03 -0.11993653992E+04  0.11773664862E+03  0.13351522933E+04  0.46999998093E+01 0. -1.
</event>
<event>
 5   0  0.6733688E-06  0.2926831E+04  0.7818609E-02  0.8264939E-01
        2   -1    0    0  501    0  0.00000000000E+00  0.00000000000E+00  0.30225460487E+04  0.30225460487E+04  0.25500000920E-02 0. -1.
       -2   -1    0    0    0  501  0.00000000000E+00  0.00000000000E+00 -0.70853652173E+03  0.70853652174E+03  0.25500000920E-02 0.  1.
    10030    2    1    2    0    0  0.00000000000E+00  0.00000000000E+00  0.23140095270E+04  0.37310825705E+04  0.29268305480E+04 0.  0.
        5    1    3    3  502    0 -0.87642969705E+03  0.50330219210E+03  0.25061837527E+04  0.27022992437E+04  0.46999998093E+01 0. -1.
       -5    1    3    3    0  502  0.87642969705E+03 -0.50330219210E+03 -0.19217422565E+03  0.10287833268E+04  0.46999998093E+01 0.  1.
</event>
<event>
 5   0  0.2336512E-06  0.2839334E+04  0.7818609E-02  0.8291160E-01
       -1   -1    0    0    0  501  0.00000000000E+00  0.00000000000E+00  0.84567308187E+03  0.84567308188E+03  0.50400001928E-02 0.  1.
        1   -1    0    0  501    0  0.00000000000E+00  0.00000000000E+00 -0.23832546892E+04  0.23832546892E+04  0.50400001928E-02 0. -1.
    10030    2    1    2    0    0  0.00000000000E+00  0.00000000000E+00 -0.15375816073E+04  0.32289277711E+04  0.28393339627E+04 0.  0.
        4    1    3    3  502    0 -0.57916770879E+03 -0.12163612300E+04 -0.25960010152E+03  0.13719926029E+04  0.12699999809E+01 0. -1.
       -4    1    3    3    0  502  0.57916770879E+03  0.12163612300E+04 -0.12779815058E+04  0.18569351682E+04  0.12699999809E+01 0.  1.
</event>
<event>
 5   0  0.2336512E-06  0.2908298E+04  0.7818609E-02  0.8270413E-01
       -1   -1    0    0    0  501  0.00000000000E+00  0.00000000000E+00  0.10720775769E+04  0.10720775769E+04  0.50400001928E-02 0.  1.
        1   -1    0    0  501    0  0.00000000000E+00  0.00000000000E+00 -0.19723850151E+04  0.19723850151E+04  0.50400001928E-02 0. -1.
    10030    2    1    2    0    0  0.00000000000E+00  0.00000000000E+00 -0.90030743816E+03  0.30444625920E+04  0.29082982982E+04 0.  0.
        4    1    3    3  502    0  0.82296774641E+02  0.13366193384E+04 -0.10434556571E+04  0.16976823425E+04  0.12699999809E+01 0. -1.
       -4    1    3    3    0  502 -0.82296774641E+02 -0.13366193384E+04  0.14314821893E+03  0.13467802495E+04  0.12699999809E+01 0.  1.
</event>
<event>
 5   0  0.2348684E-06  0.2873409E+04  0.7818609E-02  0.8280833E-01
       -1   -1    0    0    0  501  0.00000000000E+00  0.00000000000E+00  0.70126761896E+03  0.70126761898E+03  0.50400001928E-02 0.  1.
        1   -1    0    0  501    0  0.00000000000E+00  0.00000000000E+00 -0.29434133675E+04  0.29434133675E+04  0.50400001928E-02 0. -1.
    10030    2    1    2    0    0  0.00000000000E+00  0.00000000000E+00 -0.22421457485E+04  0.36446809865E+04  0.28734094619E+04 0.  0.
        5    1    3    3  502    0 -0.10677130088E+04  0.87446580544E+03 -0.61466329562E+03  0.15108059342E+04  0.46999998093E+01 0.  1.
       -5    1    3    3    0  502  0.10677130088E+04 -0.87446580544E+03 -0.16274824529E+04  0.21338750522E+04  0.46999998093E+01 0. -1.
</event>
<event>
 5   0  0.2336512E-06  0.2881614E+04  0.7818609E-02  0.8278369E-01
        1   -1    0    0  501    0  0.00000000000E+00  0.00000000000E+00  0.16451316317E+04  0.16451316317E+04  0.50400001928E-02 0. -1.
       -1   -1    0    0    0  501  0.00000000000E+00  0.00000000000E+00 -0.12618591766E+04  0.12618591766E+04  0.50400001928E-02 0.  1.
    10030    2    1    2    0    0  0.00000000000E+00  0.00000000000E+00  0.38327245509E+03  0.29069908083E+04  0.28816137467E+04 0.  0.
        4    1    3    3  502    0 -0.24974127208E+03  0.29202448245E+03 -0.12092157422E+04  0.12687999548E+04  0.12699999809E+01 0.  1.
       -4    1    3    3    0  502  0.24974127208E+03 -0.29202448245E+03  0.15924881972E+04  0.16381908535E+04  0.12699999809E+01 0. -1.
</event>
<event>
 5   0  0.2336512E-06  0.2896797E+04  0.7818609E-02  0.8273831E-01
        1   -1    0    0  501    0  0.00000000000E+00  0.00000000000E+00  0.12780829135E+04  0.12780829135E+04  0.50400001928E-02 0. -1.
       -1   -1    0    0    0  501  0.00000000000E+00  0.00000000000E+00 -0.16414096449E+04  0.16414096449E+04  0.50400001928E-02 0.  1.
    10030    2    1    2    0    0  0.00000000000E+00  0.00000000000E+00 -0.36332673144E+03  0.29194925584E+04  0.28967965902E+04 0.  0.
        4    1    3    3  502    0 -0.66893954826E+01  0.19807076645E+03 -0.16276795892E+04  0.16397009589E+04  0.12699999809E+01 0.  1.
       -4    1    3    3    0  502  0.66893954826E+01 -0.19807076645E+03  0.12643528577E+04  0.12797915996E+04  0.12699999809E+01 0. -1.
</event>
<event>
 5   0  0.2336512E-06  0.2925727E+04  0.7818609E-02  0.8265264E-01
       -1   -1    0    0    0  501  0.00000000000E+00  0.00000000000E+00  0.13035269504E+04  0.13035269504E+04  0.50400001928E-02 0.  1.
        1   -1    0    0  501    0  0.00000000000E+00  0.00000000000E+00 -0.16416765016E+04  0.16416765016E+04  0.50400001928E-02 0. -1.
    10030    2    1    2    0    0  0.00000000000E+00  0.00000000000E+00 -0.33814955126E+03  0.29452034520E+04  0.29257269618E+04 0.  0.
        4    1    3    3  502    0  0.10388792228E+04 -0.74698746358E+03  0.54466393158E+03  0.13906547816E+04  0.12699999809E+01 0.  1.
       -4    1    3    3    0  502 -0.10388792228E+04  0.74698746358E+03 -0.88281348284E+03  0.15545486704E+04  0.12699999809E+01 0. -1.
</event>
<event>
 5   0  0.2474769E-06  0.2896243E+04  0.7818609E-02  0.8273996E-01
        1   -1    0    0  501    0  0.00000000000E+00  0.00000000000E+00  0.16674609872E+04  0.16674609872E+04  0.50400001928E-02 0. -1.
       -1   -1    0    0    0  501  0.00000000000E+00  0.00000000000E+00 -0.12576343382E+04  0.12576343382E+04  0.50400001928E-02 0.  1.
    10030    2    1    2    0    0  0.00000000000E+00  0.00000000000E+00  0.40982664901E+03  0.29250953255E+04  0.28962432185E+04 0.  0.
        1    1    3    3  502    0 -0.60986236086E+03 -0.12542416254E+04 -0.18884495962E+03  0.14073793280E+04  0.50400001928E-02 0.  1.
       -1    1    3    3    0  502  0.60986236086E+03  0.12542416254E+04  0.59867160863E+03  0.15177159975E+04  0.50400001928E-02 0. -1.
</event>
<event>
 5   0  0.6615403E-06  0.2522069E+04  0.7818609E-02  0.8395165E-01
        2   -1    0    0  501    0  0.00000000000E+00  0.00000000000E+00  0.11880642074E+04  0.11880642074E+04  0.25500000920E-02 0. -1.
       -2   -1    0    0    0  501  0.00000000000E+00  0.00000000000E+00 -0.13384866382E+04  0.13384866382E+04  0.25500000920E-02 0.  1.
    10030    2    1    2    0    0  0.00000000000E+00  0.00000000000E+00 -0.15042243079E+03  0.25265508455E+04  0.25220690449E+04 0.  0.
        2    1    3    3  502    0 -0.60123901600E+03 -0.45108420818E+03  0.93913082166E+03  0.12028848729E+04  0.25500000920E-02 0. -1.
       -2    1    3    3    0  502  0.60123901600E+03  0.45108420818E+03 -0.10895532524E+04  0.13236659727E+04  0.25500000920E-02 0.  1.
</event>
<event>
 5   0  0.2474769E-06  0.2898475E+04  0.7818609E-02  0.8273331E-01
       -1   -1    0    0    0  501  0.00000000000E+00  0.00000000000E+00  0.10279235461E+04  0.10279235461E+04  0.50400001928E-02 0. -1.
        1   -1    0    0  501    0  0.00000000000E+00  0.00000000000E+00 -0.20432353302E+04  0.20432353302E+04  0.50400001928E-02 0.  1.
    10030    2    1    2    0    0  0.00000000000E+00  0.00000000000E+00 -0.10153117841E+04  0.30711588763E+04  0.28984752586E+04 0.  0.
        1    1    3    3  502    0  0.89795958593E+03 -0.10377244551E+03  0.69261174499E+03  0.11387761710E+04  0.50400001928E-02 0. -1.
       -1    1    3    3    0  502 -0.89795958593E+03  0.10377244551E+03 -0.17079235291E+04  0.19323827053E+04  0.50400001928E-02 0.  1.
</event>
<event>
 5   0  0.2474769E-06  0.2805991E+04  0.7818609E-02  0.8301411E-01
       -1   -1    0    0    0  501  0.00000000000E+00  0.00000000000E+00  0.95585111484E+03  0.95585111486E+03  0.50400001928E-02 0. -1.
        1   -1    0    0  501    0  0.00000000000E+00  0.00000000000E+00 -0.20593122070E+04  0.20593122070E+04  0.50400001928E-02 0.  1.
    10030    2    1    2    0    0  0.00000000000E+00  0.00000000000E+00 -0.11034610922E+04  0.30151633219E+04  0.28059906407E+04 0.  0.
        1    1    3    3  502    0  0.13156566679E+04 -0.40990055757E+03 -0.83485824647E+03  0.16111980718E+04  0.50400001928E-02 0. -1.
       -1    1    3    3    0  502 -0.13156566679E+04  0.40990055757E+03 -0.26860284573E+03  0.14039652501E+04  0.50400001928E-02 0.  1.
</event>
<event>
 5   0  0.6733688E-06  0.2906806E+04  0.7818609E-02  0.8270855E-01
        2   -1    0    0  501    0  0.00000000000E+00  0.00000000000E+00  0.15717194727E+04  0.15717194727E+04  0.25500000920E-02 0. -1.
       -2   -1    0    0    0  501  0.00000000000E+00  0.00000000000E+00 -0.13439931485E+04  0.13439931485E+04  0.25500000920E-02 0.  1.
    10030    2    1    2    0    0  0.00000000000E+00  0.00000000000E+00  0.22772632422E+03  0.29157126213E+04  0.29068059466E+04 0.  0.
        5    1    3    3  502    0  0.14093305618E+04 -0.77100389956E+02 -0.23389932705E+03  0.14306949667E+04  0.46999998093E+01 0.  1.
       -5    1    3    3    0  502 -0.14093305618E+04  0.77100389956E+02  0.46162565128E+03  0.14850176546E+04  0.46999998093E+01 0. -1.
</event>
<event>
 5   0  0.2429358E-06  0.2956356E+04  0.7818609E-02  0.8256305E-01
        1   -1    0    0  501    0  0.00000000000E+00  0.00000000000E+00  0.20743208208E+04  0.20743208208E+04  0.50400001928E-02 0.  1.
       -1   -1    0    0    0  501  0.00000000000E+00  0.00000000000E+00 -0.10533615872E+04  0.10533615872E+04  0.50400001928E-02 0. -1.
    10030    2    1    2    0    0  0.00000000000E+00  0.00000000000E+00  0.10209592336E+04  0.31276824080E+04  0.29563557784E+04 0.  0.
        2    1    3    3  502    0 -0.50555584525E+03  0.10698562560E+04 -0.42676715981E+03  0.12578987757E+04  0.25500000920E-02 0. -1.
       -2    1    3    3    0  502  0.50555584525E+03 -0.10698562560E+04  0.14477263934E+04  0.18697836323E+04  0.25500000920E-02 0.  1.
</event>
<event>
 5   0  0.2508094E-06  0.2937004E+04  0.7818609E-02  0.8261952E-01
        1   -1    0    0  501    0  0.00000000000E+00  0.00000000000E+00  0.24361371745E+04  0.24361371745E+04  0.50400001928E-02 0.  1.
       -1   -1    0    0    0  501  0.00000000000E+00  0.00000000000E+00 -0.88521226773E+03  0.88521226775E+03  0.50400001928E-02 0. -1.
    10030    2    1    2    0    0  0.00000000000E+00  0.00000000000E+00  0.15509249068E+04  0.33213494423E+04  0.29370042647E+04 0.  0.
        3    1    3    3  502    0 -0.23478339555E+03 -0.72824305085E+03  0.21928977528E+04  0.23225550044E+04  0.10100000352E+00 0.  1.
       -3    1    3    3    0  502  0.23478339555E+03  0.72824305085E+03 -0.64197284601E+03  0.99879443789E+03  0.10100000352E+00 0. -1.
</event>
<event>
 5   0  0.2336512E-06  0.2895749E+04  0.7818609E-02  0.8274144E-01
       -1   -1    0    0    0  501  0.00000000000E+00  0.00000000000E+00  0.90854899964E+03  0.90854899966E+03  0.50400001928E-02 0. -1.
        1   -1    0    0  501    0  0.00000000000E+00  0.00000000000E+00 -0.23073494216E+04  0.23073494216E+04  0.50400001928E-02 0.  1.
    10030    2    1    2    0    0  0.00000000000E+00  0.00000000000E+00 -0.13988004220E+04  0.32158984213E+04  0.28957486140E+04 0.  0.
        4    1    3    3  502    0  0.13748072320E+04 -0.10961842091E+02 -0.12036027382E+04  0.18272592184E+04  0.12699999809E+01 0.  1.
       -4    1    3    3    0  502 -0.13748072320E+04  0.10961842091E+02 -0.19519768385E+03  0.13886392029E+04  0.12699999809E+01 0. -1.
</event>
<event>
 5   0  0.2336512E-06  0.2885398E+04  0.7818609E-02  0.8277235E-01
        1   -1    0    0  501    0  0.00000000000E+00  0.00000000000E+00  0.12022898845E+04  0.12022898845E+04  0.50400001928E-02 0.  1.
       -1   -1    0    0    0  501  0.00000000000E+00  0.00000000000E+00 -0.17311806983E+04  0.17311806983E+04  0.50400001928E-02 0. -1.
    10030    2    1    2    0    0  0.00000000000E+00  0.00000000000E+00 -0.52889081379E+03  0.29334705828E+04  0.28853984417E+04 0.  0.
        4    1    3    3  502    0  0.91277964807E+03  0.11153495072E+04 -0.33039697939E+03  0.14786260467E+04  0.12699999809E+01 0. -1.
       -4    1    3    3    0  502 -0.91277964807E+03 -0.11153495072E+04 -0.19849383441E+03  0.14548445361E+04  0.12699999809E+01 0.  1.
</event>
<event>
 5   0  0.6393633E-06  0.2857014E+04  0.7818609E-02  0.8285783E-01
        2   -1    0    0  501    0  0.00000000000E+00  0.00000000000E+00  0.17695850711E+04  0.17695850711E+04  0.25500000920E-02 0.  1.
       -2   -1    0    0    0  501  0.00000000000E+00  0.00000000000E+00 -0.11531698016E+04  0.11531698016E+04  0.25500000920E-02 0. -1.
    10030    2    1    2    0    0  0.00000000000E+00  0.00000000000E+00  0.61641526941E+03  0.29227548727E+04  0.28570138714E+04 0.  0.
        4    1    3    3  502    0 -0.94579910654E+03 -0.89813363646E+03 -0.28782254929E+03  0.13356733926E+04  0.12699999809E+01 0. -1.
       -4    1    3    3    0  502  0.94579910654E+03  0.89813363646E+03  0.90423781870E+03  0.15870814801E+04  0.12699999809E+01 0.  1.
</event>
<event>
 5   0  0.2159500E-06  0.2858701E+04  0.7818609E-02  0.8285272E-01
       -3   -1    0    0    0  501  0.00000000000E+00  0.00000000000E+00  0.20353040212E+04  0.20353040238E+04  0.10100000352E+00 0. -1.
        3   -1    0    0  501    0  0.00000000000E+00  0.00000000000E+00 -0.10038021337E+04  0.10038021387E+04  0.10100000352E+00 0.  1.
    10030    2    1    2    0    0  0.00000000000E+00  0.00000000000E+00  0.10315018876E+04  0.30391061625E+04  0.28587007753E+04 0.  0.
        5    1    3    3  502    0  0.12145244033E+03 -0.12582886129E+04 -0.19341387020E+03  0.12788557166E+04  0.46999998093E+01 0.  1.
       -5    1    3    3    0  502 -0.12145244033E+03  0.12582886129E+04  0.12249157578E+04  0.17602504459E+04  0.46999998093E+01 0. -1.
</event>
<event>
 5   0  0.2508094E-06  0.2895747E+04  0.7818609E-02  0.8274144E-01
       -1   -1    0    0    0  501  0.00000000000E+00  0.00000000000E+00  0.63108454920E+03  0.63108454922E+03  0.50400001928E-02 0. -1.
        1   -1    0    0  501    0  0.00000000000E+00  0.00000000000E+00 -0.33218018393E+04  0.33218018393E+04  0.50400001928E-02 0.  1.
    10030    2    1    2    0    0  0.00000000000E+00  0.00000000000E+00 -0.26907172901E+04  0.39528863886E+04  0.28957470997E+04 0.  0.
        3    1    3    3  502    0  0.81295228994E+03 -0.10338024109E+04 -0.21719836509E+04  0.25391242271E+04  0.10100000352E+00 0. -1.
       -3    1    3    3    0  502 -0.81295228994E+03  0.10338024109E+04 -0.51873363922E+03  0.14137621615E+04  0.10100000352E+00 0.  1.
</event>
<event>
 5   0  0.6615403E-06  0.2883717E+04  0.7818609E-02  0.8277739E-01
        2   -1    0    0  501    0  0.00000000000E+00  0.00000000000E+00  0.14902742015E+04  0.14902742015E+04  0.25500000920E-02 0. -1.
       -2   -1    0    0    0  501  0.00000000000E+00  0.00000000000E+00 -0.13950158230E+04  0.13950158230E+04  0.25500000920E-02 0.  1.
    10030    2    1    2    0    0  0.00000000000E+00  0.00000000000E+00  0.95258378445E+02  0.28852900245E+04  0.28837171094E+04 0.  0.
        2    1    3    3  502    0 -0.13797126804E+04 -0.14231916956E+03  0.44166408984E+03  0.14556541467E+04  0.25500000920E-02 0. -1.
       -2    1    3    3    0  502  0.13797126804E+04  0.14231916956E+03 -0.34640571139E+03  0.14296358779E+04  0.25500000920E-02 0.  1.
</event>
<event>
 5   0  0.6733688E-06  0.2722054E+04  0.7818609E-02  0.8327885E-01
        2   -1    0    0  501    0  0.00000000000E+00  0.00000000000E+00  0.22769073715E+04  0.22769073715E+04  0.25500000920E-02 0. -1.
       -2   -1    0    0    0  501  0.00000000000E+00  0.00000000000E+00 -0.81355717199E+03  0.81355717200E+03  0.25500000920E-02 0.  1.
    10030    2    1    2    0    0  0.00000000000E+00  0.00000000000E+00  0.14633501995E+04  0.30904645435E+04  0.27220538731E+04 0.  0.
        5    1    3    3  502    0  0.85775585288E+02  0.74247872067E+03  0.20230447457E+04  0.21567021664E+04  0.46999998093E+01 0. -1.
       -5    1    3    3    0  502 -0.85775585288E+02 -0.74247872067E+03 -0.55969454622E+03  0.93376237702E+03  0.46999998093E+01 0.  1.
</event>
<event>
 5   0  0.6612533E-06  0.2864472E+04  0.7818609E-02  0.8283527E-01
       -2   -1    0    0    0  501  0.00000000000E+00  0.00000000000E+00  0.81377880206E+03  0.81377880206E+03  0.25500000920E-02 0.  1.
        2   -1    0    0  501    0  0.00000000000E+00  0.00000000000E+00 -0.25207099084E+04  0.25207099084E+04  0.25500000920E-02 0. -1.
    10030    2    1    2    0    0  0.00000000000E+00  0.00000000000E+00 -0.17069311063E+04  0.33344887104E+04  0.28644722303E+04 0.  0.
        3    1    3    3  502    0  0.12682640863E+03 -0.40302547500E+03  0.73958181646E+03  0.85176037996E+03  0.10100000352E+00 0.  1.
       -3    1    3    3    0  502 -0.12682640863E+03  0.40302547500E+03 -0.24465129228E+04  0.24827283305E+04  0.10100000352E+00 0. -1.
</event>
<event>
 5   0  0.2429358E-06  0.2882549E+04  0.7818609E-02  0.8278089E-01
       -1   -1    0    0    0  501  0.00000000000E+00  0.00000000000E+00  0.13890551824E+04  0.13890551824E+04  0.50400001928E-02 0.  1.
        1   -1    0    0  501    0  0.00000000000E+00  0.00000000000E+00 -0.14954573145E+04  0.14954573145E+04  0.50400001928E-02 0. -1.
    10030    2    1    2    0    0  0.00000000000E+00  0.00000000000E+00 -0.10640213212E+03  0.28845124969E+04  0.28825493805E+04 0.  0.
        2    1    3    3  502    0 -0.38024995931E+03  0.97793625325E+02  0.13345090701E+04  0.13910672460E+04  0.25500000920E-02 0.  1.
       -2    1    3    3    0  502  0.38024995931E+03 -0.97793625325E+02 -0.14409112022E+04  0.14934452509E+04  0.25500000920E-02 0. -1.
</event>
<event>
 5   0  0.6612533E-06  0.2904271E+04  0.7818609E-02  0.8271608E-01
        2   -1    0    0  501    0  0.00000000000E+00  0.00000000000E+00  0.14155497943E+04  0.14155497943E+04  0.25500000920E-02 0.  1.
       -2   -1    0    0    0  501  0.00000000000E+00  0.00000000000E+00 -0.14896666155E+04  0.14896666155E+04  0.25500000920E-02 0. -1.
    10030    2    1    2    0    0  0.00000000000E+00  0.00000000000E+00 -0.74116821153E+02  0.29052164098E+04  0.29042708353E+04 0.  0.
        3    1    3    3  502    0 -0.17500362520E+03 -0.71247579476E+03 -0.12906420800E+04  0.14845891741E+04  0.10100000352E+00 0. -1.
       -3    1    3    3    0  502  0.17500362520E+03  0.71247579476E+03  0.12165252589E+04  0.14206272357E+04  0.10100000352E+00 0.  1.
</event>
<event>
 5   0  0.2348684E-06  0.2906822E+04  0.7818609E-02  0.8270851E-01
       -1   -1    0    0    0  501  0.00000000000E+00  0.00000000000E+00  0.13936737338E+04  0.13936737338E+04  0.50400001928E-02 0.  1.
        1   -1    0    0  501    0  0.00000000000E+00  0.00000000000E+00 -0.15157089556E+04  0.15157089556E+04  0.50400001928E-02 0. -1.
    10030    2    1    2    0    0  0.00000000000E+00  0.00000000000E+00 -0.12203522177E+03  0.29093826895E+04  0.29068221546E+04 0.  0.
        5    1    3    3  502    0 -0.12208845076E+04 -0.42999167262E+03  0.60057134510E+03  0.14269407311E+04  0.46999998093E+01 0.  1.
       -5    1    3    3    0  502  0.12208845076E+04  0.42999167262E+03 -0.72260656686E+03  0.14824419584E+04  0.46999998093E+01 0. -1.
</event>
<event>
 5   0  0.2508094E-06  0.2927975E+04  0.7818609E-02  0.8264602E-01
        1   -1    0    0  501    0  0.00000000000E+00  0.00000000000E+00  0.13800888604E+04  0.13800888604E+04  0.50400001928E-02 0. -1.
       -1   -1    0    0    0  501  0.00000000000E+00  0.00000000000E+00 -0.15529866010E+04  0.15529866011E+04  0.50400001928E-02 0.  1.
    10030    2    1    2    0    0  0.00000000000E+00  0.00000000000E+00 -0.17289774064E+03  0.29330754615E+04  0.29279750740E+04 0.  0.
        3    1    3    3  502    0  0.66536085326E+03 -0.12839181902E+04  0.14222166363E+03  0.14530581530E+04  0.10100000352E+00 0. -1.
       -3    1    3    3    0  502 -0.66536085326E+03  0.12839181902E+04 -0.31511940427E+03  0.14800173085E+04  0.10100000352E+00 0.  1.
</event>
<event>
 5   0  0.2336512E-06  0.2854035E+04  0.7818609E-02  0.8286686E-01
       -1   -1    0    0    0  501  0.00000000000E+00  0.00000000000E+00  0.99779931830E+03  0.99779931831E+03  0.50400001928E-02 0. -1.
        1   -1    0    0  501    0  0.00000000000E+00  0.00000000000E+00 -0.20408703414E+04  0.20408703414E+04  0.50400001928E-02 0.  1.
    10030    2    1    2    0    0  0.00000000000E+00  0.00000000000E+00 -0.10430710231E+04  0.30386696597E+04  0.28540350632E+04 0.  0.
        4    1    3    3  502    0 -0.12714871292E+04 -0.58037078177E+03 -0.82802580100E+03  0.16245424291E+04  0.12699999809E+01 0.  1.
       -4    1    3    3    0  502  0.12714871292E+04  0.58037078177E+03 -0.21504522212E+03  0.14141272306E+04  0.12699999809E+01 0. -1.
</event>
<event>
 5   0  0.6393633E-06  0.2695688E+04  0.7818609E-02  0.8336405E-01
        2   -1    0    0  501    0  0.00000000000E+00  0.00000000000E+00  0.23819617225E+04  0.23819617225E+04  0.25500000920E-02 0.  1.
       -2   -1    0    0    0  501  0.00000000000E+00  0.00000000000E+00 -0.76268360558E+03  0.76268360559E+03  0.25500000920E-02 0. -1.
    10030    2    1    2    0    0  0.00000000000E+00  0.00000000000E+00  0.16192781169E+04  0.31446453281E+04  0.26956877823E+04 0.  0.
        4    1    3    3  502    0  0.13091146318E+04  0.14750577414E+03  0.11419358820E+04  0.17434328906E+04  0.12699999809E+01 0.  1.
       -4    1    3    3    0  502 -0.13091146318E+04 -0.14750577414E+03  0.47734223495E+03  0.14012124375E+04  0.12699999809E+01 0. -1.
</event>
<event>
 5   0  0.2336512E-06  0.2396431E+04  0.7818609E-02  0.8440841E-01
        1   -1    0    0  501    0  0.00000000000E+00  0.00000000000E+00  0.74291866687E+03  0.74291866689E+03  0.50400001928E-02 0. -1.
       -1   -1    0    0    0  501  0.00000000000E+00  0.00000000000E+00 -0.19325407351E+04  0.19325407351E+04  0.50400001928E-02 0.  1.
    10030    2    1    2    0    0  0.00000000000E+00  0.00000000000E+00 -0.11896220682E+04  0.26754594020E+04  0.23964311687E+04 0.  0.
        4    1    3    3  502    0  0.95605790027E+03 -0.54782052484E+03 -0.69297478401E+02  0.11040642144E+04  0.12699999809E+01 0. -1.
       -4    1    3    3    0  502 -0.95605790027E+03  0.54782052484E+03 -0.11203245898E+04  0.15713951876E+04  0.12699999809E+01 0.  1.
</event>
<event>
 5   0  0.2159500E-06  0.2461055E+04  0.7818609E-02  0.8416993E-01
        4   -1    0    0  501    0  0.00000000000E+00  0.00000000000E+00  0.21529291745E+04  0.21529295491E+04  0.12699999809E+01 0.  1.
       -4   -1    0    0    0  501  0.00000000000E+00  0.00000000000E+00 -0.70331912598E+03  0.70332027262E+03  0.12699999809E+01 0. -1.
    10030    2    1    2    0    0  0.00000000000E+00  0.00000000000E+00  0.14496100485E+04  0.28562498217E+04  0.24610554141E+04 0.  0.
        4    1    3    3  502    0 -0.26844341044E+02  0.46554113082E+03 -0.59680259736E+03  0.75737977016E+03  0.12699999809E+01 0. -1.
       -4    1    3    3    0  502  0.26844341044E+02 -0.46554113082E+03  0.20464126459E+04  0.20988700516E+04  0.12699999809E+01 0.  1.
</event>
<event>
 5   0  0.2508094E-06  0.2910926E+04  0.7818609E-02  0.8269634E-01
        1   -1    0    0  501    0  0.00000000000E+00  0.00000000000E+00  0.84441119461E+03  0.84441119462E+03  0.50400001928E-02 0.  1.
       -1   -1    0    0    0  501  0.00000000000E+00  0.00000000000E+00 -0.25086981263E+04  0.25086981263E+04  0.50400001928E-02 0. -1.
    10030    2    1    2    0    0  0.00000000000E+00  0.00000000000E+00 -0.16642869317E+04  0.33531093209E+04  0.29109261631E+04 0.  0.
        3    1    3    3  502    0  0.98269358285E+03 -0.11815558807E+03 -0.20613532769E+04  0.22866623632E+04  0.10100000352E+00 0. -1.
       -3    1    3    3    0  502 -0.98269358285E+03  0.11815558807E+03  0.39706634529E+03  0.10664469577E+04  0.10100000352E+00 0.  1.
</event>
<event>
 5   0  0.6615403E-06  0.2902029E+04  0.7818609E-02  0.8272274E-01
        2   -1    0    0  501    0  0.00000000000E+00  0.00000000000E+00  0.17365086572E+04  0.17365086572E+04  0.25500000920E-02 0. -1.
       -2   -1    0    0    0  501  0.00000000000E+00  0.00000000000E+00 -0.12124578219E+04  0.12124578219E+04  0.25500000920E-02 0.  1.
    10030    2    1    2    0    0  0.00000000000E+00  0.00000000000E+00  0.52405083527E+03  0.29489664791E+04  0.29020292929E+04 0.  0.
        2    1    3    3  502    0 -0.14227666374E+04 -0.19957744927E+03  0.46865493689E+03  0.15112026709E+04  0.25500000920E-02 0.  1.
       -2    1    3    3    0  502  0.14227666374E+04  0.19957744927E+03  0.55395898380E+02  0.14377638082E+04  0.25500000920E-02 0. -1.
</event>
<event>
 5   0  0.6393633E-06  0.2885065E+04  0.7818609E-02  0.8277335E-01
        2   -1    0    0  501    0  0.00000000000E+00  0.00000000000E+00  0.18266279330E+04  0.18266279330E+04  0.25500000920E-02 0.  1.
       -2   -1    0    0    0  501  0.00000000000E+00  0.00000000000E+00 -0.11392031329E+04  0.11392031329E+04  0.25500000920E-02 0. -1.
    10030    2    1    2    0    0  0.00000000000E+00  0.00000000000E+00  0.68742480006E+03  0.29658310659E+04  0.28850651736E+04 0.  0.
        4    1    3    3  502    0  0.46184271392E+03  0.12162412237E+04  0.98434124169E+03  0.16314014526E+04  0.12699999809E+01 0.  1.
       -4    1    3    3    0  502 -0.46184271392E+03 -0.12162412237E+04 -0.29691644162E+03  0.13344296133E+04  0.12699999809E+01 0. -1.
</event>
<event>
 5   0  0.6615403E-06  0.2892405E+04  0.7818609E-02  0.8275141E-01
       -2   -1    0    0    0  501  0.00000000000E+00  0.00000000000E+00  0.22041715253E+04  0.22041715253E+04  0.25500000920E-02 0.  1.
        2   -1    0    0  501    0  0.00000000000E+00  0.00000000000E+00 -0.94888358477E+03  0.94888358477E+03  0.25500000920E-02 0. -1.
    10030    2    1    2    0    0  0.00000000000E+00  0.00000000000E+00  0.12552879405E+04  0.31530551100E+04  0.28924053508E+04 0.  0.
        2    1    3    3  502    0 -0.92754351210E+02 -0.13106095629E+04  0.12864212484E+04  0.18387986362E+04  0.25500000920E-02 0.  1.
       -2    1    3    3    0  502  0.92754351210E+02  0.13106095629E+04 -0.31133307917E+02  0.13142564738E+04  0.25500000920E-02 0. -1.
</event>
<event>
 5   0  0.2336512E-06  0.3040132E+04  0.7818609E-02  0.8232363E-01
       -1   -1    0    0    0  501  0.00000000000E+00  0.00000000000E+00  0.14457630463E+04  0.14457630463E+04  0.50400001928E-02 0. -1.
        1   -1    0    0  501    0  0.00000000000E+00  0.00000000000E+00 -0.15981871760E+04  0.15981871760E+04  0.50400001928E-02 0.  1.
    10030    2    1    2    0    0  0.00000000000E+00  0.00000000000E+00 -0.15242412970E+03  0.30439502224E+04  0.30401315500E+04 0.  0.
        4    1    3    3  502    0  0.29270677406E+03  0.80358724231E+03  0.11820161643E+04  0.14589700261E+04  0.12699999809E+01 0. -1.
       -4    1    3    3    0  502 -0.29270677406E+03 -0.80358724231E+03 -0.13344402940E+04  0.15849801963E+04  0.12699999809E+01 0.  1.
</event>
<event>
 5   0  0.6733688E-06  0.2926521E+04  0.7818609E-02  0.8265030E-01
        2   -1    0    0  501    0  0.00000000000E+00  0.00000000000E+00  0.11177762025E+04  0.11177762025E+04  0.25500000920E-02 0.  1.
       -2   -1    0    0    0  501  0.00000000000E+00  0.00000000000E+00 -0.19155275389E+04  0.19155275389E+04  0.25500000920E-02 0. -1.
    10030    2    1    2    0    0  0.00000000000E+00  0.00000000000E+00 -0.79775133649E+03  0.30333037414E+04  0.29265208683E+04 0.  0.
        5    1    3    3  502    0 -0.14408457157E+03 -0.10093961091E+04  0.68892731423E+03  0.12305623930E+04  0.46999998093E+01 0.  1.
       -5    1    3    3    0  502  0.14408457157E+03  0.10093961091E+04 -0.14866786507E+04  0.18027413484E+04  0.46999998093E+01 0. -1.
</event>
<event>
 5   0  0.2429358E-06  0.2892322E+04  0.7818609E-02  0.8275165E-01
       -1   -1    0    0    0  501  0.00000000000E+00  0.00000000000E+00  0.17634779330E+04  0.17634779330E+04  0.50400001928E-02 0.  1.
        1   -1    0    0  501    0  0.00000000000E+00  0.00000000000E+00 -0.11859418448E+04  0.11859418448E+04  0.50400001928E-02 0. -1.
    10030    2    1    2    0    0  0.00000000000E+00  0.00000000000E+00  0.57753608819E+03  0.29494197778E+04  0.28923224392E+04 0.  0.
        2    1    3    3  502    0  0.57204040566E+03 -0.12418400194E+03 -0.10597330676E+04  0.12106552220E+04  0.25500000920E-02 0. -1.
       -2    1    3    3    0  502 -0.57204040566E+03  0.12418400194E+03  0.16372691558E+04  0.17387645558E+04  0.25500000920E-02 0.  1.
</event>
<event>
 5   0  0.2474769E-06  0.2853772E+04  0.7818609E-02  0.8286766E-01
        1   -1    0    0  501    0  0.00000000000E+00  0.00000000000E+00  0.96541208824E+03  0.96541208826E+03  0.50400001928E-02 0.  1.
       -1   -1    0    0    0  501  0.00000000000E+00  0.00000000000E+00 -0.21089475471E+04  0.21089475471E+04  0.50400001928E-02 0. -1.
    10030    2    1    2    0    0  0.00000000000E+00  0.00000000000E+00 -0.11435354589E+04  0.30743596354E+04  0.28537718588E+04 0.  0.
        1    1    3    3  502    0  0.12095970709E+04  0.55784855465E+03 -0.20676522217E+02  0.13321965329E+04  0.50400001928E-02 0.  1.
       -1    1    3    3    0  502 -0.12095970709E+04 -0.55784855465E+03 -0.11228589367E+04  0.17421631024E+04  0.50400001928E-02 0. -1.
</event>
<event>
 5   0  0.2348684E-06  0.2886538E+04  0.7818609E-02  0.8276894E-01
       -1   -1    0    0    0  501  0.00000000000E+00  0.00000000000E+00  0.12682684941E+04  0.12682684941E+04  0.50400001928E-02 0. -1.
        1   -1    0    0  501    0  0.00000000000E+00  0.00000000000E+00 -0.16424163647E+04  0.16424163647E+04  0.50400001928E-02 0.  1.
    10030    2    1    2    0    0  0.00000000000E+00  0.00000000000E+00 -0.37414787065E+03  0.29106848588E+04  0.28865376696E+04 0.  0.
        5    1    3    3  502    0 -0.18488205811E+03 -0.77414781957E+02 -0.16283059555E+04  0.16406025718E+04  0.46999998093E+01 0.  1.
       -5    1    3    3    0  502  0.18488205811E+03  0.77414781957E+02  0.12541580849E+04  0.12700822870E+04  0.46999998093E+01 0. -1.
</event>
<event>
 5   0  0.2336512E-06  0.2803893E+04  0.7818609E-02  0.8302061E-01
        1   -1    0    0  501    0  0.00000000000E+00  0.00000000000E+00  0.16755488875E+04  0.16755488875E+04  0.50400001928E-02 0. -1.
       -1   -1    0    0    0  501  0.00000000000E+00  0.00000000000E+00 -0.11730207358E+04  0.11730207358E+04  0.50400001928E-02 0.  1.
    10030    2    1    2    0    0  0.00000000000E+00  0.00000000000E+00  0.50252815168E+03  0.28485696233E+04  0.28038927147E+04 0.  0.
        4    1    3    3  502    0  0.58836482757E+03 -0.76903096994E+03  0.12812577997E+04  0.16059903379E+04  0.12699999809E+01 0. -1.
       -4    1    3    3    0  502 -0.58836482757E+03  0.76903096994E+03 -0.77872964804E+03  0.12425792855E+04  0.12699999809E+01 0.  1.
</event>
<event>
 5   0  0.6513041E-06  0.2911611E+04  0.7818609E-02  0.8269431E-01
        2   -1    0    0  501    0  0.00000000000E+00  0.00000000000E+00  0.20162346172E+04  0.20162346172E+04  0.25500000920E-02 0.  1.
       -2   -1    0    0    0  501  0.00000000000E+00  0.00000000000E+00 -0.10511524359E+04  0.10511524359E+04  0.25500000920E-02 0. -1.
    10030    2    1    2    0    0  0.00000000000E+00  0.00000000000E+00  0.96508218126E+03  0.30673870531E+04  0.29116111892E+04 0.  0.
        1    1    3    3  502    0 -0.13549407622E+04  0.49834344315E+03  0.68008113335E+03  0.15958449186E+04  0.50400001928E-02 0. -1.
       -1    1    3    3    0  502  0.13549407622E+04 -0.49834344315E+03  0.28500104791E+03  0.14715421345E+04  0.50400001928E-02 0.  1.
</event>
<event>
 5   0  0.2474769E-06  0.2880685E+04  0.7818609E-02  0.8278648E-01
        1   -1    0    0  501    0  0.00000000000E+00  0.00000000000E+00  0.21594811125E+04  0.21594811125E+04  0.50400001928E-02 0.  1.
       -1   -1    0    0    0  501  0.00000000000E+00  0.00000000000E+00 -0.96068719482E+03  0.96068719483E+03  0.50400001928E-02 0. -1.
    10030    2    1    2    0    0  0.00000000000E+00  0.00000000000E+00  0.11987939177E+04  0.31201683074E+04  0.28806845383E+04 0.  0.
        1    1    3    3  502    0  0.11570931911E+04 -0.62754100381E+03 -0.33948172344E+02  0.13167478281E+04  0.50400001928E-02 0.  1.
       -1    1    3    3    0  502 -0.11570931911E+04  0.62754100381E+03  0.12327420901E+04  0.18034204793E+04  0.50400001928E-02 0. -1.
</event>
<event>
 5   0  0.6612533E-06  0.2884546E+04  0.7818609E-02  0.8277490E-01
       -2   -1    0    0    0  501  0.00000000000E+00  0.00000000000E+00  0.10495411464E+04  0.10495411464E+04  0.25500000920E-02 0.  1.
        2   -1    0    0  501    0  0.00000000000E+00  0.00000000000E+00 -0.19819628181E+04  0.19819628181E+04  0.25500000920E-02 0. -1.
    10030    2    1    2    0    0  0.00000000000E+00  0.00000000000E+00 -0.93242167167E+03  0.30315039645E+04  0.28845460844E+04 0.  0.
        3    1    3    3  502    0 -0.72457305416E+03  0.63660777919E+02 -0.17750899493E+04  0.19183334287E+04  0.10100000352E+00 0. -1.
       -3    1    3    3    0  502  0.72457305416E+03 -0.63660777919E+02  0.84266827762E+03  0.11131705358E+04  0.10100000352E+00 0.  1.
</event>
<event>
 5   0  0.6513041E-06  0.2911260E+04  0.7818609E-02  0.8269535E-01
        2   -1    0    0  501    0  0.00000000000E+00  0.00000000000E+00  0.16294427132E+04  0.16294427132E+04  0.25500000920E-02 0. -1.
       -2   -1    0    0    0  501  0.00000000000E+00  0.00000000000E+00 -0.13003580538E+04  0.13003580538E+04  0.25500000920E-02 0.  1.
    10030    2    1    2    0    0  0.00000000000E+00  0.00000000000E+00  0.32908465941E+03  0.29298007670E+04  0.29112601776E+04 0.  0.
        1    1    3    3  502    0 -0.48646048418E+03  0.23714319965E+03 -0.11953510806E+04  0.13121527753E+04  0.50400001928E-02 0.  1.
       -1    1    3    3    0  502  0.48646048418E+03 -0.23714319965E+03  0.15244357400E+04  0.16176479918E+04  0.50400001928E-02 0. -1.
</event>
<event>
 5   0  0.6513041E-06  0.2955171E+04  0.7818609E-02  0.8256649E-01
       -2   -1    0    0    0  501  0.00000000000E+00  0.00000000000E+00  0.90028801772E+03  0.90028801773E+03  0.25500000920E-02 0.  1.
        2   -1    0    0  501    0  0.00000000000E+00  0.00000000000E+00 -0.24250675567E+04  0.24250675567E+04  0.25500000920E-02 0. -1.
    10030    2    1    2    0    0  0.00000000000E+00  0.00000000000E+00 -0.15247795390E+04  0.33253555744E+04  0.29551712393E+04 0.  0.
        1    1    3    3  502    0 -0.12534383206E+04 -0.74627317145E+03 -0.10268345938E+04  0.17839340103E+04  0.50400001928E-02 0. -1.
       -1    1    3    3    0  502  0.12534383206E+04  0.74627317145E+03 -0.49794494519E+03  0.15414215642E+04  0.50400001928E-02 0.  1.
</event>
<event>
 5   0  0.6733688E-06  0.2929938E+04  0.7818609E-02  0.8264025E-01
        2   -1    0    0  501    0  0.00000000000E+00  0.00000000000E+00  0.15198498959E+04  0.15198498959E+04  0.25500000920E-02 0. -1.
       -2   -1    0    0    0  501  0.00000000000E+00  0.00000000000E+00 -0.14120698612E+04  0.14120698612E+04  0.25500000920E-02 0.  1.
    10030    2    1    2    0    0  0.00000000000E+00  0.00000000000E+00  0.10778003476E+03  0.29319197571E+04  0.29299380414E+04 0.  0.
        5    1    3    3  502    0  0.70798021197E+03  0.80115818542E+03  0.10560771282E+04  0.15028011875E+04  0.46999998093E+01 0. -1.
       -5    1    3    3    0  502 -0.70798021197E+03 -0.80115818542E+03 -0.94829709341E+03  0.14291185696E+04  0.46999998093E+01 0.  1.
</event>
<event>
 5   0  0.2348684E-06  0.2985377E+04  0.7818609E-02  0.8247919E-01
        1   -1    0    0  501    0  0.00000000000E+00  0.00000000000E+00  0.12777648932E+04  0.12777648932E+04  0.50400001928E-02 0.  1.
       -1   -1    0    0    0  501  0.00000000000E+00  0.00000000000E+00 -0.17437628695E+04  0.17437628695E+04  0.50400001928E-02 0. -1.
    10030    2    1    2    0    0  0.00000000000E+00  0.00000000000E+00 -0.46599797629E+03  0.30215277626E+04  0.29853770125E+04 0.  0.
        5    1    3    3  502    0 -0.34585968311E+03 -0.58448362275E+02  0.12354532487E+04  0.12842904466E+04  0.46999998093E+01 0.  1.
       -5    1    3    3    0  502  0.34585968311E+03  0.58448362275E+02 -0.17014512250E+04  0.17372373161E+04  0.46999998093E+01 0. -1.
</event>
<event>
 5   0  0.6612533E-06  0.2915075E+04  0.7818609E-02  0.8268406E-01
       -2   -1    0    0    0  501  0.00000000000E+00  0.00000000000E+00  0.98160456632E+03  0.98160456633E+03  0.25500000920E-02 0.  1.
        2   -1    0    0  501    0  0.00000000000E+00  0.00000000000E+00 -0.21642272507E+04  0.21642272507E+04  0.25500000920E-02 0. -1.
    10030    2    1    2    0    0  0.00000000000E+00  0.00000000000E+00 -0.11826226844E+04  0.31458318171E+04  0.29150748545E+04 0.  0.
        3    1    3    3  502    0 -0.11183797727E+04 -0.79913724924E+03 -0.11144776350E+04  0.17695914976E+04  0.10100000352E+00 0. -1.
       -3    1    3    3    0  502  0.11183797727E+04  0.79913724924E+03 -0.68145049357E+02  0.13762403195E+04  0.10100000352E+00 0.  1.
</event>
<event>
 5   0  0.2429358E-06  0.2890633E+04  0.7818609E-02  0.8275670E-01
        1   -1    0    0  501    0  0.00000000000E+00  0.00000000000E+00  0.10336667519E+04  0.10336667519E+04  0.50400001928E-02 0. -1.
       -1   -1    0    0    0  501  0.00000000000E+00  0.00000000000E+00 -0.20209026970E+04  0.20209026970E+04  0.50400001928E-02 0.  1.
    10030    2    1    2    0    0  0.00000000000E+00  0.00000000000E+00 -0.98723594512E+03  0.30545694489E+04  0.28906330979E+04 0.  0.
        2    1    3    3  502    0 -0.37286068184E+03 -0.54399742514E+03 -0.18526271040E+04  0.19665160750E+04  0.25500000920E-02 0.  1.
       -2    1    3    3    0  502  0.37286068184E+03  0.54399742514E+03  0.86539115886E+03  0.10880533739E+04  0.25500000920E-02 0. -1.
</event>
<event>
 5   0  0.2474769E-06  0.2876793E+04  0.7818609E-02  0.8279816E-01
       -1   -1    0    0    0  501  0.00000000000E+00  0.00000000000E+00  0.29066715550E+04  0.29066715550E+04  0.50400001928E-02 0. -1.
        1   -1    0    0  501    0  0.00000000000E+00  0.00000000000E+00 -0.71180545131E+03  0.71180545133E+03  0.50400001928E-02 0.  1.
    10030    2    1    2    0    0  0.00000000000E+00  0.00000000000E+00  0.21948661037E+04  0.36184770063E+04  0.28767931160E+04 0.  0.
        1    1    3    3  502    0  0.13386332773E+04 -0.33791434277E+03  0.58983056603E+03  0.15013411507E+04  0.50400001928E-02 0.  1.
       -1    1    3    3    0  502 -0.13386332773E+04  0.33791434277E+03  0.16050355376E+04  0.21171358556E+04  0.50400001928E-02 0. -1.
</event>
<event>
 5   0  0.2508094E-06  0.2909088E+04  0.7818609E-02  0.8270179E-01
        1   -1    0    0  501    0  0.00000000000E+00  0.00000000000E+00  0.25041467602E+04  0.25041467602E+04  0.50400001928E-02 0. -1.
       -1   -1    0    0    0  501  0.00000000000E+00  0.00000000000E+00 -0.84487780550E+03  0.84487780551E+03  0.50400001928E-02 0.  1.
    10030    2    1    2    0    0  0.00000000000E+00  0.00000000000E+00  0.16592689547E+04  0.33490245657E+04  0.29090878429E+04 0.  0.
        3    1    3    3  502    0 -0.57443074478E+03  0.78988538883E+03 -0.41124257750E+03  0.10597216973E+04  0.10100000352E+00 0.  1.
       -3    1    3    3    0  502  0.57443074478E+03 -0.78988538883E+03  0.20705115322E+04  0.22893028684E+04  0.10100000352E+00 0. -1.
</event>
<event>
 5   0  0.2508094E-06  0.2925059E+04  0.7818609E-02  0.8265460E-01
       -1   -1    0    0    0  501  0.00000000000E+00  0.00000000000E+00  0.17948413347E+04  0.17948413348E+04  0.50400001928E-02 0.  1.
        1   -1    0    0  501    0  0.00000000000E+00  0.00000000000E+00 -0.11917449949E+04  0.11917449949E+04  0.50400001928E-02 0. -1.
    10030    2    1    2    0    0  0.00000000000E+00  0.00000000000E+00  0.60309633982E+03  0.29865863297E+04  0.29250594369E+04 0.  0.
        3    1    3    3  502    0  0.88160334473E+02 -0.45547073104E+03 -0.11146259410E+04  0.12073180318E+04  0.10100000352E+00 0. -1.
       -3    1    3    3    0  502 -0.88160334473E+02  0.45547073104E+03  0.17177222808E+04  0.17792682978E+04  0.10100000352E+00 0.  1.
</event>
<event>
 5   0  0.6615403E-06  0.2887842E+04  0.7818609E-02  0.8276504E-01
        2   -1    0    0  501    0  0.00000000000E+00  0.00000000000E+00  0.24192645155E+04  0.24192645155E+04  0.25500000920E-02 0. -1.
       -2   -1    0    0    0  501  0.00000000000E+00  0.00000000000E+00 -0.86179405904E+03  0.86179405904E+03  0.25500000920E-02 0.  1.
    10030    2    1    2    0    0  0.00000000000E+00  0.00000000000E+00  0.15574704565E+04  0.32810585746E+04  0.28878419532E+04 0.  0.
        2    1    3    3  502    0  0.60440500086E+03 -0.12425546496E+04  0.30254837327E+03  0.14144903607E+04  0.25500000920E-02 0. -1.
       -2    1    3    3    0  502 -0.60440500086E+03  0.12425546496E+04  0.12549220832E+04  0.18665682139E+04  0.25500000920E-02 0.  1.
</event>
<event>
 5   0  0.2348684E-06  0.2899823E+04  0.7818609E-02  0.8272930E-01
        1   -1    0    0  501    0  0.00000000000E+00  0.00000000000E+00  0.14853902206E+04  0.14853902206E+04  0.50400001928E-02 0. -1.
       -1   -1    0    0    0  501  0.00000000000E+00  0.00000000000E+00 -0.14152801306E+04  0.14152801306E+04  0.50400001928E-02 0.  1.
    10030    2    1    2    0    0  0.00000000000E+00  0.00000000000E+00  0.70110090039E+02  0.29006703512E+04  0.28998229363E+04 0.  0.
        5    1    3    3  502    0  0.36089847804E+03  0.11219988098E+04 -0.80963955617E+03  0.14299186486E+04  0.46999998093E+01 0.  1.
       -5    1    3    3    0  502 -0.36089847804E+03 -0.11219988098E+04  0.87974964621E+03  0.14707517026E+04  0.46999998093E+01 0. -1.
</event>
<event>
 5   0  0.6733688E-06  0.2903815E+04  0.7818609E-02  0.8271743E-01
       -2   -1    0    0    0  501  0.00000000000E+00  0.00000000000E+00  0.12876326568E+04  0.12876326568E+04  0.25500000920E-02 0.  1.
        2   -1    0    0  501    0  0.00000000000E+00  0.00000000000E+00 -0.16371408702E+04  0.16371408702E+04  0.25500000920E-02 0. -1.
    10030    2    1    2    0    0  0.00000000000E+00  0.00000000000E+00 -0.34950821334E+03  0.29247735270E+04  0.29038154544E+04 0.  0.
        5    1    3    3  502    0 -0.68015244615E+02  0.52882751397E+03  0.11854479401E+04  0.12998436528E+04  0.46999998093E+01 0.  1.
       -5    1    3    3    0  502  0.68015244615E+02 -0.52882751397E+03 -0.15349561534E+04  0.16249298742E+04  0.46999998093E+01 0. -1.
</event>
<event>
 5   0  0.2429358E-06  0.2932854E+04  0.7818609E-02  0.8263169E-01
        1   -1    0    0  501    0  0.00000000000E+00  0.00000000000E+00  0.10179706373E+04  0.10179706373E+04  0.50400001928E-02 0. -1.
       -1   -1    0    0    0  501  0.00000000000E+00  0.00000000000E+00 -0.21124458968E+04  0.21124458968E+04  0.50400001928E-02 0.  1.
    10030    2    1    2    0    0  0.00000000000E+00  0.00000000000E+00 -0.10944752595E+04  0.31304165341E+04  0.29328538292E+04 0.  0.
        2    1    3    3  502    0  0.65127657576E+03  0.48089948858E+03 -0.18522954396E+04  0.20214905124E+04  0.25500000920E-02 0.  1.
       -2    1    3    3    0  502 -0.65127657576E+03 -0.48089948858E+03  0.75782018008E+03  0.11089260217E+04  0.25500000920E-02 0. -1.
</event>
<event>
 5   0  0.2429358E-06  0.2648469E+04  0.7818609E-02  0.8351921E-01
       -1   -1    0    0    0  501  0.00000000000E+00  0.00000000000E+00  0.96778692995E+03  0.96778692997E+03  0.50400001928E-02 0.  1.
        1   -1    0    0  501    0  0.00000000000E+00  0.00000000000E+00 -0.18119658478E+04  0.18119658478E+04  0.50400001928E-02 0. -1.
    10030    2    1    2    0    0  0.00000000000E+00  0.00000000000E+00 -0.84417891780E+03  0.27797527777E+04  0.26484688898E+04 0.  0.
        2    1    3    3  502    0  0.72350153451E+03  0.88278912668E+03  0.28262901272E+03  0.11758615018E+04  0.25500000920E-02 0.  1.
       -2    1    3    3    0  502 -0.72350153451E+03 -0.88278912668E+03 -0.11268079305E+04  0.16038912759E+04  0.25500000920E-02 0. -1.
</event>
<event>
 5   0  0.2474769E-06  0.2885656E+04  0.7818609E-02  0.8277158E-01
        1   -1    0    0  501    0  0.00000000000E+00  0.00000000000E+00  0.22985484363E+04  0.22985484363E+04  0.50400001928E-02 0.  1.
       -1   -1    0    0    0  501  0.00000000000E+00  0.00000000000E+00 -0.90568171227E+03  0.90568171228E+03  0.50400001928E-02 0. -1.
    10030    2    1    2    0    0  0.00000000000E+00  0.00000000000E+00  0.13928667241E+04  0.32042301486E+04  0.28856564477E+04 0.  0.
        1    1    3    3  502    0  0.66524146064E+03  0.12116062944E+03  0.21117140125E+04  0.22173322191E+04  0.50400001928E-02 0.  1.
       -1    1    3    3    0  502 -0.66524146064E+03 -0.12116062944E+03 -0.71884728848E+03  0.98689792951E+03  0.50400001928E-02 0. -1.
</event>
<event>
 5   0  0.2429358E-06  0.2699509E+04  0.7818609E-02  0.8335164E-01
        1   -1    0    0  501    0  0.00000000000E+00  0.00000000000E+00  0.11953051594E+04  0.11953051594E+04  0.50400001928E-02 0. -1.
       -1   -1    0    0    0  501  0.00000000000E+00  0.00000000000E+00 -0.15241603541E+04  0.15241603541E+04  0.50400001928E-02 0.  1.
    10030    2    1    2    0    0  0.00000000000E+00  0.00000000000E+00 -0.32885519466E+03  0.27194655136E+04  0.26995086479E+04 0.  0.
        2    1    3    3  502    0 -0.81083573951E+03 -0.10064675774E+04  0.22755714477E+03  0.13123314501E+04  0.25500000920E-02 0. -1.
       -2    1    3    3    0  502  0.81083573951E+03  0.10064675774E+04 -0.55641233943E+03  0.14071340634E+04  0.25500000920E-02 0.  1.
</event>
<event>
 5   0  0.6513041E-06  0.3460045E+04  0.7818609E-02  0.8123325E-01
       -2   -1    0    0    0  501  0.00000000000E+00  0.00000000000E+00  0.96649452134E+03  0.96649452135E+03  0.25500000920E-02 0. -1.
        2   -1    0    0  501    0  0.00000000000E+00  0.00000000000E+00 -0.30967351124E+04  0.30967351124E+04  0.25500000920E-02 0.  1.
    10030    2    1    2    0    0  0.00000000000E+00  0.00000000000E+00 -0.21302405910E+04  0.40632296337E+04  0.34600448091E+04 0.  0.
        1    1    3    3  502    0  0.14054618802E+04 -0.27121960404E+03  0.75910440806E+02  0.14334034901E+04  0.50400001928E-02 0. -1.
       -1    1    3    3    0  502 -0.14054618802E+04  0.27121960404E+03 -0.22061510318E+04  0.26298261436E+04  0.50400001928E-02 0.  1.
</event>
<event>
 5   0  0.6513041E-06  0.2601320E+04  0.7818609E-02  0.8367753E-01
        2   -1    0    0  501    0  0.00000000000E+00  0.00000000000E+00  0.13113578324E+04  0.13113578324E+04  0.25500000920E-02 0.  1.
       -2   -1    0    0    0  501  0.00000000000E+00  0.00000000000E+00 -0.12900497580E+04  0.12900497580E+04  0.25500000920E-02 0. -1.
    10030    2    1    2    0    0  0.00000000000E+00  0.00000000000E+00  0.21308074471E+02  0.26014075904E+04  0.26013203220E+04 0.  0.
        1    1    3    3  502    0 -0.58735710494E+03 -0.94455461509E+03 -0.66356815400E+03  0.12951812555E+04  0.50400001928E-02 0. -1.
       -1    1    3    3    0  502  0.58735710494E+03  0.94455461509E+03  0.68487622847E+03  0.13062263349E+04  0.50400001928E-02 0.  1.
</event>
<event>
 5   0  0.2159500E-06  0.2925469E+04  0.7818609E-02  0.8265340E-01
       -3   -1    0    0    0  501  0.00000000000E+00  0.00000000000E+00  0.16247339237E+04  0.16247339268E+04  0.10100000352E+00 0. -1.
        3   -1    0    0  501    0  0.00000000000E+00  0.00000000000E+00 -0.13168881135E+04  0.13168881174E+04  0.10100000352E+00 0.  1.
    10030    2    1    2    0    0  0.00000000000E+00  0.00000000000E+00  0.30784581021E+03  0.29416220442E+04  0.29254693996E+04 0.  0.
        5    1    3    3  502    0  0.11206564709E+03 -0.12416789618E+04  0.92316014475E+03  0.15513130233E+04  0.46999998093E+01 0. -1.
       -5    1    3    3    0  502 -0.11206564709E+03  0.12416789618E+04 -0.61531433454E+03  0.13903090209E+04  0.46999998093E+01 0.  1.
</event>
<event>
 5   0  0.2336512E-06  0.2880850E+04  0.7818609E-02  0.8278598E-01
       -1   -1    0    0    0  501  0.00000000000E+00  0.00000000000E+00  0.15576989563E+04  0.15576989563E+04  0.50400001928E-02 0. -1.
        1   -1    0    0  501    0  0.00000000000E+00  0.00000000000E+00 -0.13319805602E+04  0.13319805602E+04  0.50400001928E-02 0.  1.
    10030    2    1    2    0    0  0.00000000000E+00  0.00000000000E+00  0.22571839601E+03  0.28896795165E+04  0.28808503803E+04 0.  0.
        4    1    3    3  502    0  0.12463974727E+04 -0.65591290198E+03  0.41560322257E+03  0.14684876733E+04  0.12699999809E+01 0.  1.
       -4    1    3    3    0  502 -0.12463974727E+04  0.65591290198E+03 -0.18988482655E+03  0.14211918432E+04  0.12699999809E+01 0. -1.
</event>
<event>
 5   0  0.6733688E-06  0.2893573E+04  0.7818609E-02  0.8274792E-01
       -2   -1    0    0    0  501  0.00000000000E+00  0.00000000000E+00  0.12529209583E+04  0.12529209583E+04  0.25500000920E-02 0.  1.
        2   -1    0    0  501    0  0.00000000000E+00  0.00000000000E+00 -0.16706491009E+04  0.16706491009E+04  0.25500000920E-02 0. -1.
    10030    2    1    2    0    0  0.00000000000E+00  0.00000000000E+00 -0.41772814262E+03  0.29235700592E+04  0.28935730663E+04 0.  0.
        5    1    3    3  502    0  0.56664181994E+03 -0.71834663777E+03 -0.13412253104E+04  0.16235800773E+04  0.46999998093E+01 0. -1.
       -5    1    3    3    0  502 -0.56664181994E+03  0.71834663777E+03  0.92349716782E+03  0.12999899819E+04  0.46999998093E+01 0.  1.
</event>
<event>
 5   0  0.2348684E-06  0.2941057E+04  0.7818609E-02  0.8260766E-01
       -1   -1    0    0    0  501  0.00000000000E+00  0.00000000000E+00  0.14000723347E+04  0.14000723347E+04  0.50400001928E-02 0. -1.
        1   -1    0    0  501    0  0.00000000000E+00  0.00000000000E+00 -0.15445303372E+04  0.15445303372E+04  0.50400001928E-02 0.  1.
    10030    2    1    2    0    0  0.00000000000E+00  0.00000000000E+00 -0.14445800248E+03  0.29446026719E+04  0.29410570856E+04 0.  0.
        5    1    3    3  502    0 -0.92247987513E+03  0.47309881122E+03  0.97192830826E+03  0.14210764693E+04  0.46999998093E+01 0. -1.
       -5    1    3    3    0  502  0.92247987513E+03 -0.47309881122E+03 -0.11163863107E+04  0.15235262026E+04  0.46999998093E+01 0.  1.
</event>
<event>
 5   0  0.2429358E-06  0.2916103E+04  0.7818609E-02  0.8268102E-01
       -1   -1    0    0    0  501  0.00000000000E+00  0.00000000000E+00  0.29700446617E+04  0.29700446617E+04  0.50400001928E-02 0.  1.
        1   -1    0    0  501    0  0.00000000000E+00  0.00000000000E+00 -0.71578527269E+03  0.71578527270E+03  0.50400001928E-02 0. -1.
    10030    2    1    2    0    0  0.00000000000E+00  0.00000000000E+00  0.22542593890E+04  0.36858299344E+04  0.29161030353E+04 0.  0.
        2    1    3    3  502    0 -0.65962917714E+03  0.93003998600E+03 -0.21493404050E+02  0.11404152723E+04  0.25500000920E-02 0. -1.
       -2    1    3    3    0  502  0.65962917714E+03 -0.93003998600E+03  0.22757527931E+04  0.25454146621E+04  0.25500000920E-02 0.  1.
</event>
<event>
 5   0  0.6733688E-06  0.3183579E+04  0.7818609E-02  0.8193167E-01
       -2   -1    0    0    0  501  0.00000000000E+00  0.00000000000E+00  0.12669156303E+04  0.12669156303E+04  0.25500000920E-02 0.  1.
        2   -1    0    0  501    0  0.00000000000E+00  0.00000000000E+00 -0.19999701418E+04  0.19999701418E+04  0.25500000920E-02 0. -1.
    10030    2    1    2    0    0  0.00000000000E+00  0.00000000000E+00 -0.73305451147E+03  0.32668857720E+04  0.31835787615E+04 0.  0.
        5    1    3    3  502    0 -0.72265907282E+03 -0.13705041651E+04 -0.74111859280E+03  0.17174972083E+04  0.46999998093E+01 0. -1.
       -5    1    3    3    0  502  0.72265907282E+03  0.13705041651E+04  0.80640813254E+01  0.15493885637E+04  0.46999998093E+01 0.  1.
</event>
<event>
 5   0  0.6513041E-06  0.2341219E+04  0.7818609E-02  0.8461844E-01
       -2   -1    0    0    0  501  0.00000000000E+00  0.00000000000E+00  0.56994194429E+03  0.56994194430E+03  0.25500000920E-02 0. -1.
        2   -1    0    0  501    0  0.00000000000E+00  0.00000000000E+00 -0.24043271272E+04  0.24043271273E+04  0.25500000920E-02 0.  1.
    10030    2    1    2    0    0  0.00000000000E+00  0.00000000000E+00 -0.18343851830E+04  0.29742690715E+04  0.23412192359E+04 0.  0.
        1    1    3    3  502    0  0.57466530920E+03 -0.79712006994E+03 -0.17253526784E+04  0.19855685554E+04  0.50400001928E-02 0.  1.
       -1    1    3    3    0  502 -0.57466530920E+03  0.79712006994E+03 -0.10903250458E+03  0.98870051612E+03  0.50400001928E-02 0. -1.
</event>
<event>
 5   0  0.2336512E-06  0.2925842E+04  0.7818609E-02  0.8265230E-01
        1   -1    0    0  501    0  0.00000000000E+00  0.00000000000E+00  0.17472555155E+04  0.17472555155E+04  0.50400001928E-02 0. -1.
       -1   -1    0    0    0  501  0.00000000000E+00  0.00000000000E+00 -0.12248567371E+04  0.12248567371E+04  0.50400001928E-02 0.  1.
    10030    2    1    2    0    0  0.00000000000E+00  0.00000000000E+00  0.52239877839E+03  0.29721122526E+04  0.29258418888E+04 0.  0.
        4    1    3    3  502    0 -0.13060027370E+04  0.31223054778E+03 -0.32850252168E+03  0.13824060850E+04  0.12699999809E+01 0. -1.
       -4    1    3    3    0  502  0.13060027370E+04 -0.31223054778E+03  0.85090130007E+03  0.15897061676E+04  0.12699999809E+01 0.  1.
</event>
<event>
 5   0  0.2348684E-06  0.2903346E+04  0.7818609E-02  0.8271883E-01
        1   -1    0    0  501    0  0.00000000000E+00  0.00000000000E+00  0.18705649772E+04  0.18705649773E+04  0.50400001928E-02 0.  1.
       -1   -1    0    0    0  501  0.00000000000E+00  0.00000000000E+00 -0.11265873642E+04  0.11265873642E+04  0.50400001928E-02 0. -1.
    10030    2    1    2    0    0  0.00000000000E+00  0.00000000000E+00  0.74397761307E+03  0.29971523414E+04  0.29033462537E+04 0.  0.
        5    1    3    3  502    0 -0.13300715553E+03 -0.14007074195E+04  0.74082915517E+03  0.15901327321E+04  0.46999998093E+01 0.  1.
       -5    1    3    3    0  502  0.13300715553E+03  0.14007074195E+04  0.31484579004E+01  0.14070196094E+04  0.46999998093E+01 0. -1.
</event>
<event>
 5   0  0.2508094E-06  0.2683400E+04  0.7818609E-02  0.8340411E-01
        1   -1    0    0  501    0  0.00000000000E+00  0.00000000000E+00  0.11482370356E+04  0.11482370356E+04  0.50400001928E-02 0. -1.
       -1   -1    0    0    0  501  0.00000000000E+00  0.00000000000E+00 -0.15677591659E+04  0.15677591659E+04  0.50400001928E-02 0.  1.
    10030    2    1    2    0    0  0.00000000000E+00  0.00000000000E+00 -0.41952213029E+03  0.27159962015E+04  0.26834001842E+04 0.  0.
        3    1    3    3  502    0 -0.25853730830E+03  0.89032654102E+03 -0.11914063069E+04  0.15096264067E+04  0.10100000352E+00 0.  1.
       -3    1    3    3    0  502  0.25853730830E+03 -0.89032654102E+03  0.77188417664E+03  0.12063697948E+04  0.10100000352E+00 0. -1.
</event>
<event>
 5   0  0.2508094E-06  0.2905297E+04  0.7818609E-02  0.8271303E-01
       -1   -1    0    0    0  501  0.00000000000E+00  0.00000000000E+00  0.13832732432E+04  0.13832732432E+04  0.50400001928E-02 0. -1.
        1   -1    0    0  501    0  0.00000000000E+00  0.00000000000E+00 -0.15255028576E+04  0.15255028576E+04  0.50400001928E-02 0.  1.
    10030    2    1    2    0    0  0.00000000000E+00  0.00000000000E+00 -0.14222961440E+03  0.29087761008E+04  0.29052967390E+04 0.  0.
        3    1    3    3  502    0  0.91501159209E+03 -0.10935351689E+04 -0.34915568133E+03  0.14679833375E+04  0.10100000352E+00 0.  1.
       -3    1    3    3    0  502 -0.91501159209E+03  0.10935351689E+04  0.20692606693E+03  0.14407927633E+04  0.10100000352E+00 0. -1.
</event>
<event>
 5   0  0.2348684E-06  0.2913672E+04  0.7818609E-02  0.8268821E-01
        1   -1    0    0  501    0  0.00000000000E+00  0.00000000000E+00  0.23527265012E+04  0.23527265012E+04  0.50400001928E-02 0. -1.
       -1   -1    0    0    0  501  0.00000000000E+00  0.00000000000E+00 -0.90209020525E+03  0.90209020527E+03  0.50400001928E-02 0.  1.
    10030    2    1    2    0    0  0.00000000000E+00  0.00000000000E+00  0.14506362960E+04  0.32548167065E+04  0.29136722756E+04 0.  0.
        5    1    3    3  502    0 -0.10088499186E+04 -0.10497939607E+04  0.66942012894E+03  0.16024952160E+04  0.46999998093E+01 0.  1.
       -5    1    3    3    0  502  0.10088499186E+04  0.10497939607E+04  0.78121616703E+03  0.16523214905E+04  0.46999998093E+01 0. -1.
</event>
<event>
 5   0  0.2336512E-06  0.2893059E+04  0.7818609E-02  0.8274946E-01
        1   -1    0    0  501    0  0.00000000000E+00  0.00000000000E+00  0.21969108781E+04  0.21969108782E+04  0.50400001928E-02 0.  1.
       -1   -1    0    0    0  501  0.00000000000E+00  0.00000000000E+00 -0.95244990540E+03  0.95244990541E+03  0.50400001928E-02 0. -1.
    10030    2    1    2    0    0  0.00000000000E+00  0.00000000000E+00  0.12444609727E+04  0.31493607836E+04  0.28930589749E+04 0.  0.
        4    1    3    3  502    0  0.35442056526E+03  0.13997108852E+04  0.71739015013E+03  0.16122824628E+04  0.12699999809E+01 0.  1.
       -4    1    3    3    0  502 -0.35442056526E+03 -0.13997108852E+04  0.52707082261E+03  0.15370783208E+04  0.12699999809E+01 0. -1.
</event>
<event>
 5   0  0.2348684E-06  0.2985412E+04  0.7818609E-02  0.8247909E-01
       -1   -1    0    0    0  501  0.00000000000E+00  0.00000000000E+00  0.15655139958E+04  0.15655139958E+04  0.50400001928E-02 0. -1.
        1   -1    0    0  501    0  0.00000000000E+00  0.00000000000E+00 -0.14232845321E+04  0.14232845321E+04  0.50400001928E-02 0.  1.
    10030    2    1    2    0    0  0.00000000000E+00  0.00000000000E+00  0.14222946365E+03  0.29887985279E+04  0.29854124372E+04 0.  0.
        5    1    3    3  502    0 -0.10432342258E+04 -0.56264641864E+03 -0.83724072819E+03  0.14511728943E+04  0.46999998093E+01 0.  1.
       -5    1    3    3    0  502  0.10432342258E+04  0.56264641864E+03  0.97947019184E+03  0.15376256336E+04  0.46999998093E+01 0. -1.
</event>
<event>
 5   0  0.6393633E-06  0.2912088E+04  0.7818609E-02  0.8269290E-01
        2   -1    0    0  501    0  0.00000000000E+00  0.00000000000E+00  0.12448119242E+04  0.12448119242E+04  0.25500000920E-02 0. -1.
       -2   -1    0    0    0  501  0.00000000000E+00  0.00000000000E+00 -0.17031197987E+04  0.17031197987E+04  0.25500000920E-02 0.  1.
    10030    2    1    2    0    0  0.00000000000E+00  0.00000000000E+00 -0.45830787452E+03  0.29479317229E+04  0.29120877966E+04 0.  0.
        4    1    3    3  502    0 -0.27999277029E+03  0.12351770753E+04  0.49802188769E+03  0.13609135800E+04  0.12699999809E+01 0. -1.
       -4    1    3    3    0  502  0.27999277029E+03 -0.12351770753E+04 -0.95632976221E+03  0.15870181429E+04  0.12699999809E+01 0.  1.
</event>
<event>
 5   0  0.2348684E-06  0.2927194E+04  0.7818609E-02  0.8264832E-01
       -1   -1    0    0    0  501  0.00000000000E+00  0.00000000000E+00  0.15573552274E+04  0.15573552274E+04  0.50400001928E-02 0.  1.
        1   -1    0    0  501    0  0.00000000000E+00  0.00000000000E+00 -0.13754834081E+04  0.13754834081E+04  0.50400001928E-02 0. -1.
    10030    2    1    2    0    0  0.00000000000E+00  0.00000000000E+00  0.18187181931E+03  0.29328386355E+04  0.29271940665E+04 0.  0.
        5    1    3    3  502    0  0.31904318824E+03 -0.12142380253E+01  0.15220824653E+04  0.15551678853E+04  0.46999998093E+01 0.  1.
       -5    1    3    3    0  502 -0.31904318824E+03  0.12142380253E+01 -0.13402106460E+04  0.13776707502E+04  0.46999998093E+01 0. -1.
</event>
<event>
 5   0  0.6612533E-06  0.2854276E+04  0.7818609E-02  0.8286613E-01
        2   -1    0    0  501    0  0.00000000000E+00  0.00000000000E+00  0.18428280736E+04  0.18428280736E+04  0.25500000920E-02 0. -1.
       -2   -1    0    0    0  501  0.00000000000E+00  0.00000000000E+00 -0.11052157915E+04  0.11052157915E+04  0.25500000920E-02 0.  1.
    10030    2    1    2    0    0  0.00000000000E+00  0.00000000000E+00  0.73761228216E+03  0.29480438651E+04  0.28542758717E+04 0.  0.
        3    1    3    3  502    0  0.10859787094E+04 -0.37313983636E+03  0.12440769158E+04  0.16930181562E+04  0.10100000352E+00 0. -1.
       -3    1    3    3    0  502 -0.10859787094E+04  0.37313983636E+03 -0.50646463363E+03  0.12550257089E+04  0.10100000352E+00 0.  1.
</event>
<event>
 5   0  0.6612533E-06  0.2883359E+04  0.7818609E-02  0.8277846E-01
        2   -1    0    0  501    0  0.00000000000E+00  0.00000000000E+00  0.35684789808E+04  0.35684789808E+04  0.25500000920E-02 0. -1.
       -2   -1    0    0    0  501  0.00000000000E+00  0.00000000000E+00 -0.58244403164E+03  0.58244403164E+03  0.25500000920E-02 0.  1.
    10030    2    1    2    0    0  0.00000000000E+00  0.00000000000E+00  0.29860349492E+04  0.41509230125E+04  0.28833586558E+04 0.  0.
        3    1    3    3  502    0  0.75685239335E+03 -0.97910490849E+03  0.42831884250E+03  0.13095529803E+04  0.10100000352E+00 0.  1.
       -3    1    3    3    0  502 -0.75685239335E+03  0.97910490849E+03  0.25577161067E+04  0.28413700322E+04  0.10100000352E+00 0. -1.
</event>
<event>
 5   0  0.2429358E-06  0.2896982E+04  0.7818609E-02  0.8273776E-01
       -1   -1    0    0    0  501  0.00000000000E+00  0.00000000000E+00  0.11811844122E+04  0.11811844122E+04  0.50400001928E-02 0.  1.
        1   -1    0    0  501    0  0.00000000000E+00  0.00000000000E+00 -0.17762904825E+04  0.17762904825E+04  0.50400001928E-02 0. -1.
    10030    2    1    2    0    0  0.00000000000E+00  0.00000000000E+00 -0.59510607027E+03  0.29574748947E+04  0.28969823124E+04 0.  0.
        2    1    3    3  502    0  0.55618227938E+03 -0.13072425092E+04 -0.58613022073E+03  0.15368052386E+04  0.25500000920E-02 0.  1.
       -2    1    3    3    0  502 -0.55618227938E+03  0.13072425092E+04 -0.89758495395E+01  0.14206696561E+04  0.25500000920E-02 0. -1.
</event>
<event>
 5   0  0.6733688E-06  0.2976656E+04  0.7818609E-02  0.8250428E-01
        2   -1    0    0  501    0  0.00000000000E+00  0.00000000000E+00  0.14508435567E+04  0.14508435567E+04  0.25500000920E-02 0.  1.
       -2   -1    0    0    0  501  0.00000000000E+00  0.00000000000E+00 -0.15267810032E+04  0.15267810032E+04  0.25500000920E-02 0. -1.
    10030    2    1    2    0    0  0.00000000000E+00  0.00000000000E+00 -0.75937446470E+02  0.29776245599E+04  0.29766560977E+04 0.  0.
        5    1    3    3  502    0 -0.75764220190E+03  0.32445660052E+03 -0.12776477209E+04  0.15204274334E+04  0.46999998093E+01 0. -1.
       -5    1    3    3    0  502  0.75764220190E+03 -0.32445660052E+03  0.12017102744E+04  0.14571971264E+04  0.46999998093E+01 0.  1.
</event>
<event>
 5   0  0.2348684E-06  0.2900543E+04  0.7818609E-02  0.8272716E-01
       -1   -1    0    0    0  501  0.00000000000E+00  0.00000000000E+00  0.19554754323E+04  0.19554754323E+04  0.50400001928E-02 0. -1.
        1   -1    0    0  501    0  0.00000000000E+00  0.00000000000E+00 -0.10755885371E+04  0.10755885371E+04  0.50400001928E-02 0.  1.
    10030    2    1    2    0    0  0.00000000000E+00  0.00000000000E+00  0.87988689517E+03  0.30310639694E+04  0.29005426800E+04 0.  0.
        5    1    3    3  502    0  0.10591885765E+04  0.87419154131E+03  0.92693265350E+03  0.16568999745E+04  0.46999998093E+01 0. -1.
       -5    1    3    3    0  502 -0.10591885765E+04 -0.87419154131E+03 -0.47045758338E+02  0.13741639949E+04  0.46999998093E+01 0.  1.
</event>
<event>
 5   0  0.2429358E-06  0.2875714E+04  0.7818609E-02  0.8280140E-01
        1   -1    0    0  501    0  0.00000000000E+00  0.00000000000E+00  0.23075088572E+04  0.23075088572E+04  0.50400001928E-02 0.  1.
       -1   -1    0    0    0  501  0.00000000000E+00  0.00000000000E+00 -0.89595897640E+03  0.89595897641E+03  0.50400001928E-02 0. -1.
    10030    2    1    2    0    0  0.00000000000E+00  0.00000000000E+00  0.14115498808E+04  0.32034678336E+04  0.28757143625E+04 0.  0.
        2    1    3    3  502    0  0.10127480873E+03  0.13660816217E+04  0.11926176582E+04  0.18162523125E+04  0.25500000920E-02 0.  1.
       -2    1    3    3    0  502 -0.10127480873E+03 -0.13660816217E+04  0.21893222255E+03  0.13872155211E+04  0.25500000920E-02 0. -1.
</event>
<event>
 5   0  0.6733688E-06  0.2896920E+04  0.7818609E-02  0.8273794E-01
       -2   -1    0    0    0  501  0.00000000000E+00  0.00000000000E+00  0.13585940279E+04  0.13585940279E+04  0.25500000920E-02 0. -1.
        2   -1    0    0  501    0  0.00000000000E+00  0.00000000000E+00 -0.15442708052E+04  0.15442708052E+04  0.25500000920E-02 0.  1.
    10030    2    1    2    0    0  0.00000000000E+00  0.00000000000E+00 -0.18567677730E+03  0.29028648331E+04  0.28969204984E+04 0.  0.
        5    1    3    3  502    0  0.85306209793E+03 -0.27833768831E+02  0.10798301502E+04  0.13764246819E+04  0.46999998093E+01 0. -1.
       -5    1    3    3    0  502 -0.85306209793E+03  0.27833768831E+02 -0.12655069275E+04  0.15264401512E+04  0.46999998093E+01 0.  1.
</event>
<event>
 5   0  0.6513041E-06  0.2848190E+04  0.7818609E-02  0.8288462E-01
       -2   -1    0    0    0  501  0.00000000000E+00  0.00000000000E+00  0.89044272432E+03  0.89044272432E+03  0.25500000920E-02 0.  1.
        2   -1    0    0  501    0  0.00000000000E+00  0.00000000000E+00 -0.22775709696E+04  0.22775709696E+04  0.25500000920E-02 0. -1.
    10030    2    1    2    0    0  0.00000000000E+00  0.00000000000E+00 -0.13871282453E+04  0.31680136939E+04  0.28481899508E+04 0.  0.
        1    1    3    3  502    0 -0.66016504504E+03 -0.50405424788E+03  0.59311953815E+03  0.10206269436E+04  0.50400001928E-02 0.  1.
       -1    1    3    3    0  502  0.66016504504E+03  0.50405424788E+03 -0.19802477834E+04  0.21473867503E+04  0.50400001928E-02 0. -1.
</event>
<event>
 5   0  0.2429358E-06  0.2894360E+04  0.7818609E-02  0.8274558E-01
        1   -1    0    0  501    0  0.00000000000E+00  0.00000000000E+00  0.21254110069E+04  0.21254110069E+04  0.50400001928E-02 0. -1.
       -1   -1    0    0    0  501  0.00000000000E+00  0.00000000000E+00 -0.98537641194E+03  0.98537641195E+03  0.50400001928E-02 0.  1.
    10030    2    1    2    0    0  0.00000000000E+00  0.00000000000E+00  0.11400345949E+04  0.31107874188E+04  0.28943599444E+04 0.  0.
        2    1    3    3  502    0 -0.51382479056E+03  0.10329813259E+04 -0.36895991411E+03  0.12112793869E+04  0.25500000920E-02 0. -1.
       -2    1    3    3    0  502  0.51382479056E+03 -0.10329813259E+04  0.15089945090E+04  0.18995080319E+04  0.25500000920E-02 0.  1.
</event>
<event>
 5   0  0.6513041E-06  0.2906764E+04  0.7818609E-02  0.8270868E-01
       -2   -1    0    0    0  501  0.00000000000E+00  0.00000000000E+00  0.12920123802E+04  0.12920123802E+04  0.25500000920E-02 0. -1.
        2   -1    0    0  501    0  0.00000000000E+00  0.00000000000E+00 -0.16349067785E+04  0.16349067786E+04  0.25500000920E-02 0.  1.
    10030    2    1    2    0    0  0.00000000000E+00  0.00000000000E+00 -0.34289439834E+03  0.29269191588E+04  0.29067643856E+04 0.  0.
        1    1    3    3  502    0 -0.65924291420E+03 -0.10870855482E+04 -0.88057709369E+03  0.15465355563E+04  0.50400001928E-02 0. -1.
       -1    1    3    3    0  502  0.65924291420E+03  0.10870855482E+04  0.53768269535E+03  0.13803836024E+04  0.50400001928E-02 0.  1.
</event>
<event>
 5   0  0.2336512E-06  0.2892937E+04  0.7818609E-02  0.8274982E-01
       -1   -1    0    0    0  501  0.00000000000E+00  0.00000000000E+00  0.73381013290E+03  0.73381013292E+03  0.50400001928E-02 0. -1.
        1   -1    0    0  501    0  0.00000000000E+00  0.00000000000E+00 -0.28512437090E+04  0.28512437090E+04  0.50400001928E-02 0.  1.
    10030    2    1    2    0    0  0.00000000000E+00  0.00000000000E+00 -0.21174335761E+04  0.35850538419E+04  0.28929372790E+04 0.  0.
        4    1    3    3  502    0  0.54015611823E+03 -0.40878934618E+03  0.52508908776E+03  0.85708664940E+03  0.12699999809E+01 0. -1.
       -4    1    3    3    0  502 -0.54015611823E+03  0.40878934618E+03 -0.26425226639E+04  0.27279671925E+04  0.12699999809E+01 0.  1.
</event>
<event>
 5   0  0.6612533E-06  0.2906438E+04  0.7818609E-02  0.8270965E-01
        2   -1    0    0  501    0  0.00000000000E+00  0.00000000000E+00  0.14964028635E+04  0.14964028635E+04  0.25500000920E-02 0.  1.
       -2   -1    0    0    0  501  0.00000000000E+00  0.00000000000E+00 -0.14112808756E+04  0.14112808756E+04  0.25500000920E-02 0. -1.
    10030    2    1    2    0    0  0.00000000000E+00  0.00000000000E+00  0.85121987904E+02  0.29076837391E+04  0.29064375056E+04 0.  0.
        3    1    3    3  502    0 -0.22475504575E+03  0.90503790968E+02  0.14760532506E+04  0.14958071318E+04  0.10100000352E+00 0.  1.
       -3    1    3    3    0  502  0.22475504575E+03 -0.90503790968E+02 -0.13909312626E+04  0.14118766073E+04  0.10100000352E+00 0. -1.
</event>
<event>
 5   0  0.2336512E-06  0.2924187E+04  0.7818609E-02  0.8265717E-01
       -1   -1    0    0    0  501  0.00000000000E+00  0.00000000000E+00  0.12769334886E+04  0.12769334886E+04  0.50400001928E-02 0. -1.
        1   -1    0    0  501    0  0.00000000000E+00  0.00000000000E+00 -0.16741026321E+04  0.16741026321E+04  0.50400001928E-02 0.  1.
    10030    2    1    2    0    0  0.00000000000E+00  0.00000000000E+00 -0.39716914344E+03  0.29510361207E+04  0.29241872131E+04 0.  0.
        4    1    3    3  502    0  0.89632246068E+03 -0.59757644171E+03 -0.11962077592E+04  0.16097845114E+04  0.12699999809E+01 0.  1.
       -4    1    3    3    0  502 -0.89632246068E+03  0.59757644171E+03  0.79903861571E+03  0.13412516093E+04  0.12699999809E+01 0. -1.
</event>
<event>
 5   0  0.6612533E-06  0.2886472E+04  0.7818609E-02  0.8276914E-01
       -2   -1    0    0    0  501  0.00000000000E+00  0.00000000000E+00  0.13567878498E+04  0.13567878498E+04  0.25500000920E-02 0.  1.
        2   -1    0    0  501    0  0.00000000000E+00  0.00000000000E+00 -0.15351924172E+04  0.15351924172E+04  0.25500000920E-02 0. -1.
    10030    2    1    2    0    0  0.00000000000E+00  0.00000000000E+00 -0.17840456739E+03  0.28919802670E+04  0.28864721850E+04 0.  0.
        3    1    3    3  502    0  0.11453884367E+04  0.75862013739E+03  0.35380798853E+03  0.14186610895E+04  0.10100000352E+00 0. -1.
       -3    1    3    3    0  502 -0.11453884367E+04 -0.75862013739E+03 -0.53221255592E+03  0.14733191775E+04  0.10100000352E+00 0.  1.
</event>
<event>
 5   0  0.6393633E-06  0.2887445E+04  0.7818609E-02  0.8276623E-01
        2   -1    0    0  501    0  0.00000000000E+00  0.00000000000E+00  0.24467325008E+04  0.24467325008E+04  0.25500000920E-02 0. -1.
       -2   -1    0    0    0  501  0.00000000000E+00  0.00000000000E+00 -0.85188508224E+03  0.85188508224E+03  0.25500000920E-02 0.  1.
    10030    2    1    2    0    0  0.00000000000E+00  0.00000000000E+00  0.15948474186E+04  0.32986175830E+04  0.28874451805E+04 0.  0.
        4    1    3    3  502    0 -0.56680096459E+03 -0.74422095928E+03 -0.45880355075E+03  0.10419359293E+04  0.12699999809E+01 0.  1.
       -4    1    3    3    0  502  0.56680096459E+03  0.74422095928E+03  0.20536509693E+04  0.22566816537E+04  0.12699999809E+01 0. -1.
</event>
<event>
 5   0  0.6615403E-06  0.2900798E+04  0.7818609E-02  0.8272640E-01
        2   -1    0    0  501    0  0.00000000000E+00  0.00000000000E+00  0.19367070354E+04  0.19367070354E+04  0.25500000920E-02 0. -1.
       -2   -1    0    0    0  501  0.00000000000E+00  0.00000000000E+00 -0.10862030888E+04  0.10862030888E+04  0.25500000920E-02 0.  1.
    10030    2    1    2    0    0  0.00000000000E+00  0.00000000000E+00  0.85050394655E+03  0.30229101242E+04  0.29007979344E+04 0.  0.
        2    1    3    3  502    0 -0.30411777178E+02 -0.92572294222E+03 -0.73787351707E+03  0.11842065568E+04  0.25500000920E-02 0.  1.
       -2    1    3    3    0  502  0.30411777178E+02  0.92572294222E+03  0.15883774636E+04  0.18387035674E+04  0.25500000920E-02 0. -1.
</event>
<event>
 5   0  0.6615403E-06  0.2911007E+04  0.7818609E-02  0.8269610E-01
        2   -1    0    0  501    0  0.00000000000E+00  0.00000000000E+00  0.14448088812E+04  0.14448088812E+04  0.25500000920E-02 0.  1.
       -2   -1    0    0    0  501  0.00000000000E+00  0.00000000000E+00 -0.14662771730E+04  0.14662771730E+04  0.25500000920E-02 0. -1.
    10030    2    1    2    0    0  0.00000000000E+00  0.00000000000E+00 -0.21468291839E+02  0.29110860542E+04  0.29110068924E+04 0.  0.
        2    1    3    3  502    0  0.79015120783E+02 -0.13272012035E+04  0.58155204891E+03  0.14511751133E+04  0.25500000920E-02 0.  1.
       -2    1    3    3    0  502 -0.79015120783E+02  0.13272012035E+04 -0.60302034075E+03  0.14599109409E+04  0.25500000920E-02 0. -1.
</event>
<event>
 5   0  0.2336512E-06  0.2841288E+04  0.7818609E-02  0.8290564E-01
       -1   -1    0    0    0  501  0.00000000000E+00  0.00000000000E+00  0.31543213840E+04  0.31543213840E+04  0.50400001928E-02 0. -1.
        1   -1    0    0  501    0  0.00000000000E+00  0.00000000000E+00 -0.63982996707E+03  0.63982996709E+03  0.50400001928E-02 0.  1.
    10030    2    1    2    0    0  0.00000000000E+00  0.00000000000E+00  0.25144914169E+04  0.37941513511E+04  0.28412879807E+04 0.  0.
        4    1    3    3  502    0  0.12802624987E+04  0.29888420036E+03  0.53834899572E+03  0.14206424902E+04  0.12699999809E+01 0. -1.
       -4    1    3    3    0  502 -0.12802624987E+04 -0.29888420036E+03  0.19761424212E+04  0.23735088609E+04  0.12699999809E+01 0.  1.
</event>
<event>
 5   0  0.6615403E-06  0.2819791E+04  0.7818609E-02  0.8297150E-01
        2   -1    0    0  501    0  0.00000000000E+00  0.00000000000E+00  0.17458006205E+04  0.17458006205E+04  0.25500000920E-02 0. -1.
       -2   -1    0    0    0  501  0.00000000000E+00  0.00000000000E+00 -0.11386213104E+04  0.11386213104E+04  0.25500000920E-02 0.  1.
    10030    2    1    2    0    0  0.00000000000E+00  0.00000000000E+00  0.60717931006E+03  0.28844219310E+04  0.28197913329E+04 0.  0.
        2    1    3    3  502    0  0.19479394531E+03 -0.94290461419E+03  0.13571439819E+04  0.16639872536E+04  0.25500000920E-02 0. -1.
       -2    1    3    3    0  502 -0.19479394531E+03  0.94290461419E+03 -0.74996467185E+03  0.12204346773E+04  0.25500000920E-02 0.  1.
</event>
<event>
 5   0  0.6733688E-06  0.2924048E+04  0.7818609E-02  0.8265758E-01
        2   -1    0    0  501    0  0.00000000000E+00  0.00000000000E+00  0.17005129684E+04  0.17005129684E+04  0.25500000920E-02 0.  1.
       -2   -1    0    0    0  501  0.00000000000E+00  0.00000000000E+00 -0.12569821544E+04  0.12569821544E+04  0.25500000920E-02 0. -1.
    10030    2    1    2    0    0  0.00000000000E+00  0.00000000000E+00  0.44353081405E+03  0.29574951228E+04  0.29240481901E+04 0.  0.
        5    1    3    3  502    0  0.11479902239E+04 -0.47547790843E+03  0.10009877970E+04  0.15956062971E+04  0.46999998093E+01 0.  1.
       -5    1    3    3    0  502 -0.11479902239E+04  0.47547790843E+03 -0.55745698298E+03  0.13618888257E+04  0.46999998093E+01 0. -1.
</event>
<event>
 5   0  0.6733688E-06  0.2892446E+04  0.7818609E-02  0.8275129E-01
       -2   -1    0    0    0  501  0.00000000000E+00  0.00000000000E+00  0.10319035548E+04  0.10319035548E+04  0.25500000920E-02 0. -1.
        2   -1    0    0  501    0  0.00000000000E+00  0.00000000000E+00 -0.20268955018E+04  0.20268955018E+04  0.25500000920E-02 0.  1.
    10030    2    1    2    0    0  0.00000000000E+00  0.00000000000E+00 -0.99499194704E+03  0.30587990567E+04  0.28924457980E+04 0.  0.
        5    1    3    3  502    0  0.10690261611E+04 -0.29339318255E+03  0.48470653874E+03  0.12099004138E+04  0.46999998093E+01 0. -1.
       -5    1    3    3    0  502 -0.10690261611E+04  0.29339318255E+03 -0.14796984858E+04  0.18488986428E+04  0.46999998093E+01 0.  1.
</event>
<event>
 5   0  0.6612533E-06  0.2898862E+04  0.7818609E-02  0.8273216E-01
        2   -1    0    0  501    0  0.00000000000E+00  0.00000000000E+00  0.91504914816E+03  0.91504914817E+03  0.25500000920E-02 0. -1.
       -2   -1    0    0    0  501  0.00000000000E+00  0.00000000000E+00 -0.22958871291E+04  0.22958871291E+04  0.25500000920E-02 0.  1.
    10030    2    1    2    0    0  0.00000000000E+00  0.00000000000E+00 -0.13808379810E+04  0.32109362773E+04  0.28988615433E+04 0.  0.
        3    1    3    3  502    0  0.14092530767E+04  0.18000546792E+03 -0.37235949620E+03  0.14686891459E+04  0.10100000352E+00 0. -1.
       -3    1    3    3    0  502 -0.14092530767E+04 -0.18000546792E+03 -0.10084784848E+04  0.17422471314E+04  0.10100000352E+00 0.  1.
</event>
<event>
 5   0  0.2348684E-06  0.2917967E+04  0.7818609E-02  0.8267552E-01
        1   -1    0    0  501    0  0.00000000000E+00  0.00000000000E+00  0.15234400326E+04  0.15234400326E+04  0.50400001928E-02 0.  1.
       -1   -1    0    0    0  501  0.00000000000E+00  0.00000000000E+00 -0.13972539769E+04  0.13972539769E+04  0.50400001928E-02 0. -1.
    10030    2    1    2    0    0  0.00000000000E+00  0.00000000000E+00  0.12618605570E+03  0.29206940095E+04  0.29179668566E+04 0.  0.
        5    1    3    3  502    0  0.45429068496E+03 -0.12475109881E+04  0.66859382471E+03  0.14865071424E+04  0.46999998093E+01 0.  1.
       -5    1    3    3    0  502 -0.45429068496E+03  0.12475109881E+04 -0.54240776902E+03  0.14341868671E+04  0.46999998093E+01 0. -1.
</event>
<event>
 5   0  0.2474769E-06  0.2896768E+04  0.7818609E-02  0.8273840E-01
        1   -1    0    0  501    0  0.00000000000E+00  0.00000000000E+00  0.16709654064E+04  0.16709654064E+04  0.50400001928E-02 0.  1.
       -1   -1    0    0    0  501  0.00000000000E+00  0.00000000000E+00 -0.12554517443E+04  0.12554517443E+04  0.50400001928E-02 0. -1.
    10030    2    1    2    0    0  0.00000000000E+00  0.00000000000E+00  0.41551366206E+03  0.29264171507E+04  0.28967681537E+04 0.  0.
        1    1    3    3  502    0  0.40148708819E+03 -0.12535358166E+04 -0.40280688187E+03  0.13765163674E+04  0.50400001928E-02 0. -1.
       -1    1    3    3    0  502 -0.40148708819E+03  0.12535358166E+04  0.81832054393E+03  0.15499007833E+04  0.50400001928E-02 0.  1.
</event>
<event>
 5   0  0.6612533E-06  0.2722144E+04  0.7818609E-02  0.8327856E-01
       -2   -1    0    0    0  501  0.00000000000E+00  0.00000000000E+00  0.10346485148E+04  0.10346485148E+04  0.25500000920E-02 0. -1.
        2   -1    0    0  501    0  0.00000000000E+00  0.00000000000E+00 -0.17904798657E+04  0.17904798657E+04  0.25500000920E-02 0.  1.
    10030    2    1    2    0    0  0.00000000000E+00  0.00000000000E+00 -0.75583135091E+03  0.28251283804E+04  0.27221442531E+04 0.  0.
        3    1    3    3  502    0 -0.83004438025E+03 -0.24808570773E+02 -0.14971048489E+04  0.17119906767E+04  0.10100000352E+00 0.  1.
       -3    1    3    3    0  502  0.83004438025E+03  0.24808570773E+02  0.74127349800E+03  0.11131377037E+04  0.10100000352E+00 0. -1.
</event>
<event>
 5   0  0.2429358E-06  0.2899445E+04  0.7818609E-02  0.8273043E-01
        1   -1    0    0  501    0  0.00000000000E+00  0.00000000000E+00  0.18812835557E+04  0.18812835557E+04  0.50400001928E-02 0.  1.
       -1   -1    0    0    0  501  0.00000000000E+00  0.00000000000E+00 -0.11171600943E+04  0.11171600943E+04  0.50400001928E-02 0. -1.
    10030    2    1    2    0    0  0.00000000000E+00  0.00000000000E+00  0.76412346143E+03  0.29984436500E+04  0.28994447154E+04 0.  0.
        2    1    3    3  502    0  0.39883326075E+03 -0.56940656665E+03 -0.93353992340E+03  0.11639538636E+04  0.25500000920E-02 0. -1.
       -2    1    3    3    0  502 -0.39883326075E+03  0.56940656665E+03  0.16976633848E+04  0.18344897863E+04  0.25500000920E-02 0.  1.
</event>
<event>
 5   0  0.6393633E-06  0.2891052E+04  0.7818609E-02  0.8275545E-01
       -2   -1    0    0    0  501  0.00000000000E+00  0.00000000000E+00  0.17141337387E+04  0.17141337387E+04  0.25500000920E-02 0.  1.
        2   -1    0    0  501    0  0.00000000000E+00  0.00000000000E+00 -0.12190097477E+04  0.12190097477E+04  0.25500000920E-02 0. -1.
    10030    2    1    2    0    0  0.00000000000E+00  0.00000000000E+00  0.49512399093E+03  0.29331434864E+04  0.28910522211E+04 0.  0.
        4    1    3    3  502    0 -0.63803488471E+03 -0.12895156742E+04  0.38961815803E+03  0.14905512773E+04  0.12699999809E+01 0. -1.
       -4    1    3    3    0  502  0.63803488471E+03  0.12895156742E+04  0.10550583290E+03  0.14425922091E+04  0.12699999809E+01 0.  1.
</event>
<event>
 5   0  0.2336512E-06  0.2715833E+04  0.7818609E-02  0.8329886E-01
        1   -1    0    0  501    0  0.00000000000E+00  0.00000000000E+00  0.18839735905E+04  0.18839735905E+04  0.50400001928E-02 0.  1.
       -1   -1    0    0    0  501  0.00000000000E+00  0.00000000000E+00 -0.97874909146E+03  0.97874909147E+03  0.50400001928E-02 0. -1.
    10030    2    1    2    0    0  0.00000000000E+00  0.00000000000E+00  0.90522449905E+03  0.28627226820E+04  0.27158331613E+04 0.  0.
        4    1    3    3  502    0 -0.82342954433E+03  0.98687609706E+03  0.91445989704E+03  0.15774026631E+04  0.12699999809E+01 0.  1.
       -4    1    3    3    0  502  0.82342954433E+03 -0.98687609706E+03 -0.92353979905E+01  0.12853200189E+04  0.12699999809E+01 0. -1.
</event>
<event>
 5   0  0.6393633E-06  0.2912966E+04  0.7818609E-02  0.8269030E-01
       -2   -1    0    0    0  501  0.00000000000E+00  0.00000000000E+00  0.98175518085E+03  0.98175518085E+03  0.25500000920E-02 0. -1.
        2   -1    0    0  501    0  0.00000000000E+00  0.00000000000E+00 -0.21607659537E+04  0.21607659537E+04  0.25500000920E-02 0.  1.
    10030    2    1    2    0    0  0.00000000000E+00  0.00000000000E+00 -0.11790107729E+04  0.31425211346E+04  0.29129663024E+04 0.  0.
        4    1    3    3  502    0 -0.97957872021E+03  0.99267754272E+03 -0.10425498231E+04  0.17412337349E+04  0.12699999809E+01 0.  1.
       -4    1    3    3    0  502  0.97957872021E+03 -0.99267754272E+03 -0.13646094980E+03  0.14012873997E+04  0.12699999809E+01 0. -1.
</event>
<event>
 5   0  0.6513041E-06  0.2808352E+04  0.7818609E-02  0.8300680E-01
       -2   -1    0    0    0  501  0.00000000000E+00  0.00000000000E+00  0.11564493020E+04  0.11564493020E+04  0.25500000920E-02 0. -1.
        2   -1    0    0  501    0  0.00000000000E+00  0.00000000000E+00 -0.17049693115E+04  0.17049693115E+04  0.25500000920E-02 0.  1.
    10030    2    1    2    0    0  0.00000000000E+00  0.00000000000E+00 -0.54852000944E+03  0.28614186135E+04  0.28083522359E+04 0.  0.
        1    1    3    3  502    0  0.53043686051E+03 -0.74376952258E+03 -0.13607844471E+04  0.16389907496E+04  0.50400001928E-02 0.  1.
       -1    1    3    3    0  502 -0.53043686051E+03  0.74376952258E+03  0.81226443770E+03  0.12224278639E+04  0.50400001928E-02 0. -1.
</event>
<event>
 5   0  0.6615403E-06  0.2884978E+04  0.7818609E-02  0.8277361E-01
        2   -1    0    0  501    0  0.00000000000E+00  0.00000000000E+00  0.22953007489E+04  0.22953007489E+04  0.25500000920E-02 0.  1.
       -2   -1    0    0    0  501  0.00000000000E+00  0.00000000000E+00 -0.90653671920E+03  0.90653671920E+03  0.25500000920E-02 0. -1.
    10030    2    1    2    0    0  0.00000000000E+00  0.00000000000E+00  0.13887640297E+04  0.32018374681E+04  0.28849779275E+04 0.  0.
        2    1    3    3  502    0  0.52365332018E+03 -0.26946007877E+03  0.21558033152E+04  0.22347951736E+04  0.25500000920E-02 0.  1.
       -2    1    3    3    0  502 -0.52365332018E+03  0.26946007877E+03 -0.76703928556E+03  0.96704229452E+03  0.25500000920E-02 0. -1.
</event>
<event>
 5   0  0.2508094E-06  0.2980319E+04  0.7818609E-02  0.8249373E-01
       -1   -1    0    0    0  501  0.00000000000E+00  0.00000000000E+00  0.99015610670E+03  0.99015610672E+03  0.50400001928E-02 0. -1.
        1   -1    0    0  501    0  0.00000000000E+00  0.00000000000E+00 -0.22426521794E+04  0.22426521794E+04  0.50400001928E-02 0.  1.
    10030    2    1    2    0    0  0.00000000000E+00  0.00000000000E+00 -0.12524960727E+04  0.32328082862E+04  0.29803192787E+04 0.  0.
        3    1    3    3  502    0  0.88545782724E+03 -0.14110093259E+03  0.66480916251E+03  0.11162061950E+04  0.10100000352E+00 0. -1.
       -3    1    3    3    0  502 -0.88545782724E+03  0.14110093259E+03 -0.19173052352E+04  0.21166020912E+04  0.10100000352E+00 0.  1.
</event>
<event>
 5   0  0.2474769E-06  0.2893999E+04  0.7818609E-02  0.8274665E-01
       -1   -1    0    0    0  501  0.00000000000E+00  0.00000000000E+00  0.10175517234E+04  0.10175517234E+04  0.50400001928E-02 0. -1.
        1   -1    0    0  501    0  0.00000000000E+00  0.00000000000E+00 -0.20576912375E+04  0.20576912375E+04  0.50400001928E-02 0.  1.
    10030    2    1    2    0    0  0.00000000000E+00  0.00000000000E+00 -0.10401395141E+04  0.30752429610E+04  0.28939988010E+04 0.  0.
        1    1    3    3  502    0  0.55344447721E+03 -0.90074692140E+03  0.52981568730E+03  0.11825186968E+04  0.50400001928E-02 0. -1.
       -1    1    3    3    0  502 -0.55344447721E+03  0.90074692140E+03 -0.15699552014E+04  0.18927242642E+04  0.50400001928E-02 0.  1.
</event>
<event>
 5   0  0.2429358E-06  0.2924820E+04  0.7818609E-02  0.8265531E-01
       -1   -1    0    0    0  501  0.00000000000E+00  0.00000000000E+00  0.11234288533E+04  0.11234288533E+04  0.50400001928E-02 0.  1.
        1   -1    0    0  501    0  0.00000000000E+00  0.00000000000E+00 -0.19036748875E+04  0.19036748875E+04  0.50400001928E-02 0. -1.
    10030    2    1    2    0    0  0.00000000000E+00  0.00000000000E+00 -0.78024603420E+03  0.30271037408E+04  0.29248201968E+04 0.  0.
        2    1    3    3  502    0 -0.56437893059E+03 -0.46330909559E+03 -0.17015027630E+04  0.18515643515E+04  0.25500000920E-02 0. -1.
       -2    1    3    3    0  502  0.56437893059E+03  0.46330909559E+03  0.92125672881E+03  0.11755393893E+04  0.25500000920E-02 0.  1.
</event>
<event>
 5   0  0.6615403E-06  0.2808142E+04  0.7818609E-02  0.8300745E-01
        2   -1    0    0  501    0  0.00000000000E+00  0.00000000000E+00  0.13058970737E+04  0.13058970737E+04  0.25500000920E-02 0.  1.
       -2   -1    0    0    0  501  0.00000000000E+00  0.00000000000E+00 -0.15096259120E+04  0.15096259120E+04  0.25500000920E-02 0. -1.
    10030    2    1    2    0    0  0.00000000000E+00  0.00000000000E+00 -0.20372883826E+03  0.28155229857E+04  0.28081424898E+04 0.  0.
        2    1    3    3  502    0  0.97966589173E+03 -0.97882209921E+03 -0.33394221364E+03  0.14245544438E+04  0.25500000920E-02 0.  1.
       -2    1    3    3    0  502 -0.97966589173E+03  0.97882209921E+03  0.13021337539E+03  0.13909685419E+04  0.25500000920E-02 0. -1.
</event>
<event>
 5   0  0.6733688E-06  0.2897820E+04  0.7818609E-02  0.8273526E-01
        2   -1    0    0  501    0  0.00000000000E+00  0.00000000000E+00  0.10249742561E+04  0.10249742561E+04  0.25500000920E-02 0. -1.
       -2   -1    0    0    0  501  0.00000000000E+00  0.00000000000E+00 -0.20481883191E+04  0.20481883191E+04  0.25500000920E-02 0.  1.
    10030    2    1    2    0    0  0.00000000000E+00  0.00000000000E+00 -0.10232140630E+04  0.30731625752E+04  0.28978200763E+04 0.  0.
        5    1    3    3  502    0  0.26901974238E+03 -0.17921997550E+03  0.98623741846E+03  0.10378717440E+04  0.46999998093E+01 0. -1.
       -5    1    3    3    0  502 -0.26901974238E+03  0.17921997550E+03 -0.20094514814E+04  0.20352908312E+04  0.46999998093E+01 0.  1.
</event>
<event>
 5   0  0.2474769E-06  0.2871333E+04  0.7818609E-02  0.8281458E-01
        1   -1    0    0  501    0  0.00000000000E+00  0.00000000000E+00  0.11231175913E+04  0.11231175913E+04  0.50400001928E-02 0. -1.
       -1   -1    0    0    0  501  0.00000000000E+00  0.00000000000E+00 -0.18351940586E+04  0.18351940586E+04  0.50400001928E-02 0.  1.
    10030    2    1    2    0    0  0.00000000000E+00  0.00000000000E+00 -0.71207646726E+03  0.29583116499E+04  0.28713333005E+04 0.  0.
        1    1    3    3  502    0 -0.66103153511E+02 -0.49209756724E+03  0.10318415728E+04  0.11450880638E+04  0.50400001928E-02 0. -1.
       -1    1    3    3    0  502  0.66103153511E+02  0.49209756724E+03 -0.17439180400E+04  0.18132235860E+04  0.50400001928E-02 0.  1.
</event>
<event>
 5   0  0.6513041E-06  0.2858297E+04  0.7818609E-02  0.8285394E-01
        2   -1    0    0  501    0  0.00000000000E+00  0.00000000000E+00  0.97768453020E+03  0.97768453020E+03  0.25500000920E-02 0. -1.
       -2   -1    0    0    0  501  0.00000000000E+00  0.00000000000E+00 -0.20890848054E+04  0.20890848054E+04  0.25500000920E-02 0.  1.
    10030    2    1    2    0    0  0.00000000000E+00  0.00000000000E+00 -0.11114002752E+04  0.30667693356E+04  0.28582973229E+04 0.  0.
        1    1    3    3  502    0  0.56964559081E+03  0.11676007098E+03 -0.19564204638E+04  0.20410071153E+04  0.50400001928E-02 0.  1.
       -1    1    3    3    0  502 -0.56964559081E+03 -0.11676007098E+03  0.84502018866E+03  0.10257622203E+04  0.50400001928E-02 0. -1.
</event>
<event>
 5   0  0.2474769E-06  0.2907434E+04  0.7818609E-02  0.8270669E-01
       -1   -1    0    0    0  501  0.00000000000E+00  0.00000000000E+00  0.91979665586E+03  0.91979665588E+03  0.50400001928E-02 0.  1.
        1   -1    0    0  501    0  0.00000000000E+00  0.00000000000E+00 -0.22975657489E+04  0.22975657489E+04  0.50400001928E-02 0. -1.
    10030    2    1    2    0    0  0.00000000000E+00  0.00000000000E+00 -0.13777690931E+04  0.32173624048E+04  0.29074341214E+04 0.  0.
        1    1    3    3  502    0  0.10320593692E+04  0.16810316805E+03 -0.18064329870E+04  0.20872482731E+04  0.50400001928E-02 0. -1.
       -1    1    3    3    0  502 -0.10320593692E+04 -0.16810316805E+03  0.42866389396E+03  0.11301141317E+04  0.50400001928E-02 0.  1.
</event>
<event>
 5   0  0.6733688E-06  0.2908722E+04  0.7818609E-02  0.8270287E-01
       -2   -1    0    0    0  501  0.00000000000E+00  0.00000000000E+00  0.14193675477E+04  0.14193675477E+04  0.25500000920E-02 0.  1.
        2   -1    0    0  501    0  0.00000000000E+00  0.00000000000E+00 -0.14902167549E+04  0.14902167549E+04  0.25500000920E-02 0. -1.
    10030    2    1    2    0    0  0.00000000000E+00  0.00000000000E+00 -0.70849207225E+02  0.29095843026E+04  0.29087215755E+04 0.  0.
        5    1    3    3  502    0  0.10740226224E+04 -0.97883835539E+03  0.23703768878E+02  0.14533523586E+04  0.46999998093E+01 0.  1.
       -5    1    3    3    0  502 -0.10740226224E+04  0.97883835539E+03 -0.94552976102E+02  0.14562319440E+04  0.46999998093E+01 0. -1.
</event>
<event>
 5   0  0.6393633E-06  0.2904913E+04  0.7818609E-02  0.8271417E-01
       -2   -1    0    0    0  501  0.00000000000E+00  0.00000000000E+00  0.10959871314E+04  0.10959871314E+04  0.25500000920E-02 0.  1.
        2   -1    0    0  501    0  0.00000000000E+00  0.00000000000E+00 -0.19248671866E+04  0.19248671866E+04  0.25500000920E-02 0. -1.
    10030    2    1    2    0    0  0.00000000000E+00  0.00000000000E+00 -0.82888005517E+03  0.30208543180E+04  0.29049128498E+04 0.  0.
        4    1    3    3  502    0 -0.31994748811E+02 -0.10603821146E+04  0.61722109796E+03  0.12273538160E+04  0.12699999809E+01 0. -1.
       -4    1    3    3    0  502  0.31994748811E+02  0.10603821146E+04 -0.14461011531E+04  0.17935005021E+04  0.12699999809E+01 0.  1.
</event>
<event>
 5   0  0.6733688E-06  0.2906148E+04  0.7818609E-02  0.8271051E-01
        2   -1    0    0  501    0  0.00000000000E+00  0.00000000000E+00  0.22800526655E+04  0.22800526655E+04  0.25500000920E-02 0.  1.
       -2   -1    0    0    0  501  0.00000000000E+00  0.00000000000E+00 -0.92604147229E+03  0.92604147229E+03  0.25500000920E-02 0. -1.
    10030    2    1    2    0    0  0.00000000000E+00  0.00000000000E+00  0.13540111932E+04  0.32060941378E+04  0.29061475030E+04 0.  0.
        5    1    3    3  502    0 -0.13849854853E+04 -0.40989774390E+03  0.50187528571E+03  0.15290852976E+04  0.46999998093E+01 0.  1.
       -5    1    3    3    0  502  0.13849854853E+04  0.40989774390E+03  0.85213590747E+03  0.16770088401E+04  0.46999998093E+01 0. -1.
</event>
<event>
 5   0  0.6733688E-06  0.2873654E+04  0.7818609E-02  0.8280760E-01
        2   -1    0    0  501    0  0.00000000000E+00  0.00000000000E+00  0.10003797292E+04  0.10003797292E+04  0.25500000920E-02 0. -1.
       -2   -1    0    0    0  501  0.00000000000E+00  0.00000000000E+00 -0.20636884265E+04  0.20636884265E+04  0.25500000920E-02 0.  1.
    10030    2    1    2    0    0  0.00000000000E+00  0.00000000000E+00 -0.10633086973E+04  0.30640681557E+04  0.28736541680E+04 0.  0.
        5    1    3    3  502    0  0.50092760186E+03  0.21464452289E+03 -0.19492011148E+04  0.20239584505E+04  0.46999998093E+01 0.  1.
       -5    1    3    3    0  502 -0.50092760186E+03 -0.21464452289E+03  0.88589241746E+03  0.10401097052E+04  0.46999998093E+01 0. -1.
</event>
<event>
 5   0  0.2429358E-06  0.2976669E+04  0.7818609E-02  0.8250425E-01
        1   -1    0    0  501    0  0.00000000000E+00  0.00000000000E+00  0.16467506072E+04  0.16467506072E+04  0.50400001928E-02 0. -1.
       -1   -1    0    0    0  501  0.00000000000E+00  0.00000000000E+00 -0.13451582035E+04  0.13451582035E+04  0.50400001928E-02 0.  1.
    10030    2    1    2    0    0  0.00000000000E+00  0.00000000000E+00  0.30159240376E+03  0.29919088107E+04  0.29766693390E+04 0.  0.
        2    1    3    3  502    0  0.98423828487E+03 -0.11155134796E+04  0.10534563259E+03  0.14913728665E+04  0.25500000920E-02 0.  1.
       -2    1    3    3    0  502 -0.98423828487E+03  0.11155134796E+04  0.19624677117E+03  0.15005359442E+04  0.25500000920E-02 0. -1.
</event>
<event>
 5   0  0.6513041E-06  0.2889558E+04  0.7818609E-02  0.8275991E-01
        2   -1    0    0  501    0  0.00000000000E+00  0.00000000000E+00  0.19761616897E+04  0.19761616897E+04  0.25500000920E-02 0.  1.
       -2   -1    0    0    0  501  0.00000000000E+00  0.00000000000E+00 -0.10562833086E+04  0.10562833086E+04  0.25500000920E-02 0. -1.
    10030    2    1    2    0    0  0.00000000000E+00  0.00000000000E+00  0.91987838110E+03  0.30324449982E+04  0.28895581723E+04 0.  0.
        1    1    3    3  502    0  0.70625378155E+03 -0.54419710868E+03  0.16530120688E+04  0.18781357237E+04  0.50400001928E-02 0.  1.
       -1    1    3    3    0  502 -0.70625378155E+03  0.54419710868E+03 -0.73313368774E+03  0.11543092745E+04  0.50400001928E-02 0. -1.
</event>
<event>
 5   0  0.2429358E-06  0.2899324E+04  0.7818609E-02  0.8273079E-01
        1   -1    0    0  501    0  0.00000000000E+00  0.00000000000E+00  0.21771345189E+04  0.21771345189E+04  0.50400001928E-02 0. -1.
       -1   -1    0    0    0  501  0.00000000000E+00  0.00000000000E+00 -0.96526854166E+03  0.96526854167E+03  0.50400001928E-02 0.  1.
    10030    2    1    2    0    0  0.00000000000E+00  0.00000000000E+00  0.12118659772E+04  0.31424030606E+04  0.28993236881E+04 0.  0.
        2    1    3    3  502    0  0.11488119005E+04  0.55579779373E+03 -0.13935145485E+03  0.12837830028E+04  0.25500000920E-02 0.  1.
       -2    1    3    3    0  502 -0.11488119005E+04 -0.55579779373E+03  0.13512174321E+04  0.18586200578E+04  0.25500000920E-02 0. -1.
</event>
<event>
 5   0  0.6393633E-06  0.2908227E+04  0.7818609E-02  0.8270434E-01
       -2   -1    0    0    0  501  0.00000000000E+00  0.00000000000E+00  0.99721023509E+03  0.99721023509E+03  0.25500000920E-02 0. -1.
        2   -1    0    0  501    0  0.00000000000E+00  0.00000000000E+00 -0.21203620518E+04  0.21203620518E+04  0.25500000920E-02 0.  1.
    10030    2    1    2    0    0  0.00000000000E+00  0.00000000000E+00 -0.11231518167E+04  0.31175722869E+04  0.29082274603E+04 0.  0.
        4    1    3    3  502    0  0.99820678501E+03 -0.55984832210E+03  0.39998697068E+03  0.12123688049E+04  0.12699999809E+01 0. -1.
       -4    1    3    3    0  502 -0.99820678501E+03  0.55984832210E+03 -0.15231387874E+04  0.19052034820E+04  0.12699999809E+01 0.  1.
</event>
<event>
 5   0  0.2508094E-06  0.2897879E+04  0.7818609E-02  0.8273509E-01
        1   -1    0    0  501    0  0.00000000000E+00  0.00000000000E+00  0.12774338100E+04  0.12774338100E+04  0.50400001928E-02 0. -1.
       -1   -1    0    0    0  501  0.00000000000E+00  0.00000000000E+00 -0.16434711484E+04  0.16434711484E+04  0.50400001928E-02 0.  1.
    10030    2    1    2    0    0  0.00000000000E+00  0.00000000000E+00 -0.36603733846E+03  0.29209049584E+04  0.28978789559E+04 0.  0.
        3    1    3    3  502    0 -0.91315818548E+03  0.62999320359E+03 -0.11224524427E+04  0.15781789520E+04  0.10100000352E+00 0.  1.
       -3    1    3    3    0  502  0.91315818548E+03 -0.62999320359E+03  0.75641510421E+03  0.13427260064E+04  0.10100000352E+00 0. -1.
</event>
<event>
 5   0  0.6612533E-06  0.2894307E+04  0.7818609E-02  0.8274573E-01
        2   -1    0    0  501    0  0.00000000000E+00  0.00000000000E+00  0.15510664212E+04  0.15510664212E+04  0.25500000920E-02 0. -1.
       -2   -1    0    0    0  501  0.00000000000E+00  0.00000000000E+00 -0.13502026368E+04  0.13502026368E+04  0.25500000920E-02 0.  1.
    10030    2    1    2    0    0  0.00000000000E+00  0.00000000000E+00  0.20086378443E+03  0.29012690579E+04  0.28943074969E+04 0.  0.
        3    1    3    3  502    0  0.73002354689E+03  0.51326175797E+02  0.13519079442E+04  0.15372780670E+04  0.10100000352E+00 0. -1.
       -3    1    3    3    0  502 -0.73002354689E+03 -0.51326175797E+02 -0.11510441598E+04  0.13639909909E+04  0.10100000352E+00 0.  1.
</event>
<event>
 5   0  0.2336512E-06  0.2966678E+04  0.7818609E-02  0.8253311E-01
       -1   -1    0    0    0  501  0.00000000000E+00  0.00000000000E+00  0.19176348049E+04  0.19176348049E+04  0.50400001928E-02 0. -1.
        1   -1    0    0  501    0  0.00000000000E+00  0.00000000000E+00 -0.11474000934E+04  0.11474000934E+04  0.50400001928E-02 0.  1.
    10030    2    1    2    0    0  0.00000000000E+00  0.00000000000E+00  0.77023471151E+03  0.30650348982E+04  0.29666778417E+04 0.  0.
        4    1    3    3  502    0 -0.49447776716E+03  0.63457817631E+03  0.16726671952E+04  0.18560751286E+04  0.12699999809E+01 0. -1.
       -4    1    3    3    0  502  0.49447776716E+03 -0.63457817631E+03 -0.90243248372E+03  0.12089597697E+04  0.12699999809E+01 0.  1.
</event>
<event>
 5   0  0.6513041E-06  0.2901734E+04  0.7818609E-02  0.8272362E-01
        2   -1    0    0  501    0  0.00000000000E+00  0.00000000000E+00  0.22070199249E+04  0.22070199249E+04  0.25500000920E-02 0.  1.
       -2   -1    0    0    0  501  0.00000000000E+00  0.00000000000E+00 -0.95378187471E+03  0.95378187472E+03  0.25500000920E-02 0. -1.
    10030    2    1    2    0    0  0.00000000000E+00  0.00000000000E+00  0.12532380501E+04  0.31608017996E+04  0.29017343789E+04 0.  0.
        1    1    3    3  502    0  0.66438451606E+03 -0.47604290630E+03  0.19323893034E+04  0.20981306093E+04  0.50400001928E-02 0.  1.
       -1    1    3    3    0  502 -0.66438451606E+03  0.47604290630E+03 -0.67915125324E+03  0.10626711903E+04  0.50400001928E-02 0. -1.
</event>
<event>
 5   0  0.2348684E-06  0.2916815E+04  0.7818609E-02  0.8267892E-01
       -1   -1    0    0    0  501  0.00000000000E+00  0.00000000000E+00  0.10320889783E+04  0.10320889783E+04  0.50400001928E-02 0. -1.
        1   -1    0    0  501    0  0.00000000000E+00  0.00000000000E+00 -0.20608223481E+04  0.20608223481E+04  0.50400001928E-02 0.  1.
    10030    2    1    2    0    0  0.00000000000E+00  0.00000000000E+00 -0.10287333698E+04  0.30929113264E+04  0.29168147228E+04 0.  0.
        5    1    3    3  502    0 -0.65997765854E+03 -0.12462158898E+04 -0.90871335260E+03  0.16776193254E+04  0.46999998093E+01 0.  1.
       -5    1    3    3    0  502  0.65997765854E+03  0.12462158898E+04 -0.12002001715E+03  0.14152920010E+04  0.46999998093E+01 0. -1.
</event>
<event>
 5   0  0.2336512E-06  0.2901527E+04  0.7818609E-02  0.8272423E-01
       -1   -1    0    0    0  501  0.00000000000E+00  0.00000000000E+00  0.10068516675E+04  0.10068516675E+04  0.50400001928E-02 0.  1.
        1   -1    0    0  501    0  0.00000000000E+00  0.00000000000E+00 -0.20903927161E+04  0.20903927161E+04  0.50400001928E-02 0. -1.
    10030    2    1    2    0    0  0.00000000000E+00  0.00000000000E+00 -0.10835410486E+04  0.30972443836E+04  0.29015274543E+04 0.  0.
        4    1    3    3  502    0 -0.13049626994E+04  0.33989305937E+02 -0.12174192923E+04  0.17849913910E+04  0.12699999809E+01 0. -1.
       -4    1    3    3    0  502  0.13049626994E+04 -0.33989305937E+02  0.13387824364E+03  0.13122529927E+04  0.12699999809E+01 0.  1.
</event>
<event>
 5   0  0.6612533E-06  0.2940295E+04  0.7818609E-02  0.8260989E-01
        2   -1    0    0  501    0  0.00000000000E+00  0.00000000000E+00  0.12538721244E+04  0.12538721244E+04  0.25500000920E-02 0.  1.
       -2   -1    0    0    0  501  0.00000000000E+00  0.00000000000E+00 -0.17237271340E+04  0.17237271340E+04  0.25500000920E-02 0. -1.
    10030    2    1    2    0    0  0.00000000000E+00  0.00000000000E+00 -0.46985500963E+03  0.29775992585E+04  0.29402948175E+04 0.  0.
        3    1    3    3  502    0  0.12674668368E+04  0.27305816641E+03  0.46690239342E+03  0.13780532645E+04  0.10100000352E+00 0.  1.
       -3    1    3    3    0  502 -0.12674668368E+04 -0.27305816641E+03 -0.93675740305E+03  0.15995459940E+04  0.10100000352E+00 0. -1.
</event>
<event>
 5   0  0.2348684E-06  0.2926493E+04  0.7818609E-02  0.8265038E-01
        1   -1    0    0  501    0  0.00000000000E+00  0.00000000000E+00  0.21176208649E+04  0.21176208649E+04  0.50400001928E-02 0.  1.
       -1   -1    0    0    0  501  0.00000000000E+00  0.00000000000E+00 -0.10110832129E+04  0.10110832129E+04  0.50400001928E-02 0. -1.
    10030    2    1    2    0    0  0.00000000000E+00  0.00000000000E+00  0.11065376521E+04  0.31287040778E+04  0.29264934019E+04 0.  0.
        5    1    3    3  502    0  0.36329278734E+03 -0.10680246686E+04  0.15495443613E+04  0.19167076354E+04  0.46999998093E+01 0.  1.
       -5    1    3    3    0  502 -0.36329278734E+03  0.10680246686E+04 -0.44300670926E+03  0.12119964424E+04  0.46999998093E+01 0. -1.
</event>
<event>
 5   0  0.2508094E-06  0.2913793E+04  0.7818609E-02  0.8268785E-01
       -1   -1    0    0    0  501  0.00000000000E+00  0.00000000000E+00  0.20626496141E+04  0.20626496141E+04  0.50400001928E-02 0.  1.
        1   -1    0    0  501    0  0.00000000000E+00  0.00000000000E+00 -0.10290395212E+04  0.10290395212E+04  0.50400001928E-02 0. -1.
    10030    2    1    2    0    0  0.00000000000E+00  0.00000000000E+00  0.10336100929E+04  0.30916891353E+04  0.29137933841E+04 0.  0.
        3    1    3    3  502    0  0.78836959661E+03  0.44092785135E+03  0.17296605232E+04  0.19513250695E+04  0.10100000352E+00 0.  1.
       -3    1    3    3    0  502 -0.78836959661E+03 -0.44092785135E+03 -0.69605043029E+03  0.11403640658E+04  0.10100000352E+00 0. -1.
</event>
<event>
 5   0  0.2429358E-06  0.2848139E+04  0.7818609E-02  0.8288477E-01
       -1   -1    0    0    0  501  0.00000000000E+00  0.00000000000E+00  0.13343434502E+04  0.13343434502E+04  0.50400001928E-02 0.  1.
        1   -1    0    0  501    0  0.00000000000E+00  0.00000000000E+00 -0.15198287230E+04  0.15198287230E+04  0.50400001928E-02 0. -1.
    10030    2    1    2    0    0  0.00000000000E+00  0.00000000000E+00 -0.18548527275E+03  0.28541721732E+04  0.28481386918E+04 0.  0.
        2    1    3    3  502    0  0.47190588056E+03 -0.25558392396E+03  0.12291252961E+04  0.13411813061E+04  0.25500000920E-02 0.  1.
       -2    1    3    3    0  502 -0.47190588056E+03  0.25558392396E+03 -0.14146105689E+04  0.15129908671E+04  0.25500000920E-02 0. -1.
</event>
<event>
 5   0  0.6615403E-06  0.2945033E+04  0.7818609E-02  0.8259604E-01
       -2   -1    0    0    0  501  0.00000000000E+00  0.00000000000E+00  0.13794091952E+04  0.13794091953E+04  0.25500000920E-02 0.  1.
        2   -1    0    0  501    0  0.00000000000E+00  0.00000000000E+00 -0.15719084833E+04  0.15719084833E+04  0.25500000920E-02 0. -1.
    10030    2    1    2    0    0  0.00000000000E+00  0.00000000000E+00 -0.19249928801E+03  0.29513176785E+04  0.29450331176E+04 0.  0.
        2    1    3    3  502    0  0.67083883588E+03 -0.12110981017E+04 -0.59883921436E+03  0.15084401746E+04  0.25500000920E-02 0. -1.
       -2    1    3    3    0  502 -0.67083883588E+03  0.12110981017E+04  0.40633992635E+03  0.14428775039E+04  0.25500000920E-02 0.  1.
</event>
<event>
 5   0  0.2336512E-06  0.2890560E+04  0.7818609E-02  0.8275692E-01
        1   -1    0    0  501    0  0.00000000000E+00  0.00000000000E+00  0.10659945357E+04  0.10659945357E+04  0.50400001928E-02 0. -1.
       -1   -1    0    0    0  501  0.00000000000E+00  0.00000000000E+00 -0.19595169568E+04  0.19595169568E+04  0.50400001928E-02 0.  1.
    10030    2    1    2    0    0  0.00000000000E+00  0.00000000000E+00 -0.89352242105E+03  0.30255114925E+04  0.28905600624E+04 0.  0.
        4    1    3    3  502    0  0.30005968058E+02 -0.53770614363E+03 -0.18505726975E+04  0.19273425167E+04  0.12699999809E+01 0.  1.
       -4    1    3    3    0  502 -0.30005968058E+02  0.53770614363E+03  0.95705027643E+03  0.10981689759E+04  0.12699999809E+01 0. -1.
</event>
<event>
 5   0  0.2429358E-06  0.2911142E+04  0.7818609E-02  0.8269570E-01
       -1   -1    0    0    0  501  0.00000000000E+00  0.00000000000E+00  0.89175319832E+03  0.89175319834E+03  0.50400001928E-02 0. -1.
        1   -1    0    0  501    0  0.00000000000E+00  0.00000000000E+00 -0.23758668098E+04  0.23758668098E+04  0.50400001928E-02 0.  1.
    10030    2    1    2    0    0  0.00000000000E+00  0.00000000000E+00 -0.14841136115E+04  0.32676200081E+04  0.29111419247E+04 0.  0.
        2    1    3    3  502    0  0.23821570195E+03 -0.13104134550E+04 -0.82997472732E+02  0.13344732010E+04  0.25500000920E-02 0.  1.
       -2    1    3    3    0  502 -0.23821570195E+03  0.13104134550E+04 -0.14011161387E+04  0.19331468071E+04  0.25500000920E-02 0. -1.
</event>
<event>
 5   0  0.2508094E-06  0.2879112E+04  0.7818609E-02  0.8279119E-01
        1   -1    0    0  501    0  0.00000000000E+00  0.00000000000E+00  0.11250570451E+04  0.11250570451E+04  0.50400001928E-02 0. -1.
       -1   -1    0    0    0  501  0.00000000000E+00  0.00000000000E+00 -0.18419705863E+04  0.18419705863E+04  0.50400001928E-02 0.  1.
    10030    2    1    2    0    0  0.00000000000E+00  0.00000000000E+00 -0.71691354116E+03  0.29670276314E+04  0.28791123528E+04 0.  0.
        3    1    3    3  502    0 -0.71550229243E+03 -0.31739853204E+03  0.88658910145E+03  0.11826773033E+04  0.10100000352E+00 0. -1.
       -3    1    3    3    0  502  0.71550229243E+03  0.31739853204E+03 -0.16035026426E+04  0.17843503282E+04  0.10100000352E+00 0.  1.
</event>
<event>
 5   0  0.6513041E-06  0.2803052E+04  0.7818609E-02  0.8302321E-01
       -2   -1    0    0    0  501  0.00000000000E+00  0.00000000000E+00  0.82693087415E+03  0.82693087415E+03  0.25500000920E-02 0.  1.
        2   -1    0    0  501    0  0.00000000000E+00  0.00000000000E+00 -0.23753805515E+04  0.23753805515E+04  0.25500000920E-02 0. -1.
    10030    2    1    2    0    0  0.00000000000E+00  0.00000000000E+00 -0.15484496773E+04  0.32023114256E+04  0.28030522763E+04 0.  0.
        1    1    3    3  502    0  0.43275213896E+03  0.69198138236E+03  0.52743336237E+03  0.97175027608E+03  0.50400001928E-02 0.  1.
       -1    1    3    3    0  502 -0.43275213896E+03 -0.69198138236E+03 -0.20758830397E+04  0.22305611495E+04  0.50400001928E-02 0. -1.
</event>
<event>
 5   0  0.6393633E-06  0.2898444E+04  0.7818609E-02  0.8273340E-01
       -2   -1    0    0    0  501  0.00000000000E+00  0.00000000000E+00  0.15492797366E+04  0.15492797366E+04  0.25500000920E-02 0. -1.
        2   -1    0    0  501    0  0.00000000000E+00  0.00000000000E+00 -0.13556265838E+04  0.13556265838E+04  0.25500000920E-02 0.  1.
    10030    2    1    2    0    0  0.00000000000E+00  0.00000000000E+00  0.19365315282E+03  0.29049063204E+04  0.28984442701E+04 0.  0.
        4    1    3    3  502    0  0.16118863556E+03 -0.14396124350E+04  0.13908031997E+03  0.14552699707E+04  0.12699999809E+01 0.  1.
       -4    1    3    3    0  502 -0.16118863556E+03  0.14396124350E+04  0.54572832850E+02  0.14496363497E+04  0.12699999809E+01 0. -1.
</event>
<event>
 5   0  0.2474769E-06  0.2917442E+04  0.7818609E-02  0.8267707E-01
       -1   -1    0    0    0  501  0.00000000000E+00  0.00000000000E+00  0.15330233162E+04  0.15330233162E+04  0.50400001928E-02 0. -1.
        1   -1    0    0  501    0  0.00000000000E+00  0.00000000000E+00 -0.13880200304E+04  0.13880200304E+04  0.50400001928E-02 0.  1.
    10030    2    1    2    0    0  0.00000000000E+00  0.00000000000E+00  0.14500328587E+03  0.29210433466E+04  0.29174420782E+04 0.  0.
        1    1    3    3  502    0  0.29345532443E+03 -0.82065299544E+02 -0.13557992523E+04  0.13896194995E+04  0.50400001928E-02 0.  1.
       -1    1    3    3    0  502 -0.29345532443E+03  0.82065299544E+02  0.15008025382E+04  0.15314238471E+04  0.50400001928E-02 0. -1.
</event>
<event>
 5   0  0.6513041E-06  0.2889726E+04  0.7818609E-02  0.8275941E-01
       -2   -1    0    0    0  501  0.00000000000E+00  0.00000000000E+00  0.88419467507E+03  0.88419467507E+03  0.25500000920E-02 0.  1.
        2   -1    0    0  501    0  0.00000000000E+00  0.00000000000E+00 -0.23610506692E+04  0.23610506692E+04  0.25500000920E-02 0. -1.
    10030    2    1    2    0    0  0.00000000000E+00  0.00000000000E+00 -0.14768559941E+04  0.32452453442E+04  0.28897255435E+04 0.  0.
        1    1    3    3  502    0 -0.63230499991E+03  0.60215088219E+03  0.55438908286E+03  0.10342835941E+04  0.50400001928E-02 0.  1.
       -1    1    3    3    0  502  0.63230499991E+03 -0.60215088219E+03 -0.20312450769E+04  0.22109617501E+04  0.50400001928E-02 0. -1.
</event>
<event>
 5   0  0.6393633E-06  0.2720089E+04  0.7818609E-02  0.8328516E-01
       -2   -1    0    0    0  501  0.00000000000E+00  0.00000000000E+00  0.14546574757E+04  0.14546574757E+04  0.25500000920E-02 0. -1.
        2   -1    0    0  501    0  0.00000000000E+00  0.00000000000E+00 -0.12715851880E+04  0.12715851880E+04  0.25500000920E-02 0.  1.
    10030    2    1    2    0    0  0.00000000000E+00  0.00000000000E+00  0.18307228769E+03  0.27262426637E+04  0.27200888954E+04 0.  0.
        4    1    3    3  502    0 -0.71448105593E+03 -0.74048162221E+03 -0.79981440333E+03  0.13032654775E+04  0.12699999809E+01 0.  1.
       -4    1    3    3    0  502  0.71448105593E+03  0.74048162221E+03  0.98288669102E+03  0.14229771862E+04  0.12699999809E+01 0. -1.
</event>
<event>
 5   0  0.6733688E-06  0.2894668E+04  0.7818609E-02  0.8274466E-01
       -2   -1    0    0    0  501  0.00000000000E+00  0.00000000000E+00  0.88058087044E+03  0.88058087044E+03  0.25500000920E-02 0. -1.
        2   -1    0    0  501    0  0.00000000000E+00  0.00000000000E+00 -0.23788565284E+04  0.23788565284E+04  0.25500000920E-02 0.  1.
    10030    2    1    2    0    0  0.00000000000E+00  0.00000000000E+00 -0.14982756580E+04  0.32594373988E+04  0.28946678928E+04 0.  0.
        5    1    3    3  502    0  0.75329109075E+03  0.84026620858E+03 -0.17695694084E+04  0.20987836358E+04  0.46999998093E+01 0.  1.
       -5    1    3    3    0  502 -0.75329109075E+03 -0.84026620858E+03  0.27129375043E+03  0.11606537631E+04  0.46999998093E+01 0. -1.
</event>
<event>
 5   0  0.6513041E-06  0.2895066E+04  0.7818609E-02  0.8274347E-01
       -2   -1    0    0    0  501  0.00000000000E+00  0.00000000000E+00  0.93166977986E+03  0.93166977986E+03  0.25500000920E-02 0. -1.
        2   -1    0    0  501    0  0.00000000000E+00  0.00000000000E+00 -0.22490276455E+04  0.22490276455E+04  0.25500000920E-02 0.  1.
    10030    2    1    2    0    0  0.00000000000E+00  0.00000000000E+00 -0.13173578656E+04  0.31806974253E+04  0.28950655201E+04 0.  0.
        1    1    3    3  502    0 -0.75697333729E+03  0.27169714189E+03 -0.19809688192E+04  0.21380050124E+04  0.50400001928E-02 0.  1.
       -1    1    3    3    0  502  0.75697333729E+03 -0.27169714189E+03  0.66361095359E+03  0.10426924130E+04  0.50400001928E-02 0. -1.
</event>
<event>
 5   0  0.6733688E-06  0.3092777E+04  0.7818609E-02  0.8217723E-01
        2   -1    0    0  501    0  0.00000000000E+00  0.00000000000E+00  0.15567944896E+04  0.15567944896E+04  0.25500000920E-02 0. -1.
       -2   -1    0    0    0  501  0.00000000000E+00  0.00000000000E+00 -0.15360518909E+04  0.15360518909E+04  0.25500000920E-02 0.  1.
    10030    2    1    2    0    0  0.00000000000E+00  0.00000000000E+00  0.20742598687E+02  0.30928463805E+04  0.30927768232E+04 0.  0.
        5    1    3    3  502    0 -0.13667307264E+04 -0.72326987163E+03  0.25299587739E+02  0.15465233089E+04  0.46999998093E+01 0. -1.
       -5    1    3    3    0  502  0.13667307264E+04  0.72326987163E+03 -0.45569890521E+01  0.15463230717E+04  0.46999998093E+01 0.  1.
</event>
<event>
 5   0  0.6513041E-06  0.2864561E+04  0.7818609E-02  0.8283501E-01
       -2   -1    0    0    0  501  0.00000000000E+00  0.00000000000E+00  0.13417179324E+04  0.13417179324E+04  0.25500000920E-02 0. -1.
        2   -1    0    0  501    0  0.00000000000E+00  0.00000000000E+00 -0.15289552887E+04  0.15289552888E+04  0.25500000920E-02 0.  1.
    10030    2    1    2    0    0  0.00000000000E+00  0.00000000000E+00 -0.18723735631E+03  0.28706732212E+04  0.28645605100E+04 0.  0.
        1    1    3    3  502    0  0.11426952204E+04 -0.54564667592E+03 -0.76433311112E+03  0.14790834210E+04  0.50400001928E-02 0.  1.
       -1    1    3    3    0  502 -0.11426952204E+04  0.54564667592E+03  0.57709575481E+03  0.13915898001E+04  0.50400001928E-02 0. -1.
</event>
<event>
 5   0  0.2336512E-06  0.2894708E+04  0.7818609E-02  0.8274454E-01
        1   -1    0    0  501    0  0.00000000000E+00  0.00000000000E+00  0.18109715068E+04  0.18109715068E+04  0.50400001928E-02 0. -1.
       -1   -1    0    0    0  501  0.00000000000E+00  0.00000000000E+00 -0.11567456524E+04  0.11567456524E+04  0.50400001928E-02 0.  1.
    10030    2    1    2    0    0  0.00000000000E+00  0.00000000000E+00  0.65422585439E+03  0.29677171592E+04  0.28947078727E+04 0.  0.
        4    1    3    3  502    0 -0.21065429813E+03 -0.13339658021E+03  0.17887863199E+04  0.18060808376E+04  0.12699999809E+01 0. -1.
       -4    1    3    3    0  502  0.21065429813E+03  0.13339658021E+03 -0.11345604655E+04  0.11616363216E+04  0.12699999809E+01 0.  1.
</event>
<event>
 5   0  0.2508094E-06  0.2877095E+04  0.7818609E-02  0.8279725E-01
       -1   -1    0    0    0  501  0.00000000000E+00  0.00000000000E+00  0.10962442270E+04  0.10962442270E+04  0.50400001928E-02 0. -1.
        1   -1    0    0  501    0  0.00000000000E+00  0.00000000000E+00 -0.18877346712E+04  0.18877346712E+04  0.50400001928E-02 0.  1.
    10030    2    1    2    0    0  0.00000000000E+00  0.00000000000E+00 -0.79149044421E+03  0.29839788982E+04  0.28770945313E+04 0.  0.
        3    1    3    3  502    0 -0.94687141887E+03 -0.35426256823E+03 -0.14571662693E+04  0.17735278396E+04  0.10100000352E+00 0.  1.
       -3    1    3    3    0  502  0.94687141887E+03  0.35426256823E+03  0.66567582510E+03  0.12104510587E+04  0.10100000352E+00 0. -1.
</event>
<event>
 5   0  0.6513041E-06  0.2885467E+04  0.7818609E-02  0.8277215E-01
       -2   -1    0    0    0  501  0.00000000000E+00  0.00000000000E+00  0.15168425619E+04  0.15168425619E+04  0.25500000920E-02 0. -1.
        2   -1    0    0  501    0  0.00000000000E+00  0.00000000000E+00 -0.13722452636E+04  0.13722452636E+04  0.25500000920E-02 0.  1.
    10030    2    1    2    0    0  0.00000000000E+00  0.00000000000E+00  0.14459729837E+03  0.28890878255E+04  0.28854670480E+04 0.  0.
        1    1    3    3  502    0 -0.29939820724E+03 -0.63347057641E+03  0.13350535858E+04  0.15077441210E+04  0.50400001928E-02 0. -1.
       -1    1    3    3    0  502  0.29939820724E+03  0.63347057641E+03 -0.11904562874E+04  0.13813437045E+04  0.50400001928E-02 0.  1.
</event>
<event>
 5   0  0.2429358E-06  0.2875511E+04  0.7818609E-02  0.8280201E-01
       -1   -1    0    0    0  501  0.00000000000E+00  0.00000000000E+00  0.89614827709E+03  0.89614827710E+03  0.50400001928E-02 0.  1.
        1   -1    0    0  501    0  0.00000000000E+00  0.00000000000E+00 -0.23066945216E+04  0.23066945216E+04  0.50400001928E-02 0. -1.
    10030    2    1    2    0    0  0.00000000000E+00  0.00000000000E+00 -0.14105462445E+04  0.32028427987E+04  0.28755106130E+04 0.  0.
        2    1    3    3  502    0  0.61537199040E+03  0.11014199420E+04 -0.14731985685E+04  0.19396191888E+04  0.25500000920E-02 0.  1.
       -2    1    3    3    0  502 -0.61537199040E+03 -0.11014199420E+04  0.62652323967E+02  0.12632236100E+04  0.25500000920E-02 0. -1.
</event>
<event>
 5   0  0.6615403E-06  0.2623637E+04  0.7818609E-02  0.8360216E-01
        2   -1    0    0  501    0  0.00000000000E+00  0.00000000000E+00  0.20263276236E+04  0.20263276236E+04  0.25500000920E-02 0.  1.
       -2   -1    0    0    0  501  0.00000000000E+00  0.00000000000E+00 -0.84925453563E+03  0.84925453563E+03  0.25500000920E-02 0. -1.
    10030    2    1    2    0    0  0.00000000000E+00  0.00000000000E+00  0.11770730879E+04  0.28755821592E+04  0.26236371128E+04 0.  0.
        2    1    3    3  502    0 -0.15731008238E+02 -0.12139954521E+04  0.44001508876E+02  0.12148944626E+04  0.25500000920E-02 0. -1.
       -2    1    3    3    0  502  0.15731008238E+02  0.12139954521E+04  0.11330715791E+04  0.16606876966E+04  0.25500000920E-02 0.  1.
</event>
<event>
 5   0  0.2336512E-06  0.2903337E+04  0.7818609E-02  0.8271885E-01
       -1   -1    0    0    0  501  0.00000000000E+00  0.00000000000E+00  0.90722250951E+03  0.90722250953E+03  0.50400001928E-02 0. -1.
        1   -1    0    0  501    0  0.00000000000E+00  0.00000000000E+00 -0.23228492155E+04  0.23228492155E+04  0.50400001928E-02 0.  1.
    10030    2    1    2    0    0  0.00000000000E+00  0.00000000000E+00 -0.14156267060E+04  0.32300717250E+04  0.29033367662E+04 0.  0.
        4    1    3    3  502    0  0.96811523482E+03  0.42106320081E+03  0.40071098584E+03  0.11292086760E+04  0.12699999809E+01 0. -1.
       -4    1    3    3    0  502 -0.96811523482E+03 -0.42106320081E+03 -0.18163376918E+04  0.21008630490E+04  0.12699999809E+01 0.  1.
</event>
<event>
 5   0  0.6733688E-06  0.2914578E+04  0.7818609E-02  0.8268553E-01
       -2   -1    0    0    0  501  0.00000000000E+00  0.00000000000E+00  0.81253235506E+03  0.81253235507E+03  0.25500000920E-02 0.  1.
        2   -1    0    0  501    0  0.00000000000E+00  0.00000000000E+00 -0.26136700116E+04  0.26136700116E+04  0.25500000920E-02 0. -1.
    10030    2    1    2    0    0  0.00000000000E+00  0.00000000000E+00 -0.18011376565E+04  0.34262023666E+04  0.29145781512E+04 0.  0.
        5    1    3    3  502    0 -0.10468244515E+04  0.61035785352E+03 -0.18521689299E+04  0.22133526552E+04  0.46999998093E+01 0. -1.
       -5    1    3    3    0  502  0.10468244515E+04 -0.61035785352E+03  0.51031273392E+02  0.12128497114E+04  0.46999998093E+01 0.  1.
</event>
<event>
 5   0  0.2474769E-06  0.2943744E+04  0.7818609E-02  0.8259980E-01
       -1   -1    0    0    0  501  0.00000000000E+00  0.00000000000E+00  0.10993729961E+04  0.10993729961E+04  0.50400001928E-02 0.  1.
        1   -1    0    0  501    0  0.00000000000E+00  0.00000000000E+00 -0.19705839925E+04  0.19705839925E+04  0.50400001928E-02 0. -1.
    10030    2    1    2    0    0  0.00000000000E+00  0.00000000000E+00 -0.87121099641E+03  0.30699569885E+04  0.29437437577E+04 0.  0.
        1    1    3    3  502    0  0.13766628248E+04  0.18918030491E+03 -0.94160640630E+03  0.16785744980E+04  0.50400001928E-02 0. -1.
       -1    1    3    3    0  502 -0.13766628248E+04 -0.18918030491E+03  0.70395409887E+02  0.13913824905E+04  0.50400001928E-02 0.  1.
</event>
<event>
 5   0  0.6513041E-06  0.2359938E+04  0.7818609E-02  0.8454656E-01
       -2   -1    0    0    0  501  0.00000000000E+00  0.00000000000E+00  0.10094652720E+04  0.10094652720E+04  0.25500000920E-02 0.  1.
        2   -1    0    0  501    0  0.00000000000E+00  0.00000000000E+00 -0.13792711610E+04  0.13792711610E+04  0.25500000920E-02 0. -1.
    10030    2    1    2    0    0  0.00000000000E+00  0.00000000000E+00 -0.36980588900E+03  0.23887364329E+04  0.23599375734E+04 0.  0.
        1    1    3    3  502    0  0.23728340567E+03  0.30171273216E+03  0.94450557656E+03  0.10195218348E+04  0.50400001928E-02 0.  1.
       -1    1    3    3    0  502 -0.23728340567E+03 -0.30171273216E+03 -0.13143114656E+04  0.13692145982E+04  0.50400001928E-02 0. -1.
</event>
<event>
 5   0  0.2429358E-06  0.2971447E+04  0.7818609E-02  0.8251932E-01
       -1   -1    0    0    0  501  0.00000000000E+00  0.00000000000E+00  0.12682705880E+04  0.12682705880E+04  0.50400001928E-02 0. -1.
        1   -1    0    0  501    0  0.00000000000E+00  0.00000000000E+00 -0.17404603638E+04  0.17404603638E+04  0.50400001928E-02 0.  1.
    10030    2    1    2    0    0  0.00000000000E+00  0.00000000000E+00 -0.47218977583E+03  0.30087309518E+04  0.29714472494E+04 0.  0.
        2    1    3    3  502    0  0.11969978610E+04 -0.87432173775E+03 -0.13417251341E+03  0.14883697940E+04  0.25500000920E-02 0.  1.
       -2    1    3    3    0  502 -0.11969978610E+04  0.87432173775E+03 -0.33801726242E+03  0.15203611578E+04  0.25500000920E-02 0. -1.
</event>
<event>
 5   0  0.2429358E-06  0.2882226E+04  0.7818609E-02  0.8278185E-01
        1   -1    0    0  501    0  0.00000000000E+00  0.00000000000E+00  0.96739180918E+03  0.96739180920E+03  0.50400001928E-02 0. -1.
       -1   -1    0    0    0  501  0.00000000000E+00  0.00000000000E+00 -0.21468106276E+04  0.21468106276E+04  0.50400001928E-02 0.  1.
    10030    2    1    2    0    0  0.00000000000E+00  0.00000000000E+00 -0.11794188184E+04  0.31142024368E+04  0.28822262347E+04 0.  0.
        2    1    3    3  502    0 -0.12137538948E+03 -0.82069079604E+03  0.68349527787E+03  0.10749098394E+04  0.25500000920E-02 0. -1.
       -2    1    3    3    0  502  0.12137538948E+03  0.82069079604E+03 -0.18629140963E+04  0.20392925975E+04  0.25500000920E-02 0.  1.
</event>
<event>
 5   0  0.2348684E-06  0.2842222E+04  0.7818609E-02  0.8290279E-01
        1   -1    0    0  501    0  0.00000000000E+00  0.00000000000E+00  0.14391608966E+04  0.14391608966E+04  0.50400001928E-02 0.  1.
       -1   -1    0    0    0  501  0.00000000000E+00  0.00000000000E+00 -0.14032878142E+04  0.14032878142E+04  0.50400001928E-02 0. -1.
    10030    2    1    2    0    0  0.00000000000E+00  0.00000000000E+00  0.35873082470E+02  0.28424487108E+04  0.28422223339E+04 0.  0.
        5    1    3    3  502    0 -0.79053356412E+03  0.17083381445E+03 -0.11506629893E+04  0.14064760621E+04  0.46999998093E+01 0. -1.
       -5    1    3    3    0  502  0.79053356412E+03 -0.17083381445E+03  0.11865360718E+04  0.14359726487E+04  0.46999998093E+01 0.  1.
</event>
<event>
 5   0  0.2348684E-06  0.2937079E+04  0.7818609E-02  0.8261930E-01
       -1   -1    0    0    0  501  0.00000000000E+00  0.00000000000E+00  0.19405833325E+04  0.19405833325E+04  0.50400001928E-02 0. -1.
        1   -1    0    0  501    0  0.00000000000E+00  0.00000000000E+00 -0.11113196237E+04  0.11113196237E+04  0.50400001928E-02 0.  1.
    10030    2    1    2    0    0  0.00000000000E+00  0.00000000000E+00  0.82926370880E+03  0.30519029562E+04  0.29370790516E+04 0.  0.
        5    1    3    3  502    0  0.13522492719E+04  0.51645499689E+03  0.15740107285E+03  0.14560566764E+04  0.46999998093E+01 0.  1.
       -5    1    3    3    0  502 -0.13522492719E+04 -0.51645499689E+03  0.67186263595E+03  0.15958462798E+04  0.46999998093E+01 0. -1.
</event>
<event>
 5   0  0.2336512E-06  0.2915618E+04  0.7818609E-02  0.8268246E-01
       -1   -1    0    0    0  501  0.00000000000E+00  0.00000000000E+00  0.13357281827E+04  0.13357281827E+04  0.50400001928E-02 0. -1.
        1   -1    0    0  501    0  0.00000000000E+00  0.00000000000E+00 -0.15910480720E+04  0.15910480720E+04  0.50400001928E-02 0.  1.
    10030    2    1    2    0    0  0.00000000000E+00  0.00000000000E+00 -0.25531988923E+03  0.29267762547E+04  0.29156184591E+04 0.  0.
        4    1    3    3  502    0 -0.51132933363E+03 -0.56574285774E+03 -0.13748652752E+04  0.15721891764E+04  0.12699999809E+01 0.  1.
       -4    1    3    3    0  502  0.51132933363E+03  0.56574285774E+03  0.11195453860E+04  0.13545870783E+04  0.12699999809E+01 0. -1.
</event>
<event>
 5   0  0.6393633E-06  0.2895896E+04  0.7818609E-02  0.8274100E-01
        2   -1    0    0  501    0  0.00000000000E+00  0.00000000000E+00  0.11401559468E+04  0.11401559468E+04  0.25500000920E-02 0.  1.
       -2   -1    0    0    0  501  0.00000000000E+00  0.00000000000E+00 -0.18388299126E+04  0.18388299126E+04  0.25500000920E-02 0. -1.
    10030    2    1    2    0    0  0.00000000000E+00  0.00000000000E+00 -0.69867396572E+03  0.29789858594E+04  0.28958956197E+04 0.  0.
        4    1    3    3  502    0 -0.78084093064E+03  0.45605853319E+03  0.81397237912E+03  0.12166571380E+04  0.12699999809E+01 0.  1.
       -4    1    3    3    0  502  0.78084093064E+03 -0.45605853319E+03 -0.15126463448E+04  0.17623287214E+04  0.12699999809E+01 0. -1.
</event>
<event>
 5   0  0.6513041E-06  0.2893669E+04  0.7818609E-02  0.8274764E-01
        2   -1    0    0  501    0  0.00000000000E+00  0.00000000000E+00  0.10421221706E+04  0.10421221706E+04  0.25500000920E-02 0. -1.
       -2   -1    0    0    0  501  0.00000000000E+00  0.00000000000E+00 -0.20087185642E+04  0.20087185642E+04  0.25500000920E-02 0.  1.
    10030    2    1    2    0    0  0.00000000000E+00  0.00000000000E+00 -0.96659639362E+03  0.30508407348E+04  0.28936690552E+04 0.  0.
        1    1    3    3  502    0 -0.17188836288E+03  0.10826602066E+04 -0.14788488416E+04  0.18408401964E+04  0.50400001928E-02 0.  1.
       -1    1    3    3    0  502  0.17188836288E+03 -0.10826602066E+04  0.51225244800E+03  0.12100005384E+04  0.50400001928E-02 0. -1.
</event>
<event>
 5   0  0.6733688E-06  0.2909068E+04  0.7818609E-02  0.8270185E-01
       -2   -1    0    0    0  501  0.00000000000E+00  0.00000000000E+00  0.11004730768E+04  0.11004730768E+04  0.25500000920E-02 0. -1.
        2   -1    0    0  501    0  0.00000000000E+00  0.00000000000E+00 -0.19225084779E+04  0.19225084779E+04  0.25500000920E-02 0.  1.
    10030    2    1    2    0    0  0.00000000000E+00  0.00000000000E+00 -0.82203540104E+03  0.30229815547E+04  0.29090677681E+04 0.  0.
        5    1    3    3  502    0  0.13483803231E+04  0.38117304938E+03 -0.55803925143E+01  0.14012407431E+04  0.46999998093E+01 0. -1.
       -5    1    3    3    0  502 -0.13483803231E+04 -0.38117304938E+03 -0.81645500853E+03  0.16217408117E+04  0.46999998093E+01 0.  1.
</event>
<event>
 5   0  0.6615403E-06  0.3206561E+04  0.7818609E-02  0.8187087E-01
       -2   -1    0    0    0  501  0.00000000000E+00  0.00000000000E+00  0.15046262222E+04  0.15046262222E+04  0.25500000920E-02 0.  1.
        2   -1    0    0  501    0  0.00000000000E+00  0.00000000000E+00 -0.17084030067E+04  0.17084030067E+04  0.25500000920E-02 0. -1.
    10030    2    1    2    0    0  0.00000000000E+00  0.00000000000E+00 -0.20377678448E+03  0.32130292289E+04  0.32065607507E+04 0.  0.
        2    1    3    3  502    0  0.15879938611E+04  0.12209404365E+03 -0.28631538904E+03  0.16182113460E+04  0.25500000920E-02 0.  1.
       -2    1    3    3    0  502 -0.15879938611E+04 -0.12209404365E+03  0.82538604560E+02  0.15948178829E+04  0.25500000920E-02 0. -1.
</event>
<event>
 5   0  0.2429358E-06  0.3015964E+04  0.7818609E-02  0.8239187E-01
       -1   -1    0    0    0  501  0.00000000000E+00  0.00000000000E+00  0.12132788463E+04  0.12132788463E+04  0.50400001928E-02 0.  1.
        1   -1    0    0  501    0  0.00000000000E+00  0.00000000000E+00 -0.18742682281E+04  0.18742682281E+04  0.50400001928E-02 0. -1.
    10030    2    1    2    0    0  0.00000000000E+00  0.00000000000E+00 -0.66098938180E+03  0.30875470744E+04  0.30159641865E+04 0.  0.
        2    1    3    3  502    0  0.98999091809E+03  0.42368139235E+03 -0.14112123714E+04  0.17751361349E+04  0.25500000920E-02 0. -1.
       -2    1    3    3    0  502 -0.98999091809E+03 -0.42368139235E+03  0.75022298961E+03  0.13124109396E+04  0.25500000920E-02 0.  1.
</event>
<event>
 5   0  0.2474769E-06  0.2885330E+04  0.7818609E-02  0.8277256E-01
        1   -1    0    0  501    0  0.00000000000E+00  0.00000000000E+00  0.19499146607E+04  0.19499146608E+04  0.50400001928E-02 0. -1.
       -1   -1    0    0    0  501  0.00000000000E+00  0.00000000000E+00 -0.10673707076E+04  0.10673707076E+04  0.50400001928E-02 0.  1.
    10030    2    1    2    0    0  0.00000000000E+00  0.00000000000E+00  0.88254395311E+03  0.30172853684E+04  0.28853296458E+04 0.  0.
        1    1    3    3  502    0 -0.13651444480E+03  0.12482887312E+04  0.11839788784E+04  0.17258814950E+04  0.50400001928E-02 0. -1.
       -1    1    3    3    0  502  0.13651444480E+03 -0.12482887312E+04 -0.30143492532E+03  0.12914038734E+04  0.50400001928E-02 0.  1.
</event>
<event>
 5   0  0.6733688E-06  0.2903855E+04  0.7818609E-02  0.8271732E-01
       -2   -1    0    0    0  501  0.00000000000E+00  0.00000000000E+00  0.10423946643E+04  0.10423946643E+04  0.25500000920E-02 0. -1.
        2   -1    0    0  501    0  0.00000000000E+00  0.00000000000E+00 -0.20223557985E+04  0.20223557985E+04  0.25500000920E-02 0.  1.
    10030    2    1    2    0    0  0.00000000000E+00  0.00000000000E+00 -0.97996113416E+03  0.30647504628E+04  0.29038546063E+04 0.  0.
        5    1    3    3  502    0 -0.12468663005E+04 -0.57198788168E+03  0.12004319326E+02  0.13718643890E+04  0.46999998093E+01 0. -1.
       -5    1    3    3    0  502  0.12468663005E+04  0.57198788168E+03 -0.99196545349E+03  0.16928860738E+04  0.46999998093E+01 0.  1.
</event>
<event>
 5   0  0.6513041E-06  0.2903733E+04  0.7818609E-02  0.8271768E-01
        2   -1    0    0  501    0  0.00000000000E+00  0.00000000000E+00  0.20171083093E+04  0.20171083093E+04  0.25500000920E-02 0.  1.
       -2   -1    0    0    0  501  0.00000000000E+00  0.00000000000E+00 -0.10450185664E+04  0.10450185664E+04  0.25500000920E-02 0. -1.
    10030    2    1    2    0    0  0.00000000000E+00  0.00000000000E+00  0.97208974297E+03  0.30621268757E+04  0.29037325178E+04 0.  0.
        1    1    3    3  502    0  0.53451601199E+03  0.89003734129E+03  0.15563164610E+04  0.18708272937E+04  0.50400001928E-02 0.  1.
       -1    1    3    3    0  502 -0.53451601199E+03 -0.89003734129E+03 -0.58422671807E+03  0.11912995820E+04  0.50400001928E-02 0. -1.
</event>
<event>
 5   0  0.2348684E-06  0.2849798E+04  0.7818609E-02  0.8287973E-01
       -1   -1    0    0    0  501  0.00000000000E+00  0.00000000000E+00  0.13329483055E+04  0.13329483055E+04  0.50400001928E-02 0.  1.
        1   -1    0    0  501    0  0.00000000000E+00  0.00000000000E+00 -0.15231925994E+04  0.15231925995E+04  0.50400001928E-02 0. -1.
    10030    2    1    2    0    0  0.00000000000E+00  0.00000000000E+00 -0.19024429398E+03  0.28561409049E+04  0.28497978836E+04 0.  0.
        5    1    3    3  502    0 -0.14092272177E+04  0.17004674207E+03  0.29563999751E+02  0.14197652502E+04  0.46999998093E+01 0.  1.
       -5    1    3    3    0  502  0.14092272177E+04 -0.17004674207E+03 -0.21980829373E+03  0.14363756547E+04  0.46999998093E+01 0. -1.
</event>
<event>
 5   0  0.2508094E-06  0.2883105E+04  0.7818609E-02  0.8277922E-01
        1   -1    0    0  501    0  0.00000000000E+00  0.00000000000E+00  0.14290541134E+04  0.14290541134E+04  0.50400001928E-02 0.  1.
       -1   -1    0    0    0  501  0.00000000000E+00  0.00000000000E+00 -0.14541605962E+04  0.14541605962E+04  0.50400001928E-02 0. -1.
    10030    2    1    2    0    0  0.00000000000E+00  0.00000000000E+00 -0.25106482806E+02  0.28832147096E+04  0.28831053963E+04 0.  0.
        3    1    3    3  502    0  0.70323364738E+03 -0.60351453449E+03 -0.11168173752E+04  0.14512230759E+04  0.10100000352E+00 0. -1.
       -3    1    3    3    0  502 -0.70323364738E+03  0.60351453449E+03  0.10917108924E+04  0.14319916337E+04  0.10100000352E+00 0.  1.
</event>
<event>
 5   0  0.6733688E-06  0.2835963E+04  0.7818609E-02  0.8292189E-01
       -2   -1    0    0    0  501  0.00000000000E+00  0.00000000000E+00  0.14530949328E+04  0.14530949328E+04  0.25500000920E-02 0.  1.
        2   -1    0    0  501    0  0.00000000000E+00  0.00000000000E+00 -0.13837170003E+04  0.13837170003E+04  0.25500000920E-02 0. -1.
    10030    2    1    2    0    0  0.00000000000E+00  0.00000000000E+00  0.69377932549E+02  0.28368119331E+04  0.28359634423E+04 0.  0.
        5    1    3    3  502    0  0.85025002728E+03 -0.22511421461E+03 -0.10778706447E+04  0.13911968714E+04  0.46999998093E+01 0. -1.
       -5    1    3    3    0  502 -0.85025002728E+03  0.22511421461E+03  0.11472485772E+04  0.14456150616E+04  0.46999998093E+01 0.  1.
</event>
<event>
 5   0  0.2508094E-06  0.2909378E+04  0.7818609E-02  0.8270093E-01
        1   -1    0    0  501    0  0.00000000000E+00  0.00000000000E+00  0.21097243946E+04  0.21097243946E+04  0.50400001928E-02 0. -1.
       -1   -1    0    0    0  501  0.00000000000E+00  0.00000000000E+00 -0.10030312956E+04  0.10030312956E+04  0.50400001928E-02 0.  1.
    10030    2    1    2    0    0  0.00000000000E+00  0.00000000000E+00  0.11066930991E+04  0.31127556902E+04  0.29093776605E+04 0.  0.
        3    1    3    3  502    0 -0.57592429556E+03 -0.69306885517E+03  0.17751408941E+04  0.19907683030E+04  0.10100000352E+00 0. -1.
       -3    1    3    3    0  502  0.57592429556E+03  0.69306885517E+03 -0.66844779500E+03  0.11219873872E+04  0.10100000352E+00 0.  1.
</event>
<event>
 5   0  0.6733688E-06  0.2924250E+04  0.7818609E-02  0.8265699E-01
       -2   -1    0    0    0  501  0.00000000000E+00  0.00000000000E+00  0.97480473464E+03  0.97480473464E+03  0.25500000920E-02 0. -1.
        2   -1    0    0  501    0  0.00000000000E+00  0.00000000000E+00 -0.21930644196E+04  0.21930644196E+04  0.25500000920E-02 0.  1.
    10030    2    1    2    0    0  0.00000000000E+00  0.00000000000E+00 -0.12182596850E+04  0.31678691543E+04  0.29242500438E+04 0.  0.
        5    1    3    3  502    0  0.20719693502E+03  0.59011154066E+03  0.82257206012E+03  0.10333484816E+04  0.46999998093E+01 0. -1.
       -5    1    3    3    0  502 -0.20719693502E+03 -0.59011154066E+03 -0.20408317451E+04  0.21345206727E+04  0.46999998093E+01 0.  1.
</event>
<event>
 5   0  0.2429358E-06  0.2872730E+04  0.7818609E-02  0.8281038E-01
        1   -1    0    0  501    0  0.00000000000E+00  0.00000000000E+00  0.19124654997E+04  0.19124654997E+04  0.50400001928E-02 0.  1.
       -1   -1    0    0    0  501  0.00000000000E+00  0.00000000000E+00 -0.10787880619E+04  0.10787880619E+04  0.50400001928E-02 0. -1.
    10030    2    1    2    0    0  0.00000000000E+00  0.00000000000E+00  0.83367743783E+03  0.29912535617E+04  0.28727303737E+04 0.  0.
        2    1    3    3  502    0 -0.26806372671E+03 -0.11302583649E+04 -0.46288741002E+03  0.12504426766E+04  0.25500000920E-02 0. -1.
       -2    1    3    3    0  502  0.26806372671E+03  0.11302583649E+04  0.12965648478E+04  0.17408108851E+04  0.25500000920E-02 0.  1.
</event>
<event>
 5   0  0.6513041E-06  0.2901027E+04  0.7818609E-02  0.8272572E-01
        2   -1    0    0  501    0  0.00000000000E+00  0.00000000000E+00  0.92340253423E+03  0.92340253424E+03  0.25500000920E-02 0. -1.
       -2   -1    0    0    0  501  0.00000000000E+00  0.00000000000E+00 -0.22785181597E+04  0.22785181597E+04  0.25500000920E-02 0.  1.
    10030    2    1    2    0    0  0.00000000000E+00  0.00000000000E+00 -0.13551156255E+04  0.32019206939E+04  0.29010270202E+04 0.  0.
        1    1    3    3  502    0 -0.69533609554E+02 -0.12219794277E+04  0.18158770200E+03  0.12373531178E+04  0.50400001928E-02 0.  1.
       -1    1    3    3    0  502  0.69533609554E+02  0.12219794277E+04 -0.15367033275E+04  0.19645675761E+04  0.50400001928E-02 0. -1.
</event>
<event>
 5   0  0.2429358E-06  0.2891275E+04  0.7818609E-02  0.8275478E-01
        1   -1    0    0  501    0  0.00000000000E+00  0.00000000000E+00  0.17910491272E+04  0.17910491273E+04  0.50400001928E-02 0. -1.
       -1   -1    0    0    0  501  0.00000000000E+00  0.00000000000E+00 -0.11668397587E+04  0.11668397587E+04  0.50400001928E-02 0.  1.
    10030    2    1    2    0    0  0.00000000000E+00  0.00000000000E+00  0.62420936854E+03  0.29578888860E+04  0.28912746888E+04 0.  0.
        2    1    3    3  502    0 -0.47685511841E+03 -0.94878732997E+03 -0.69145460379E+03  0.12671612646E+04  0.25500000920E-02 0.  1.
       -2    1    3    3    0  502  0.47685511841E+03  0.94878732997E+03  0.13156639723E+04  0.16907276213E+04  0.25500000920E-02 0. -1.
</event>
<event>
 5   0  0.6393633E-06  0.2884924E+04  0.7818609E-02  0.8277377E-01
        2   -1    0    0  501    0  0.00000000000E+00  0.00000000000E+00  0.24615649913E+04  0.24615649913E+04  0.25500000920E-02 0.  1.
       -2   -1    0    0    0  501  0.00000000000E+00  0.00000000000E+00 -0.84527361585E+03  0.84527361586E+03  0.25500000920E-02 0. -1.
    10030    2    1    2    0    0  0.00000000000E+00  0.00000000000E+00  0.16162913755E+04  0.33068386072E+04  0.28849235282E+04 0.  0.
        4    1    3    3  502    0  0.25463972841E+03 -0.58887931309E+03  0.22890142095E+04  0.23772269350E+04  0.12699999809E+01 0.  1.
       -4    1    3    3    0  502 -0.25463972841E+03  0.58887931309E+03 -0.67272283400E+03  0.92961167213E+03  0.12699999809E+01 0. -1.
</event>
<event>
 5   0  0.2336512E-06  0.2671945E+04  0.7818609E-02  0.8344166E-01
        1   -1    0    0  501    0  0.00000000000E+00  0.00000000000E+00  0.15031093529E+04  0.15031093529E+04  0.50400001928E-02 0.  1.
       -1   -1    0    0    0  501  0.00000000000E+00  0.00000000000E+00 -0.11874202681E+04  0.11874202681E+04  0.50400001928E-02 0. -1.
    10030    2    1    2    0    0  0.00000000000E+00  0.00000000000E+00  0.31568908481E+03  0.26905296210E+04  0.26719449926E+04 0.  0.
        4    1    3    3  502    0  0.93045323119E+03 -0.64424338293E+03 -0.55704288487E+03  0.12613846124E+04  0.12699999809E+01 0. -1.
       -4    1    3    3    0  502 -0.93045323119E+03  0.64424338293E+03  0.87273196968E+03  0.14291450086E+04  0.12699999809E+01 0.  1.
</event>
<event>
 5   0  0.2429358E-06  0.2898321E+04  0.7818609E-02  0.8273377E-01
        1   -1    0    0  501    0  0.00000000000E+00  0.00000000000E+00  0.21785921294E+04  0.21785921294E+04  0.50400001928E-02 0.  1.
       -1   -1    0    0    0  501  0.00000000000E+00  0.00000000000E+00 -0.96395534579E+03  0.96395534580E+03  0.50400001928E-02 0. -1.
    10030    2    1    2    0    0  0.00000000000E+00  0.00000000000E+00  0.12146367836E+04  0.31425474752E+04  0.28983205685E+04 0.  0.
        2    1    3    3  502    0 -0.80202458787E+03  0.10430991849E+04 -0.51113670918E+02  0.13167809068E+04  0.25500000920E-02 0. -1.
       -2    1    3    3    0  502  0.80202458787E+03 -0.10430991849E+04  0.12657504545E+04  0.18257665684E+04  0.25500000920E-02 0.  1.
</event>
<event>
 5   0  0.2348684E-06  0.2867557E+04  0.7818609E-02  0.8282596E-01
        1   -1    0    0  501    0  0.00000000000E+00  0.00000000000E+00  0.18822019274E+04  0.18822019274E+04  0.50400001928E-02 0. -1.
       -1   -1    0    0    0  501  0.00000000000E+00  0.00000000000E+00 -0.10921891993E+04  0.10921891993E+04  0.50400001928E-02 0.  1.
    10030    2    1    2    0    0  0.00000000000E+00  0.00000000000E+00  0.79001272814E+03  0.29743911267E+04  0.28675568807E+04 0.  0.
        5    1    3    3  502    0 -0.14177610370E+04 -0.15458636734E+03  0.54799804134E+03  0.15278308958E+04  0.46999998093E+01 0. -1.
       -5    1    3    3    0  502  0.14177610370E+04  0.15458636734E+03  0.24201468680E+03  0.14465602309E+04  0.46999998093E+01 0.  1.
</event>
<event>
 5   0  0.2429358E-06  0.2867058E+04  0.7818609E-02  0.8282747E-01
        1   -1    0    0  501    0  0.00000000000E+00  0.00000000000E+00  0.24699706911E+04  0.24699706911E+04  0.50400001928E-02 0.  1.
       -1   -1    0    0    0  501  0.00000000000E+00  0.00000000000E+00 -0.83199595987E+03  0.83199595989E+03  0.50400001928E-02 0. -1.
    10030    2    1    2    0    0  0.00000000000E+00  0.00000000000E+00  0.16379747312E+04  0.33019666510E+04  0.28670581690E+04 0.  0.
        2    1    3    3  502    0  0.57984976942E+03  0.11257562357E+04  0.45163101099E+02  0.12671197903E+04  0.25500000920E-02 0. -1.
       -2    1    3    3    0  502 -0.57984976942E+03 -0.11257562357E+04  0.15928116301E+04  0.20348468607E+04  0.25500000920E-02 0.  1.
</event>
<event>
 5   0  0.2508094E-06  0.2928355E+04  0.7818609E-02  0.8264491E-01
       -1   -1    0    0    0  501  0.00000000000E+00  0.00000000000E+00  0.15496145935E+04  0.15496145935E+04  0.50400001928E-02 0. -1.
        1   -1    0    0  501    0  0.00000000000E+00  0.00000000000E+00 -0.13834508045E+04  0.13834508045E+04  0.50400001928E-02 0.  1.
    10030    2    1    2    0    0  0.00000000000E+00  0.00000000000E+00  0.16616378901E+03  0.29330653981E+04  0.29283548666E+04 0.  0.
        3    1    3    3  502    0 -0.67875758993E+03  0.54171662964E+03  0.12638109581E+04  0.15334232686E+04  0.10100000352E+00 0. -1.
       -3    1    3    3    0  502  0.67875758993E+03 -0.54171662964E+03 -0.10976471690E+04  0.13996421295E+04  0.10100000352E+00 0.  1.
</event>
<event>
 5   0  0.2348684E-06  0.2902017E+04  0.7818609E-02  0.8272277E-01
        1   -1    0    0  501    0  0.00000000000E+00  0.00000000000E+00  0.17254707231E+04  0.17254707231E+04  0.50400001928E-02 0.  1.
       -1   -1    0    0    0  501  0.00000000000E+00  0.00000000000E+00 -0.12202040382E+04  0.12202040382E+04  0.50400001928E-02 0. -1.
    10030    2    1    2    0    0  0.00000000000E+00  0.00000000000E+00  0.50526668487E+03  0.29456747613E+04  0.29020174666E+04 0.  0.
        5    1    3    3  502    0 -0.17978000964E+03  0.40725500341E+03  0.16544329626E+04  0.17132857344E+04  0.46999998093E+01 0.  1.
       -5    1    3    3    0  502  0.17978000964E+03 -0.40725500341E+03 -0.11491662778E+04  0.12323890269E+04  0.46999998093E+01 0. -1.
</event>
<event>
 5   0  0.2348684E-06  0.2905102E+04  0.7818609E-02  0.8271361E-01
        1   -1    0    0  501    0  0.00000000000E+00  0.00000000000E+00  0.76464493301E+03  0.76464493302E+03  0.50400001928E-02 0.  1.
       -1   -1    0    0    0  501  0.00000000000E+00  0.00000000000E+00 -0.27593264921E+04  0.27593264921E+04  0.50400001928E-02 0. -1.
    10030    2    1    2    0    0  0.00000000000E+00  0.00000000000E+00 -0.19946815591E+04  0.35239714251E+04  0.29051024221E+04 0.  0.
        5    1    3    3  502    0 -0.25455485110E+03  0.93966070271E+03 -0.23050069504E+04  0.25021669688E+04  0.46999998093E+01 0. -1.
       -5    1    3    3    0  502  0.25455485110E+03 -0.93966070271E+03  0.31032539131E+03  0.10218044563E+04  0.46999998093E+01 0.  1.
</event>
<event>
 5   0  0.2348684E-06  0.2879463E+04  0.7818609E-02  0.8279014E-01
        1   -1    0    0  501    0  0.00000000000E+00  0.00000000000E+00  0.22687896681E+04  0.22687896681E+04  0.50400001928E-02 0.  1.
       -1   -1    0    0    0  501  0.00000000000E+00  0.00000000000E+00 -0.91362670735E+03  0.91362670736E+03  0.50400001928E-02 0. -1.
    10030    2    1    2    0    0  0.00000000000E+00  0.00000000000E+00  0.13551629608E+04  0.31824163755E+04  0.28794630292E+04 0.  0.
        5    1    3    3  502    0 -0.19581009645E+03  0.10382139537E+04 -0.40336699313E+03  0.11309097349E+04  0.46999998093E+01 0. -1.
       -5    1    3    3    0  502  0.19581009645E+03 -0.10382139537E+04  0.17585299539E+04  0.20515066405E+04  0.46999998093E+01 0.  1.
</event>
<event>
 5   0  0.6393633E-06  0.2920057E+04  0.7818609E-02  0.8266935E-01
        2   -1    0    0  501    0  0.00000000000E+00  0.00000000000E+00  0.21773647728E+04  0.21773647728E+04  0.25500000920E-02 0. -1.
       -2   -1    0    0    0  501  0.00000000000E+00  0.00000000000E+00 -0.97902010235E+03  0.97902010235E+03  0.25500000920E-02 0.  1.
    10030    2    1    2    0    0  0.00000000000E+00  0.00000000000E+00  0.11983446705E+04  0.31563848752E+04  0.29200574534E+04 0.  0.
        4    1    3    3  502    0 -0.80034582016E+03 -0.49607735349E+02 -0.71968394168E+03  0.10774789780E+04  0.12699999809E+01 0.  1.
       -4    1    3    3    0  502  0.80034582016E+03  0.49607735349E+02  0.19180286122E+04  0.20789058971E+04  0.12699999809E+01 0. -1.
</event>
<event>
 5   0  0.2336512E-06  0.2905083E+04  0.7818609E-02  0.8271367E-01
       -1   -1    0    0    0  501  0.00000000000E+00  0.00000000000E+00  0.10866259995E+04  0.10866259995E+04  0.50400001928E-02 0. -1.
        1   -1    0    0  501    0  0.00000000000E+00  0.00000000000E+00 -0.19416772012E+04  0.19416772012E+04  0.50400001928E-02 0.  1.
    10030    2    1    2    0    0  0.00000000000E+00  0.00000000000E+00 -0.85505120173E+03  0.30283032007E+04  0.29050830827E+04 0.  0.
        4    1    3    3  502    0 -0.11765384417E+04  0.70358546716E+03 -0.92810220278E+03  0.16554910227E+04  0.12699999809E+01 0. -1.
       -4    1    3    3    0  502  0.11765384417E+04 -0.70358546716E+03  0.73051001048E+02  0.13728121780E+04  0.12699999809E+01 0.  1.
</event>
<event>
 5   0  0.6612533E-06  0.2870066E+04  0.7818609E-02  0.8281840E-01
       -2   -1    0    0    0  501  0.00000000000E+00  0.00000000000E+00  0.72800687715E+03  0.72800687716E+03  0.25500000920E-02 0.  1.
        2   -1    0    0  501    0  0.00000000000E+00  0.00000000000E+00 -0.28287083138E+04  0.28287083138E+04  0.25500000920E-02 0. -1.
    10030    2    1    2    0    0  0.00000000000E+00  0.00000000000E+00 -0.21007014367E+04  0.35567151910E+04  0.28700655783E+04 0.  0.
        3    1    3    3  502    0  0.76682884802E+03  0.52099649127E+03 -0.24077940280E+04  0.25801038579E+04  0.10100000352E+00 0. -1.
       -3    1    3    3    0  502 -0.76682884802E+03 -0.52099649127E+03  0.30709259132E+03  0.97661133309E+03  0.10100000352E+00 0.  1.
</event>
<event>
 5   0  0.6513041E-06  0.2531671E+04  0.7818609E-02  0.8391789E-01
        2   -1    0    0  501    0  0.00000000000E+00  0.00000000000E+00  0.12347470554E+04  0.12347470554E+04  0.25500000920E-02 0.  1.
       -2   -1    0    0    0  501  0.00000000000E+00  0.00000000000E+00 -0.12977064374E+04  0.12977064374E+04  0.25500000920E-02 0. -1.
    10030    2    1    2    0    0  0.00000000000E+00  0.00000000000E+00 -0.62959381989E+02  0.25324534928E+04  0.25316707545E+04 0.  0.
        1    1    3    3  502    0  0.68678725034E+02  0.11641228495E+04 -0.52401432342E+03  0.12784716607E+04  0.50400001928E-02 0. -1.
       -1    1    3    3    0  502 -0.68678725034E+02 -0.11641228495E+04  0.46105494143E+03  0.12539818320E+04  0.50400001928E-02 0.  1.
</event>
<event>
 5   0  0.2336512E-06  0.2920818E+04  0.7818609E-02  0.8266710E-01
       -1   -1    0    0    0  501  0.00000000000E+00  0.00000000000E+00  0.14029377235E+04  0.14029377235E+04  0.50400001928E-02 0.  1.
        1   -1    0    0  501    0  0.00000000000E+00  0.00000000000E+00 -0.15202341143E+04  0.15202341143E+04  0.50400001928E-02 0. -1.
    10030    2    1    2    0    0  0.00000000000E+00  0.00000000000E+00 -0.11729639081E+03  0.29231718378E+04  0.29208175482E+04 0.  0.
        4    1    3    3  502    0  0.27031416407E+03 -0.70022301576E+03  0.11951225903E+04  0.14112765987E+04  0.12699999809E+01 0.  1.
       -4    1    3    3    0  502 -0.27031416407E+03  0.70022301576E+03 -0.13124189811E+04  0.15118952391E+04  0.12699999809E+01 0. -1.
</event>
<event>
 5   0  0.6513041E-06  0.2961385E+04  0.7818609E-02  0.8254844E-01
       -2   -1    0    0    0  501  0.00000000000E+00  0.00000000000E+00  0.17335743150E+04  0.17335743150E+04  0.25500000920E-02 0.  1.
        2   -1    0    0  501    0  0.00000000000E+00  0.00000000000E+00 -0.12646991806E+04  0.12646991806E+04  0.25500000920E-02 0. -1.
    10030    2    1    2    0    0  0.00000000000E+00  0.00000000000E+00  0.46887513433E+03  0.29982734956E+04  0.29613848218E+04 0.  0.
        1    1    3    3  502    0 -0.45898570779E+03 -0.13505451077E+04  0.63663910360E+03  0.15620337116E+04  0.50400001928E-02 0.  1.
       -1    1    3    3    0  502  0.45898570779E+03  0.13505451077E+04 -0.16776396927E+03  0.14362397840E+04  0.50400001928E-02 0. -1.
</event>
<event>
 5   0  0.6612533E-06  0.2927099E+04  0.7818609E-02  0.8264860E-01
       -2   -1    0    0    0  501  0.00000000000E+00  0.00000000000E+00  0.10826986987E+04  0.10826986987E+04  0.25500000920E-02 0.  1.
        2   -1    0    0  501    0  0.00000000000E+00  0.00000000000E+00 -0.19783689535E+04  0.19783689535E+04  0.25500000920E-02 0. -1.
    10030    2    1    2    0    0  0.00000000000E+00  0.00000000000E+00 -0.89567025480E+03  0.30610676522E+04  0.29270992409E+04 0.  0.
        3    1    3    3  502    0 -0.71237102122E+03  0.84696365401E+02 -0.17818894093E+04  0.19208789195E+04  0.10100000352E+00 0. -1.
       -3    1    3    3    0  502  0.71237102122E+03 -0.84696365401E+02  0.88621915451E+03  0.11401887327E+04  0.10100000352E+00 0.  1.
</event>
<event>
 5   0  0.2429358E-06  0.2916701E+04  0.7818609E-02  0.8267926E-01
        1   -1    0    0  501    0  0.00000000000E+00  0.00000000000E+00  0.21444401397E+04  0.21444401397E+04  0.50400001928E-02 0. -1.
       -1   -1    0    0    0  501  0.00000000000E+00  0.00000000000E+00 -0.99176778691E+03  0.99176778693E+03  0.50400001928E-02 0.  1.
    10030    2    1    2    0    0  0.00000000000E+00  0.00000000000E+00  0.11526723528E+04  0.31362079266E+04  0.29167013228E+04 0.  0.
        2    1    3    3  502    0 -0.70033388425E+03  0.17984803902E+03 -0.78545815652E+03  0.10675942030E+04  0.25500000920E-02 0.  1.
       -2    1    3    3    0  502  0.70033388425E+03 -0.17984803902E+03  0.19381305093E+04  0.20686137237E+04  0.25500000920E-02 0. -1.
</event>
<event>
 5   0  0.6612533E-06  0.2899113E+04  0.7818609E-02  0.8273142E-01
        2   -1    0    0  501    0  0.00000000000E+00  0.00000000000E+00  0.16734572507E+04  0.16734572507E+04  0.25500000920E-02 0. -1.
       -2   -1    0    0    0  501  0.00000000000E+00  0.00000000000E+00 -0.12556124075E+04  0.12556124075E+04  0.25500000920E-02 0.  1.
    10030    2    1    2    0    0  0.00000000000E+00  0.00000000000E+00  0.41784484320E+03  0.29290696582E+04  0.28991127521E+04 0.  0.
        3    1    3    3  502    0  0.18935992394E+02 -0.80649940972E+02 -0.12532187157E+04  0.12559538783E+04  0.10100000352E+00 0.  1.
       -3    1    3    3    0  502 -0.18935992394E+02  0.80649940972E+02  0.16710635589E+04  0.16731157799E+04  0.10100000352E+00 0. -1.
</event>
<event>
 5   0  0.2336512E-06  0.2915124E+04  0.7818609E-02  0.8268392E-01
        1   -1    0    0  501    0  0.00000000000E+00  0.00000000000E+00  0.12351148527E+04  0.12351148527E+04  0.50400001928E-02 0. -1.
       -1   -1    0    0    0  501  0.00000000000E+00  0.00000000000E+00 -0.17200729552E+04  0.17200729552E+04  0.50400001928E-02 0.  1.
    10030    2    1    2    0    0  0.00000000000E+00  0.00000000000E+00 -0.48495810245E+03  0.29551878079E+04  0.29151244602E+04 0.  0.
        4    1    3    3  502    0  0.10823180314E+04 -0.96873001571E+03 -0.36512052662E+03  0.14977198591E+04  0.12699999809E+01 0. -1.
       -4    1    3    3    0  502 -0.10823180314E+04  0.96873001571E+03 -0.11983757583E+03  0.14574679488E+04  0.12699999809E+01 0.  1.
</event>
<event>
 5   0  0.2429358E-06  0.2912374E+04  0.7818609E-02  0.8269205E-01
        1   -1    0    0  501    0  0.00000000000E+00  0.00000000000E+00  0.23352254455E+04  0.23352254455E+04  0.50400001928E-02 0. -1.
       -1   -1    0    0    0  501  0.00000000000E+00  0.00000000000E+00 -0.90804120285E+03  0.90804120286E+03  0.50400001928E-02 0.  1.
    10030    2    1    2    0    0  0.00000000000E+00  0.00000000000E+00  0.14271842427E+04  0.32432666484E+04  0.29123742359E+04 0.  0.
        2    1    3    3  502    0  0.56916817927E+03 -0.18129744619E+03  0.21925059726E+04  0.22724224124E+04  0.25500000920E-02 0. -1.
       -2    1    3    3    0  502 -0.56916817927E+03  0.18129744619E+03 -0.76532172994E+03  0.97084423602E+03  0.25500000920E-02 0.  1.
</event>
<event>
 5   0  0.2474769E-06  0.2841905E+04  0.7818609E-02  0.8290375E-01
        1   -1    0    0  501    0  0.00000000000E+00  0.00000000000E+00  0.75780221966E+03  0.75780221968E+03  0.50400001928E-02 0. -1.
       -1   -1    0    0    0  501  0.00000000000E+00  0.00000000000E+00 -0.26644231976E+04  0.26644231976E+04  0.50400001928E-02 0.  1.
    10030    2    1    2    0    0  0.00000000000E+00  0.00000000000E+00 -0.19066209779E+04  0.34222254172E+04  0.28419048635E+04 0.  0.
        1    1    3    3  502    0 -0.13864017859E+03  0.12547440680E+04 -0.16780377837E+03  0.12734841512E+04  0.50400001928E-02 0. -1.
       -1    1    3    3    0  502  0.13864017859E+03 -0.12547440680E+04 -0.17388171995E+04  0.21487412661E+04  0.50400001928E-02 0.  1.
</event>
<event>
 5   0  0.6513041E-06  0.2937810E+04  0.7818609E-02  0.8261716E-01
        2   -1    0    0  501    0  0.00000000000E+00  0.00000000000E+00  0.13196618572E+04  0.13196618572E+04  0.25500000920E-02 0. -1.
       -2   -1    0    0    0  501  0.00000000000E+00  0.00000000000E+00 -0.16350260391E+04  0.16350260391E+04  0.25500000920E-02 0.  1.
    10030    2    1    2    0    0  0.00000000000E+00  0.00000000000E+00 -0.31536418188E+03  0.29546878964E+04  0.29378097280E+04 0.  0.
        1    1    3    3  502    0  0.11705690357E+04  0.21366484584E+03 -0.10239066145E+04  0.15697991238E+04  0.50400001928E-02 0.  1.
       -1    1    3    3    0  502 -0.11705690357E+04 -0.21366484584E+03  0.70854243266E+03  0.13848887726E+04  0.50400001928E-02 0. -1.
</event>
<event>
 5   0  0.2474769E-06  0.2924111E+04  0.7818609E-02  0.8265740E-01
       -1   -1    0    0    0  501  0.00000000000E+00  0.00000000000E+00  0.10430980611E+04  0.10430980612E+04  0.50400001928E-02 0.  1.
        1   -1    0    0  501    0  0.00000000000E+00  0.00000000000E+00 -0.20492866966E+04  0.20492866966E+04  0.50400001928E-02 0. -1.
    10030    2    1    2    0    0  0.00000000000E+00  0.00000000000E+00 -0.10061886355E+04  0.30923847578E+04  0.29241114753E+04 0.  0.
        1    1    3    3  502    0  0.49402635788E+03  0.13738835928E+04 -0.42125350922E+03  0.15195633214E+04  0.50400001928E-02 0.  1.
       -1    1    3    3    0  502 -0.49402635788E+03 -0.13738835928E+04 -0.58493512627E+03  0.15728214364E+04  0.50400001928E-02 0. -1.
</event>
<event>
 5   0  0.2336512E-06  0.2929103E+04  0.7818609E-02  0.8264271E-01
       -1   -1    0    0    0  501  0.00000000000E+00  0.00000000000E+00  0.12240748807E+04  0.12240748808E+04  0.50400001928E-02 0. -1.
        1   -1    0    0  501    0  0.00000000000E+00  0.00000000000E+00 -0.17522707594E+04  0.17522707594E+04  0.50400001928E-02 0.  1.
    10030    2    1    2    0    0  0.00000000000E+00  0.00000000000E+00 -0.52819587868E+03  0.29763456402E+04  0.29291026755E+04 0.  0.
        4    1    3    3  502    0 -0.11371853066E+03  0.13425440268E+04 -0.84742371321E+03  0.15916924737E+04  0.12699999809E+01 0.  1.
       -4    1    3    3    0  502  0.11371853066E+03 -0.13425440268E+04  0.31922783452E+03  0.13846531665E+04  0.12699999809E+01 0. -1.
</event>
<event>
 5   0  0.6615403E-06  0.2972964E+04  0.7818609E-02  0.8251493E-01
        2   -1    0    0  501    0  0.00000000000E+00  0.00000000000E+00  0.14763785445E+04  0.14763785445E+04  0.25500000920E-02 0. -1.
       -2   -1    0    0    0  501  0.00000000000E+00  0.00000000000E+00 -0.14966550721E+04  0.14966550721E+04  0.25500000920E-02 0.  1.
    10030    2    1    2    0    0  0.00000000000E+00  0.00000000000E+00 -0.20276527574E+02  0.29730336166E+04  0.29729644714E+04 0.  0.
        2    1    3    3  502    0 -0.21947240004E+03 -0.12417694895E+04 -0.79722063128E+03  0.14918848261E+04  0.25500000920E-02 0.  1.
       -2    1    3    3    0  502  0.21947240004E+03  0.12417694895E+04  0.77694410370E+03  0.14811487905E+04  0.25500000920E-02 0. -1.
</event>
<event>
 5   0  0.6615403E-06  0.2613799E+04  0.7818609E-02  0.8363529E-01
        2   -1    0    0  501    0  0.00000000000E+00  0.00000000000E+00  0.16988463836E+04  0.16988463836E+04  0.25500000920E-02 0. -1.
       -2   -1    0    0    0  501  0.00000000000E+00  0.00000000000E+00 -0.10053797705E+04  0.10053797705E+04  0.25500000920E-02 0.  1.
    10030    2    1    2    0    0  0.00000000000E+00  0.00000000000E+00  0.69346661303E+03  0.27042261541E+04  0.26137986053E+04 0.  0.
        2    1    3    3  502    0  0.51037709529E+03  0.30851089502E+03 -0.85639224222E+03  0.10435858490E+04  0.25500000920E-02 0.  1.
       -2    1    3    3    0  502 -0.51037709529E+03 -0.30851089502E+03  0.15498588552E+04  0.16606403051E+04  0.25500000920E-02 0. -1.
</event>
<event>
 5   0  0.2159500E-06  0.2940180E+04  0.7818609E-02  0.8261022E-01
       -4   -1    0    0    0  501  0.00000000000E+00  0.00000000000E+00  0.14416177572E+04  0.14416183166E+04  0.12699999809E+01 0. -1.
        4   -1    0    0  501    0  0.00000000000E+00  0.00000000000E+00 -0.14991232446E+04  0.14991237826E+04  0.12699999809E+01 0.  1.
    10030    2    1    2    0    0  0.00000000000E+00  0.00000000000E+00 -0.57505487396E+02  0.29407420992E+04  0.29401797926E+04 0.  0.
        1    1    3    3  502    0  0.83399952226E+03  0.32396448078E+03  0.11379419950E+04  0.14475566214E+04  0.50400001928E-02 0. -1.
       -1    1    3    3    0  502 -0.83399952226E+03 -0.32396448078E+03 -0.11954474824E+04  0.14931854778E+04  0.50400001928E-02 0.  1.
</event>
<event>
 5   0  0.6513041E-06  0.2878419E+04  0.7818609E-02  0.8279327E-01
       -2   -1    0    0    0  501  0.00000000000E+00  0.00000000000E+00  0.12043267570E+04  0.12043267571E+04  0.25500000920E-02 0.  1.
        2   -1    0    0  501    0  0.00000000000E+00  0.00000000000E+00 -0.17199025089E+04  0.17199025089E+04  0.25500000920E-02 0. -1.
    10030    2    1    2    0    0  0.00000000000E+00  0.00000000000E+00 -0.51557575189E+03  0.29242292660E+04  0.28784194351E+04 0.  0.
        1    1    3    3  502    0  0.52253853653E+03 -0.33156393256E+03 -0.15778298449E+04  0.16948534400E+04  0.50400001928E-02 0. -1.
       -1    1    3    3    0  502 -0.52253853653E+03  0.33156393256E+03  0.10622540930E+04  0.12293758260E+04  0.50400001928E-02 0.  1.
</event>
<event>
 5   0  0.2508094E-06  0.2888247E+04  0.7818609E-02  0.8276383E-01
        1   -1    0    0  501    0  0.00000000000E+00  0.00000000000E+00  0.15974108917E+04  0.15974108917E+04  0.50400001928E-02 0.  1.
       -1   -1    0    0    0  501  0.00000000000E+00  0.00000000000E+00 -0.13055459557E+04  0.13055459557E+04  0.50400001928E-02 0. -1.
    10030    2    1    2    0    0  0.00000000000E+00  0.00000000000E+00  0.29186493600E+03  0.29029568474E+04  0.28882474473E+04 0.  0.
        3    1    3    3  502    0  0.46445483936E+02  0.14205177110E+04 -0.11123300157E+03  0.14256228608E+04  0.10100000352E+00 0.  1.
       -3    1    3    3    0  502 -0.46445483936E+02 -0.14205177110E+04  0.40309793757E+03  0.14773339866E+04  0.10100000352E+00 0. -1.
</event>
<event>
 5   0  0.6393633E-06  0.2806651E+04  0.7818609E-02  0.8301207E-01
       -2   -1    0    0    0  501  0.00000000000E+00  0.00000000000E+00  0.78912372112E+03  0.78912372113E+03  0.25500000920E-02 0.  1.
        2   -1    0    0  501    0  0.00000000000E+00  0.00000000000E+00 -0.24955806781E+04  0.24955806781E+04  0.25500000920E-02 0. -1.
    10030    2    1    2    0    0  0.00000000000E+00  0.00000000000E+00 -0.17064569570E+04  0.32847043993E+04  0.28066506096E+04 0.  0.
        4    1    3    3  502    0 -0.86940026918E+03 -0.67281859315E+03 -0.18740200770E+04  0.21726699126E+04  0.12699999809E+01 0. -1.
       -4    1    3    3    0  502  0.86940026918E+03  0.67281859315E+03  0.16756312001E+03  0.11120344866E+04  0.12699999809E+01 0.  1.
</event>
<event>
 5   0  0.6733688E-06  0.2909368E+04  0.7818609E-02  0.8270096E-01
       -2   -1    0    0    0  501  0.00000000000E+00  0.00000000000E+00  0.14572417503E+04  0.14572417503E+04  0.25500000920E-02 0.  1.
        2   -1    0    0  501    0  0.00000000000E+00  0.00000000000E+00 -0.14521311293E+04  0.14521311293E+04  0.25500000920E-02 0. -1.
    10030    2    1    2    0    0  0.00000000000E+00  0.00000000000E+00  0.51106209555E+01  0.29093728796E+04  0.29093683909E+04 0.  0.
        5    1    3    3  502    0  0.29137457117E+03  0.10637413290E+04  0.95104992759E+03  0.14563525708E+04  0.46999998093E+01 0.  1.
       -5    1    3    3    0  502 -0.29137457117E+03 -0.10637413290E+04 -0.94593930663E+03  0.14530203087E+04  0.46999998093E+01 0. -1.
</event>
<event>
 5   0  0.6612533E-06  0.2897792E+04  0.7818609E-02  0.8273535E-01
       -2   -1    0    0    0  501  0.00000000000E+00  0.00000000000E+00  0.19580916156E+04  0.19580916156E+04  0.25500000920E-02 0.  1.
        2   -1    0    0  501    0  0.00000000000E+00  0.00000000000E+00 -0.10721149480E+04  0.10721149480E+04  0.25500000920E-02 0. -1.
    10030    2    1    2    0    0  0.00000000000E+00  0.00000000000E+00  0.88597666756E+03  0.30302065636E+04  0.28977917736E+04 0.  0.
        3    1    3    3  502    0  0.66271852480E+03 -0.94545278665E+03 -0.47235179011E+03  0.12474746646E+04  0.10100000352E+00 0. -1.
       -3    1    3    3    0  502 -0.66271852480E+03  0.94545278665E+03  0.13583284577E+04  0.17827318991E+04  0.10100000352E+00 0.  1.
</event>
<event>
 5   0  0.2474769E-06  0.2631891E+04  0.7818609E-02  0.8357449E-01
        1   -1    0    0  501    0  0.00000000000E+00  0.00000000000E+00  0.17843498169E+04  0.17843498169E+04  0.50400001928E-02 0.  1.
       -1   -1    0    0    0  501  0.00000000000E+00  0.00000000000E+00 -0.97050069479E+03  0.97050069480E+03  0.50400001928E-02 0. -1.
    10030    2    1    2    0    0  0.00000000000E+00  0.00000000000E+00  0.81384912208E+03  0.27548505117E+04  0.26318911353E+04 0.  0.
        1    1    3    3  502    0 -0.10990244734E+04 -0.64065771791E+03  0.54418510643E+02  0.12732864874E+04  0.50400001928E-02 0. -1.
       -1    1    3    3    0  502  0.10990244734E+04  0.64065771791E+03  0.75943061144E+03  0.14815640243E+04  0.50400001928E-02 0.  1.
</event>
<event>
 5   0  0.2429358E-06  0.2893323E+04  0.7818609E-02  0.8274867E-01
       -1   -1    0    0    0  501  0.00000000000E+00  0.00000000000E+00  0.13646347902E+04  0.13646347902E+04  0.50400001928E-02 0. -1.
        1   -1    0    0  501    0  0.00000000000E+00  0.00000000000E+00 -0.15336190697E+04  0.15336190697E+04  0.50400001928E-02 0.  1.
    10030    2    1    2    0    0  0.00000000000E+00  0.00000000000E+00 -0.16898427952E+03  0.28982538599E+04  0.28933233054E+04 0.  0.
        2    1    3    3  502    0 -0.54406081083E+03 -0.10685170162E+04  0.72626910017E+03  0.14018550516E+04  0.25500000920E-02 0.  1.
       -2    1    3    3    0  502  0.54406081083E+03  0.10685170162E+04 -0.89525337970E+03  0.14963988083E+04  0.25500000920E-02 0. -1.
</event>
<event>
 5   0  0.2429358E-06  0.2962011E+04  0.7818609E-02  0.8254663E-01
        1   -1    0    0  501    0  0.00000000000E+00  0.00000000000E+00  0.77288808959E+03  0.77288808960E+03  0.50400001928E-02 0. -1.
       -1   -1    0    0    0  501  0.00000000000E+00  0.00000000000E+00 -0.28378979896E+04  0.28378979896E+04  0.50400001928E-02 0.  1.
    10030    2    1    2    0    0  0.00000000000E+00  0.00000000000E+00 -0.20650099000E+04  0.36107860792E+04  0.29620111787E+04 0.  0.
        2    1    3    3  502    0 -0.10251834846E+04  0.10121256479E+03  0.26456582779E+03  0.10635977800E+04  0.25500000920E-02 0. -1.
       -2    1    3    3    0  502  0.10251834846E+04 -0.10121256479E+03 -0.23295757278E+04  0.25471882993E+04  0.25500000920E-02 0.  1.
</event>
<event>
 5   0  0.6615403E-06  0.2962263E+04  0.7818609E-02  0.8254590E-01
        2   -1    0    0  501    0  0.00000000000E+00  0.00000000000E+00  0.16671995025E+04  0.16671995025E+04  0.25500000920E-02 0. -1.
       -2   -1    0    0    0  501  0.00000000000E+00  0.00000000000E+00 -0.13158297413E+04  0.13158297413E+04  0.25500000920E-02 0.  1.
    10030    2    1    2    0    0  0.00000000000E+00  0.00000000000E+00  0.35136976120E+03  0.29830292437E+04  0.29622631146E+04 0.  0.
        2    1    3    3  502    0  0.91160727664E+02 -0.41533128156E+03  0.16044121421E+04  0.16598038057E+04  0.25500000920E-02 0. -1.
       -2    1    3    3    0  502 -0.91160727664E+02  0.41533128156E+03 -0.12530423809E+04  0.13232254381E+04  0.25500000920E-02 0.  1.
</event>
<event>
 5   0  0.6393633E-06  0.2921683E+04  0.7818609E-02  0.8266455E-01
        2   -1    0    0  501    0  0.00000000000E+00  0.00000000000E+00  0.16457517784E+04  0.16457517784E+04  0.25500000920E-02 0. -1.
       -2   -1    0    0    0  501  0.00000000000E+00  0.00000000000E+00 -0.12967073414E+04  0.12967073414E+04  0.25500000920E-02 0.  1.
    10030    2    1    2    0    0  0.00000000000E+00  0.00000000000E+00  0.34904443707E+03  0.29424591198E+04  0.29216833594E+04 0.  0.
        4    1    3    3  502    0 -0.71198929052E+03 -0.86272493661E+03 -0.77175143974E+03  0.13589793831E+04  0.12699999809E+01 0.  1.
       -4    1    3    3    0  502  0.71198929052E+03  0.86272493661E+03  0.11207958768E+04  0.15834797367E+04  0.12699999809E+01 0. -1.
</event>
<event>
 5   0  0.6733688E-06  0.2780541E+04  0.7818609E-02  0.8309335E-01
       -2   -1    0    0    0  501  0.00000000000E+00  0.00000000000E+00  0.17229984044E+04  0.17229984044E+04  0.25500000920E-02 0. -1.
        2   -1    0    0  501    0  0.00000000000E+00  0.00000000000E+00 -0.11217957743E+04  0.11217957743E+04  0.25500000920E-02 0.  1.
    10030    2    1    2    0    0  0.00000000000E+00  0.00000000000E+00  0.60120263011E+03  0.28447941788E+04  0.27805411914E+04 0.  0.
        5    1    3    3  502    0  0.10564655200E+04 -0.46311351836E+03  0.10945732129E+04  0.15901905968E+04  0.46999998093E+01 0. -1.
       -5    1    3    3    0  502 -0.10564655200E+04  0.46311351836E+03 -0.49337058283E+03  0.12546035819E+04  0.46999998093E+01 0.  1.
</event>
<event>
 5   0  0.2474769E-06  0.2968656E+04  0.7818609E-02  0.8252738E-01
        1   -1    0    0  501    0  0.00000000000E+00  0.00000000000E+00  0.22991867090E+04  0.22991867090E+04  0.50400001928E-02 0. -1.
       -1   -1    0    0    0  501  0.00000000000E+00  0.00000000000E+00 -0.95826498103E+03  0.95826498104E+03  0.50400001928E-02 0.  1.
    10030    2    1    2    0    0  0.00000000000E+00  0.00000000000E+00  0.13409217279E+04  0.32574516900E+04  0.29686563345E+04 0.  0.
        1    1    3    3  502    0  0.78109593092E+03  0.71508191507E+03  0.18117270574E+04  0.20985251795E+04  0.50400001928E-02 0. -1.
       -1    1    3    3    0  502 -0.78109593092E+03 -0.71508191507E+03 -0.47080532941E+03  0.11589265105E+04  0.50400001928E-02 0.  1.
</event>
<event>
 5   0  0.2336512E-06  0.2904699E+04  0.7818609E-02  0.8271481E-01
       -1   -1    0    0    0  501  0.00000000000E+00  0.00000000000E+00  0.16307952253E+04  0.16307952253E+04  0.50400001928E-02 0. -1.
        1   -1    0    0  501    0  0.00000000000E+00  0.00000000000E+00 -0.12934297982E+04  0.12934297982E+04  0.50400001928E-02 0.  1.
    10030    2    1    2    0    0  0.00000000000E+00  0.00000000000E+00  0.33736542705E+03  0.29242250235E+04  0.29046990475E+04 0.  0.
        4    1    3    3  502    0  0.71272067668E+03 -0.50050046894E+03 -0.10013892535E+04  0.13271222748E+04  0.12699999809E+01 0.  1.
       -4    1    3    3    0  502 -0.71272067668E+03  0.50050046894E+03  0.13387546805E+04  0.15971027487E+04  0.12699999809E+01 0. -1.
</event>
<event>
 5   0  0.6615403E-06  0.2867124E+04  0.7818609E-02  0.8282727E-01
       -2   -1    0    0    0  501  0.00000000000E+00  0.00000000000E+00  0.10688260298E+04  0.10688260298E+04  0.25500000920E-02 0. -1.
        2   -1    0    0  501    0  0.00000000000E+00  0.00000000000E+00 -0.19227633506E+04  0.19227633506E+04  0.25500000920E-02 0.  1.
    10030    2    1    2    0    0  0.00000000000E+00  0.00000000000E+00 -0.85393732079E+03  0.29915893804E+04  0.28671236585E+04 0.  0.
        2    1    3    3  502    0  0.10605267090E+04  0.14976577289E+03  0.56726211474E+03  0.12119954596E+04  0.25500000920E-02 0. -1.
       -2    1    3    3    0  502 -0.10605267090E+04 -0.14976577289E+03 -0.14211994355E+04  0.17795939208E+04  0.25500000920E-02 0.  1.
</event>
<event>
 5   0  0.6513041E-06  0.2886040E+04  0.7818609E-02  0.8277043E-01
       -2   -1    0    0    0  501  0.00000000000E+00  0.00000000000E+00  0.10707127184E+04  0.10707127184E+04  0.25500000920E-02 0. -1.
        2   -1    0    0  501    0  0.00000000000E+00  0.00000000000E+00 -0.19447862513E+04  0.19447862513E+04  0.25500000920E-02 0.  1.
    10030    2    1    2    0    0  0.00000000000E+00  0.00000000000E+00 -0.87407353294E+03  0.30154989697E+04  0.28860404528E+04 0.  0.
        1    1    3    3  502    0 -0.10211792793E+03  0.11009667247E+04  0.53178359996E+03  0.12269268916E+04  0.50400001928E-02 0. -1.
       -1    1    3    3    0  502  0.10211792793E+03 -0.11009667247E+04 -0.14058571329E+04  0.17885720780E+04  0.50400001928E-02 0.  1.
</event>
<event>
 5   0  0.6513041E-06  0.2609119E+04  0.7818609E-02  0.8365110E-01
        2   -1    0    0  501    0  0.00000000000E+00  0.00000000000E+00  0.94915879938E+03  0.94915879939E+03  0.25500000920E-02 0. -1.
       -2   -1    0    0    0  501  0.00000000000E+00  0.00000000000E+00 -0.17930359556E+04  0.17930359556E+04  0.25500000920E-02 0.  1.
    10030    2    1    2    0    0  0.00000000000E+00  0.00000000000E+00 -0.84387715619E+03  0.27421947550E+04  0.26091192804E+04 0.  0.
        1    1    3    3  502    0 -0.99812776600E+03 -0.56670308436E+03  0.22973850018E+03  0.11705516655E+04  0.50400001928E-02 0. -1.
       -1    1    3    3    0  502  0.99812776600E+03  0.56670308436E+03 -0.10736156564E+04  0.15716430895E+04  0.50400001928E-02 0.  1.
</event>
<event>
 5   0  0.2429358E-06  0.2928219E+04  0.7818609E-02  0.8264531E-01
       -1   -1    0    0    0  501  0.00000000000E+00  0.00000000000E+00  0.12215406847E+04  0.12215406847E+04  0.50400001928E-02 0.  1.
        1   -1    0    0  501    0  0.00000000000E+00  0.00000000000E+00 -0.17548471462E+04  0.17548471462E+04  0.50400001928E-02 0. -1.
    10030    2    1    2    0    0  0.00000000000E+00  0.00000000000E+00 -0.53330646146E+03  0.29763878309E+04  0.29282193801E+04 0.  0.
        2    1    3    3  502    0 -0.15112321773E+03 -0.27605938849E+03 -0.17200591341E+04  0.17486138618E+04  0.25500000920E-02 0. -1.
       -2    1    3    3    0  502  0.15112321773E+03  0.27605938849E+03  0.11867526727E+04  0.12277739690E+04  0.25500000920E-02 0.  1.
</event>
<event>
 5   0  0.6733688E-06  0.2960423E+04  0.7818609E-02  0.8255124E-01
        2   -1    0    0  501    0  0.00000000000E+00  0.00000000000E+00  0.18995661990E+04  0.18995661990E+04  0.25500000920E-02 0.  1.
       -2   -1    0    0    0  501  0.00000000000E+00  0.00000000000E+00 -0.11534347127E+04  0.11534347127E+04  0.25500000920E-02 0. -1.
    10030    2    1    2    0    0  0.00000000000E+00  0.00000000000E+00  0.74613148628E+03  0.30530009117E+04  0.29604226678E+04 0.  0.
        5    1    3    3  502    0 -0.17465443656E+03 -0.67484157755E+03 -0.97355913783E+03  0.11973950108E+04  0.46999998093E+01 0. -1.
       -5    1    3    3    0  502  0.17465443656E+03  0.67484157755E+03  0.17196906241E+04  0.18556059010E+04  0.46999998093E+01 0.  1.
</event>
<event>
 5   0  0.2336512E-06  0.2867091E+04  0.7818609E-02  0.8282737E-01
       -1   -1    0    0    0  501  0.00000000000E+00  0.00000000000E+00  0.15046019194E+04  0.15046019195E+04  0.50400001928E-02 0.  1.
        1   -1    0    0  501    0  0.00000000000E+00  0.00000000000E+00 -0.13658446140E+04  0.13658446140E+04  0.50400001928E-02 0. -1.
    10030    2    1    2    0    0  0.00000000000E+00  0.00000000000E+00  0.13875730542E+03  0.28704465335E+04  0.28670908098E+04 0.  0.
        4    1    3    3  502    0  0.13630897215E+04  0.42497391721E+03  0.19772540545E+03  0.14414275452E+04  0.12699999809E+01 0.  1.
       -4    1    3    3    0  502 -0.13630897215E+04 -0.42497391721E+03 -0.58968100029E+02  0.14290189883E+04  0.12699999809E+01 0. -1.
</event>
<event>
 5   0  0.2474769E-06  0.2749593E+04  0.7818609E-02  0.8319091E-01
        1   -1    0    0  501    0  0.00000000000E+00  0.00000000000E+00  0.17183702397E+04  0.17183702397E+04  0.50400001928E-02 0.  1.
       -1   -1    0    0    0  501  0.00000000000E+00  0.00000000000E+00 -0.10999176459E+04  0.10999176459E+04  0.50400001928E-02 0. -1.
    10030    2    1    2    0    0  0.00000000000E+00  0.00000000000E+00  0.61845259380E+03  0.28182878857E+04  0.27495932419E+04 0.  0.
        1    1    3    3  502    0  0.47228226786E+03  0.75540531265E+03  0.13824668211E+04  0.16446586996E+04  0.50400001928E-02 0.  1.
       -1    1    3    3    0  502 -0.47228226786E+03 -0.75540531265E+03 -0.76401422725E+03  0.11736291861E+04  0.50400001928E-02 0. -1.
</event>
<event>
 5   0  0.2474769E-06  0.2886403E+04  0.7818609E-02  0.8276935E-01
        1   -1    0    0  501    0  0.00000000000E+00  0.00000000000E+00  0.11181055648E+04  0.11181055648E+04  0.50400001928E-02 0. -1.
       -1   -1    0    0    0  501  0.00000000000E+00  0.00000000000E+00 -0.18628209454E+04  0.18628209454E+04  0.50400001928E-02 0.  1.
    10030    2    1    2    0    0  0.00000000000E+00  0.00000000000E+00 -0.74471538055E+03  0.29809265102E+04  0.28864029277E+04 0.  0.
        1    1    3    3  502    0  0.13424227262E+04  0.50362838825E+03 -0.54233850510E+03  0.15329290209E+04  0.50400001928E-02 0. -1.
       -1    1    3    3    0  502 -0.13424227262E+04 -0.50362838825E+03 -0.20237687545E+03  0.14479974893E+04  0.50400001928E-02 0.  1.
</event>
<event>
 5   0  0.2429358E-06  0.2865025E+04  0.7818609E-02  0.8283360E-01
        1   -1    0    0  501    0  0.00000000000E+00  0.00000000000E+00  0.85827393821E+03  0.85827393823E+03  0.50400001928E-02 0.  1.
       -1   -1    0    0    0  501  0.00000000000E+00  0.00000000000E+00 -0.23909530630E+04  0.23909530630E+04  0.50400001928E-02 0. -1.
    10030    2    1    2    0    0  0.00000000000E+00  0.00000000000E+00 -0.15326791247E+04  0.32492270012E+04  0.28650254459E+04 0.  0.
        2    1    3    3  502    0  0.27429582938E+03 -0.38814064606E+03  0.76625012319E+03  0.90168210276E+03  0.25500000920E-02 0.  1.
       -2    1    3    3    0  502 -0.27429582938E+03  0.38814064606E+03 -0.22989292479E+04  0.23475448984E+04  0.25500000920E-02 0. -1.
</event>
<event>
 5   0  0.2508094E-06  0.2877119E+04  0.7818609E-02  0.8279718E-01
       -1   -1    0    0    0  501  0.00000000000E+00  0.00000000000E+00  0.87069817101E+03  0.87069817103E+03  0.50400001928E-02 0.  1.
        1   -1    0    0  501    0  0.00000000000E+00  0.00000000000E+00 -0.23767745880E+04  0.23767745880E+04  0.50400001928E-02 0. -1.
    10030    2    1    2    0    0  0.00000000000E+00  0.00000000000E+00 -0.15060764170E+04  0.32474727590E+04  0.28771188969E+04 0.  0.
        3    1    3    3  502    0  0.39646100682E+02  0.13514040967E+04 -0.19825185028E+03  0.13664437977E+04  0.10100000352E+00 0.  1.
       -3    1    3    3    0  502 -0.39646100682E+02 -0.13514040967E+04 -0.13078245667E+04  0.18810289613E+04  0.10100000352E+00 0. -1.
</event>
<event>
 5   0  0.6612533E-06  0.2943341E+04  0.7818609E-02  0.8260098E-01
        2   -1    0    0  501    0  0.00000000000E+00  0.00000000000E+00  0.31490514016E+04  0.31490514016E+04  0.25500000920E-02 0. -1.
       -2   -1    0    0    0  501  0.00000000000E+00  0.00000000000E+00 -0.68776720119E+03  0.68776720119E+03  0.25500000920E-02 0.  1.
    10030    2    1    2    0    0  0.00000000000E+00  0.00000000000E+00  0.24612842004E+04  0.38368186027E+04  0.29433411415E+04 0.  0.
        3    1    3    3  502    0 -0.98937218638E+03  0.85518174170E+03  0.35074357102E+03  0.13539624062E+04  0.10100000352E+00 0.  1.
       -3    1    3    3    0  502  0.98937218638E+03 -0.85518174170E+03  0.21105406293E+04  0.24828561966E+04  0.10100000352E+00 0. -1.
</event>
<event>
 5   0  0.2508094E-06  0.2925944E+04  0.7818609E-02  0.8265200E-01
       -1   -1    0    0    0  501  0.00000000000E+00  0.00000000000E+00  0.12195715020E+04  0.12195715020E+04  0.50400001928E-02 0. -1.
        1   -1    0    0  501    0  0.00000000000E+00  0.00000000000E+00 -0.17549499339E+04  0.17549499339E+04  0.50400001928E-02 0.  1.
    10030    2    1    2    0    0  0.00000000000E+00  0.00000000000E+00 -0.53537843195E+03  0.29745214359E+04  0.29259439002E+04 0.  0.
        3    1    3    3  502    0  0.88420897630E+03  0.82919889299E+03 -0.11003669679E+04  0.16371327961E+04  0.10100000352E+00 0.  1.
       -3    1    3    3    0  502 -0.88420897630E+03 -0.82919889299E+03  0.56498853590E+03  0.13373886398E+04  0.10100000352E+00 0. -1.
</event>
<event>
 5   0  0.6393633E-06  0.2914184E+04  0.7818609E-02  0.8268670E-01
        2   -1    0    0  501    0  0.00000000000E+00  0.00000000000E+00  0.91490482593E+03  0.91490482593E+03  0.25500000920E-02 0. -1.
       -2   -1    0    0    0  501  0.00000000000E+00  0.00000000000E+00 -0.23205882077E+04  0.23205882077E+04  0.25500000920E-02 0.  1.
    10030    2    1    2    0    0  0.00000000000E+00  0.00000000000E+00 -0.14056833818E+04  0.32354930337E+04  0.29141841742E+04 0.  0.
        4    1    3    3  502    0 -0.26703778916E+03  0.99585428591E+02  0.88365646000E+03  0.92848090483E+03  0.12699999809E+01 0. -1.
       -4    1    3    3    0  502  0.26703778916E+03 -0.99585428591E+02 -0.22893398418E+04  0.23070121289E+04  0.12699999809E+01 0.  1.
</event>
<event>
 5   0  0.6612533E-06  0.2908455E+04  0.7818609E-02  0.8270366E-01
        2   -1    0    0  501    0  0.00000000000E+00  0.00000000000E+00  0.23604271723E+04  0.23604271723E+04  0.25500000920E-02 0. -1.
       -2   -1    0    0    0  501  0.00000000000E+00  0.00000000000E+00 -0.89592975763E+03  0.89592975764E+03  0.25500000920E-02 0.  1.
    10030    2    1    2    0    0  0.00000000000E+00  0.00000000000E+00  0.14644974147E+04  0.32563569300E+04  0.29084545342E+04 0.  0.
        3    1    3    3  502    0  0.86145506539E+03 -0.64058715551E+03 -0.36607289091E+03  0.11342248918E+04  0.10100000352E+00 0.  1.
       -3    1    3    3    0  502 -0.86145506539E+03  0.64058715551E+03  0.18305703056E+04  0.21221320382E+04  0.10100000352E+00 0. -1.
</event>
<event>
 5   0  0.6615403E-06  0.2920428E+04  0.7818609E-02  0.8266825E-01
        2   -1    0    0  501    0  0.00000000000E+00  0.00000000000E+00  0.15485179312E+04  0.15485179312E+04  0.25500000920E-02 0. -1.
       -2   -1    0    0    0  501  0.00000000000E+00  0.00000000000E+00 -0.13769454379E+04  0.13769454379E+04  0.25500000920E-02 0.  1.
    10030    2    1    2    0    0  0.00000000000E+00  0.00000000000E+00  0.17157249326E+03  0.29254633691E+04  0.29204278460E+04 0.  0.
        2    1    3    3  502    0 -0.12919780535E+04 -0.68027751590E+03  0.70270461911E+02  0.14618217153E+04  0.25500000920E-02 0.  1.
       -2    1    3    3    0  502  0.12919780535E+04  0.68027751590E+03  0.10130203135E+03  0.14636416539E+04  0.25500000920E-02 0. -1.
</event>
<event>
 5   0  0.2348684E-06  0.3077028E+04  0.7818609E-02  0.8222071E-01
       -1   -1    0    0    0  501  0.00000000000E+00  0.00000000000E+00  0.15516578225E+04  0.15516578225E+04  0.50400001928E-02 0. -1.
        1   -1    0    0  501    0  0.00000000000E+00  0.00000000000E+00 -0.15254818221E+04  0.15254818221E+04  0.50400001928E-02 0.  1.
    10030    2    1    2    0    0  0.00000000000E+00  0.00000000000E+00  0.26176000460E+02  0.30771396446E+04  0.30770283082E+04 0.  0.
        5    1    3    3  502    0  0.92859462480E+03 -0.27608094485E+03  0.12083279024E+04  0.15487372517E+04  0.46999998093E+01 0. -1.
       -5    1    3    3    0  502 -0.92859462480E+03  0.27608094485E+03 -0.11821519019E+04  0.15284023929E+04  0.46999998093E+01 0.  1.
</event>
<event>
 5   0  0.2474769E-06  0.2912025E+04  0.7818609E-02  0.8269309E-01
       -1   -1    0    0    0  501  0.00000000000E+00  0.00000000000E+00  0.13650572399E+04  0.13650572399E+04  0.50400001928E-02 0.  1.
        1   -1    0    0  501    0  0.00000000000E+00  0.00000000000E+00 -0.15530285949E+04  0.15530285949E+04  0.50400001928E-02 0. -1.
    10030    2    1    2    0    0  0.00000000000E+00  0.00000000000E+00 -0.18797135501E+03  0.29180858348E+04  0.29120253620E+04 0.  0.
        1    1    3    3  502    0  0.79931014825E+03 -0.12036020333E+04 -0.27441138888E+03  0.14706652162E+04  0.50400001928E-02 0. -1.
       -1    1    3    3    0  502 -0.79931014825E+03  0.12036020333E+04  0.86440033869E+02  0.14474206186E+04  0.50400001928E-02 0.  1.
</event>
<event>
 5   0  0.6393633E-06  0.2518985E+04  0.7818609E-02  0.8396253E-01
       -2   -1    0    0    0  501  0.00000000000E+00  0.00000000000E+00  0.79641566713E+03  0.79641566714E+03  0.25500000920E-02 0. -1.
        2   -1    0    0  501    0  0.00000000000E+00  0.00000000000E+00 -0.19918258483E+04  0.19918258483E+04  0.25500000920E-02 0.  1.
    10030    2    1    2    0    0  0.00000000000E+00  0.00000000000E+00 -0.11954101811E+04  0.27882415154E+04  0.25189849637E+04 0.  0.
        4    1    3    3  502    0 -0.45040920431E+03  0.11248770875E+04 -0.21731001609E+03  0.12310329684E+04  0.12699999809E+01 0.  1.
       -4    1    3    3    0  502  0.45040920431E+03 -0.11248770875E+04 -0.97810016505E+03  0.15572085470E+04  0.12699999809E+01 0. -1.
</event>
<event>
 5   0  0.6393633E-06  0.2834866E+04  0.7818609E-02  0.8292525E-01
        2   -1    0    0  501    0  0.00000000000E+00  0.00000000000E+00  0.15363960672E+04  0.15363960672E+04  0.25500000920E-02 0. -1.
       -2   -1    0    0    0  501  0.00000000000E+00  0.00000000000E+00 -0.13076810248E+04  0.13076810248E+04  0.25500000920E-02 0.  1.
    10030    2    1    2    0    0  0.00000000000E+00  0.00000000000E+00  0.22871504239E+03  0.28440770919E+04  0.28348657701E+04 0.  0.
        4    1    3    3  502    0  0.65181397222E+03 -0.37769937611E+03  0.13189236948E+04  0.15189073700E+04  0.12699999809E+01 0. -1.
       -4    1    3    3    0  502 -0.65181397222E+03  0.37769937611E+03 -0.10902086524E+04  0.13251697219E+04  0.12699999809E+01 0.  1.
</event>
<event>
 5   0  0.6733688E-06  0.2894713E+04  0.7818609E-02  0.8274452E-01
       -2   -1    0    0    0  501  0.00000000000E+00  0.00000000000E+00  0.15926076581E+04  0.15926076581E+04  0.25500000920E-02 0. -1.
        2   -1    0    0  501    0  0.00000000000E+00  0.00000000000E+00 -0.13153523044E+04  0.13153523044E+04  0.25500000920E-02 0.  1.
    10030    2    1    2    0    0  0.00000000000E+00  0.00000000000E+00  0.27725535371E+03  0.29079599626E+04  0.28947125268E+04 0.  0.
        5    1    3    3  502    0 -0.12381396422E+03  0.25695704044E+03 -0.12868309596E+04  0.13180716320E+04  0.46999998093E+01 0.  1.
       -5    1    3    3    0  502  0.12381396422E+03 -0.25695704044E+03  0.15640863133E+04  0.15898883306E+04  0.46999998093E+01 0. -1.
</event>
<event>
 5   0  0.6612533E-06  0.2965993E+04  0.7818609E-02  0.8253509E-01
       -2   -1    0    0    0  501  0.00000000000E+00  0.00000000000E+00  0.13922978212E+04  0.13922978212E+04  0.25500000920E-02 0. -1.
        2   -1    0    0  501    0  0.00000000000E+00  0.00000000000E+00 -0.15796038056E+04  0.15796038056E+04  0.25500000920E-02 0.  1.
    10030    2    1    2    0    0  0.00000000000E+00  0.00000000000E+00 -0.18730598436E+03  0.29719016268E+04  0.29659932144E+04 0.  0.
        3    1    3    3  502    0  0.11300745621E+04 -0.86012332902E+03  0.33427888006E+03  0.14589801358E+04  0.10100000352E+00 0. -1.
       -3    1    3    3    0  502 -0.11300745621E+04  0.86012332902E+03 -0.52158486442E+03  0.15129214910E+04  0.10100000352E+00 0.  1.
</event>
<event>
 5   0  0.6393633E-06  0.2884829E+04  0.7818609E-02  0.8277406E-01
        2   -1    0    0  501    0  0.00000000000E+00  0.00000000000E+00  0.26152462031E+04  0.26152462031E+04  0.25500000920E-02 0.  1.
       -2   -1    0    0    0  501  0.00000000000E+00  0.00000000000E+00 -0.79555031690E+03  0.79555031691E+03  0.25500000920E-02 0. -1.
    10030    2    1    2    0    0  0.00000000000E+00  0.00000000000E+00  0.18196958862E+04  0.34107965200E+04  0.28848292467E+04 0.  0.
        4    1    3    3  502    0 -0.16753701233E+03  0.10321771734E+04 -0.26482311105E+03  0.10786988740E+04  0.12699999809E+01 0. -1.
       -4    1    3    3    0  502  0.16753701233E+03 -0.10321771734E+04  0.20845189972E+04  0.23320976460E+04  0.12699999809E+01 0.  1.
</event>
<event>
 5   0  0.2348684E-06  0.2928156E+04  0.7818609E-02  0.8264549E-01
       -1   -1    0    0    0  501  0.00000000000E+00  0.00000000000E+00  0.11108316011E+04  0.11108316011E+04  0.50400001928E-02 0.  1.
        1   -1    0    0  501    0  0.00000000000E+00  0.00000000000E+00 -0.19296575572E+04  0.19296575572E+04  0.50400001928E-02 0. -1.
    10030    2    1    2    0    0  0.00000000000E+00  0.00000000000E+00 -0.81882595616E+03  0.30404891583E+04  0.29281561391E+04 0.  0.
        5    1    3    3  502    0 -0.69229347608E+03 -0.11319249936E+04  0.23318029226E+03  0.13471895141E+04  0.46999998093E+01 0.  1.
       -5    1    3    3    0  502  0.69229347608E+03  0.11319249936E+04 -0.10520062484E+04  0.16932996442E+04  0.46999998093E+01 0. -1.
</event>
<event>
 5   0  0.2429358E-06  0.2874501E+04  0.7818609E-02  0.8280505E-01
       -1   -1    0    0    0  501  0.00000000000E+00  0.00000000000E+00  0.11025727703E+04  0.11025727703E+04  0.50400001928E-02 0. -1.
        1   -1    0    0  501    0  0.00000000000E+00  0.00000000000E+00 -0.18735170909E+04  0.18735170909E+04  0.50400001928E-02 0.  1.
    10030    2    1    2    0    0  0.00000000000E+00  0.00000000000E+00 -0.77094432053E+03  0.29760898612E+04  0.28745009509E+04 0.  0.
        2    1    3    3  502    0 -0.54150858107E+03 -0.11623845718E+04  0.28655892202E+03  0.13139579338E+04  0.25500000920E-02 0. -1.
       -2    1    3    3    0  502  0.54150858107E+03  0.11623845718E+04 -0.10575032426E+04  0.16621319274E+04  0.25500000920E-02 0.  1.
</event>
<event>
 5   0  0.6393633E-06  0.2893360E+04  0.7818609E-02  0.8274856E-01
        2   -1    0    0  501    0  0.00000000000E+00  0.00000000000E+00  0.20350803139E+04  0.20350803139E+04  0.25500000920E-02 0. -1.
       -2   -1    0    0    0  501  0.00000000000E+00  0.00000000000E+00 -0.10284031452E+04  0.10284031452E+04  0.25500000920E-02 0.  1.
    10030    2    1    2    0    0  0.00000000000E+00  0.00000000000E+00  0.10066771687E+04  0.30634834591E+04  0.28933599814E+04 0.  0.
        4    1    3    3  502    0  0.99950729064E+03 -0.10056892192E+04  0.80737356242E+03  0.16316492613E+04  0.12699999809E+01 0. -1.
       -4    1    3    3    0  502 -0.99950729064E+03  0.10056892192E+04  0.19930360629E+03  0.14318341978E+04  0.12699999809E+01 0.  1.
</event>
<event>
 5   0  0.6612533E-06  0.2817603E+04  0.7818609E-02  0.8297824E-01
        2   -1    0    0  501    0  0.00000000000E+00  0.00000000000E+00  0.16476447232E+04  0.16476447232E+04  0.25500000920E-02 0.  1.
       -2   -1    0    0    0  501  0.00000000000E+00  0.00000000000E+00 -0.12045811062E+04  0.12045811062E+04  0.25500000920E-02 0. -1.
    10030    2    1    2    0    0  0.00000000000E+00  0.00000000000E+00  0.44306361698E+03  0.28522258294E+04  0.28176030262E+04 0.  0.
        3    1    3    3  502    0  0.64212383088E+03  0.32564941289E+03 -0.10042780048E+04  0.12356961097E+04  0.10100000352E+00 0. -1.
       -3    1    3    3    0  502 -0.64212383088E+03 -0.32564941289E+03  0.14473416218E+04  0.16165297197E+04  0.10100000352E+00 0.  1.
</event>
<event>
 5   0  0.2159500E-06  0.2889943E+04  0.7818609E-02  0.8275876E-01
       -3   -1    0    0    0  501  0.00000000000E+00  0.00000000000E+00  0.10144358080E+04  0.10144358130E+04  0.10100000352E+00 0.  1.
        3   -1    0    0  501    0  0.00000000000E+00  0.00000000000E+00 -0.20582302164E+04  0.20582302189E+04  0.10100000352E+00 0. -1.
    10030    2    1    2    0    0  0.00000000000E+00  0.00000000000E+00 -0.10437944084E+04  0.30726660319E+04  0.28899428673E+04 0.  0.
        3    1    3    3  502    0  0.13096409625E+04  0.79175088233E+02 -0.11655794899E+04  0.17549939324E+04  0.10100000352E+00 0. -1.
       -3    1    3    3    0  502 -0.13096409625E+04 -0.79175088233E+02  0.12178508147E+03  0.13176720994E+04  0.10100000352E+00 0.  1.
</event>
<event>
 5   0  0.6615403E-06  0.2902644E+04  0.7818609E-02  0.8272091E-01
       -2   -1    0    0    0  501  0.00000000000E+00  0.00000000000E+00  0.15031456425E+04  0.15031456425E+04  0.25500000920E-02 0.  1.
        2   -1    0    0  501    0  0.00000000000E+00  0.00000000000E+00 -0.14012854938E+04  0.14012854938E+04  0.25500000920E-02 0. -1.
    10030    2    1    2    0    0  0.00000000000E+00  0.00000000000E+00  0.10186014865E+03  0.29044311363E+04  0.29026444384E+04 0.  0.
        2    1    3    3  502    0 -0.11370010118E+04  0.70896969458E+03  0.60888146084E+03  0.14717832592E+04  0.25500000920E-02 0.  1.
       -2    1    3    3    0  502  0.11370010118E+04 -0.70896969458E+03 -0.50702131219E+03  0.14326478771E+04  0.25500000920E-02 0. -1.
</event>
<event>
 5   0  0.6393633E-06  0.2900602E+04  0.7818609E-02  0.8272698E-01
       -2   -1    0    0    0  501  0.00000000000E+00  0.00000000000E+00  0.13864183047E+04  0.13864183047E+04  0.25500000920E-02 0.  1.
        2   -1    0    0  501    0  0.00000000000E+00  0.00000000000E+00 -0.15171271975E+04  0.15171271975E+04  0.25500000920E-02 0. -1.
    10030    2    1    2    0    0  0.00000000000E+00  0.00000000000E+00 -0.13070889277E+03  0.29035455022E+04  0.29006019494E+04 0.  0.
        4    1    3    3  502    0  0.76139486208E+03  0.79456700991E+03  0.88022707037E+03  0.14092055129E+04  0.12699999809E+01 0.  1.
       -4    1    3    3    0  502 -0.76139486208E+03 -0.79456700991E+03 -0.10109359631E+04  0.14943399893E+04  0.12699999809E+01 0. -1.
</event>
<event>
 5   0  0.2474769E-06  0.2881706E+04  0.7818609E-02  0.8278341E-01
        1   -1    0    0  501    0  0.00000000000E+00  0.00000000000E+00  0.17827517698E+04  0.17827517698E+04  0.50400001928E-02 0. -1.
       -1   -1    0    0    0  501  0.00000000000E+00  0.00000000000E+00 -0.11645242639E+04  0.11645242639E+04  0.50400001928E-02 0.  1.
    10030    2    1    2    0    0  0.00000000000E+00  0.00000000000E+00  0.61822750586E+03  0.29472760337E+04  0.28817062254E+04 0.  0.
        1    1    3    3  502    0 -0.14249918789E+04 -0.17727232167E+03  0.18796874092E+03  0.14482263561E+04  0.50400001928E-02 0.  1.
       -1    1    3    3    0  502  0.14249918789E+04  0.17727232167E+03  0.43025876494E+03  0.14990496776E+04  0.50400001928E-02 0. -1.
</event>
<event>
 5   0  0.6615403E-06  0.2902746E+04  0.7818609E-02  0.8272061E-01
       -2   -1    0    0    0  501  0.00000000000E+00  0.00000000000E+00  0.16657970806E+04  0.16657970806E+04  0.25500000920E-02 0.  1.
        2   -1    0    0  501    0  0.00000000000E+00  0.00000000000E+00 -0.12645499236E+04  0.12645499236E+04  0.25500000920E-02 0. -1.
    10030    2    1    2    0    0  0.00000000000E+00  0.00000000000E+00  0.40124715699E+03  0.29303470042E+04  0.29027459903E+04 0.  0.
        2    1    3    3  502    0 -0.77269035044E+03  0.16343434170E+02 -0.10395387533E+04  0.12953602994E+04  0.25500000920E-02 0.  1.
       -2    1    3    3    0  502  0.77269035044E+03 -0.16343434170E+02  0.14407859103E+04  0.16349867048E+04  0.25500000920E-02 0. -1.
</event>
<event>
 5   0  0.2348684E-06  0.2876407E+04  0.7818609E-02  0.8279932E-01
       -1   -1    0    0    0  501  0.00000000000E+00  0.00000000000E+00  0.83876119888E+03  0.83876119889E+03  0.50400001928E-02 0. -1.
        1   -1    0    0  501    0  0.00000000000E+00  0.00000000000E+00 -0.24660525018E+04  0.24660525018E+04  0.50400001928E-02 0.  1.
    10030    2    1    2    0    0  0.00000000000E+00  0.00000000000E+00 -0.16272913029E+04  0.33048137007E+04  0.28764068926E+04 0.  0.
        5    1    3    3  502    0  0.91800096858E+03 -0.61689467350E+03  0.24257931436E+03  0.11323213458E+04  0.46999998093E+01 0. -1.
       -5    1    3    3    0  502 -0.91800096858E+03  0.61689467350E+03 -0.18698706173E+04  0.21724923548E+04  0.46999998093E+01 0.  1.
</event>
<event>
 5   0  0.2508094E-06  0.2896202E+04  0.7818609E-02  0.8274008E-01
        1   -1    0    0  501    0  0.00000000000E+00  0.00000000000E+00  0.78968779632E+03  0.78968779634E+03  0.50400001928E-02 0.  1.
       -1   -1    0    0    0  501  0.00000000000E+00  0.00000000000E+00 -0.26554750714E+04  0.26554750714E+04  0.50400001928E-02 0. -1.
    10030    2    1    2    0    0  0.00000000000E+00  0.00000000000E+00 -0.18657872751E+04  0.34451628677E+04  0.28962018282E+04 0.  0.
        3    1    3    3  502    0  0.63921146756E+03  0.24499427962E+03  0.58506235466E+03  0.90050622782E+03  0.10100000352E+00 0.  1.
       -3    1    3    3    0  502 -0.63921146756E+03 -0.24499427962E+03 -0.24508496297E+04  0.25446566399E+04  0.10100000352E+00 0. -1.
</event>
<event>
 5   0  0.6733688E-06  0.2871392E+04  0.7818609E-02  0.8281440E-01
       -2   -1    0    0    0  501  0.00000000000E+00  0.00000000000E+00  0.10601834802E+04  0.10601834802E+04  0.25500000920E-02 0.  1.
        2   -1    0    0  501    0  0.00000000000E+00  0.00000000000E+00 -0.19442140365E+04  0.19442140365E+04  0.25500000920E-02 0. -1.
    10030    2    1    2    0    0  0.00000000000E+00  0.00000000000E+00 -0.88403055636E+03  0.30043975167E+04  0.28713924173E+04 0.  0.
        5    1    3    3  502    0 -0.15193266041E+03 -0.13721171315E+04 -0.29530526250E+02  0.13808269616E+04  0.46999998093E+01 0. -1.
       -5    1    3    3    0  502  0.15193266041E+03  0.13721171315E+04 -0.85450003011E+03  0.16235705551E+04  0.46999998093E+01 0.  1.
</event>
<event>
 5   0  0.2348684E-06  0.2877358E+04  0.7818609E-02  0.8279646E-01
        1   -1    0    0  501    0  0.00000000000E+00  0.00000000000E+00  0.24380302592E+04  0.24380302592E+04  0.50400001928E-02 0. -1.
       -1   -1    0    0    0  501  0.00000000000E+00  0.00000000000E+00 -0.84896308470E+03  0.84896308472E+03  0.50400001928E-02 0.  1.
    10030    2    1    2    0    0  0.00000000000E+00  0.00000000000E+00  0.15890671745E+04  0.32869933439E+04  0.28773582950E+04 0.  0.
        5    1    3    3  502    0  0.13329577119E+04 -0.47193923868E+03  0.49170408821E+03  0.14970964922E+04  0.46999998093E+01 0. -1.
       -5    1    3    3    0  502 -0.13329577119E+04  0.47193923868E+03  0.10973630863E+04  0.17898968517E+04  0.46999998093E+01 0.  1.
</event>
<event>
 5   0  0.6612533E-06  0.2971648E+04  0.7818609E-02  0.8251874E-01
       -2   -1    0    0    0  501  0.00000000000E+00  0.00000000000E+00  0.12338996935E+04  0.12338996935E+04  0.25500000920E-02 0.  1.
        2   -1    0    0  501    0  0.00000000000E+00  0.00000000000E+00 -0.17891833360E+04  0.17891833360E+04  0.25500000920E-02 0. -1.
    10030    2    1    2    0    0  0.00000000000E+00  0.00000000000E+00 -0.55528364249E+03  0.30230830295E+04  0.29716478728E+04 0.  0.
        3    1    3    3  502    0 -0.11764788425E+04 -0.86394325625E+03  0.49656063336E+01  0.14596318318E+04  0.10100000352E+00 0.  1.
       -3    1    3    3    0  502  0.11764788425E+04  0.86394325625E+03 -0.56024924882E+03  0.15634511978E+04  0.10100000352E+00 0. -1.
</event>
<event>
 5   0  0.2474769E-06  0.2723459E+04  0.7818609E-02  0.8327433E-01
        1   -1    0    0  501    0  0.00000000000E+00  0.00000000000E+00  0.16133830950E+04  0.16133830950E+04  0.50400001928E-02 0.  1.
       -1   -1    0    0    0  501  0.00000000000E+00  0.00000000000E+00 -0.11493283378E+04  0.11493283378E+04  0.50400001928E-02 0. -1.
    10030    2    1    2    0    0  0.00000000000E+00  0.00000000000E+00  0.46405475724E+03  0.27627114328E+04  0.27234587648E+04 0.  0.
        1    1    3    3  502    0  0.11416588657E+04  0.72193910803E+03  0.40692423550E+03  0.14107332755E+04  0.50400001928E-02 0.  1.
       -1    1    3    3    0  502 -0.11416588657E+04 -0.72193910803E+03  0.57130521739E+02  0.13519781573E+04  0.50400001928E-02 0. -1.
</event>
<event>
 5   0  0.2348684E-06  0.2905353E+04  0.7818609E-02  0.8271287E-01
       -1   -1    0    0    0  501  0.00000000000E+00  0.00000000000E+00  0.14622569105E+04  0.14622569105E+04  0.50400001928E-02 0.  1.
        1   -1    0    0  501    0  0.00000000000E+00  0.00000000000E+00 -0.14431589534E+04  0.14431589534E+04  0.50400001928E-02 0. -1.
    10030    2    1    2    0    0  0.00000000000E+00  0.00000000000E+00  0.19097957105E+02  0.29054158639E+04  0.29053530956E+04 0.  0.
        5    1    3    3  502    0  0.91906759040E+03  0.10769945409E+04  0.33458613101E+03  0.14548444748E+04  0.46999998093E+01 0.  1.
       -5    1    3    3    0  502 -0.91906759040E+03 -0.10769945409E+04 -0.31548817391E+03  0.14505713891E+04  0.46999998093E+01 0. -1.
</event>
<event>
 5   0  0.6612533E-06  0.2870545E+04  0.7818609E-02  0.8281695E-01
       -2   -1    0    0    0  501  0.00000000000E+00  0.00000000000E+00  0.14712477437E+04  0.14712477437E+04  0.25500000920E-02 0. -1.
        2   -1    0    0  501    0  0.00000000000E+00  0.00000000000E+00 -0.14001770681E+04  0.14001770681E+04  0.25500000920E-02 0.  1.
    10030    2    1    2    0    0  0.00000000000E+00  0.00000000000E+00  0.71070675568E+02  0.28714248118E+04  0.28705451414E+04 0.  0.
        3    1    3    3  502    0  0.73345496278E+03 -0.93192823210E+03 -0.77314355707E+03  0.14156967833E+04  0.10100000352E+00 0.  1.
       -3    1    3    3    0  502 -0.73345496278E+03  0.93192823210E+03  0.84421423264E+03  0.14557280285E+04  0.10100000352E+00 0. -1.
</event>
<event>
 5   0  0.6733688E-06  0.2889444E+04  0.7818609E-02  0.8276025E-01
        2   -1    0    0  501    0  0.00000000000E+00  0.00000000000E+00  0.11550117112E+04  0.11550117112E+04  0.25500000920E-02 0. -1.
       -2   -1    0    0    0  501  0.00000000000E+00  0.00000000000E+00 -0.18070995492E+04  0.18070995492E+04  0.25500000920E-02 0.  1.
    10030    2    1    2    0    0  0.00000000000E+00  0.00000000000E+00 -0.65208783799E+03  0.29621112603E+04  0.28894436437E+04 0.  0.
        5    1    3    3  502    0 -0.72360943283E+03 -0.12457767347E+04 -0.43659271171E+03  0.15053921648E+04  0.46999998093E+01 0. -1.
       -5    1    3    3    0  502  0.72360943283E+03  0.12457767347E+04 -0.21549512629E+03  0.14567190956E+04  0.46999998093E+01 0.  1.
</event>
<event>
 5   0  0.6733688E-06  0.2876841E+04  0.7818609E-02  0.8279801E-01
       -2   -1    0    0    0  501  0.00000000000E+00  0.00000000000E+00  0.14119960209E+04  0.14119960209E+04  0.25500000920E-02 0. -1.
        2   -1    0    0  501    0  0.00000000000E+00  0.00000000000E+00 -0.14653398346E+04  0.14653398346E+04  0.25500000920E-02 0.  1.
    10030    2    1    2    0    0  0.00000000000E+00  0.00000000000E+00 -0.53343813712E+02  0.28773358555E+04  0.28768413344E+04 0.  0.
        5    1    3    3  502    0 -0.11144050788E+04  0.20723921885E+03 -0.91236642190E+03  0.14550880906E+04  0.46999998093E+01 0.  1.
       -5    1    3    3    0  502  0.11144050788E+04 -0.20723921885E+03  0.85902260819E+03  0.14222477650E+04  0.46999998093E+01 0. -1.
</event>
<event>
 5   0  0.2336512E-06  0.2864711E+04  0.7818609E-02  0.8283455E-01
       -1   -1    0    0    0  501  0.00000000000E+00  0.00000000000E+00  0.33229772815E+04  0.33229772815E+04  0.50400001928E-02 0.  1.
        1   -1    0    0  501    0  0.00000000000E+00  0.00000000000E+00 -0.61741089398E+03  0.61741089400E+03  0.50400001928E-02 0. -1.
    10030    2    1    2    0    0  0.00000000000E+00  0.00000000000E+00  0.27055663876E+04  0.39403881755E+04  0.28647110668E+04 0.  0.
        4    1    3    3  502    0  0.40252868703E+03  0.68567839074E+02  0.32412244313E+04  0.32668437856E+04  0.12699999809E+01 0.  1.
       -4    1    3    3    0  502 -0.40252868703E+03 -0.68567839074E+02 -0.53565804377E+03  0.67354438992E+03  0.12699999809E+01 0. -1.
</event>
<event>
 5   0  0.2159500E-06  0.2919429E+04  0.7818609E-02  0.8267120E-01
       -3   -1    0    0    0  501  0.00000000000E+00  0.00000000000E+00  0.19217562234E+04  0.19217562261E+04  0.10100000352E+00 0. -1.
        3   -1    0    0  501    0  0.00000000000E+00  0.00000000000E+00 -0.11087598228E+04  0.11087598274E+04  0.10100000352E+00 0.  1.
    10030    2    1    2    0    0  0.00000000000E+00  0.00000000000E+00  0.81299640069E+03  0.30305160535E+04  0.29194287802E+04 0.  0.
        4    1    3    3  502    0  0.79142754616E+03 -0.23792693499E+02  0.16794725142E+04  0.18567587867E+04  0.12699999809E+01 0. -1.
       -4    1    3    3    0  502 -0.79142754616E+03  0.23792693499E+02 -0.86647611353E+03  0.11737572668E+04  0.12699999809E+01 0.  1.
</event>
<event>
 5   0  0.2336512E-06  0.2925693E+04  0.7818609E-02  0.8265274E-01
        1   -1    0    0  501    0  0.00000000000E+00  0.00000000000E+00  0.11394711359E+04  0.11394711359E+04  0.50400001928E-02 0.  1.
       -1   -1    0    0    0  501  0.00000000000E+00  0.00000000000E+00 -0.18779937243E+04  0.18779937243E+04  0.50400001928E-02 0. -1.
    10030    2    1    2    0    0  0.00000000000E+00  0.00000000000E+00 -0.73852258842E+03  0.30174648602E+04  0.29256928357E+04 0.  0.
        4    1    3    3  502    0  0.77478277497E+03  0.42358314092E+03 -0.15721238237E+04  0.18031322624E+04  0.12699999809E+01 0. -1.
       -4    1    3    3    0  502 -0.77478277497E+03 -0.42358314092E+03  0.83360123533E+03  0.12143325978E+04  0.12699999809E+01 0.  1.
</event>
<event>
 5   0  0.2508094E-06  0.2869086E+04  0.7818609E-02  0.8282135E-01
       -1   -1    0    0    0  501  0.00000000000E+00  0.00000000000E+00  0.14956378929E+04  0.14956378929E+04  0.50400001928E-02 0. -1.
        1   -1    0    0  501    0  0.00000000000E+00  0.00000000000E+00 -0.13759440586E+04  0.13759440586E+04  0.50400001928E-02 0.  1.
    10030    2    1    2    0    0  0.00000000000E+00  0.00000000000E+00  0.11969383433E+03  0.28715819515E+04  0.28690863163E+04 0.  0.
        3    1    3    3  502    0 -0.50172227542E+03 -0.12184322229E+04  0.62744843354E+03  0.14594498519E+04  0.10100000352E+00 0. -1.
       -3    1    3    3    0  502  0.50172227542E+03  0.12184322229E+04 -0.50775459921E+03  0.14121320996E+04  0.10100000352E+00 0.  1.
</event>
<event>
 5   0  0.2474769E-06  0.2895277E+04  0.7818609E-02  0.8274284E-01
        1   -1    0    0  501    0  0.00000000000E+00  0.00000000000E+00  0.18791150235E+04  0.18791150235E+04  0.50400001928E-02 0.  1.
       -1   -1    0    0    0  501  0.00000000000E+00  0.00000000000E+00 -0.11152363913E+04  0.11152363913E+04  0.50400001928E-02 0. -1.
    10030    2    1    2    0    0  0.00000000000E+00  0.00000000000E+00  0.76387863223E+03  0.29943514148E+04  0.28952771595E+04 0.  0.
        1    1    3    3  502    0 -0.97049731805E+03  0.10445592616E+04  0.12299517727E+03  0.14311173638E+04  0.50400001928E-02 0.  1.
       -1    1    3    3    0  502  0.97049731805E+03 -0.10445592616E+04  0.64088345496E+03  0.15632340510E+04  0.50400001928E-02 0. -1.
</event>
<event>
 5   0  0.6612533E-06  0.2907029E+04  0.7818609E-02  0.8270789E-01
        2   -1    0    0  501    0  0.00000000000E+00  0.00000000000E+00  0.13514647672E+04  0.13514647672E+04  0.25500000920E-02 0. -1.
       -2   -1    0    0    0  501  0.00000000000E+00  0.00000000000E+00 -0.15632702177E+04  0.15632702177E+04  0.25500000920E-02 0.  1.
    10030    2    1    2    0    0  0.00000000000E+00  0.00000000000E+00 -0.21180545050E+03  0.29147349849E+04  0.29070291508E+04 0.  0.
        3    1    3    3  502    0 -0.21064808869E+03 -0.48650388270E+02 -0.15470593447E+04  0.15620922200E+04  0.10100000352E+00 0.  1.
       -3    1    3    3    0  502  0.21064808869E+03  0.48650388270E+02  0.13352538942E+04  0.13526427650E+04  0.10100000352E+00 0. -1.
</event>
<event>
 5   0  0.6733688E-06  0.2892610E+04  0.7818609E-02  0.8275080E-01
       -2   -1    0    0    0  501  0.00000000000E+00  0.00000000000E+00  0.22151022921E+04  0.22151022921E+04  0.25500000920E-02 0. -1.
        2   -1    0    0  501    0  0.00000000000E+00  0.00000000000E+00 -0.94433452546E+03  0.94433452546E+03  0.25500000920E-02 0.  1.
    10030    2    1    2    0    0  0.00000000000E+00  0.00000000000E+00  0.12707677667E+04  0.31594368176E+04  0.28926095982E+04 0.  0.
        5    1    3    3  502    0  0.10848044633E+04 -0.52487517230E+03  0.15088249567E+04  0.19310280966E+04  0.46999998093E+01 0. -1.
       -5    1    3    3    0  502 -0.10848044633E+04  0.52487517230E+03 -0.23805719001E+03  0.12284087210E+04  0.46999998093E+01 0.  1.
</event>
<event>
 5   0  0.6733688E-06  0.2899272E+04  0.7818609E-02  0.8273094E-01
       -2   -1    0    0    0  501  0.00000000000E+00  0.00000000000E+00  0.14632861852E+04  0.14632861852E+04  0.25500000920E-02 0.  1.
        2   -1    0    0  501    0  0.00000000000E+00  0.00000000000E+00 -0.14361127877E+04  0.14361127877E+04  0.25500000920E-02 0. -1.
    10030    2    1    2    0    0  0.00000000000E+00  0.00000000000E+00  0.27173397502E+02  0.28993989728E+04  0.28992716344E+04 0.  0.
        5    1    3    3  502    0 -0.47581048069E+03  0.55180431146E+03  0.12668529365E+04  0.14614451972E+04  0.46999998093E+01 0.  1.
       -5    1    3    3    0  502  0.47581048069E+03 -0.55180431146E+03 -0.12396795390E+04  0.14379537757E+04  0.46999998093E+01 0. -1.
</event>
<event>
 5   0  0.2474769E-06  0.2941913E+04  0.7818609E-02  0.8260515E-01
        1   -1    0    0  501    0  0.00000000000E+00  0.00000000000E+00  0.13813540287E+04  0.13813540288E+04  0.50400001928E-02 0. -1.
       -1   -1    0    0    0  501  0.00000000000E+00  0.00000000000E+00 -0.15663708179E+04  0.15663708179E+04  0.50400001928E-02 0.  1.
    10030    2    1    2    0    0  0.00000000000E+00  0.00000000000E+00 -0.18501678914E+03  0.29477248466E+04  0.29419127382E+04 0.  0.
        1    1    3    3  502    0 -0.35485262243E+03 -0.10754858073E+03 -0.15187761045E+04  0.15633834899E+04  0.50400001928E-02 0.  1.
       -1    1    3    3    0  502  0.35485262243E+03  0.10754858073E+03  0.13337593153E+04  0.13843413568E+04  0.50400001928E-02 0. -1.
</event>
<event>
 5   0  0.6513041E-06  0.2870810E+04  0.7818609E-02  0.8281616E-01
        2   -1    0    0  501    0  0.00000000000E+00  0.00000000000E+00  0.82291635231E+03  0.82291635231E+03  0.25500000920E-02 0.  1.
       -2   -1    0    0    0  501  0.00000000000E+00  0.00000000000E+00 -0.25037633996E+04  0.25037633996E+04  0.25500000920E-02 0. -1.
    10030    2    1    2    0    0  0.00000000000E+00  0.00000000000E+00 -0.16808470473E+04  0.33266797519E+04  0.28708102298E+04 0.  0.
        1    1    3    3  502    0 -0.12945780203E+04  0.37207260677E+03 -0.26565950753E+03  0.13729330826E+04  0.50400001928E-02 0.  1.
       -1    1    3    3    0  502  0.12945780203E+04 -0.37207260677E+03 -0.14151875398E+04  0.19537466693E+04  0.50400001928E-02 0. -1.
</event>
<event>
 5   0  0.6513041E-06  0.2902846E+04  0.7818609E-02  0.8272031E-01
        2   -1    0    0  501    0  0.00000000000E+00  0.00000000000E+00  0.20981361126E+04  0.20981361126E+04  0.25500000920E-02 0.  1.
       -2   -1    0    0    0  501  0.00000000000E+00  0.00000000000E+00 -0.10040477098E+04  0.10040477099E+04  0.25500000920E-02 0. -1.
    10030    2    1    2    0    0  0.00000000000E+00  0.00000000000E+00  0.10940884028E+04  0.31021838225E+04  0.29028460233E+04 0.  0.
        1    1    3    3  502    0 -0.81588512954E+02  0.81517318056E+03  0.18274268975E+04  0.20026614954E+04  0.50400001928E-02 0.  1.
       -1    1    3    3    0  502  0.81588512954E+02 -0.81517318056E+03 -0.73333849471E+03  0.10995223270E+04  0.50400001928E-02 0. -1.
</event>
<event>
 5   0  0.2508094E-06  0.2890248E+04  0.7818609E-02  0.8275785E-01
        1   -1    0    0  501    0  0.00000000000E+00  0.00000000000E+00  0.20665341970E+04  0.20665341970E+04  0.50400001928E-02 0.  1.
       -1   -1    0    0    0  501  0.00000000000E+00  0.00000000000E+00 -0.10105728365E+04  0.10105728365E+04  0.50400001928E-02 0. -1.
    10030    2    1    2    0    0  0.00000000000E+00  0.00000000000E+00  0.10559613605E+04  0.30771070335E+04  0.28902479652E+04 0.  0.
        3    1    3    3  502    0  0.12048423809E+04 -0.48460459467E+03  0.12029198483E+04  0.17701703160E+04  0.10100000352E+00 0.  1.
       -3    1    3    3    0  502 -0.12048423809E+04  0.48460459467E+03 -0.14695848783E+03  0.13069367174E+04  0.10100000352E+00 0. -1.
</event>
<event>
 5   0  0.6393633E-06  0.2903720E+04  0.7818609E-02  0.8271771E-01
       -2   -1    0    0    0  501  0.00000000000E+00  0.00000000000E+00  0.12427639851E+04  0.12427639851E+04  0.25500000920E-02 0.  1.
        2   -1    0    0  501    0  0.00000000000E+00  0.00000000000E+00 -0.16961370751E+04  0.16961370751E+04  0.25500000920E-02 0. -1.
    10030    2    1    2    0    0  0.00000000000E+00  0.00000000000E+00 -0.45337308999E+03  0.29389010603E+04  0.29037204210E+04 0.  0.
        4    1    3    3  502    0  0.89066940086E+03  0.81751050967E+03 -0.10403426273E+04  0.15949701596E+04  0.12699999809E+01 0. -1.
       -4    1    3    3    0  502 -0.89066940086E+03 -0.81751050967E+03  0.58696953732E+03  0.13439309006E+04  0.12699999809E+01 0.  1.
</event>
<event>
 5   0  0.2429358E-06  0.2883792E+04  0.7818609E-02  0.8277716E-01
        1   -1    0    0  501    0  0.00000000000E+00  0.00000000000E+00  0.12081743070E+04  0.12081743070E+04  0.50400001928E-02 0. -1.
       -1   -1    0    0    0  501  0.00000000000E+00  0.00000000000E+00 -0.17208306579E+04  0.17208306579E+04  0.50400001928E-02 0.  1.
    10030    2    1    2    0    0  0.00000000000E+00  0.00000000000E+00 -0.51265635091E+03  0.29290049649E+04  0.28837915234E+04 0.  0.
        2    1    3    3  502    0  0.63751549088E+03  0.83614565737E+03 -0.12584574289E+04  0.16399026379E+04  0.25500000920E-02 0.  1.
       -2    1    3    3    0  502 -0.63751549088E+03 -0.83614565737E+03  0.74580107803E+03  0.12891023270E+04  0.25500000920E-02 0. -1.
</event>
<event>
 5   0  0.6615403E-06  0.2867776E+04  0.7818609E-02  0.8282530E-01
       -2   -1    0    0    0  501  0.00000000000E+00  0.00000000000E+00  0.13072985880E+04  0.13072985880E+04  0.25500000920E-02 0.  1.
        2   -1    0    0  501    0  0.00000000000E+00  0.00000000000E+00 -0.15727358091E+04  0.15727358092E+04  0.25500000920E-02 0. -1.
    10030    2    1    2    0    0  0.00000000000E+00  0.00000000000E+00 -0.26543722113E+03  0.28800343972E+04  0.28677763530E+04 0.  0.
        2    1    3    3  502    0 -0.10079969508E+04 -0.16063884835E+03 -0.11440845747E+04  0.15332293392E+04  0.25500000920E-02 0. -1.
       -2    1    3    3    0  502  0.10079969508E+04  0.16063884835E+03  0.87864735355E+03  0.13468050580E+04  0.25500000920E-02 0.  1.
</event>
<event>
 5   0  0.2474769E-06  0.2909409E+04  0.7818609E-02  0.8270084E-01
        1   -1    0    0  501    0  0.00000000000E+00  0.00000000000E+00  0.76931249667E+03  0.76931249669E+03  0.50400001928E-02 0. -1.
       -1   -1    0    0    0  501  0.00000000000E+00  0.00000000000E+00 -0.27507221314E+04  0.27507221314E+04  0.50400001928E-02 0.  1.
    10030    2    1    2    0    0  0.00000000000E+00  0.00000000000E+00 -0.19814096347E+04  0.35200346281E+04  0.29094088132E+04 0.  0.
        1    1    3    3  502    0  0.13098500159E+04 -0.54976797840E+03 -0.13698684806E+04  0.19734466165E+04  0.50400001928E-02 0.  1.
       -1    1    3    3    0  502 -0.13098500159E+04  0.54976797840E+03 -0.61154115416E+03  0.15465880116E+04  0.50400001928E-02 0. -1.
</event>
<event>
 5   0  0.6615403E-06  0.2854695E+04  0.7818609E-02  0.8286486E-01
        2   -1    0    0  501    0  0.00000000000E+00  0.00000000000E+00  0.10886216276E+04  0.10886216276E+04  0.25500000920E-02 0.  1.
       -2   -1    0    0    0  501  0.00000000000E+00  0.00000000000E+00 -0.18714679407E+04  0.18714679407E+04  0.25500000920E-02 0. -1.
    10030    2    1    2    0    0  0.00000000000E+00  0.00000000000E+00 -0.78284631313E+03  0.29600895683E+04  0.28546947127E+04 0.  0.
        2    1    3    3  502    0 -0.22436373636E+03 -0.13165149339E+04 -0.91377744685E+03  0.16181903101E+04  0.25500000920E-02 0.  1.
       -2    1    3    3    0  502  0.22436373636E+03  0.13165149339E+04  0.13093113372E+03  0.13418992582E+04  0.25500000920E-02 0. -1.
</event>
<event>
 5   0  0.6733688E-06  0.2792596E+04  0.7818609E-02  0.8305571E-01
       -2   -1    0    0    0  501  0.00000000000E+00  0.00000000000E+00  0.15648967842E+04  0.15648967842E+04  0.25500000920E-02 0.  1.
        2   -1    0    0  501    0  0.00000000000E+00  0.00000000000E+00 -0.12458637622E+04  0.12458637622E+04  0.25500000920E-02 0. -1.
    10030    2    1    2    0    0  0.00000000000E+00  0.00000000000E+00  0.31903302198E+03  0.28107605464E+04  0.27925960646E+04 0.  0.
        5    1    3    3  502    0 -0.92810525100E+03  0.98520012367E+03  0.50471596091E+03  0.14445618477E+04  0.46999998093E+01 0.  1.
       -5    1    3    3    0  502  0.92810525100E+03 -0.98520012367E+03 -0.18568293893E+03  0.13661986987E+04  0.46999998093E+01 0. -1.
</event>
<event>
 5   0  0.6733688E-06  0.2912994E+04  0.7818609E-02  0.8269022E-01
       -2   -1    0    0    0  501  0.00000000000E+00  0.00000000000E+00  0.11480390015E+04  0.11480390015E+04  0.25500000920E-02 0. -1.
        2   -1    0    0  501    0  0.00000000000E+00  0.00000000000E+00 -0.18478320885E+04  0.18478320885E+04  0.25500000920E-02 0.  1.
    10030    2    1    2    0    0  0.00000000000E+00  0.00000000000E+00 -0.69979308699E+03  0.29958710900E+04  0.29129938592E+04 0.  0.
        5    1    3    3  502    0  0.17691355988E+03  0.14080483246E+04 -0.12754841254E+02  0.14191840148E+04  0.46999998093E+01 0. -1.
       -5    1    3    3    0  502 -0.17691355988E+03 -0.14080483246E+04 -0.68703824573E+03  0.15766870752E+04  0.46999998093E+01 0.  1.
</event>
<event>
 5   0  0.2159500E-06  0.2932100E+04  0.7818609E-02  0.8263390E-01
       -4   -1    0    0    0  501  0.00000000000E+00  0.00000000000E+00  0.12253061877E+04  0.12253068458E+04  0.12699999809E+01 0. -1.
        4   -1    0    0  501    0  0.00000000000E+00  0.00000000000E+00 -0.17540932340E+04  0.17540936937E+04  0.12699999809E+01 0.  1.
    10030    2    1    2    0    0  0.00000000000E+00  0.00000000000E+00 -0.52878704628E+03  0.29794005395E+04  0.29321002429E+04 0.  0.
        4    1    3    3  502    0 -0.42023177366E+03 -0.48394001671E+03 -0.16041890011E+04  0.17274885376E+04  0.12699999809E+01 0.  1.
       -4    1    3    3    0  502  0.42023177366E+03  0.48394001671E+03  0.10754019548E+04  0.12519120020E+04  0.12699999809E+01 0. -1.
</event>
<event>
 5   0  0.2508094E-06  0.2906823E+04  0.7818609E-02  0.8270850E-01
       -1   -1    0    0    0  501  0.00000000000E+00  0.00000000000E+00  0.12079483179E+04  0.12079483179E+04  0.50400001928E-02 0.  1.
        1   -1    0    0  501    0  0.00000000000E+00  0.00000000000E+00 -0.17487545602E+04  0.17487545602E+04  0.50400001928E-02 0. -1.
    10030    2    1    2    0    0  0.00000000000E+00  0.00000000000E+00 -0.54080624235E+03  0.29567028781E+04  0.29068230970E+04 0.  0.
        3    1    3    3  502    0  0.12920908876E+04 -0.63868860718E+03 -0.80155886134E+02  0.14435535927E+04  0.10100000352E+00 0.  1.
       -3    1    3    3    0  502 -0.12920908876E+04  0.63868860718E+03 -0.46065035621E+03  0.15131492853E+04  0.10100000352E+00 0. -1.
</event>
<event>
 5   0  0.2508094E-06  0.2905982E+04  0.7818609E-02  0.8271100E-01
        1   -1    0    0  501    0  0.00000000000E+00  0.00000000000E+00  0.32810345859E+04  0.32810345859E+04  0.50400001928E-02 0. -1.
       -1   -1    0    0    0  501  0.00000000000E+00  0.00000000000E+00 -0.64345037215E+03  0.64345037217E+03  0.50400001928E-02 0.  1.
    10030    2    1    2    0    0  0.00000000000E+00  0.00000000000E+00  0.26375842137E+04  0.39244849581E+04  0.29059820546E+04 0.  0.
        3    1    3    3  502    0  0.13244866016E+04 -0.47661841902E+03  0.18052536485E+04  0.22891855802E+04  0.10100000352E+00 0. -1.
       -3    1    3    3    0  502 -0.13244866016E+04  0.47661841902E+03  0.83233056522E+03  0.16352993778E+04  0.10100000352E+00 0.  1.
</event>
<event>
 5   0  0.2508094E-06  0.2913921E+04  0.7818609E-02  0.8268748E-01
       -1   -1    0    0    0  501  0.00000000000E+00  0.00000000000E+00  0.19849301654E+04  0.19849301654E+04  0.50400001928E-02 0. -1.
        1   -1    0    0  501    0  0.00000000000E+00  0.00000000000E+00 -0.10694250438E+04  0.10694250438E+04  0.50400001928E-02 0.  1.
    10030    2    1    2    0    0  0.00000000000E+00  0.00000000000E+00  0.91550512165E+03  0.30543552092E+04  0.29139210896E+04 0.  0.
        3    1    3    3  502    0 -0.11706876547E+02 -0.14395290999E+03 -0.10619029496E+04  0.10716796983E+04  0.10100000352E+00 0.  1.
       -3    1    3    3    0  502  0.11706876547E+02  0.14395290999E+03  0.19774080712E+04  0.19826755109E+04  0.10100000352E+00 0. -1.
</event>
<event>
 5   0  0.6513041E-06  0.2932870E+04  0.7818609E-02  0.8263164E-01
       -2   -1    0    0    0  501  0.00000000000E+00  0.00000000000E+00  0.17026974181E+04  0.17026974181E+04  0.25500000920E-02 0.  1.
        2   -1    0    0  501    0  0.00000000000E+00  0.00000000000E+00 -0.12629554857E+04  0.12629554857E+04  0.25500000920E-02 0. -1.
    10030    2    1    2    0    0  0.00000000000E+00  0.00000000000E+00  0.43974193239E+03  0.29656529037E+04  0.29328696149E+04 0.  0.
        1    1    3    3  502    0 -0.12960129727E+04  0.66598277566E+03  0.38678688667E+03  0.15075764586E+04  0.50400001928E-02 0.  1.
       -1    1    3    3    0  502  0.12960129727E+04 -0.66598277566E+03  0.52955045720E+02  0.14580764451E+04  0.50400001928E-02 0. -1.
</event>
<event>
 5   0  0.2348684E-06  0.2540869E+04  0.7818609E-02  0.8388569E-01
        1   -1    0    0  501    0  0.00000000000E+00  0.00000000000E+00  0.24594644007E+04  0.24594644007E+04  0.50400001928E-02 0.  1.
       -1   -1    0    0    0  501  0.00000000000E+00  0.00000000000E+00 -0.65624191844E+03  0.65624191846E+03  0.50400001928E-02 0. -1.
    10030    2    1    2    0    0  0.00000000000E+00  0.00000000000E+00  0.18032224823E+04  0.31157063192E+04  0.25408688567E+04 0.  0.
        5    1    3    3  502    0 -0.71978548148E+03 -0.48216493758E+03  0.20410267942E+04  0.22172926354E+04  0.46999998093E+01 0.  1.
       -5    1    3    3    0  502  0.71978548148E+03  0.48216493758E+03 -0.23780431194E+03  0.89841368376E+03  0.46999998093E+01 0. -1.
</event>
<event>
 5   0  0.6513041E-06  0.2903335E+04  0.7818609E-02  0.8271886E-01
        2   -1    0    0  501    0  0.00000000000E+00  0.00000000000E+00  0.18340037986E+04  0.18340037986E+04  0.25500000920E-02 0.  1.
       -2   -1    0    0    0  501  0.00000000000E+00  0.00000000000E+00 -0.11490374364E+04  0.11490374364E+04  0.25500000920E-02 0. -1.
    10030    2    1    2    0    0  0.00000000000E+00  0.00000000000E+00  0.68496636222E+03  0.29830412351E+04  0.29033353393E+04 0.  0.
        1    1    3    3  502    0 -0.64138525901E+03  0.18976199522E+03 -0.98127948867E+03  0.11875580408E+04  0.50400001928E-02 0. -1.
       -1    1    3    3    0  502  0.64138525901E+03 -0.18976199522E+03  0.16662458509E+04  0.17954831943E+04  0.50400001928E-02 0.  1.
</event>
<event>
 5   0  0.6612533E-06  0.2867649E+04  0.7818609E-02  0.8282569E-01
       -2   -1    0    0    0  501  0.00000000000E+00  0.00000000000E+00  0.15171476596E+04  0.15171476596E+04  0.25500000920E-02 0.  1.
        2   -1    0    0  501    0  0.00000000000E+00  0.00000000000E+00 -0.13550772062E+04  0.13550772062E+04  0.25500000920E-02 0. -1.
    10030    2    1    2    0    0  0.00000000000E+00  0.00000000000E+00  0.16207045338E+03  0.28722248658E+04  0.28676486618E+04 0.  0.
        3    1    3    3  502    0  0.27679221013E+03 -0.73856393233E+03 -0.11182734270E+04  0.13684392853E+04  0.10100000352E+00 0. -1.
       -3    1    3    3    0  502 -0.27679221013E+03  0.73856393233E+03  0.12803438804E+04  0.15037855805E+04  0.10100000352E+00 0.  1.
</event>
<event>
 5   0  0.6615403E-06  0.2635837E+04  0.7818609E-02  0.8356129E-01
        2   -1    0    0  501    0  0.00000000000E+00  0.00000000000E+00  0.12938881540E+04  0.12938881540E+04  0.25500000920E-02 0. -1.
       -2   -1    0    0    0  501  0.00000000000E+00  0.00000000000E+00 -0.13423948135E+04  0.13423948135E+04  0.25500000920E-02 0.  1.
    10030    2    1    2    0    0  0.00000000000E+00  0.00000000000E+00 -0.48506659482E+02  0.26362829674E+04  0.26358366771E+04 0.  0.
        2    1    3    3  502    0  0.46516865356E+03 -0.68896660035E+03 -0.10470954897E+04  0.13369614120E+04  0.25500000920E-02 0.  1.
       -2    1    3    3    0  502 -0.46516865356E+03  0.68896660035E+03  0.99858883020E+03  0.12993215555E+04  0.25500000920E-02 0. -1.
</event>
<event>
 5   0  0.2429358E-06  0.2890654E+04  0.7818609E-02  0.8275664E-01
       -1   -1    0    0    0  501  0.00000000000E+00  0.00000000000E+00  0.17244113812E+04  0.17244113812E+04  0.50400001928E-02 0.  1.
        1   -1    0    0  501    0  0.00000000000E+00  0.00000000000E+00 -0.12114105747E+04  0.12114105747E+04  0.50400001928E-02 0. -1.
    10030    2    1    2    0    0  0.00000000000E+00  0.00000000000E+00  0.51300080654E+03  0.29358219560E+04  0.28906540315E+04 0.  0.
        2    1    3    3  502    0  0.11266534911E+04 -0.22574411091E+03 -0.63393253367E+03  0.13123181588E+04  0.25500000920E-02 0. -1.
       -2    1    3    3    0  502 -0.11266534911E+04  0.22574411091E+03  0.11469333402E+04  0.16235037972E+04  0.25500000920E-02 0.  1.
</event>
<event>
 5   0  0.6733688E-06  0.3014304E+04  0.7818609E-02  0.8239658E-01
        2   -1    0    0  501    0  0.00000000000E+00  0.00000000000E+00  0.26202977409E+04  0.26202977409E+04  0.25500000920E-02 0. -1.
       -2   -1    0    0    0  501  0.00000000000E+00  0.00000000000E+00 -0.86688876905E+03  0.86688876905E+03  0.25500000920E-02 0.  1.
    10030    2    1    2    0    0  0.00000000000E+00  0.00000000000E+00  0.17534089719E+04  0.34871865100E+04  0.30143036895E+04 0.  0.
        5    1    3    3  502    0 -0.30304010482E+03 -0.11773788219E+04 -0.15378268259E+03  0.12254490601E+04  0.46999998093E+01 0.  1.
       -5    1    3    3    0  502  0.30304010482E+03  0.11773788219E+04  0.19071916545E+04  0.22617374499E+04  0.46999998093E+01 0. -1.
</event>
<event>
 5   0  0.6733688E-06  0.2902608E+04  0.7818609E-02  0.8272102E-01
       -2   -1    0    0    0  501  0.00000000000E+00  0.00000000000E+00  0.98719045647E+03  0.98719045647E+03  0.25500000920E-02 0. -1.
        2   -1    0    0  501    0  0.00000000000E+00  0.00000000000E+00 -0.21336140211E+04  0.21336140211E+04  0.25500000920E-02 0.  1.
    10030    2    1    2    0    0  0.00000000000E+00  0.00000000000E+00 -0.11464235646E+04  0.31208044776E+04  0.29026080682E+04 0.  0.
        5    1    3    3  502    0 -0.35619589838E+03 -0.42615201572E+03 -0.20148173964E+04  0.20899742318E+04  0.46999998093E+01 0.  1.
       -5    1    3    3    0  502  0.35619589838E+03  0.42615201572E+03  0.86839383181E+03  0.10308302458E+04  0.46999998093E+01 0. -1.
</event>
<event>
 5   0  0.6513041E-06  0.2871552E+04  0.7818609E-02  0.8281392E-01
       -2   -1    0    0    0  501  0.00000000000E+00  0.00000000000E+00  0.10709300247E+04  0.10709300247E+04  0.25500000920E-02 0.  1.
        2   -1    0    0  501    0  0.00000000000E+00  0.00000000000E+00 -0.19249187998E+04  0.19249187998E+04  0.25500000920E-02 0. -1.
    10030    2    1    2    0    0  0.00000000000E+00  0.00000000000E+00 -0.85398877512E+03  0.29958488246E+04  0.28715524289E+04 0.  0.
        1    1    3    3  502    0  0.10880507367E+04  0.57567138782E+03 -0.11980390642E+04  0.17177163769E+04  0.50400001928E-02 0. -1.
       -1    1    3    3    0  502 -0.10880507367E+04 -0.57567138782E+03  0.34405028904E+03  0.12781324476E+04  0.50400001928E-02 0.  1.
</event>
<event>
 5   0  0.6393633E-06  0.2904127E+04  0.7818609E-02  0.8271651E-01
       -2   -1    0    0    0  501  0.00000000000E+00  0.00000000000E+00  0.78150744547E+03  0.78150744547E+03  0.25500000920E-02 0. -1.
        2   -1    0    0  501    0  0.00000000000E+00  0.00000000000E+00 -0.26979753268E+04  0.26979753268E+04  0.25500000920E-02 0.  1.
    10030    2    1    2    0    0  0.00000000000E+00  0.00000000000E+00 -0.19164678814E+04  0.34794827723E+04  0.29041265851E+04 0.  0.
        4    1    3    3  502    0  0.36831927917E+03 -0.36456951536E+03 -0.25834015806E+04  0.26348691357E+04  0.12699999809E+01 0.  1.
       -4    1    3    3    0  502 -0.36831927917E+03  0.36456951536E+03  0.66693369925E+03  0.84461363654E+03  0.12699999809E+01 0. -1.
</event>
<event>
 5   0  0.2429358E-06  0.2913530E+04  0.7818609E-02  0.8268863E-01
       -1   -1    0    0    0  501  0.00000000000E+00  0.00000000000E+00  0.99188415628E+03  0.99188415630E+03  0.50400001928E-02 0.  1.
        1   -1    0    0  501    0  0.00000000000E+00  0.00000000000E+00 -0.21395276521E+04  0.21395276521E+04  0.50400001928E-02 0. -1.
    10030    2    1    2    0    0  0.00000000000E+00  0.00000000000E+00 -0.11476434958E+04  0.31314118084E+04  0.29135295297E+04 0.  0.
        2    1    3    3  502    0  0.31874481055E+03  0.65791259207E+03  0.78045436679E+03  0.10693718959E+04  0.25500000920E-02 0.  1.
       -2    1    3    3    0  502 -0.31874481055E+03 -0.65791259207E+03 -0.19280978626E+04  0.20620399125E+04  0.25500000920E-02 0. -1.
</event>
<event>
 5   0  0.2429358E-06  0.2939419E+04  0.7818609E-02  0.8261245E-01
       -1   -1    0    0    0  501  0.00000000000E+00  0.00000000000E+00  0.10963859207E+04  0.10963859207E+04  0.50400001928E-02 0. -1.
        1   -1    0    0  501    0  0.00000000000E+00  0.00000000000E+00 -0.19701508379E+04  0.19701508379E+04  0.50400001928E-02 0.  1.
    10030    2    1    2    0    0  0.00000000000E+00  0.00000000000E+00 -0.87376491725E+03  0.30665367586E+04  0.29394187455E+04 0.  0.
        2    1    3    3  502    0  0.58190547278E+03 -0.33338874159E+03 -0.18012167100E+04  0.19220155224E+04  0.25500000920E-02 0.  1.
       -2    1    3    3    0  502 -0.58190547278E+03  0.33338874159E+03  0.92745179270E+03  0.11445212362E+04  0.25500000920E-02 0. -1.
</event>
<event>
 5   0  0.6733688E-06  0.2910686E+04  0.7818609E-02  0.8269705E-01
       -2   -1    0    0    0  501  0.00000000000E+00  0.00000000000E+00  0.13527689318E+04  0.13527689318E+04  0.25500000920E-02 0. -1.
        2   -1    0    0  501    0  0.00000000000E+00  0.00000000000E+00 -0.15656951541E+04  0.15656951541E+04  0.25500000920E-02 0.  1.
    10030    2    1    2    0    0  0.00000000000E+00  0.00000000000E+00 -0.21292622229E+03  0.29184640858E+04  0.29106863528E+04 0.  0.
        5    1    3    3  502    0 -0.20690437841E+03 -0.72830436460E+02 -0.15490180588E+04  0.15644784213E+04  0.46999998093E+01 0.  1.
       -5    1    3    3    0  502  0.20690437841E+03  0.72830436460E+02  0.13360918365E+04  0.13539856645E+04  0.46999998093E+01 0. -1.
</event>
<event>
 5   0  0.6612533E-06  0.2903713E+04  0.7818609E-02  0.8271774E-01
        2   -1    0    0  501    0  0.00000000000E+00  0.00000000000E+00  0.19522722755E+04  0.19522722755E+04  0.25500000920E-02 0. -1.
       -2   -1    0    0    0  501  0.00000000000E+00  0.00000000000E+00 -0.10797093940E+04  0.10797093940E+04  0.25500000920E-02 0.  1.
    10030    2    1    2    0    0  0.00000000000E+00  0.00000000000E+00  0.87256288159E+03  0.30319816695E+04  0.29037125997E+04 0.  0.
        3    1    3    3  502    0  0.10688064423E+04  0.88498976256E+03 -0.95853454146E+01  0.13876764681E+04  0.10100000352E+00 0.  1.
       -3    1    3    3    0  502 -0.10688064423E+04 -0.88498976256E+03  0.88214822700E+03  0.16443052015E+04  0.10100000352E+00 0. -1.
</event>
<event>
 5   0  0.2429358E-06  0.2372705E+04  0.7818609E-02  0.8449794E-01
        1   -1    0    0  501    0  0.00000000000E+00  0.00000000000E+00  0.12308042061E+04  0.12308042062E+04  0.50400001928E-02 0.  1.
       -1   -1    0    0    0  501  0.00000000000E+00  0.00000000000E+00 -0.11435061272E+04  0.11435061272E+04  0.50400001928E-02 0. -1.
    10030    2    1    2    0    0  0.00000000000E+00  0.00000000000E+00  0.87298078939E+02  0.23743103334E+04  0.23727049131E+04 0.  0.
        2    1    3    3  502    0 -0.99682727846E+02  0.57032914891E+03 -0.99253223305E+03  0.11490570995E+04  0.25500000920E-02 0. -1.
       -2    1    3    3    0  502  0.99682727846E+02 -0.57032914891E+03  0.10798303120E+04  0.12252532338E+04  0.25500000920E-02 0.  1.
</event>
<event>
 5   0  0.6393633E-06  0.2892391E+04  0.7818609E-02  0.8275145E-01
        2   -1    0    0  501    0  0.00000000000E+00  0.00000000000E+00  0.94837760121E+03  0.94837760121E+03  0.25500000920E-02 0.  1.
       -2   -1    0    0    0  501  0.00000000000E+00  0.00000000000E+00 -0.22053260215E+04  0.22053260215E+04  0.25500000920E-02 0. -1.
    10030    2    1    2    0    0  0.00000000000E+00  0.00000000000E+00 -0.12569484203E+04  0.31537036228E+04  0.28923912614E+04 0.  0.
        4    1    3    3  502    0 -0.36674138262E+03 -0.20980276217E+03 -0.21365292982E+04  0.21779062183E+04  0.12699999809E+01 0. -1.
       -4    1    3    3    0  502  0.36674138262E+03  0.20980276217E+03  0.87958087792E+03  0.97579740441E+03  0.12699999809E+01 0.  1.
</event>
<event>
 5   0  0.2336512E-06  0.2895446E+04  0.7818609E-02  0.8274234E-01
        1   -1    0    0  501    0  0.00000000000E+00  0.00000000000E+00  0.14319081594E+04  0.14319081594E+04  0.50400001928E-02 0.  1.
       -1   -1    0    0    0  501  0.00000000000E+00  0.00000000000E+00 -0.14637122661E+04  0.14637122661E+04  0.50400001928E-02 0. -1.
    10030    2    1    2    0    0  0.00000000000E+00  0.00000000000E+00 -0.31804106701E+02  0.28956204255E+04  0.28954457597E+04 0.  0.
        4    1    3    3  502    0 -0.62401698084E+03 -0.66743188035E+03 -0.11389290182E+04  0.14601450026E+04  0.12699999809E+01 0. -1.
       -4    1    3    3    0  502  0.62401698084E+03  0.66743188035E+03  0.11071249115E+04  0.14354754229E+04  0.12699999809E+01 0.  1.
</event>
<event>
 5   0  0.2508094E-06  0.2902781E+04  0.7818609E-02  0.8272050E-01
       -1   -1    0    0    0  501  0.00000000000E+00  0.00000000000E+00  0.12356223824E+04  0.12356223824E+04  0.50400001928E-02 0.  1.
        1   -1    0    0  501    0  0.00000000000E+00  0.00000000000E+00 -0.17048369209E+04  0.17048369209E+04  0.50400001928E-02 0. -1.
    10030    2    1    2    0    0  0.00000000000E+00  0.00000000000E+00 -0.46921453847E+03  0.29404593033E+04  0.29027811890E+04 0.  0.
        3    1    3    3  502    0  0.20423717265E+03 -0.14345050519E+04 -0.31946259702E+03  0.14837701735E+04  0.10100000352E+00 0.  1.
       -3    1    3    3    0  502 -0.20423717265E+03  0.14345050519E+04 -0.14975194145E+03  0.14566891298E+04  0.10100000352E+00 0. -1.
</event>
<event>
 5   0  0.6513041E-06  0.2939489E+04  0.7818609E-02  0.8261225E-01
       -2   -1    0    0    0  501  0.00000000000E+00  0.00000000000E+00  0.87907592153E+03  0.87907592153E+03  0.25500000920E-02 0.  1.
        2   -1    0    0  501    0  0.00000000000E+00  0.00000000000E+00 -0.24572942965E+04  0.24572942965E+04  0.25500000920E-02 0. -1.
    10030    2    1    2    0    0  0.00000000000E+00  0.00000000000E+00 -0.15782183750E+04  0.33363702181E+04  0.29394885597E+04 0.  0.
        1    1    3    3  502    0 -0.10443979001E+04  0.99654029788E+02 -0.19573779530E+04  0.22208165954E+04  0.50400001928E-02 0. -1.
       -1    1    3    3    0  502  0.10443979001E+04 -0.99654029788E+02  0.37915957801E+03  0.11155536227E+04  0.50400001928E-02 0.  1.
</event>
<event>
 5   0  0.2429358E-06  0.2891078E+04  0.7818609E-02  0.8275537E-01
       -1   -1    0    0    0  501  0.00000000000E+00  0.00000000000E+00  0.93151405585E+03  0.93151405586E+03  0.50400001928E-02 0. -1.
        1   -1    0    0  501    0  0.00000000000E+00  0.00000000000E+00 -0.22432121668E+04  0.22432121668E+04  0.50400001928E-02 0.  1.
    10030    2    1    2    0    0  0.00000000000E+00  0.00000000000E+00 -0.13116981110E+04  0.31747262227E+04  0.28910784588E+04 0.  0.
        2    1    3    3  502    0  0.12411663965E+04 -0.72515623675E+03 -0.48845252576E+03  0.15182000729E+04  0.25500000920E-02 0. -1.
       -2    1    3    3    0  502 -0.12411663965E+04  0.72515623675E+03 -0.82324558523E+03  0.16565261498E+04  0.25500000920E-02 0.  1.
</event>
<event>
 5   0  0.6513041E-06  0.2926839E+04  0.7818609E-02  0.8264936E-01
        2   -1    0    0  501    0  0.00000000000E+00  0.00000000000E+00  0.19755759920E+04  0.19755759920E+04  0.25500000920E-02 0.  1.
       -2   -1    0    0    0  501  0.00000000000E+00  0.00000000000E+00 -0.10840369450E+04  0.10840369450E+04  0.25500000920E-02 0. -1.
    10030    2    1    2    0    0  0.00000000000E+00  0.00000000000E+00  0.89153904696E+03  0.30596129370E+04  0.29268394988E+04 0.  0.
        1    1    3    3  502    0 -0.16192618631E+01  0.10786710492E+04 -0.58806518649E+03  0.12285579018E+04  0.50400001928E-02 0. -1.
       -1    1    3    3    0  502  0.16192618631E+01 -0.10786710492E+04  0.14796042334E+04  0.18310550352E+04  0.50400001928E-02 0.  1.
</event>
<event>
 5   0  0.6612533E-06  0.2885491E+04  0.7818609E-02  0.8277207E-01
        2   -1    0    0  501    0  0.00000000000E+00  0.00000000000E+00  0.28385937409E+04  0.28385937409E+04  0.25500000920E-02 0. -1.
       -2   -1    0    0    0  501  0.00000000000E+00  0.00000000000E+00 -0.73329071987E+03  0.73329071988E+03  0.25500000920E-02 0.  1.
    10030    2    1    2    0    0  0.00000000000E+00  0.00000000000E+00  0.21053030211E+04  0.35718844608E+04  0.28854909099E+04 0.  0.
        3    1    3    3  502    0 -0.88784404964E+03  0.37056983451E+02 -0.35432808065E+03  0.95665494063E+03  0.10100000352E+00 0.  1.
       -3    1    3    3    0  502  0.88784404964E+03 -0.37056983451E+02  0.24596311017E+04  0.26152295202E+04  0.10100000352E+00 0. -1.
</event>
<event>
 5   0  0.2474769E-06  0.2902785E+04  0.7818609E-02  0.8272049E-01
       -1   -1    0    0    0  501  0.00000000000E+00  0.00000000000E+00  0.15174086839E+04  0.15174086839E+04  0.50400001928E-02 0. -1.
        1   -1    0    0  501    0  0.00000000000E+00  0.00000000000E+00 -0.13882482732E+04  0.13882482732E+04  0.50400001928E-02 0.  1.
    10030    2    1    2    0    0  0.00000000000E+00  0.00000000000E+00  0.12916041061E+03  0.29056569571E+04  0.29027848595E+04 0.  0.
        1    1    3    3  502    0  0.11065062974E+04  0.55378150641E+03 -0.69479404832E+03  0.14190732584E+04  0.50400001928E-02 0.  1.
       -1    1    3    3    0  502 -0.11065062974E+04 -0.55378150641E+03  0.82395445894E+03  0.14865836988E+04  0.50400001928E-02 0. -1.
</event>
<event>
 5   0  0.2474769E-06  0.2840457E+04  0.7818609E-02  0.8290817E-01
        1   -1    0    0  501    0  0.00000000000E+00  0.00000000000E+00  0.16496983183E+04  0.16496983183E+04  0.50400001928E-02 0.  1.
       -1   -1    0    0    0  501  0.00000000000E+00  0.00000000000E+00 -0.12226772519E+04  0.12226772519E+04  0.50400001928E-02 0. -1.
    10030    2    1    2    0    0  0.00000000000E+00  0.00000000000E+00  0.42702106640E+03  0.28723755701E+04  0.28404567282E+04 0.  0.
        1    1    3    3  502    0  0.65620339086E+03 -0.86371735852E+03 -0.71354531419E+03  0.12983672366E+04  0.50400001928E-02 0. -1.
       -1    1    3    3    0  502 -0.65620339086E+03  0.86371735852E+03  0.11405663806E+04  0.15740083336E+04  0.50400001928E-02 0.  1.
</event>
<event>
 5   0  0.6513041E-06  0.2874914E+04  0.7818609E-02  0.8280381E-01
        2   -1    0    0  501    0  0.00000000000E+00  0.00000000000E+00  0.19481200061E+04  0.19481200061E+04  0.25500000920E-02 0.  1.
       -2   -1    0    0    0  501  0.00000000000E+00  0.00000000000E+00 -0.10606549635E+04  0.10606549635E+04  0.25500000920E-02 0. -1.
    10030    2    1    2    0    0  0.00000000000E+00  0.00000000000E+00  0.88746504267E+03  0.30087749696E+04  0.28749143667E+04 0.  0.
        1    1    3    3  502    0  0.80021521463E+03  0.93802578316E+02 -0.80213294556E+03  0.11369083410E+04  0.50400001928E-02 0. -1.
       -1    1    3    3    0  502 -0.80021521463E+03 -0.93802578316E+02  0.16895979882E+04  0.18718666286E+04  0.50400001928E-02 0.  1.
</event>
<event>
 5   0  0.2429358E-06  0.2918538E+04  0.7818609E-02  0.8267383E-01
       -1   -1    0    0    0  501  0.00000000000E+00  0.00000000000E+00  0.13928747646E+04  0.13928747646E+04  0.50400001928E-02 0. -1.
        1   -1    0    0  501    0  0.00000000000E+00  0.00000000000E+00 -0.15288283144E+04  0.15288283145E+04  0.50400001928E-02 0.  1.
    10030    2    1    2    0    0  0.00000000000E+00  0.00000000000E+00 -0.13595354984E+03  0.29217030791E+04  0.29185382496E+04 0.  0.
        2    1    3    3  502    0  0.11999595893E+04 -0.51424857193E+03 -0.72068976055E+03  0.14912237728E+04  0.25500000920E-02 0.  1.
       -2    1    3    3    0  502 -0.11999595893E+04  0.51424857193E+03  0.58473621071E+03  0.14304793063E+04  0.25500000920E-02 0. -1.
</event>
<event>
 5   0  0.2474769E-06  0.2916992E+04  0.7818609E-02  0.8267840E-01
        1   -1    0    0  501    0  0.00000000000E+00  0.00000000000E+00  0.16592702341E+04  0.16592702341E+04  0.50400001928E-02 0.  1.
       -1   -1    0    0    0  501  0.00000000000E+00  0.00000000000E+00 -0.12820154434E+04  0.12820154434E+04  0.50400001928E-02 0. -1.
    10030    2    1    2    0    0  0.00000000000E+00  0.00000000000E+00  0.37725479074E+03  0.29412856775E+04  0.29169916455E+04 0.  0.
        1    1    3    3  502    0  0.12058126614E+04  0.44782154270E+03  0.88187191210E+03  0.15595596744E+04  0.50400001928E-02 0.  1.
       -1    1    3    3    0  502 -0.12058126614E+04 -0.44782154270E+03 -0.50461712135E+03  0.13817260032E+04  0.50400001928E-02 0. -1.
</event>
<event>
 5   0  0.6612533E-06  0.2883482E+04  0.7818609E-02  0.8277809E-01
        2   -1    0    0  501    0  0.00000000000E+00  0.00000000000E+00  0.23096577930E+04  0.23096577930E+04  0.25500000920E-02 0.  1.
       -2   -1    0    0    0  501  0.00000000000E+00  0.00000000000E+00 -0.89996759448E+03  0.89996759448E+03  0.25500000920E-02 0. -1.
    10030    2    1    2    0    0  0.00000000000E+00  0.00000000000E+00  0.14096901985E+04  0.32096253875E+04  0.28834820395E+04 0.  0.
        3    1    3    3  502    0  0.29936055755E+03 -0.42677449187E+03  0.22010801425E+04  0.22619697200E+04  0.10100000352E+00 0.  1.
       -3    1    3    3    0  502 -0.29936055755E+03  0.42677449187E+03 -0.79138994402E+03  0.94765566743E+03  0.10100000352E+00 0. -1.
</event>
<event>
 5   0  0.2336512E-06  0.2885401E+04  0.7818609E-02  0.8277234E-01
        1   -1    0    0  501    0  0.00000000000E+00  0.00000000000E+00  0.20766269007E+04  0.20766269007E+04  0.50400001928E-02 0. -1.
       -1   -1    0    0    0  501  0.00000000000E+00  0.00000000000E+00 -0.10022911674E+04  0.10022911675E+04  0.50400001928E-02 0.  1.
    10030    2    1    2    0    0  0.00000000000E+00  0.00000000000E+00  0.10743357332E+04  0.30789180681E+04  0.28854010471E+04 0.  0.
        4    1    3    3  502    0 -0.33499925577E+02 -0.14074797453E+04  0.20097939110E+03  0.14221518228E+04  0.12699999809E+01 0.  1.
       -4    1    3    3    0  502  0.33499925577E+02  0.14074797453E+04  0.87335634214E+03  0.16567662454E+04  0.12699999809E+01 0. -1.
</event>
<event>
 5   0  0.2474769E-06  0.2900579E+04  0.7818609E-02  0.8272705E-01
       -1   -1    0    0    0  501  0.00000000000E+00  0.00000000000E+00  0.13657236853E+04  0.13657236853E+04  0.50400001928E-02 0. -1.
        1   -1    0    0  501    0  0.00000000000E+00  0.00000000000E+00 -0.15400919944E+04  0.15400919944E+04  0.50400001928E-02 0.  1.
    10030    2    1    2    0    0  0.00000000000E+00  0.00000000000E+00 -0.17436830916E+03  0.29058156797E+04  0.29005793313E+04 0.  0.
        1    1    3    3  502    0 -0.43936003001E+03 -0.51213897426E+02 -0.14708654810E+04  0.15359379422E+04  0.50400001928E-02 0.  1.
       -1    1    3    3    0  502  0.43936003001E+03  0.51213897426E+02  0.12964971718E+04  0.13698777375E+04  0.50400001928E-02 0. -1.
</event>
<event>
 5   0  0.2474769E-06  0.2888618E+04  0.7818609E-02  0.8276272E-01
       -1   -1    0    0    0  501  0.00000000000E+00  0.00000000000E+00  0.16266591687E+04  0.16266591687E+04  0.50400001928E-02 0.  1.
        1   -1    0    0  501    0  0.00000000000E+00  0.00000000000E+00 -0.12824008677E+04  0.12824008677E+04  0.50400001928E-02 0. -1.
    10030    2    1    2    0    0  0.00000000000E+00  0.00000000000E+00  0.34425830097E+03  0.29090600364E+04  0.28886184444E+04 0.  0.
        1    1    3    3  502    0 -0.75959908724E+03 -0.57885735198E+03 -0.91903382272E+03  0.13254017408E+04  0.50400001928E-02 0. -1.
       -1    1    3    3    0  502  0.75959908724E+03  0.57885735198E+03  0.12632921237E+04  0.15836582956E+04  0.50400001928E-02 0.  1.
</event>
<event>
 5   0  0.6615403E-06  0.2906061E+04  0.7818609E-02  0.8271076E-01
        2   -1    0    0  501    0  0.00000000000E+00  0.00000000000E+00  0.18160624122E+04  0.18160624122E+04  0.25500000920E-02 0. -1.
       -2   -1    0    0    0  501  0.00000000000E+00  0.00000000000E+00 -0.11625687366E+04  0.11625687366E+04  0.25500000920E-02 0.  1.
    10030    2    1    2    0    0  0.00000000000E+00  0.00000000000E+00  0.65349367556E+03  0.29786311488E+04  0.29060608281E+04 0.  0.
        2    1    3    3  502    0  0.65932112996E+03  0.11982138507E+04 -0.17630105293E+03  0.13789499069E+04  0.25500000920E-02 0.  1.
       -2    1    3    3    0  502 -0.65932112996E+03 -0.11982138507E+04  0.82979472849E+03  0.15996812419E+04  0.25500000920E-02 0. -1.
</event>
<event>
 5   0  0.6393633E-06  0.2890868E+04  0.7818609E-02  0.8275600E-01
       -2   -1    0    0    0  501  0.00000000000E+00  0.00000000000E+00  0.16029437591E+04  0.16029437592E+04  0.25500000920E-02 0. -1.
        2   -1    0    0  501    0  0.00000000000E+00  0.00000000000E+00 -0.13034011914E+04  0.13034011914E+04  0.25500000920E-02 0.  1.
    10030    2    1    2    0    0  0.00000000000E+00  0.00000000000E+00  0.29954256778E+03  0.29063449505E+04  0.28908675552E+04 0.  0.
        4    1    3    3  502    0 -0.36023812144E+03  0.88819706660E+03 -0.93796943558E+03  0.13410644311E+04  0.12699999809E+01 0.  1.
       -4    1    3    3    0  502  0.36023812144E+03 -0.88819706660E+03  0.12375120034E+04  0.15652805195E+04  0.12699999809E+01 0. -1.
</event>
<event>
 5   0  0.6612533E-06  0.2907380E+04  0.7818609E-02  0.8270685E-01
       -2   -1    0    0    0  501  0.00000000000E+00  0.00000000000E+00  0.17684803107E+04  0.17684803107E+04  0.25500000920E-02 0.  1.
        2   -1    0    0  501    0  0.00000000000E+00  0.00000000000E+00 -0.11949327204E+04  0.11949327204E+04  0.25500000920E-02 0. -1.
    10030    2    1    2    0    0  0.00000000000E+00  0.00000000000E+00  0.57354759026E+03  0.29634130311E+04  0.29073802563E+04 0.  0.
        3    1    3    3  502    0 -0.14192848604E+03  0.52633614276E+03 -0.10868039305E+04  0.12158602814E+04  0.10100000352E+00 0. -1.
       -3    1    3    3    0  502  0.14192848604E+03 -0.52633614276E+03  0.16603515208E+04  0.17475527497E+04  0.10100000352E+00 0.  1.
</event>
<event>
 5   0  0.2508094E-06  0.2747942E+04  0.7818609E-02  0.8319615E-01
        1   -1    0    0  501    0  0.00000000000E+00  0.00000000000E+00  0.19930696495E+04  0.19930696495E+04  0.50400001928E-02 0. -1.
       -1   -1    0    0    0  501  0.00000000000E+00  0.00000000000E+00 -0.94718048333E+03  0.94718048335E+03  0.50400001928E-02 0.  1.
    10030    2    1    2    0    0  0.00000000000E+00  0.00000000000E+00  0.10458891661E+04  0.29402501328E+04  0.27479422657E+04 0.  0.
        3    1    3    3  502    0 -0.43629524733E+03 -0.13026326399E+04  0.49692560000E+03  0.14608697407E+04  0.10100000352E+00 0.  1.
       -3    1    3    3    0  502  0.43629524733E+03  0.13026326399E+04  0.54896356613E+03  0.14793803921E+04  0.10100000352E+00 0. -1.
</event>
<event>
 5   0  0.6733688E-06  0.2911006E+04  0.7818609E-02  0.8269610E-01
       -2   -1    0    0    0  501  0.00000000000E+00  0.00000000000E+00  0.16589165972E+04  0.16589165972E+04  0.25500000920E-02 0. -1.
        2   -1    0    0  501    0  0.00000000000E+00  0.00000000000E+00 -0.12770318339E+04  0.12770318339E+04  0.25500000920E-02 0.  1.
    10030    2    1    2    0    0  0.00000000000E+00  0.00000000000E+00  0.38188476329E+03  0.29359484311E+04  0.29110062208E+04 0.  0.
        5    1    3    3  502    0 -0.60859600052E+02  0.14383981623E+04  0.40672425535E+03  0.14960414012E+04  0.46999998093E+01 0. -1.
       -5    1    3    3    0  502  0.60859600052E+02 -0.14383981623E+04 -0.24839492054E+02  0.14399070299E+04  0.46999998093E+01 0.  1.
</event>
<event>
 5   0  0.6615403E-06  0.2905458E+04  0.7818609E-02  0.8271255E-01
        2   -1    0    0  501    0  0.00000000000E+00  0.00000000000E+00  0.14784468996E+04  0.14784468996E+04  0.25500000920E-02 0.  1.
       -2   -1    0    0    0  501  0.00000000000E+00  0.00000000000E+00 -0.14274586899E+04  0.14274586899E+04  0.25500000920E-02 0. -1.
    10030    2    1    2    0    0  0.00000000000E+00  0.00000000000E+00  0.50988209662E+02  0.29059055895E+04  0.29054582251E+04 0.  0.
        2    1    3    3  502    0  0.17559589316E+03  0.49910928979E+02  0.14669296886E+04  0.14782448139E+04  0.25500000920E-02 0.  1.
       -2    1    3    3    0  502 -0.17559589316E+03 -0.49910928979E+02 -0.14159414789E+04  0.14276607756E+04  0.25500000920E-02 0. -1.
</event>
<event>
 5   0  0.2508094E-06  0.2913402E+04  0.7818609E-02  0.8268901E-01
       -1   -1    0    0    0  501  0.00000000000E+00  0.00000000000E+00  0.83774214053E+03  0.83774214055E+03  0.50400001928E-02 0. -1.
        1   -1    0    0  501    0  0.00000000000E+00  0.00000000000E+00 -0.25329725676E+04  0.25329725676E+04  0.50400001928E-02 0.  1.
    10030    2    1    2    0    0  0.00000000000E+00  0.00000000000E+00 -0.16952304270E+04  0.33707147081E+04  0.29134020393E+04 0.  0.
        3    1    3    3  502    0  0.36045577271E+03  0.10339709530E+04  0.26388998849E+03  0.11263490720E+04  0.10100000352E+00 0. -1.
       -3    1    3    3    0  502 -0.36045577271E+03 -0.10339709530E+04 -0.19591204155E+04  0.22443656361E+04  0.10100000352E+00 0.  1.
</event>
<event>
 5   0  0.6733688E-06  0.2903749E+04  0.7818609E-02  0.8271763E-01
        2   -1    0    0  501    0  0.00000000000E+00  0.00000000000E+00  0.21469218589E+04  0.21469218589E+04  0.25500000920E-02 0.  1.
       -2   -1    0    0    0  501  0.00000000000E+00  0.00000000000E+00 -0.98184248865E+03  0.98184248866E+03  0.25500000920E-02 0. -1.
    10030    2    1    2    0    0  0.00000000000E+00  0.00000000000E+00  0.11650793703E+04  0.31287643476E+04  0.29037486812E+04 0.  0.
        5    1    3    3  502    0  0.12227540130E+04  0.51287373140E+03 -0.54685299983E+02  0.13270943496E+04  0.46999998093E+01 0. -1.
       -5    1    3    3    0  502 -0.12227540130E+04 -0.51287373140E+03  0.12197646703E+04  0.18016699980E+04  0.46999998093E+01 0.  1.
</event>
<event>
 5   0  0.2159500E-06  0.2904338E+04  0.7818609E-02  0.8271588E-01
       -3   -1    0    0    0  501  0.00000000000E+00  0.00000000000E+00  0.19231155873E+04  0.19231155900E+04  0.10100000352E+00 0.  1.
        3   -1    0    0  501    0  0.00000000000E+00  0.00000000000E+00 -0.10965509136E+04  0.10965509183E+04  0.10100000352E+00 0. -1.
    10030    2    1    2    0    0  0.00000000000E+00  0.00000000000E+00  0.82656467373E+03  0.30196665083E+04  0.29043375598E+04 0.  0.
        4    1    3    3  502    0  0.11561604119E+04  0.35135265608E+03  0.12506433536E+04  0.17390416895E+04  0.12699999809E+01 0.  1.
       -4    1    3    3    0  502 -0.11561604119E+04 -0.35135265608E+03 -0.42407867986E+03  0.12806248188E+04  0.12699999809E+01 0. -1.
</event>
<event>
 5   0  0.6733688E-06  0.3068614E+04  0.7818609E-02  0.8224405E-01
        2   -1    0    0  501    0  0.00000000000E+00  0.00000000000E+00  0.92851449385E+03  0.92851449385E+03  0.25500000920E-02 0.  1.
       -2   -1    0    0    0  501  0.00000000000E+00  0.00000000000E+00 -0.25353381126E+04  0.25353381126E+04  0.25500000920E-02 0. -1.
    10030    2    1    2    0    0  0.00000000000E+00  0.00000000000E+00 -0.16068236188E+04  0.34638526065E+04  0.30686141396E+04 0.  0.
        5    1    3    3  502    0 -0.98724079338E+01  0.12353692351E+04 -0.18304597458E+04  0.22083567607E+04  0.46999998093E+01 0. -1.
       -5    1    3    3    0  502  0.98724079338E+01 -0.12353692351E+04  0.22363612703E+03  0.12554958458E+04  0.46999998093E+01 0.  1.
</event>
<event>
 5   0  0.6513041E-06  0.2977456E+04  0.7818609E-02  0.8250198E-01
        2   -1    0    0  501    0  0.00000000000E+00  0.00000000000E+00  0.17023623205E+04  0.17023623205E+04  0.25500000920E-02 0. -1.
       -2   -1    0    0    0  501  0.00000000000E+00  0.00000000000E+00 -0.13019036854E+04  0.13019036854E+04  0.25500000920E-02 0.  1.
    10030    2    1    2    0    0  0.00000000000E+00  0.00000000000E+00  0.40045863511E+03  0.30042660059E+04  0.29774564843E+04 0.  0.
        1    1    3    3  502    0 -0.16240026136E+03  0.77810800478E+02  0.16913324605E+04  0.17008920770E+04  0.50400001928E-02 0. -1.
       -1    1    3    3    0  502  0.16240026136E+03 -0.77810800478E+02 -0.12908738254E+04  0.13033739289E+04  0.50400001928E-02 0.  1.
</event>
<event>
 5   0  0.6393633E-06  0.2880362E+04  0.7818609E-02  0.8278744E-01
        2   -1    0    0  501    0  0.00000000000E+00  0.00000000000E+00  0.13466564192E+04  0.13466564192E+04  0.25500000920E-02 0.  1.
       -2   -1    0    0    0  501  0.00000000000E+00  0.00000000000E+00 -0.15402010975E+04  0.15402010975E+04  0.25500000920E-02 0. -1.
    10030    2    1    2    0    0  0.00000000000E+00  0.00000000000E+00 -0.19354467826E+03  0.28868575167E+04  0.28803622653E+04 0.  0.
        4    1    3    3  502    0 -0.15583817758E+03  0.14068120210E+03  0.13312364881E+04  0.13476902235E+04  0.12699999809E+01 0.  1.
       -4    1    3    3    0  502  0.15583817758E+03 -0.14068120210E+03 -0.15247811664E+04  0.15391672932E+04  0.12699999809E+01 0. -1.
</event>
<event>
 5   0  0.2508094E-06  0.2925211E+04  0.7818609E-02  0.8265416E-01
       -1   -1    0    0    0  501  0.00000000000E+00  0.00000000000E+00  0.16988938991E+04  0.16988938991E+04  0.50400001928E-02 0. -1.
        1   -1    0    0  501    0  0.00000000000E+00  0.00000000000E+00 -0.12591809335E+04  0.12591809335E+04  0.50400001928E-02 0.  1.
    10030    2    1    2    0    0  0.00000000000E+00  0.00000000000E+00  0.43971296564E+03  0.29580748327E+04  0.29252109708E+04 0.  0.
        3    1    3    3  502    0 -0.84990814595E+03  0.10583586969E+04 -0.33100920585E+03  0.13971521364E+04  0.10100000352E+00 0.  1.
       -3    1    3    3    0  502  0.84990814595E+03 -0.10583586969E+04  0.77072217149E+03  0.15609226962E+04  0.10100000352E+00 0. -1.
</event>
<event>
 5   0  0.2336512E-06  0.2910530E+04  0.7818609E-02  0.8269751E-01
        1   -1    0    0  501    0  0.00000000000E+00  0.00000000000E+00  0.18738435365E+04  0.18738435365E+04  0.50400001928E-02 0.  1.
       -1   -1    0    0    0  501  0.00000000000E+00  0.00000000000E+00 -0.11301886890E+04  0.11301886890E+04  0.50400001928E-02 0. -1.
    10030    2    1    2    0    0  0.00000000000E+00  0.00000000000E+00  0.74365484744E+03  0.30040322255E+04  0.29105303778E+04 0.  0.
        4    1    3    3  502    0  0.35231576398E+03  0.57524164341E+03 -0.95908044845E+03  0.11725469139E+04  0.12699999809E+01 0. -1.
       -4    1    3    3    0  502 -0.35231576398E+03 -0.57524164341E+03  0.17027352959E+04  0.18314853116E+04  0.12699999809E+01 0.  1.
</event>
<event>
 5   0  0.6513041E-06  0.2928478E+04  0.7818609E-02  0.8264454E-01
       -2   -1    0    0    0  501  0.00000000000E+00  0.00000000000E+00  0.94771415460E+03  0.94771415460E+03  0.25500000920E-02 0. -1.
        2   -1    0    0  501    0  0.00000000000E+00  0.00000000000E+00 -0.22622818841E+04  0.22622818841E+04  0.25500000920E-02 0.  1.
    10030    2    1    2    0    0  0.00000000000E+00  0.00000000000E+00 -0.13145677295E+04  0.32099960387E+04  0.29284784877E+04 0.  0.
        1    1    3    3  502    0  0.38480513523E+03 -0.14072107499E+04 -0.79453888439E+03  0.16612071291E+04  0.50400001928E-02 0. -1.
       -1    1    3    3    0  502 -0.38480513523E+03  0.14072107499E+04 -0.52002884507E+03  0.15487889096E+04  0.50400001928E-02 0.  1.
</event>
<event>
 5   0  0.2474769E-06  0.2917609E+04  0.7818609E-02  0.8267658E-01
        1   -1    0    0  501    0  0.00000000000E+00  0.00000000000E+00  0.20207066614E+04  0.20207066614E+04  0.50400001928E-02 0.  1.
       -1   -1    0    0    0  501  0.00000000000E+00  0.00000000000E+00 -0.10531513051E+04  0.10531513051E+04  0.50400001928E-02 0. -1.
    10030    2    1    2    0    0  0.00000000000E+00  0.00000000000E+00  0.96755535626E+03  0.30738579665E+04  0.29176085122E+04 0.  0.
        1    1    3    3  502    0  0.11450723616E+04  0.32991083116E+03 -0.40276026055E+03  0.12578742772E+04  0.50400001928E-02 0. -1.
       -1    1    3    3    0  502 -0.11450723616E+04 -0.32991083116E+03  0.13703156168E+04  0.18159836892E+04  0.50400001928E-02 0.  1.
</event>
<event>
 5   0  0.6393633E-06  0.2819375E+04  0.7818609E-02  0.8297278E-01
        2   -1    0    0  501    0  0.00000000000E+00  0.00000000000E+00  0.12899246408E+04  0.12899246408E+04  0.25500000920E-02 0.  1.
       -2   -1    0    0    0  501  0.00000000000E+00  0.00000000000E+00 -0.15405692362E+04  0.15405692362E+04  0.25500000920E-02 0. -1.
    10030    2    1    2    0    0  0.00000000000E+00  0.00000000000E+00 -0.25064459540E+03  0.28304938769E+04  0.28193745537E+04 0.  0.
        4    1    3    3  502    0  0.98039430557E+02 -0.89501181307E+03  0.96364853933E+03  0.13188168924E+04  0.12699999809E+01 0.  1.
       -4    1    3    3    0  502 -0.98039430557E+02  0.89501181307E+03 -0.12142931347E+04  0.15116769845E+04  0.12699999809E+01 0. -1.
</event>
<event>
 5   0  0.6733688E-06  0.2924800E+04  0.7818609E-02  0.8265537E-01
        2   -1    0    0  501    0  0.00000000000E+00  0.00000000000E+00  0.16710740170E+04  0.16710740170E+04  0.25500000920E-02 0.  1.
       -2   -1    0    0    0  501  0.00000000000E+00  0.00000000000E+00 -0.12797840558E+04  0.12797840558E+04  0.25500000920E-02 0. -1.
    10030    2    1    2    0    0  0.00000000000E+00  0.00000000000E+00  0.39128996117E+03  0.29508580728E+04  0.29248000842E+04 0.  0.
        5    1    3    3  502    0 -0.77162484899E+03  0.88808007206E+03  0.10720037774E+04  0.15916360485E+04  0.46999998093E+01 0. -1.
       -5    1    3    3    0  502  0.77162484899E+03 -0.88808007206E+03 -0.68071381623E+03  0.13592220244E+04  0.46999998093E+01 0.  1.
</event>
<event>
 5   0  0.6733688E-06  0.2927491E+04  0.7818609E-02  0.8264745E-01
        2   -1    0    0  501    0  0.00000000000E+00  0.00000000000E+00  0.14115364014E+04  0.14115364014E+04  0.25500000920E-02 0.  1.
       -2   -1    0    0    0  501  0.00000000000E+00  0.00000000000E+00 -0.15178852447E+04  0.15178852447E+04  0.25500000920E-02 0. -1.
    10030    2    1    2    0    0  0.00000000000E+00  0.00000000000E+00 -0.10634884334E+03  0.29294216461E+04  0.29274905814E+04 0.  0.
        5    1    3    3  502    0 -0.19540786513E+03 -0.29389713166E+03 -0.14746636186E+04  0.15163161398E+04  0.46999998093E+01 0. -1.
       -5    1    3    3    0  502  0.19540786513E+03  0.29389713166E+03  0.13683147752E+04  0.14131055063E+04  0.46999998093E+01 0.  1.
</event>
<event>
 5   0  0.2336512E-06  0.2800614E+04  0.7818609E-02  0.8303078E-01
        1   -1    0    0  501    0  0.00000000000E+00  0.00000000000E+00  0.13478919420E+04  0.13478919421E+04  0.50400001928E-02 0. -1.
       -1   -1    0    0    0  501  0.00000000000E+00  0.00000000000E+00 -0.14547600864E+04  0.14547600864E+04  0.50400001928E-02 0.  1.
    10030    2    1    2    0    0  0.00000000000E+00  0.00000000000E+00 -0.10686814438E+03  0.28026520285E+04  0.28006137885E+04 0.  0.
        4    1    3    3  502    0  0.95414056854E+03 -0.21100089927E+03 -0.10571356934E+04  0.14395982395E+04  0.12699999809E+01 0.  1.
       -4    1    3    3    0  502 -0.95414056854E+03  0.21100089927E+03  0.95026754902E+03  0.13630537890E+04  0.12699999809E+01 0. -1.
</event>
<event>
 5   0  0.2336512E-06  0.2523674E+04  0.7818609E-02  0.8394600E-01
       -1   -1    0    0    0  501  0.00000000000E+00  0.00000000000E+00  0.87808134887E+03  0.87808134888E+03  0.50400001928E-02 0. -1.
        1   -1    0    0  501    0  0.00000000000E+00  0.00000000000E+00 -0.18133093365E+04  0.18133093365E+04  0.50400001928E-02 0.  1.
    10030    2    1    2    0    0  0.00000000000E+00  0.00000000000E+00 -0.93522798765E+03  0.26913906854E+04  0.25236743912E+04 0.  0.
        4    1    3    3  502    0  0.79837213676E+03  0.97365550440E+03 -0.55573966382E+03  0.13763180217E+04  0.12699999809E+01 0.  1.
       -4    1    3    3    0  502 -0.79837213676E+03 -0.97365550440E+03 -0.37948832383E+03  0.13150726637E+04  0.12699999809E+01 0. -1.
</event>
<event>
 5   0  0.2474769E-06  0.2953107E+04  0.7818609E-02  0.8257250E-01
       -1   -1    0    0    0  501  0.00000000000E+00  0.00000000000E+00  0.73838606966E+03  0.73838606967E+03  0.50400001928E-02 0.  1.
        1   -1    0    0  501    0  0.00000000000E+00  0.00000000000E+00 -0.29526700489E+04  0.29526700489E+04  0.50400001928E-02 0. -1.
    10030    2    1    2    0    0  0.00000000000E+00  0.00000000000E+00 -0.22142839793E+04  0.36910561186E+04  0.29531071314E+04 0.  0.
        1    1    3    3  502    0  0.27000751970E+03 -0.65818248170E+03 -0.27243371331E+04  0.28156919317E+04  0.50400001928E-02 0. -1.
       -1    1    3    3    0  502 -0.27000751970E+03  0.65818248170E+03  0.51005315379E+03  0.87536418685E+03  0.50400001928E-02 0.  1.
</event>
<event>
 5   0  0.6733688E-06  0.2945341E+04  0.7818609E-02  0.8259514E-01
        2   -1    0    0  501    0  0.00000000000E+00  0.00000000000E+00  0.23397510182E+04  0.23397510182E+04  0.25500000920E-02 0.  1.
       -2   -1    0    0    0  501  0.00000000000E+00  0.00000000000E+00 -0.92691818570E+03  0.92691818571E+03  0.25500000920E-02 0. -1.
    10030    2    1    2    0    0  0.00000000000E+00  0.00000000000E+00  0.14128328325E+04  0.32666692039E+04  0.29453405703E+04 0.  0.
        5    1    3    3  502    0 -0.11195680049E+04  0.23057606272E+03 -0.32339568856E+03  0.11879413705E+04  0.46999998093E+01 0. -1.
       -5    1    3    3    0  502  0.11195680049E+04 -0.23057606272E+03  0.17362285210E+04  0.20787278334E+04  0.46999998093E+01 0.  1.
</event>
<event>
 5   0  0.6393633E-06  0.2896123E+04  0.7818609E-02  0.8274032E-01
        2   -1    0    0  501    0  0.00000000000E+00  0.00000000000E+00  0.13155397223E+04  0.13155397223E+04  0.25500000920E-02 0. -1.
       -2   -1    0    0    0  501  0.00000000000E+00  0.00000000000E+00 -0.15939331983E+04  0.15939331983E+04  0.25500000920E-02 0.  1.
    10030    2    1    2    0    0  0.00000000000E+00  0.00000000000E+00 -0.27839347603E+03  0.29094729206E+04  0.28961232274E+04 0.  0.
        4    1    3    3  502    0 -0.14338986435E+03  0.11132348694E+04 -0.10583064446E+04  0.15426816494E+04  0.12699999809E+01 0.  1.
       -4    1    3    3    0  502  0.14338986435E+03 -0.11132348694E+04  0.77991296857E+03  0.13667912712E+04  0.12699999809E+01 0. -1.
</event>
<event>
 5   0  0.6513041E-06  0.2892055E+04  0.7818609E-02  0.8275245E-01
       -2   -1    0    0    0  501  0.00000000000E+00  0.00000000000E+00  0.89837980574E+03  0.89837980574E+03  0.25500000920E-02 0. -1.
        2   -1    0    0  501    0  0.00000000000E+00  0.00000000000E+00 -0.23275184462E+04  0.23275184462E+04  0.25500000920E-02 0.  1.
    10030    2    1    2    0    0  0.00000000000E+00  0.00000000000E+00 -0.14291386404E+04  0.32258982519E+04  0.28920550268E+04 0.  0.
        1    1    3    3  502    0  0.10910888502E+04 -0.46618930072E+03  0.20739539400E+03  0.12044999762E+04  0.50400001928E-02 0. -1.
       -1    1    3    3    0  502 -0.10910888502E+04  0.46618930072E+03 -0.16365340344E+04  0.20213982757E+04  0.50400001928E-02 0.  1.
</event>
<event>
 5   0  0.6513041E-06  0.2909158E+04  0.7818609E-02  0.8270158E-01
       -2   -1    0    0    0  501  0.00000000000E+00  0.00000000000E+00  0.12246986822E+04  0.12246986822E+04  0.25500000920E-02 0.  1.
        2   -1    0    0  501    0  0.00000000000E+00  0.00000000000E+00 -0.17276089932E+04  0.17276089932E+04  0.25500000920E-02 0. -1.
    10030    2    1    2    0    0  0.00000000000E+00  0.00000000000E+00 -0.50291031098E+03  0.29523076755E+04  0.29091582683E+04 0.  0.
        1    1    3    3  502    0  0.11178899980E+04 -0.10576640883E+02 -0.11958548906E+04  0.16370274379E+04  0.50400001928E-02 0. -1.
       -1    1    3    3    0  502 -0.11178899980E+04  0.10576640883E+02  0.69294457961E+03  0.13152802376E+04  0.50400001928E-02 0.  1.
</event>
<event>
 5   0  0.2429358E-06  0.2934931E+04  0.7818609E-02  0.8262560E-01
        1   -1    0    0  501    0  0.00000000000E+00  0.00000000000E+00  0.15930385196E+04  0.15930385196E+04  0.50400001928E-02 0. -1.
       -1   -1    0    0    0  501  0.00000000000E+00  0.00000000000E+00 -0.13517906759E+04  0.13517906759E+04  0.50400001928E-02 0.  1.
    10030    2    1    2    0    0  0.00000000000E+00  0.00000000000E+00  0.24124784371E+03  0.29448291954E+04  0.29349307433E+04 0.  0.
        2    1    3    3  502    0 -0.43933440852E+03 -0.41399912949E+03 -0.12214388772E+04  0.13624694244E+04  0.25500000920E-02 0.  1.
       -2    1    3    3    0  502  0.43933440852E+03  0.41399912949E+03  0.14626867209E+04  0.15823597711E+04  0.25500000920E-02 0. -1.
</event>
<event>
 5   0  0.2348684E-06  0.2425447E+04  0.7818609E-02  0.8430038E-01
        1   -1    0    0  501    0  0.00000000000E+00  0.00000000000E+00  0.94137913963E+03  0.94137913965E+03  0.50400001928E-02 0.  1.
       -1   -1    0    0    0  501  0.00000000000E+00  0.00000000000E+00 -0.15622802556E+04  0.15622802556E+04  0.50400001928E-02 0. -1.
    10030    2    1    2    0    0  0.00000000000E+00  0.00000000000E+00 -0.62090111597E+03  0.25036593953E+04  0.24254467984E+04 0.  0.
        5    1    3    3  502    0 -0.65642548632E+03  0.66976747518E+02  0.73985505750E+03  0.99135659574E+03  0.46999998093E+01 0.  1.
       -5    1    3    3    0  502  0.65642548632E+03 -0.66976747518E+02 -0.13607561735E+04  0.15123027995E+04  0.46999998093E+01 0. -1.
</event>
<event>
 5   0  0.6733688E-06  0.2792964E+04  0.7818609E-02  0.8305456E-01
        2   -1    0    0  501    0  0.00000000000E+00  0.00000000000E+00  0.19782241459E+04  0.19782241459E+04  0.25500000920E-02 0.  1.
       -2   -1    0    0    0  501  0.00000000000E+00  0.00000000000E+00 -0.98581471346E+03  0.98581471346E+03  0.25500000920E-02 0. -1.
    10030    2    1    2    0    0  0.00000000000E+00  0.00000000000E+00  0.99240943240E+03  0.29640388593E+04  0.27929643532E+04 0.  0.
        5    1    3    3  502    0 -0.12581029164E+04  0.13126456111E+02  0.11392438215E+04  0.16973196007E+04  0.46999998093E+01 0. -1.
       -5    1    3    3    0  502  0.12581029164E+04 -0.13126456111E+02 -0.14683438913E+03  0.12667192586E+04  0.46999998093E+01 0.  1.
</event>
<event>
 5   0  0.2336512E-06  0.2873679E+04  0.7818609E-02  0.8280752E-01
       -1   -1    0    0    0  501  0.00000000000E+00  0.00000000000E+00  0.10001494714E+04  0.10001494714E+04  0.50400001928E-02 0. -1.
        1   -1    0    0  501    0  0.00000000000E+00  0.00000000000E+00 -0.20641995994E+04  0.20641995994E+04  0.50400001928E-02 0.  1.
    10030    2    1    2    0    0  0.00000000000E+00  0.00000000000E+00 -0.10640501280E+04  0.30643490708E+04  0.28736792710E+04 0.  0.
        4    1    3    3  502    0  0.11462903975E+04  0.39726068266E+03 -0.13529824758E+04  0.18172399176E+04  0.12699999809E+01 0. -1.
       -4    1    3    3    0  502 -0.11462903975E+04 -0.39726068266E+03  0.28893234784E+03  0.12471091532E+04  0.12699999809E+01 0.  1.
</event>
<event>
 5   0  0.6615403E-06  0.2901184E+04  0.7818609E-02  0.8272525E-01
       -2   -1    0    0    0  501  0.00000000000E+00  0.00000000000E+00  0.21706421308E+04  0.21706421308E+04  0.25500000920E-02 0.  1.
        2   -1    0    0  501    0  0.00000000000E+00  0.00000000000E+00 -0.96939831118E+03  0.96939831119E+03  0.25500000920E-02 0. -1.
    10030    2    1    2    0    0  0.00000000000E+00  0.00000000000E+00  0.12012438196E+04  0.31400404420E+04  0.29011837693E+04 0.  0.
        2    1    3    3  502    0  0.10663848913E+04  0.34576135347E+03  0.15970066783E+04  0.19511939884E+04  0.25500000920E-02 0.  1.
       -2    1    3    3    0  502 -0.10663848913E+04 -0.34576135347E+03 -0.39576285867E+03  0.11888464536E+04  0.25500000920E-02 0. -1.
</event>
<event>
 5   0  0.2474769E-06  0.2890785E+04  0.7818609E-02  0.8275625E-01
        1   -1    0    0  501    0  0.00000000000E+00  0.00000000000E+00  0.16996333107E+04  0.16996333107E+04  0.50400001928E-02 0.  1.
       -1   -1    0    0    0  501  0.00000000000E+00  0.00000000000E+00 -0.12291821603E+04  0.12291821603E+04  0.50400001928E-02 0. -1.
    10030    2    1    2    0    0  0.00000000000E+00  0.00000000000E+00  0.47045115035E+03  0.29288154710E+04  0.28907846302E+04 0.  0.
        1    1    3    3  502    0  0.78519229839E+03  0.25914294239E+03 -0.96589922557E+03  0.12714728955E+04  0.50400001928E-02 0. -1.
       -1    1    3    3    0  502 -0.78519229839E+03 -0.25914294239E+03  0.14363503759E+04  0.16573425755E+04  0.50400001928E-02 0.  1.
</event>
<event>
 5   0  0.6612533E-06  0.2900165E+04  0.7818609E-02  0.8272828E-01
       -2   -1    0    0    0  501  0.00000000000E+00  0.00000000000E+00  0.17822784968E+04  0.17822784968E+04  0.25500000920E-02 0. -1.
        2   -1    0    0  501    0  0.00000000000E+00  0.00000000000E+00 -0.11798043714E+04  0.11798043714E+04  0.25500000920E-02 0.  1.
    10030    2    1    2    0    0  0.00000000000E+00  0.00000000000E+00  0.60247412542E+03  0.29620828682E+04  0.29001654861E+04 0.  0.
        3    1    3    3  502    0 -0.78655897072E+03 -0.12173772042E+04  0.34756717102E+03  0.14904647665E+04  0.10100000352E+00 0.  1.
       -3    1    3    3    0  502  0.78655897072E+03  0.12173772042E+04  0.25490695440E+03  0.14716181017E+04  0.10100000352E+00 0. -1.
</event>
<event>
 5   0  0.6733688E-06  0.2912632E+04  0.7818609E-02  0.8269129E-01
        2   -1    0    0  501    0  0.00000000000E+00  0.00000000000E+00  0.12276403521E+04  0.12276403521E+04  0.25500000920E-02 0. -1.
       -2   -1    0    0    0  501  0.00000000000E+00  0.00000000000E+00 -0.17275873864E+04  0.17275873864E+04  0.25500000920E-02 0.  1.
    10030    2    1    2    0    0  0.00000000000E+00  0.00000000000E+00 -0.49994703436E+03  0.29552277385E+04  0.29126317908E+04 0.  0.
        5    1    3    3  502    0 -0.24890119047E+03 -0.13915308399E+04  0.10517988648E+03  0.14175312270E+04  0.46999998093E+01 0.  1.
       -5    1    3    3    0  502  0.24890119047E+03  0.13915308399E+04 -0.60512692084E+03  0.15376965115E+04  0.46999998093E+01 0. -1.
</event>
<event>
 5   0  0.2474769E-06  0.2868573E+04  0.7818609E-02  0.8282290E-01
       -1   -1    0    0    0  501  0.00000000000E+00  0.00000000000E+00  0.16217718290E+04  0.16217718290E+04  0.50400001928E-02 0. -1.
        1   -1    0    0  501    0  0.00000000000E+00  0.00000000000E+00 -0.12684752070E+04  0.12684752070E+04  0.50400001928E-02 0.  1.
    10030    2    1    2    0    0  0.00000000000E+00  0.00000000000E+00  0.35329662202E+03  0.28902470360E+04  0.28685727158E+04 0.  0.
        1    1    3    3  502    0 -0.12787900275E+04 -0.43624352306E+03 -0.30819964641E+03  0.13858569074E+04  0.50400001928E-02 0. -1.
       -1    1    3    3    0  502  0.12787900275E+04  0.43624352306E+03  0.66149626842E+03  0.15043901286E+04  0.50400001928E-02 0.  1.
</event>
<event>
 5   0  0.2336512E-06  0.2888548E+04  0.7818609E-02  0.8276293E-01
       -1   -1    0    0    0  501  0.00000000000E+00  0.00000000000E+00  0.12811632550E+04  0.12811632550E+04  0.50400001928E-02 0.  1.
        1   -1    0    0  501    0  0.00000000000E+00  0.00000000000E+00 -0.16281511347E+04  0.16281511347E+04  0.50400001928E-02 0. -1.
    10030    2    1    2    0    0  0.00000000000E+00  0.00000000000E+00 -0.34698787971E+03  0.29093143897E+04  0.28885480140E+04 0.  0.
        4    1    3    3  502    0 -0.11954455677E+04  0.32905643021E+03 -0.91946531785E+03  0.15436276505E+04  0.12699999809E+01 0. -1.
       -4    1    3    3    0  502  0.11954455677E+04 -0.32905643021E+03  0.57247743813E+03  0.13656867392E+04  0.12699999809E+01 0.  1.
</event>
<event>
 5   0  0.2159500E-06  0.2925071E+04  0.7818609E-02  0.8265457E-01
       -3   -1    0    0    0  501  0.00000000000E+00  0.00000000000E+00  0.13327536637E+04  0.13327536675E+04  0.10100000352E+00 0.  1.
        3   -1    0    0  501    0  0.00000000000E+00  0.00000000000E+00 -0.16049557103E+04  0.16049557134E+04  0.10100000352E+00 0. -1.
    10030    2    1    2    0    0  0.00000000000E+00  0.00000000000E+00 -0.27220204659E+03  0.29377093809E+04  0.29250713586E+04 0.  0.
        4    1    3    3  502    0  0.53203532996E+03  0.88145921988E+03 -0.11793271827E+04  0.15655178585E+04  0.12699999809E+01 0. -1.
       -4    1    3    3    0  502 -0.53203532996E+03 -0.88145921988E+03  0.90712513612E+03  0.13721915224E+04  0.12699999809E+01 0.  1.
</event>
<event>
 5   0  0.2348684E-06  0.2920100E+04  0.7818609E-02  0.8266922E-01
       -1   -1    0    0    0  501  0.00000000000E+00  0.00000000000E+00  0.15828321125E+04  0.15828321125E+04  0.50400001928E-02 0.  1.
        1   -1    0    0  501    0  0.00000000000E+00  0.00000000000E+00 -0.13467917911E+04  0.13467917911E+04  0.50400001928E-02 0. -1.
    10030    2    1    2    0    0  0.00000000000E+00  0.00000000000E+00  0.23604032138E+03  0.29296239036E+04  0.29200995160E+04 0.  0.
        5    1    3    3  502    0  0.42951744714E+03  0.29054014926E+03  0.14873251039E+04  0.15751370958E+04  0.46999998093E+01 0.  1.
       -5    1    3    3    0  502 -0.42951744714E+03 -0.29054014926E+03 -0.12512847825E+04  0.13544868079E+04  0.46999998093E+01 0. -1.
</event>
<event>
 5   0  0.6733688E-06  0.2921586E+04  0.7818609E-02  0.8266484E-01
       -2   -1    0    0    0  501  0.00000000000E+00  0.00000000000E+00  0.16675630556E+04  0.16675630556E+04  0.25500000920E-02 0. -1.
        2   -1    0    0  501    0  0.00000000000E+00  0.00000000000E+00 -0.12796614787E+04  0.12796614787E+04  0.25500000920E-02 0.  1.
    10030    2    1    2    0    0  0.00000000000E+00  0.00000000000E+00  0.38790157688E+03  0.29472245343E+04  0.29215860115E+04 0.  0.
        5    1    3    3  502    0  0.81096926391E+03  0.56216865867E+03  0.12805239857E+04  0.16166225644E+04  0.46999998093E+01 0. -1.
       -5    1    3    3    0  502 -0.81096926391E+03 -0.56216865867E+03 -0.89262240878E+03  0.13306019700E+04  0.46999998093E+01 0.  1.
</event>
<event>
 5   0  0.6733688E-06  0.2886687E+04  0.7818609E-02  0.8276849E-01
       -2   -1    0    0    0  501  0.00000000000E+00  0.00000000000E+00  0.85013130306E+03  0.85013130306E+03  0.25500000920E-02 0. -1.
        2   -1    0    0  501    0  0.00000000000E+00  0.00000000000E+00 -0.24504934105E+04  0.24504934105E+04  0.25500000920E-02 0.  1.
    10030    2    1    2    0    0  0.00000000000E+00  0.00000000000E+00 -0.16003621074E+04  0.33006247135E+04  0.28866874830E+04 0.  0.
        5    1    3    3  502    0 -0.17317870392E+03 -0.24453337369E+03  0.81416654022E+03  0.86756940907E+03  0.46999998093E+01 0. -1.
       -5    1    3    3    0  502  0.17317870392E+03  0.24453337369E+03 -0.24145286476E+04  0.24330553045E+04  0.46999998093E+01 0.  1.
</event>
<event>
 5   0  0.6612533E-06  0.2858895E+04  0.7818609E-02  0.8285214E-01
       -2   -1    0    0    0  501  0.00000000000E+00  0.00000000000E+00  0.90265437886E+03  0.90265437886E+03  0.25500000920E-02 0.  1.
        2   -1    0    0  501    0  0.00000000000E+00  0.00000000000E+00 -0.22636790263E+04  0.22636790263E+04  0.25500000920E-02 0. -1.
    10030    2    1    2    0    0  0.00000000000E+00  0.00000000000E+00 -0.13610246475E+04  0.31663334052E+04  0.28588947413E+04 0.  0.
        3    1    3    3  502    0 -0.70112954393E+03  0.75324085961E+03  0.41833317869E+03  0.11108362114E+04  0.10100000352E+00 0.  1.
       -3    1    3    3    0  502  0.70112954393E+03 -0.75324085961E+03 -0.17793578262E+04  0.20554971938E+04  0.10100000352E+00 0. -1.
</event>
<event>
 5   0  0.6733688E-06  0.2798215E+04  0.7818609E-02  0.8303823E-01
        2   -1    0    0  501    0  0.00000000000E+00  0.00000000000E+00  0.24396439669E+04  0.24396439669E+04  0.25500000920E-02 0.  1.
       -2   -1    0    0    0  501  0.00000000000E+00  0.00000000000E+00 -0.80237197281E+03  0.80237197281E+03  0.25500000920E-02 0. -1.
    10030    2    1    2    0    0  0.00000000000E+00  0.00000000000E+00  0.16372719941E+04  0.32420159397E+04  0.27982151044E+04 0.  0.
        5    1    3    3  502    0  0.91628502475E+02  0.12382733642E+04  0.71573312489E+02  0.12437288836E+04  0.46999998093E+01 0. -1.
       -5    1    3    3    0  502 -0.91628502475E+02 -0.12382733642E+04  0.15656986816E+04  0.19982870561E+04  0.46999998093E+01 0.  1.
</event>
<event>
 5   0  0.2429358E-06  0.2926596E+04  0.7818609E-02  0.8265008E-01
        1   -1    0    0  501    0  0.00000000000E+00  0.00000000000E+00  0.18115686890E+04  0.18115686890E+04  0.50400001928E-02 0. -1.
       -1   -1    0    0    0  501  0.00000000000E+00  0.00000000000E+00 -0.11819814159E+04  0.11819814159E+04  0.50400001928E-02 0.  1.
    10030    2    1    2    0    0  0.00000000000E+00  0.00000000000E+00  0.62958727311E+03  0.29935501049E+04  0.29265956495E+04 0.  0.
        2    1    3    3  502    0  0.61452730019E+03 -0.10987381694E+04 -0.44817399291E+03  0.13363118257E+04  0.25500000920E-02 0.  1.
       -2    1    3    3    0  502 -0.61452730019E+03  0.10987381694E+04  0.10777612660E+04  0.16572382792E+04  0.25500000920E-02 0. -1.
</event>
<event>
 5   0  0.6612533E-06  0.2863663E+04  0.7818609E-02  0.8283772E-01
        2   -1    0    0  501    0  0.00000000000E+00  0.00000000000E+00  0.17951342046E+04  0.17951342046E+04  0.25500000920E-02 0.  1.
       -2   -1    0    0    0  501  0.00000000000E+00  0.00000000000E+00 -0.11420548529E+04  0.11420548529E+04  0.25500000920E-02 0. -1.
    10030    2    1    2    0    0  0.00000000000E+00  0.00000000000E+00  0.65307935166E+03  0.29371890575E+04  0.28636631994E+04 0.  0.
        3    1    3    3  502    0  0.81367628442E+03 -0.47786638858E+03 -0.77801152197E+03  0.12229993130E+04  0.10100000352E+00 0. -1.
       -3    1    3    3    0  502 -0.81367628442E+03  0.47786638858E+03  0.14310908736E+04  0.17141897444E+04  0.10100000352E+00 0.  1.
</event>
<event>
 5   0  0.6393633E-06  0.2893628E+04  0.7818609E-02  0.8274776E-01
       -2   -1    0    0    0  501  0.00000000000E+00  0.00000000000E+00  0.10203261075E+04  0.10203261075E+04  0.25500000920E-02 0.  1.
        2   -1    0    0  501    0  0.00000000000E+00  0.00000000000E+00 -0.20515698808E+04  0.20515698808E+04  0.25500000920E-02 0. -1.
    10030    2    1    2    0    0  0.00000000000E+00  0.00000000000E+00 -0.10312437732E+04  0.30718959883E+04  0.28936276960E+04 0.  0.
        4    1    3    3  502    0 -0.56717651290E+02 -0.99431356816E+03 -0.16297493478E+04  0.19099635895E+04  0.12699999809E+01 0. -1.
       -4    1    3    3    0  502  0.56717651290E+02  0.99431356816E+03  0.59850557453E+03  0.11619323988E+04  0.12699999809E+01 0.  1.
</event>
<event>
 5   0  0.6612533E-06  0.2919669E+04  0.7818609E-02  0.8267049E-01
        2   -1    0    0  501    0  0.00000000000E+00  0.00000000000E+00  0.93137199244E+03  0.93137199245E+03  0.25500000920E-02 0. -1.
       -2   -1    0    0    0  501  0.00000000000E+00  0.00000000000E+00 -0.22881470778E+04  0.22881470778E+04  0.25500000920E-02 0.  1.
    10030    2    1    2    0    0  0.00000000000E+00  0.00000000000E+00 -0.13567750854E+04  0.32195190703E+04  0.29196685448E+04 0.  0.
        3    1    3    3  502    0 -0.14402416602E+03  0.91049905443E+03 -0.19266152325E+04  0.21357897258E+04  0.10100000352E+00 0.  1.
       -3    1    3    3    0  502  0.14402416602E+03 -0.91049905443E+03  0.56984014715E+03  0.10837293444E+04  0.10100000352E+00 0. -1.
</event>
<event>
 5   0  0.2429358E-06  0.3146312E+04  0.7818609E-02  0.8203142E-01
        1   -1    0    0  501    0  0.00000000000E+00  0.00000000000E+00  0.14630665327E+04  0.14630665327E+04  0.50400001928E-02 0.  1.
       -1   -1    0    0    0  501  0.00000000000E+00  0.00000000000E+00 -0.16915295483E+04  0.16915295483E+04  0.50400001928E-02 0. -1.
    10030    2    1    2    0    0  0.00000000000E+00  0.00000000000E+00 -0.22846301561E+03  0.31545960811E+04  0.31463122994E+04 0.  0.
        2    1    3    3  502    0  0.99599590961E+03  0.98679804428E+03  0.60111878035E+03  0.15254907473E+04  0.25500000920E-02 0. -1.
       -2    1    3    3    0  502 -0.99599590961E+03 -0.98679804428E+03 -0.82958179596E+03  0.16291053337E+04  0.25500000920E-02 0.  1.
</event>
<event>
 5   0  0.6615403E-06  0.2892681E+04  0.7818609E-02  0.8275059E-01
       -2   -1    0    0    0  501  0.00000000000E+00  0.00000000000E+00  0.14336606578E+04  0.14336606578E+04  0.25500000920E-02 0. -1.
        2   -1    0    0  501    0  0.00000000000E+00  0.00000000000E+00 -0.14591320460E+04  0.14591320460E+04  0.25500000920E-02 0.  1.
    10030    2    1    2    0    0  0.00000000000E+00  0.00000000000E+00 -0.25471388189E+02  0.28927927039E+04  0.28926805624E+04 0.  0.
        2    1    3    3  502    0  0.40670770764E+03 -0.56200447216E+03  0.12564234392E+04  0.14352212529E+04  0.25500000920E-02 0. -1.
       -2    1    3    3    0  502 -0.40670770764E+03  0.56200447216E+03 -0.12818948274E+04  0.14575714510E+04  0.25500000920E-02 0.  1.
</event>
<event>
 5   0  0.2336512E-06  0.2871070E+04  0.7818609E-02  0.8281537E-01
       -1   -1    0    0    0  501  0.00000000000E+00  0.00000000000E+00  0.10815860729E+04  0.10815860729E+04  0.50400001928E-02 0. -1.
        1   -1    0    0  501    0  0.00000000000E+00  0.00000000000E+00 -0.19053142860E+04  0.19053142860E+04  0.50400001928E-02 0.  1.
    10030    2    1    2    0    0  0.00000000000E+00  0.00000000000E+00 -0.82372821309E+03  0.29869003589E+04  0.28710704597E+04 0.  0.
        4    1    3    3  502    0  0.79973901681E+03  0.11883777157E+04 -0.51020655217E+03  0.15205710865E+04  0.12699999809E+01 0. -1.
       -4    1    3    3    0  502 -0.79973901681E+03 -0.11883777157E+04 -0.31352166092E+03  0.14663292724E+04  0.12699999809E+01 0.  1.
</event>
<event>
 5   0  0.2336512E-06  0.2879249E+04  0.7818609E-02  0.8279079E-01
        1   -1    0    0  501    0  0.00000000000E+00  0.00000000000E+00  0.15562956491E+04  0.15562956491E+04  0.50400001928E-02 0.  1.
       -1   -1    0    0    0  501  0.00000000000E+00  0.00000000000E+00 -0.13316995143E+04  0.13316995143E+04  0.50400001928E-02 0. -1.
    10030    2    1    2    0    0  0.00000000000E+00  0.00000000000E+00  0.22459613483E+03  0.28879951634E+04  0.28792486243E+04 0.  0.
        4    1    3    3  502    0 -0.99964880505E+03  0.29459203158E+03 -0.88391305638E+03  0.13665233634E+04  0.12699999809E+01 0. -1.
       -4    1    3    3    0  502  0.99964880505E+03 -0.29459203158E+03  0.11085091912E+04  0.15214718001E+04  0.12699999809E+01 0.  1.
</event>
<event>
 5   0  0.6393633E-06  0.2789117E+04  0.7818609E-02  0.8306655E-01
       -2   -1    0    0    0  501  0.00000000000E+00  0.00000000000E+00  0.13470380141E+04  0.13470380141E+04  0.25500000920E-02 0. -1.
        2   -1    0    0  501    0  0.00000000000E+00  0.00000000000E+00 -0.14437556743E+04  0.14437556743E+04  0.25500000920E-02 0.  1.
    10030    2    1    2    0    0  0.00000000000E+00  0.00000000000E+00 -0.96717660246E+02  0.27907936884E+04  0.27891172627E+04 0.  0.
        4    1    3    3  502    0  0.38644665725E+03  0.10545726591E+04  0.77877437517E+03  0.13667317413E+04  0.12699999809E+01 0. -1.
       -4    1    3    3    0  502 -0.38644665725E+03 -0.10545726591E+04 -0.87549203541E+03  0.14240619471E+04  0.12699999809E+01 0.  1.
</event>
<event>
 5   0  0.2508094E-06  0.2897748E+04  0.7818609E-02  0.8273548E-01
       -1   -1    0    0    0  501  0.00000000000E+00  0.00000000000E+00  0.87925839251E+03  0.87925839252E+03  0.50400001928E-02 0.  1.
        1   -1    0    0  501    0  0.00000000000E+00  0.00000000000E+00 -0.23875080482E+04  0.23875080482E+04  0.50400001928E-02 0. -1.
    10030    2    1    2    0    0  0.00000000000E+00  0.00000000000E+00 -0.15082496557E+04  0.32667664408E+04  0.28977484284E+04 0.  0.
        3    1    3    3  502    0  0.27678091273E+03  0.14179566600E+04 -0.63048768161E+03  0.15763005710E+04  0.10100000352E+00 0.  1.
       -3    1    3    3    0  502 -0.27678091273E+03 -0.14179566600E+04 -0.87776197412E+03  0.16904658697E+04  0.10100000352E+00 0. -1.
</event>
<event>
 5   0  0.2429358E-06  0.2899733E+04  0.7818609E-02  0.8272957E-01
       -1   -1    0    0    0  501  0.00000000000E+00  0.00000000000E+00  0.10580305594E+04  0.10580305594E+04  0.50400001928E-02 0.  1.
        1   -1    0    0  501    0  0.00000000000E+00  0.00000000000E+00 -0.19868168707E+04  0.19868168708E+04  0.50400001928E-02 0. -1.
    10030    2    1    2    0    0  0.00000000000E+00  0.00000000000E+00 -0.92878631133E+03  0.30448474302E+04  0.28997330672E+04 0.  0.
        2    1    3    3  502    0 -0.10385257810E+04  0.96155167683E+03 -0.79477435833E+03  0.16232016836E+04  0.25500000920E-02 0. -1.
       -2    1    3    3    0  502  0.10385257810E+04 -0.96155167683E+03 -0.13401195301E+03  0.14216457465E+04  0.25500000920E-02 0.  1.
</event>
<event>
 5   0  0.6513041E-06  0.2897144E+04  0.7818609E-02  0.8273728E-01
        2   -1    0    0  501    0  0.00000000000E+00  0.00000000000E+00  0.16021705468E+04  0.16021705468E+04  0.25500000920E-02 0. -1.
       -2   -1    0    0    0  501  0.00000000000E+00  0.00000000000E+00 -0.13096987521E+04  0.13096987521E+04  0.25500000920E-02 0.  1.
    10030    2    1    2    0    0  0.00000000000E+00  0.00000000000E+00  0.29247179474E+03  0.29118692989E+04  0.28971439494E+04 0.  0.
        1    1    3    3  502    0 -0.12021076888E+04  0.37371890502E+03 -0.57408806274E+03  0.13835844099E+04  0.50400001928E-02 0.  1.
       -1    1    3    3    0  502  0.12021076888E+04 -0.37371890502E+03  0.86655985748E+03  0.15282848890E+04  0.50400001928E-02 0. -1.
</event>
<event>
 5   0  0.6612533E-06  0.2894779E+04  0.7818609E-02  0.8274433E-01
        2   -1    0    0  501    0  0.00000000000E+00  0.00000000000E+00  0.21110439497E+04  0.21110439497E+04  0.25500000920E-02 0. -1.
       -2   -1    0    0    0  501  0.00000000000E+00  0.00000000000E+00 -0.99236993387E+03  0.99236993387E+03  0.25500000920E-02 0.  1.
    10030    2    1    2    0    0  0.00000000000E+00  0.00000000000E+00  0.11186740158E+04  0.31034138835E+04  0.28947791244E+04 0.  0.
        3    1    3    3  502    0  0.21084372768E+03 -0.95969977554E+03  0.16986925540E+04  0.19624054473E+04  0.10100000352E+00 0. -1.
       -3    1    3    3    0  502 -0.21084372768E+03  0.95969977554E+03 -0.58001853816E+03  0.11410084362E+04  0.10100000352E+00 0.  1.
</event>
<event>
 5   0  0.6393633E-06  0.2892480E+04  0.7818609E-02  0.8275118E-01
        2   -1    0    0  501    0  0.00000000000E+00  0.00000000000E+00  0.16185063112E+04  0.16185063112E+04  0.25500000920E-02 0.  1.
       -2   -1    0    0    0  501  0.00000000000E+00  0.00000000000E+00 -0.12923093026E+04  0.12923093026E+04  0.25500000920E-02 0. -1.
    10030    2    1    2    0    0  0.00000000000E+00  0.00000000000E+00  0.32619700859E+03  0.29108156139E+04  0.28924804320E+04 0.  0.
        4    1    3    3  502    0 -0.66280024811E+03  0.39128570656E+03  0.13952784099E+04  0.15934905482E+04  0.12699999809E+01 0.  1.
       -4    1    3    3    0  502  0.66280024811E+03 -0.39128570656E+03 -0.10690814013E+04  0.13173250657E+04  0.12699999809E+01 0. -1.
</event>
<event>
 5   0  0.2474769E-06  0.2768277E+04  0.7818609E-02  0.8313185E-01
       -1   -1    0    0    0  501  0.00000000000E+00  0.00000000000E+00  0.95374710363E+03  0.95374710364E+03  0.50400001928E-02 0. -1.
        1   -1    0    0  501    0  0.00000000000E+00  0.00000000000E+00 -0.20087496595E+04  0.20087496595E+04  0.50400001928E-02 0.  1.
    10030    2    1    2    0    0  0.00000000000E+00  0.00000000000E+00 -0.10550025559E+04  0.29624967632E+04  0.27682768429E+04 0.  0.
        1    1    3    3  502    0  0.12729444547E+04 -0.53761031444E+03 -0.61329263769E+03  0.15118003487E+04  0.50400001928E-02 0.  1.
       -1    1    3    3    0  502 -0.12729444547E+04  0.53761031444E+03 -0.44170991820E+03  0.14506964144E+04  0.50400001928E-02 0. -1.
</event>
<event>
 5   0  0.6393633E-06  0.2931901E+04  0.7818609E-02  0.8263449E-01
       -2   -1    0    0    0  501  0.00000000000E+00  0.00000000000E+00  0.70868747382E+03  0.70868747382E+03  0.25500000920E-02 0. -1.
        2   -1    0    0  501    0  0.00000000000E+00  0.00000000000E+00 -0.30323811297E+04  0.30323811297E+04  0.25500000920E-02 0.  1.
    10030    2    1    2    0    0  0.00000000000E+00  0.00000000000E+00 -0.23236936559E+04  0.37410686036E+04  0.29319007640E+04 0.  0.
        4    1    3    3  502    0 -0.57884091132E+03 -0.13424296114E+04 -0.13006590605E+04  0.19567548816E+04  0.12699999809E+01 0.  1.
       -4    1    3    3    0  502  0.57884091132E+03  0.13424296114E+04 -0.10230345955E+04  0.17843137220E+04  0.12699999809E+01 0. -1.
</event>
<event>
 5   0  0.2508094E-06  0.2955917E+04  0.7818609E-02  0.8256432E-01
       -1   -1    0    0    0  501  0.00000000000E+00  0.00000000000E+00  0.14201259063E+04  0.14201259063E+04  0.50400001928E-02 0. -1.
        1   -1    0    0  501    0  0.00000000000E+00  0.00000000000E+00 -0.15381465847E+04  0.15381465847E+04  0.50400001928E-02 0.  1.
    10030    2    1    2    0    0  0.00000000000E+00  0.00000000000E+00 -0.11802067838E+03  0.29582724910E+04  0.29559173281E+04 0.  0.
        3    1    3    3  502    0  0.21153454491E+03  0.68619586216E+03 -0.13518407344E+04  0.15307138878E+04  0.10100000352E+00 0.  1.
       -3    1    3    3    0  502 -0.21153454491E+03 -0.68619586216E+03  0.12338200560E+04  0.14275586032E+04  0.10100000352E+00 0. -1.
</event>
<event>
 5   0  0.6612533E-06  0.2894489E+04  0.7818609E-02  0.8274519E-01
        2   -1    0    0  501    0  0.00000000000E+00  0.00000000000E+00  0.24433773206E+04  0.24433773206E+04  0.25500000920E-02 0. -1.
       -2   -1    0    0    0  501  0.00000000000E+00  0.00000000000E+00 -0.85722208011E+03  0.85722208011E+03  0.25500000920E-02 0.  1.
    10030    2    1    2    0    0  0.00000000000E+00  0.00000000000E+00  0.15861552405E+04  0.33005994007E+04  0.28944892394E+04 0.  0.
        3    1    3    3  502    0  0.86639049794E+03 -0.11583984821E+04  0.74211428551E+03  0.16258084639E+04  0.10100000352E+00 0. -1.
       -3    1    3    3    0  502 -0.86639049794E+03  0.11583984821E+04  0.84404095494E+03  0.16747909368E+04  0.10100000352E+00 0.  1.
</event>
<event>
 5   0  0.6612533E-06  0.2898785E+04  0.7818609E-02  0.8273239E-01
        2   -1    0    0  501    0  0.00000000000E+00  0.00000000000E+00  0.19570673226E+04  0.19570673226E+04  0.25500000920E-02 0.  1.
       -2   -1    0    0    0  501  0.00000000000E+00  0.00000000000E+00 -0.10734116935E+04  0.10734116935E+04  0.25500000920E-02 0. -1.
    10030    2    1    2    0    0  0.00000000000E+00  0.00000000000E+00  0.88365562907E+03  0.30304790161E+04  0.28987852277E+04 0.  0.
        3    1    3    3  502    0  0.12700383934E+04 -0.69829798817E+03  0.43031203249E+03  0.15118816278E+04  0.10100000352E+00 0.  1.
       -3    1    3    3    0  502 -0.12700383934E+04  0.69829798817E+03  0.45334359658E+03  0.15185973883E+04  0.10100000352E+00 0. -1.
</event>
<event>
 5   0  0.2474769E-06  0.2806212E+04  0.7818609E-02  0.8301342E-01
       -1   -1    0    0    0  501  0.00000000000E+00  0.00000000000E+00  0.14840116054E+04  0.14840116054E+04  0.50400001928E-02 0. -1.
        1   -1    0    0  501    0  0.00000000000E+00  0.00000000000E+00 -0.13266113785E+04  0.13266113785E+04  0.50400001928E-02 0.  1.
    10030    2    1    2    0    0  0.00000000000E+00  0.00000000000E+00  0.15740022692E+03  0.28106229840E+04  0.28062121671E+04 0.  0.
        1    1    3    3  502    0  0.13201911841E+03  0.12374490085E+04 -0.57039073625E+03  0.13689611712E+04  0.50400001928E-02 0.  1.
       -1    1    3    3    0  502 -0.13201911841E+03 -0.12374490085E+04  0.72779096317E+03  0.14416618128E+04  0.50400001928E-02 0. -1.
</event>
<event>
 5   0  0.2474769E-06  0.2896285E+04  0.7818609E-02  0.8273984E-01
       -1   -1    0    0    0  501  0.00000000000E+00  0.00000000000E+00  0.10574996591E+04  0.10574996592E+04  0.50400001928E-02 0.  1.
        1   -1    0    0  501    0  0.00000000000E+00  0.00000000000E+00 -0.19830891181E+04  0.19830891181E+04  0.50400001928E-02 0. -1.
    10030    2    1    2    0    0  0.00000000000E+00  0.00000000000E+00 -0.92558945896E+03  0.30405887773E+04  0.28962845623E+04 0.  0.
        1    1    3    3  502    0  0.59976998943E+02 -0.14168083467E+04 -0.15461653914E+03  0.14264814776E+04  0.50400001928E-02 0. -1.
       -1    1    3    3    0  502 -0.59976998943E+02  0.14168083467E+04 -0.77097291981E+03  0.16141072997E+04  0.50400001928E-02 0.  1.
</event>
<event>
 5   0  0.6513041E-06  0.2899382E+04  0.7818609E-02  0.8273061E-01
       -2   -1    0    0    0  501  0.00000000000E+00  0.00000000000E+00  0.11775800116E+04  0.11775800116E+04  0.25500000920E-02 0.  1.
        2   -1    0    0  501    0  0.00000000000E+00  0.00000000000E+00 -0.17846804778E+04  0.17846804778E+04  0.25500000920E-02 0. -1.
    10030    2    1    2    0    0  0.00000000000E+00  0.00000000000E+00 -0.60710046622E+03  0.29622604894E+04  0.28993820429E+04 0.  0.
        1    1    3    3  502    0 -0.12959417187E+04 -0.63497184954E+02 -0.96418532402E+03  0.16165241012E+04  0.50400001928E-02 0. -1.
       -1    1    3    3    0  502  0.12959417187E+04  0.63497184954E+02  0.35708485780E+03  0.13457363882E+04  0.50400001928E-02 0.  1.
</event>
<event>
 5   0  0.2336512E-06  0.2915687E+04  0.7818609E-02  0.8268226E-01
        1   -1    0    0  501    0  0.00000000000E+00  0.00000000000E+00  0.19232744310E+04  0.19232744310E+04  0.50400001928E-02 0. -1.
       -1   -1    0    0    0  501  0.00000000000E+00  0.00000000000E+00 -0.11050461895E+04  0.11050461896E+04  0.50400001928E-02 0.  1.
    10030    2    1    2    0    0  0.00000000000E+00  0.00000000000E+00  0.81822824144E+03  0.30283206205E+04  0.29156865959E+04 0.  0.
        4    1    3    3  502    0 -0.89133823513E+03  0.55342484698E+03  0.14604125486E+04  0.17982128172E+04  0.12699999809E+01 0. -1.
       -4    1    3    3    0  502  0.89133823513E+03 -0.55342484698E+03 -0.64218430720E+03  0.12301078034E+04  0.12699999809E+01 0.  1.
</event>
<event>
 5   0  0.6733688E-06  0.2797675E+04  0.7818609E-02  0.8303991E-01
       -2   -1    0    0    0  501  0.00000000000E+00  0.00000000000E+00  0.10653718288E+04  0.10653718288E+04  0.25500000920E-02 0.  1.
        2   -1    0    0  501    0  0.00000000000E+00  0.00000000000E+00 -0.18366787551E+04  0.18366787551E+04  0.25500000920E-02 0. -1.
    10030    2    1    2    0    0  0.00000000000E+00  0.00000000000E+00 -0.77130692631E+03  0.29020505839E+04  0.27976746088E+04 0.  0.
        5    1    3    3  502    0 -0.57453556081E+03  0.60071686852E+03  0.78138586834E+03  0.11408496097E+04  0.46999998093E+01 0.  1.
       -5    1    3    3    0  502  0.57453556081E+03 -0.60071686852E+03 -0.15526927946E+04  0.17612009741E+04  0.46999998093E+01 0. -1.
</event>
<event>
 5   0  0.2429358E-06  0.2892048E+04  0.7818609E-02  0.8275247E-01
       -1   -1    0    0    0  501  0.00000000000E+00  0.00000000000E+00  0.14910999497E+04  0.14910999497E+04  0.50400001928E-02 0.  1.
        1   -1    0    0  501    0  0.00000000000E+00  0.00000000000E+00 -0.14023111532E+04  0.14023111532E+04  0.50400001928E-02 0. -1.
    10030    2    1    2    0    0  0.00000000000E+00  0.00000000000E+00  0.88788796507E+02  0.28934111030E+04  0.28920484713E+04 0.  0.
        2    1    3    3  502    0 -0.10393843079E+04  0.90725981822E+03 -0.38887543056E+03  0.14334099964E+04  0.25500000920E-02 0. -1.
       -2    1    3    3    0  502  0.10393843079E+04 -0.90725981822E+03  0.47766422707E+03  0.14600011066E+04  0.25500000920E-02 0.  1.
</event>
<event>
 5   0  0.2348684E-06  0.2896039E+04  0.7818609E-02  0.8274057E-01
        1   -1    0    0  501    0  0.00000000000E+00  0.00000000000E+00  0.25398468027E+04  0.25398468027E+04  0.50400001928E-02 0.  1.
       -1   -1    0    0    0  501  0.00000000000E+00  0.00000000000E+00 -0.82554630770E+03  0.82554630771E+03  0.50400001928E-02 0. -1.
    10030    2    1    2    0    0  0.00000000000E+00  0.00000000000E+00  0.17143004950E+04  0.33653931104E+04  0.28960394680E+04 0.  0.
        5    1    3    3  502    0 -0.73755302614E+03  0.92194874217E+03 -0.11702349874E+03  0.11864613516E+04  0.46999998093E+01 0. -1.
       -5    1    3    3    0  502  0.73755302614E+03 -0.92194874217E+03  0.18313239937E+04  0.21789317588E+04  0.46999998093E+01 0.  1.
</event>
<event>
 5   0  0.2474769E-06  0.2874485E+04  0.7818609E-02  0.8280510E-01
        1   -1    0    0  501    0  0.00000000000E+00  0.00000000000E+00  0.13829518696E+04  0.13829518696E+04  0.50400001928E-02 0.  1.
       -1   -1    0    0    0  501  0.00000000000E+00  0.00000000000E+00 -0.14936639075E+04  0.14936639075E+04  0.50400001928E-02 0. -1.
    10030    2    1    2    0    0  0.00000000000E+00  0.00000000000E+00 -0.11071203793E+03  0.28766157771E+04  0.28744845058E+04 0.  0.
        1    1    3    3  502    0 -0.12515023818E+04 -0.15861444121E+03  0.63381163828E+03  0.14117839585E+04  0.50400001928E-02 0.  1.
       -1    1    3    3    0  502  0.12515023818E+04  0.15861444121E+03 -0.74452367621E+03  0.14648318187E+04  0.50400001928E-02 0. -1.
</event>
<event>
 5   0  0.6733688E-06  0.2878956E+04  0.7818609E-02  0.8279166E-01
        2   -1    0    0  501    0  0.00000000000E+00  0.00000000000E+00  0.16428418063E+04  0.16428418063E+04  0.25500000920E-02 0.  1.
       -2   -1    0    0    0  501  0.00000000000E+00  0.00000000000E+00 -0.12612879336E+04  0.12612879336E+04  0.25500000920E-02 0. -1.
    10030    2    1    2    0    0  0.00000000000E+00  0.00000000000E+00  0.38155387270E+03  0.29041297399E+04  0.28789557462E+04 0.  0.
        5    1    3    3  502    0 -0.81735134288E+02  0.13324046212E+04  0.73408820695E+03  0.15234468460E+04  0.46999998093E+01 0.  1.
       -5    1    3    3    0  502  0.81735134288E+02 -0.13324046212E+04 -0.35253433426E+03  0.13806828940E+04  0.46999998093E+01 0. -1.
</event>
<event>
 5   0  0.2429358E-06  0.2791493E+04  0.7818609E-02  0.8305914E-01
        1   -1    0    0  501    0  0.00000000000E+00  0.00000000000E+00  0.18367915440E+04  0.18367915440E+04  0.50400001928E-02 0.  1.
       -1   -1    0    0    0  501  0.00000000000E+00  0.00000000000E+00 -0.10606038182E+04  0.10606038182E+04  0.50400001928E-02 0. -1.
    10030    2    1    2    0    0  0.00000000000E+00  0.00000000000E+00  0.77618772574E+03  0.28973953622E+04  0.27914928800E+04 0.  0.
        2    1    3    3  502    0  0.80702723909E+03  0.13751504525E+03  0.15614246929E+04  0.17630230922E+04  0.25500000920E-02 0.  1.
       -2    1    3    3    0  502 -0.80702723909E+03 -0.13751504525E+03 -0.78523696712E+03  0.11343722700E+04  0.25500000920E-02 0. -1.
</event>
<event>
 5   0  0.2508094E-06  0.2870305E+04  0.7818609E-02  0.8281768E-01
        1   -1    0    0  501    0  0.00000000000E+00  0.00000000000E+00  0.12679571912E+04  0.12679571913E+04  0.50400001928E-02 0. -1.
       -1   -1    0    0    0  501  0.00000000000E+00  0.00000000000E+00 -0.16243940321E+04  0.16243940321E+04  0.50400001928E-02 0.  1.
    10030    2    1    2    0    0  0.00000000000E+00  0.00000000000E+00 -0.35643684086E+03  0.28923512234E+04  0.28703045793E+04 0.  0.
        3    1    3    3  502    0  0.92340531098E+03 -0.38728166039E+02 -0.12845974171E+04  0.15825194385E+04  0.10100000352E+00 0.  1.
       -3    1    3    3    0  502 -0.92340531098E+03  0.38728166039E+02  0.92816057620E+03  0.13098317848E+04  0.10100000352E+00 0. -1.
</event>
<event>
 5   0  0.6612533E-06  0.2915830E+04  0.7818609E-02  0.8268183E-01
       -2   -1    0    0    0  501  0.00000000000E+00  0.00000000000E+00  0.13596553446E+04  0.13596553446E+04  0.25500000920E-02 0. -1.
        2   -1    0    0  501    0  0.00000000000E+00  0.00000000000E+00 -0.15632760326E+04  0.15632760326E+04  0.25500000920E-02 0.  1.
    10030    2    1    2    0    0  0.00000000000E+00  0.00000000000E+00 -0.20362068795E+03  0.29229313772E+04  0.29158303194E+04 0.  0.
        3    1    3    3  502    0  0.41979585053E+03 -0.88903420503E+02  0.12949185596E+04  0.13641651148E+04  0.10100000352E+00 0. -1.
       -3    1    3    3    0  502 -0.41979585053E+03  0.88903420503E+02 -0.14985392475E+04  0.15587662624E+04  0.10100000352E+00 0.  1.
</event>
<event>
 5   0  0.6733688E-06  0.2903053E+04  0.7818609E-02  0.8271970E-01
       -2   -1    0    0    0  501  0.00000000000E+00  0.00000000000E+00  0.76961613713E+03  0.76961613714E+03  0.25500000920E-02 0.  1.
        2   -1    0    0  501    0  0.00000000000E+00  0.00000000000E+00 -0.27376357560E+04  0.27376357560E+04  0.25500000920E-02 0. -1.
    10030    2    1    2    0    0  0.00000000000E+00  0.00000000000E+00 -0.19680196189E+04  0.35072518932E+04  0.29030526385E+04 0.  0.
        5    1    3    3  502    0 -0.77226525775E+03 -0.25594622042E+02  0.50048976945E+03  0.92063066010E+03  0.46999998093E+01 0.  1.
       -5    1    3    3    0  502  0.77226525775E+03  0.25594622042E+02 -0.24685093883E+04  0.25866212331E+04  0.46999998093E+01 0. -1.
</event>
<event>
 5   0  0.6513041E-06  0.2897984E+04  0.7818609E-02  0.8273478E-01
        2   -1    0    0  501    0  0.00000000000E+00  0.00000000000E+00  0.20627701406E+04  0.20627701406E+04  0.25500000920E-02 0.  1.
       -2   -1    0    0    0  501  0.00000000000E+00  0.00000000000E+00 -0.10178434640E+04  0.10178434640E+04  0.25500000920E-02 0. -1.
    10030    2    1    2    0    0  0.00000000000E+00  0.00000000000E+00  0.10449266766E+04  0.30806136046E+04  0.28979835096E+04 0.  0.
        1    1    3    3  502    0 -0.49783176131E+03 -0.23818666495E+03  0.19466748238E+04  0.20233912671E+04  0.50400001928E-02 0.  1.
       -1    1    3    3    0  502  0.49783176131E+03  0.23818666495E+03 -0.90174814727E+03  0.10572223376E+04  0.50400001928E-02 0. -1.
</event>
<event>
 5   0  0.2336512E-06  0.2894254E+04  0.7818609E-02  0.8274589E-01
       -1   -1    0    0    0  501  0.00000000000E+00  0.00000000000E+00  0.11195963165E+04  0.11195963165E+04  0.50400001928E-02 0. -1.
        1   -1    0    0  501    0  0.00000000000E+00  0.00000000000E+00 -0.18704751052E+04  0.18704751052E+04  0.50400001928E-02 0.  1.
    10030    2    1    2    0    0  0.00000000000E+00  0.00000000000E+00 -0.75087878869E+03  0.29900714217E+04  0.28942543343E+04 0.  0.
        4    1    3    3  502    0 -0.20459564144E+01  0.11585941814E+04 -0.12712267242E+04  0.17199894361E+04  0.12699999809E+01 0.  1.
       -4    1    3    3    0  502  0.20459564144E+01 -0.11585941814E+04  0.52034793551E+03  0.12700819856E+04  0.12699999809E+01 0. -1.
</event>
<event>
 5   0  0.2348684E-06  0.2799755E+04  0.7818609E-02  0.8303344E-01
        1   -1    0    0  501    0  0.00000000000E+00  0.00000000000E+00  0.68440685597E+03  0.68440685599E+03  0.50400001928E-02 0.  1.
       -1   -1    0    0    0  501  0.00000000000E+00  0.00000000000E+00 -0.28632929379E+04  0.28632929379E+04  0.50400001928E-02 0. -1.
    10030    2    1    2    0    0  0.00000000000E+00  0.00000000000E+00 -0.21788860819E+04  0.35476997939E+04  0.27997552160E+04 0.  0.
        5    1    3    3  502    0 -0.12132607963E+04 -0.53441961202E+02 -0.20718018837E+03  0.12319916897E+04  0.46999998093E+01 0.  1.
       -5    1    3    3    0  502  0.12132607963E+04  0.53441961202E+02 -0.19717058935E+04  0.23157081042E+04  0.46999998093E+01 0. -1.
</event>
<event>
 5   0  0.2474769E-06  0.2372904E+04  0.7818609E-02  0.8449718E-01
       -1   -1    0    0    0  501  0.00000000000E+00  0.00000000000E+00  0.13168828663E+04  0.13168828663E+04  0.50400001928E-02 0. -1.
        1   -1    0    0  501    0  0.00000000000E+00  0.00000000000E+00 -0.10689400727E+04  0.10689400727E+04  0.50400001928E-02 0.  1.
    10030    2    1    2    0    0  0.00000000000E+00  0.00000000000E+00  0.24794279365E+03  0.23858229390E+04  0.23729044371E+04 0.  0.
        1    1    3    3  502    0 -0.51022095025E+02  0.99269461676E+02 -0.10636497890E+04  0.10694898569E+04  0.50400001928E-02 0.  1.
       -1    1    3    3    0  502  0.51022095025E+02 -0.99269461676E+02  0.13115925827E+04  0.13163330822E+04  0.50400001928E-02 0. -1.
</event>
<event>
 5   0  0.6615403E-06  0.2909745E+04  0.7818609E-02  0.8269984E-01
        2   -1    0    0  501    0  0.00000000000E+00  0.00000000000E+00  0.20567671392E+04  0.20567671392E+04  0.25500000920E-02 0.  1.
       -2   -1    0    0    0  501  0.00000000000E+00  0.00000000000E+00 -0.10291166451E+04  0.10291166451E+04  0.25500000920E-02 0. -1.
    10030    2    1    2    0    0  0.00000000000E+00  0.00000000000E+00  0.10276504941E+04  0.30858837842E+04  0.29097445235E+04 0.  0.
        2    1    3    3  502    0 -0.70501399465E+02  0.14138002655E+04  0.87009477837E+03  0.16615855565E+04  0.25500000920E-02 0.  1.
       -2    1    3    3    0  502  0.70501399465E+02 -0.14138002655E+04  0.15755571576E+03  0.14242982278E+04  0.25500000920E-02 0. -1.
</event>
<event>
 5   0  0.2508094E-06  0.2934765E+04  0.7818609E-02  0.8262608E-01
        1   -1    0    0  501    0  0.00000000000E+00  0.00000000000E+00  0.17208666944E+04  0.17208666944E+04  0.50400001928E-02 0. -1.
       -1   -1    0    0    0  501  0.00000000000E+00  0.00000000000E+00 -0.12512368632E+04  0.12512368632E+04  0.50400001928E-02 0.  1.
    10030    2    1    2    0    0  0.00000000000E+00  0.00000000000E+00  0.46962983119E+03  0.29721035576E+04  0.29347653021E+04 0.  0.
        3    1    3    3  502    0 -0.22789501226E+03 -0.12591725684E+04  0.96211635944E+03  0.16009745759E+04  0.10100000352E+00 0. -1.
       -3    1    3    3    0  502  0.22789501226E+03  0.12591725684E+04 -0.49248652826E+03  0.13711289816E+04  0.10100000352E+00 0.  1.
</event>
<event>
 5   0  0.2429358E-06  0.2898885E+04  0.7818609E-02  0.8273209E-01
       -1   -1    0    0    0  501  0.00000000000E+00  0.00000000000E+00  0.14221812166E+04  0.14221812166E+04  0.50400001928E-02 0. -1.
        1   -1    0    0  501    0  0.00000000000E+00  0.00000000000E+00 -0.14772268506E+04  0.14772268506E+04  0.50400001928E-02 0.  1.
    10030    2    1    2    0    0  0.00000000000E+00  0.00000000000E+00 -0.55045633966E+02  0.28994080672E+04  0.28988854959E+04 0.  0.
        2    1    3    3  502    0  0.28598183391E+03 -0.32641414455E+03  0.13556771237E+04  0.14234438053E+04  0.25500000920E-02 0. -1.
       -2    1    3    3    0  502 -0.28598183391E+03  0.32641414455E+03 -0.14107227577E+04  0.14759642618E+04  0.25500000920E-02 0.  1.
</event>
<event>
 5   0  0.2336512E-06  0.3055493E+04  0.7818609E-02  0.8228060E-01
       -1   -1    0    0    0  501  0.00000000000E+00  0.00000000000E+00  0.12103792580E+04  0.12103792580E+04  0.50400001928E-02 0. -1.
        1   -1    0    0  501    0  0.00000000000E+00  0.00000000000E+00 -0.19283294981E+04  0.19283294981E+04  0.50400001928E-02 0.  1.
    10030    2    1    2    0    0  0.00000000000E+00  0.00000000000E+00 -0.71795024004E+03  0.31387087561E+04  0.30554934313E+04 0.  0.
        4    1    3    3  502    0  0.22705808254E+02 -0.22816551739E+03 -0.19105529237E+04  0.19242632731E+04  0.12699999809E+01 0.  1.
       -4    1    3    3    0  502 -0.22705808254E+02  0.22816551739E+03  0.11926026837E+04  0.12144454830E+04  0.12699999809E+01 0. -1.
</event>
<event>
 5   0  0.6513041E-06  0.2898632E+04  0.7818609E-02  0.8273285E-01
       -2   -1    0    0    0  501  0.00000000000E+00  0.00000000000E+00  0.11646280727E+04  0.11646280728E+04  0.25500000920E-02 0. -1.
        2   -1    0    0  501    0  0.00000000000E+00  0.00000000000E+00 -0.18035948325E+04  0.18035948325E+04  0.25500000920E-02 0.  1.
    10030    2    1    2    0    0  0.00000000000E+00  0.00000000000E+00 -0.63896675980E+03  0.29682229053E+04  0.28986322111E+04 0.  0.
        1    1    3    3  502    0 -0.71017242165E+03 -0.12633861129E+04 -0.31408082506E+03  0.14829484494E+04  0.50400001928E-02 0.  1.
       -1    1    3    3    0  502  0.71017242165E+03  0.12633861129E+04 -0.32488593474E+03  0.14852744559E+04  0.50400001928E-02 0. -1.
</event>
<event>
 5   0  0.6612533E-06  0.2913380E+04  0.7818609E-02  0.8268908E-01
       -2   -1    0    0    0  501  0.00000000000E+00  0.00000000000E+00  0.16229832238E+04  0.16229832238E+04  0.25500000920E-02 0.  1.
        2   -1    0    0  501    0  0.00000000000E+00  0.00000000000E+00 -0.13074357710E+04  0.13074357710E+04  0.25500000920E-02 0. -1.
    10030    2    1    2    0    0  0.00000000000E+00  0.00000000000E+00  0.31554745281E+03  0.29304189948E+04  0.29133803889E+04 0.  0.
        3    1    3    3  502    0  0.33233042592E+03  0.92071528326E+03 -0.92732467516E+03  0.13483661254E+04  0.10100000352E+00 0. -1.
       -3    1    3    3    0  502 -0.33233042592E+03 -0.92071528326E+03  0.12428721280E+04  0.15820528694E+04  0.10100000352E+00 0.  1.
</event>
<event>
 5   0  0.2429358E-06  0.2942883E+04  0.7818609E-02  0.8260232E-01
       -1   -1    0    0    0  501  0.00000000000E+00  0.00000000000E+00  0.11465897914E+04  0.11465897914E+04  0.50400001928E-02 0. -1.
        1   -1    0    0  501    0  0.00000000000E+00  0.00000000000E+00 -0.18883301899E+04  0.18883301899E+04  0.50400001928E-02 0.  1.
    10030    2    1    2    0    0  0.00000000000E+00  0.00000000000E+00 -0.74174039853E+03  0.30349199813E+04  0.29428830208E+04 0.  0.
        2    1    3    3  502    0 -0.13059564814E+04  0.67737182426E+03 -0.34197244487E+03  0.15103973228E+04  0.25500000920E-02 0.  1.
       -2    1    3    3    0  502  0.13059564814E+04 -0.67737182426E+03 -0.39976795367E+03  0.15245226585E+04  0.25500000920E-02 0. -1.
</event>
<event>
 5   0  0.2348684E-06  0.2910346E+04  0.7818609E-02  0.8269806E-01
       -1   -1    0    0    0  501  0.00000000000E+00  0.00000000000E+00  0.77990914987E+03  0.77990914989E+03  0.50400001928E-02 0. -1.
        1   -1    0    0  501    0  0.00000000000E+00  0.00000000000E+00 -0.27150966778E+04  0.27150966778E+04  0.50400001928E-02 0.  1.
    10030    2    1    2    0    0  0.00000000000E+00  0.00000000000E+00 -0.19351875280E+04  0.34950058277E+04  0.29103461937E+04 0.  0.
        5    1    3    3  502    0  0.70468375815E+03 -0.38821151342E+01  0.56132010973E+03  0.90094207661E+03  0.46999998093E+01 0. -1.
       -5    1    3    3    0  502 -0.70468375815E+03  0.38821151342E+01 -0.24965076377E+04  0.25940637511E+04  0.46999998093E+01 0.  1.
</event>
<event>
 5   0  0.6733688E-06  0.2906432E+04  0.7818609E-02  0.8270966E-01
        2   -1    0    0  501    0  0.00000000000E+00  0.00000000000E+00  0.16333276903E+04  0.16333276903E+04  0.25500000920E-02 0.  1.
       -2   -1    0    0    0  501  0.00000000000E+00  0.00000000000E+00 -0.12929658067E+04  0.12929658067E+04  0.25500000920E-02 0. -1.
    10030    2    1    2    0    0  0.00000000000E+00  0.00000000000E+00  0.34036188361E+03  0.29262934970E+04  0.29064320771E+04 0.  0.
        5    1    3    3  502    0  0.12167667139E+04  0.92233599736E+02 -0.62438015295E+03  0.13707300750E+04  0.46999998093E+01 0. -1.
       -5    1    3    3    0  502 -0.12167667139E+04 -0.92233599736E+02  0.96474203656E+03  0.15555634221E+04  0.46999998093E+01 0.  1.
</event>
<event>
 5   0  0.6513041E-06  0.2914890E+04  0.7818609E-02  0.8268461E-01
       -2   -1    0    0    0  501  0.00000000000E+00  0.00000000000E+00  0.94065212545E+03  0.94065212546E+03  0.25500000920E-02 0.  1.
        2   -1    0    0  501    0  0.00000000000E+00  0.00000000000E+00 -0.22581629994E+04  0.22581629994E+04  0.25500000920E-02 0. -1.
    10030    2    1    2    0    0  0.00000000000E+00  0.00000000000E+00 -0.13175108740E+04  0.31988151249E+04  0.29148899293E+04 0.  0.
        1    1    3    3  502    0  0.37698386219E+03  0.67873947382E+02 -0.22019357529E+04  0.22350044217E+04  0.50400001928E-02 0. -1.
       -1    1    3    3    0  502 -0.37698386219E+03 -0.67873947382E+02  0.88442487893E+03  0.96381070319E+03  0.50400001928E-02 0.  1.
</event>
<event>
 5   0  0.2159500E-06  0.2887095E+04  0.7818609E-02  0.8276728E-01
        3   -1    0    0  501    0  0.00000000000E+00  0.00000000000E+00  0.22797127484E+04  0.22797127506E+04  0.10100000352E+00 0. -1.
       -3   -1    0    0    0  501  0.00000000000E+00  0.00000000000E+00 -0.91407527183E+03  0.91407527741E+03  0.10100000352E+00 0.  1.
    10030    2    1    2    0    0  0.00000000000E+00  0.00000000000E+00  0.13656374766E+04  0.31937880281E+04  0.28870947769E+04 0.  0.
        4    1    3    3  502    0  0.92346608703E+03 -0.52242101781E+03 -0.39999477475E+03  0.11338918672E+04  0.12699999809E+01 0.  1.
       -4    1    3    3    0  502 -0.92346608703E+03  0.52242101781E+03  0.17656322513E+04  0.20598961609E+04  0.12699999809E+01 0. -1.
</event>
<event>
 5   0  0.2336512E-06  0.2860880E+04  0.7818609E-02  0.8284613E-01
       -1   -1    0    0    0  501  0.00000000000E+00  0.00000000000E+00  0.92668060841E+03  0.92668060842E+03  0.50400001928E-02 0. -1.
        1   -1    0    0  501    0  0.00000000000E+00  0.00000000000E+00 -0.22080508925E+04  0.22080508925E+04  0.50400001928E-02 0.  1.
    10030    2    1    2    0    0  0.00000000000E+00  0.00000000000E+00 -0.12813702841E+04  0.31347315009E+04  0.28608795462E+04 0.  0.
        4    1    3    3  502    0  0.75650459393E+03 -0.35895078733E+03  0.63007553760E+03  0.10479225469E+04  0.12699999809E+01 0. -1.
       -4    1    3    3    0  502 -0.75650459393E+03  0.35895078733E+03 -0.19114458217E+04  0.20868089540E+04  0.12699999809E+01 0.  1.
</event>
<event>
 5   0  0.6393633E-06  0.3208737E+04  0.7818609E-02  0.8186514E-01
       -2   -1    0    0    0  501  0.00000000000E+00  0.00000000000E+00  0.14306100020E+04  0.14306100020E+04  0.25500000920E-02 0.  1.
        2   -1    0    0  501    0  0.00000000000E+00  0.00000000000E+00 -0.17992309588E+04  0.17992309588E+04  0.25500000920E-02 0. -1.
    10030    2    1    2    0    0  0.00000000000E+00  0.00000000000E+00 -0.36862095684E+03  0.32298409608E+04  0.32087367020E+04 0.  0.
        4    1    3    3  502    0  0.15887585363E+04 -0.14368068639E+03 -0.12311315159E+02  0.15952902581E+04  0.12699999809E+01 0.  1.
       -4    1    3    3    0  502 -0.15887585363E+04  0.14368068639E+03 -0.35630964168E+03  0.16345507027E+04  0.12699999809E+01 0. -1.
</event>
<event>
 5   0  0.6513041E-06  0.2887876E+04  0.7818609E-02  0.8276494E-01
        2   -1    0    0  501    0  0.00000000000E+00  0.00000000000E+00  0.24989130093E+04  0.24989130093E+04  0.25500000920E-02 0.  1.
       -2   -1    0    0    0  501  0.00000000000E+00  0.00000000000E+00 -0.83434554539E+03  0.83434554540E+03  0.25500000920E-02 0. -1.
    10030    2    1    2    0    0  0.00000000000E+00  0.00000000000E+00  0.16645674639E+04  0.33332585547E+04  0.28878759929E+04 0.  0.
        1    1    3    3  502    0 -0.50466908185E+03  0.99468685324E+03  0.18906923623E+04  0.21951789055E+04  0.50400001928E-02 0.  1.
       -1    1    3    3    0  502  0.50466908185E+03 -0.99468685324E+03 -0.22612489842E+03  0.11380796492E+04  0.50400001928E-02 0. -1.
</event>
<event>
 5   0  0.6733688E-06  0.2909990E+04  0.7818609E-02  0.8269911E-01
       -2   -1    0    0    0  501  0.00000000000E+00  0.00000000000E+00  0.10481333887E+04  0.10481333887E+04  0.25500000920E-02 0. -1.
        2   -1    0    0  501    0  0.00000000000E+00  0.00000000000E+00 -0.20197910301E+04  0.20197910301E+04  0.25500000920E-02 0.  1.
    10030    2    1    2    0    0  0.00000000000E+00  0.00000000000E+00 -0.97165764138E+03  0.30679244188E+04  0.29099899772E+04 0.  0.
        5    1    3    3  502    0 -0.67115952021E+03  0.41836594062E+03 -0.17733822285E+04  0.19417496698E+04  0.46999998093E+01 0.  1.
       -5    1    3    3    0  502  0.67115952021E+03 -0.41836594062E+03  0.80172458708E+03  0.11261747490E+04  0.46999998093E+01 0. -1.
</event>
<event>
 5   0  0.6733688E-06  0.2895063E+04  0.7818609E-02  0.8274348E-01
        2   -1    0    0  501    0  0.00000000000E+00  0.00000000000E+00  0.15799600926E+04  0.15799600926E+04  0.25500000920E-02 0. -1.
       -2   -1    0    0    0  501  0.00000000000E+00  0.00000000000E+00 -0.13262026150E+04  0.13262026150E+04  0.25500000920E-02 0.  1.
    10030    2    1    2    0    0  0.00000000000E+00  0.00000000000E+00  0.25375747753E+03  0.29061627076E+04  0.28950628362E+04 0.  0.
        5    1    3    3  502    0 -0.10575812535E+04  0.98773520701E+03  0.16202969745E+03  0.14561506309E+04  0.46999998093E+01 0.  1.
       -5    1    3    3    0  502  0.10575812535E+04 -0.98773520701E+03  0.91727780083E+02  0.14500120767E+04  0.46999998093E+01 0. -1.
</event>
<event>
 5   0  0.6733688E-06  0.2908327E+04  0.7818609E-02  0.8270404E-01
        2   -1    0    0  501    0  0.00000000000E+00  0.00000000000E+00  0.13240245164E+04  0.13240245164E+04  0.25500000920E-02 0. -1.
       -2   -1    0    0    0  501  0.00000000000E+00  0.00000000000E+00 -0.15970939210E+04  0.15970939210E+04  0.25500000920E-02 0.  1.
    10030    2    1    2    0    0  0.00000000000E+00  0.00000000000E+00 -0.27306940461E+03  0.29211184375E+04  0.29083270150E+04 0.  0.
        5    1    3    3  502    0 -0.12050927787E+04 -0.17454801083E+02 -0.95375701884E+03  0.15369540710E+04  0.46999998093E+01 0.  1.
       -5    1    3    3    0  502  0.12050927787E+04  0.17454801083E+02  0.68068761424E+03  0.13841643665E+04  0.46999998093E+01 0. -1.
</event>
<event>
 5   0  0.2348684E-06  0.3051414E+04  0.7818609E-02  0.8229200E-01
        1   -1    0    0  501    0  0.00000000000E+00  0.00000000000E+00  0.14294461587E+04  0.14294461587E+04  0.50400001928E-02 0.  1.
       -1   -1    0    0    0  501  0.00000000000E+00  0.00000000000E+00 -0.16284497739E+04  0.16284497739E+04  0.50400001928E-02 0. -1.
    10030    2    1    2    0    0  0.00000000000E+00  0.00000000000E+00 -0.19900361520E+03  0.30578959327E+04  0.30514136226E+04 0.  0.
        5    1    3    3  502    0  0.90968473360E+03  0.11325737512E+04 -0.56687177631E+03  0.15593637540E+04  0.46999998093E+01 0. -1.
       -5    1    3    3    0  502 -0.90968473360E+03 -0.11325737512E+04  0.36786816111E+03  0.14985321787E+04  0.46999998093E+01 0.  1.
</event>
<event>
 5   0  0.6513041E-06  0.2964257E+04  0.7818609E-02  0.8254012E-01
        2   -1    0    0  501    0  0.00000000000E+00  0.00000000000E+00  0.12192462491E+04  0.12192462491E+04  0.25500000920E-02 0. -1.
       -2   -1    0    0    0  501  0.00000000000E+00  0.00000000000E+00 -0.18016907994E+04  0.18016907994E+04  0.25500000920E-02 0.  1.
    10030    2    1    2    0    0  0.00000000000E+00  0.00000000000E+00 -0.58244455033E+03  0.30209370485E+04  0.29642569047E+04 0.  0.
        1    1    3    3  502    0 -0.13134900023E+04  0.47609120545E+03 -0.79544110298E+03  0.16076832307E+04  0.50400001928E-02 0.  1.
       -1    1    3    3    0  502  0.13134900023E+04 -0.47609120545E+03  0.21299655265E+03  0.14132538178E+04  0.50400001928E-02 0. -1.
</event>
<event>
 5   0  0.2429358E-06  0.2899908E+04  0.7818609E-02  0.8272905E-01
        1   -1    0    0  501    0  0.00000000000E+00  0.00000000000E+00  0.11236527088E+04  0.11236527088E+04  0.50400001928E-02 0.  1.
       -1   -1    0    0    0  501  0.00000000000E+00  0.00000000000E+00 -0.18710109802E+04  0.18710109802E+04  0.50400001928E-02 0. -1.
    10030    2    1    2    0    0  0.00000000000E+00  0.00000000000E+00 -0.74735827136E+03  0.29946636890E+04  0.28999079683E+04 0.  0.
        2    1    3    3  502    0  0.28936435384E+03 -0.98166389160E+02  0.10900260578E+04  0.11320446881E+04  0.25500000920E-02 0.  1.
       -2    1    3    3    0  502 -0.28936435384E+03  0.98166389160E+02 -0.18373843292E+04  0.18626190009E+04  0.25500000920E-02 0. -1.
</event>
<event>
 5   0  0.2336512E-06  0.2849280E+04  0.7818609E-02  0.8288130E-01
       -1   -1    0    0    0  501  0.00000000000E+00  0.00000000000E+00  0.10215949376E+04  0.10215949376E+04  0.50400001928E-02 0. -1.
        1   -1    0    0  501    0  0.00000000000E+00  0.00000000000E+00 -0.19866965716E+04  0.19866965716E+04  0.50400001928E-02 0.  1.
    10030    2    1    2    0    0  0.00000000000E+00  0.00000000000E+00 -0.96510163409E+03  0.30082915092E+04  0.28492800214E+04 0.  0.
        4    1    3    3  502    0 -0.48635726590E+03 -0.12669987215E+04 -0.94005601639E+03  0.16509197671E+04  0.12699999809E+01 0. -1.
       -4    1    3    3    0  502  0.48635726590E+03  0.12669987215E+04 -0.25045617697E+02  0.13573717421E+04  0.12699999809E+01 0.  1.
</event>
<event>
 5   0  0.2508094E-06  0.2902417E+04  0.7818609E-02  0.8272159E-01
        1   -1    0    0  501    0  0.00000000000E+00  0.00000000000E+00  0.17420665388E+04  0.17420665388E+04  0.50400001928E-02 0.  1.
       -1   -1    0    0    0  501  0.00000000000E+00  0.00000000000E+00 -0.12089128855E+04  0.12089128855E+04  0.50400001928E-02 0. -1.
    10030    2    1    2    0    0  0.00000000000E+00  0.00000000000E+00  0.53315365331E+03  0.29509794243E+04  0.29024173966E+04 0.  0.
        3    1    3    3  502    0  0.73473393006E+03  0.10528006798E+04  0.95449433023E+03  0.15997758143E+04  0.10100000352E+00 0.  1.
       -3    1    3    3    0  502 -0.73473393006E+03 -0.10528006798E+04 -0.42134067692E+03  0.13512036100E+04  0.10100000352E+00 0. -1.
</event>
<event>
 5   0  0.6513041E-06  0.2742557E+04  0.7818609E-02  0.8321327E-01
       -2   -1    0    0    0  501  0.00000000000E+00  0.00000000000E+00  0.10795173029E+04  0.10795173030E+04  0.25500000920E-02 0.  1.
        2   -1    0    0  501    0  0.00000000000E+00  0.00000000000E+00 -0.17418937881E+04  0.17418937881E+04  0.25500000920E-02 0. -1.
    10030    2    1    2    0    0  0.00000000000E+00  0.00000000000E+00 -0.66237648515E+03  0.28214110910E+04  0.27425568247E+04 0.  0.
        1    1    3    3  502    0  0.94580925015E+03 -0.93390671203E+03 -0.67802816390E+03  0.14921323921E+04  0.50400001928E-02 0. -1.
       -1    1    3    3    0  502 -0.94580925015E+03  0.93390671203E+03  0.15651678754E+02  0.13292786990E+04  0.50400001928E-02 0.  1.
</event>
<event>
 5   0  0.2336512E-06  0.2882002E+04  0.7818609E-02  0.8278253E-01
       -1   -1    0    0    0  501  0.00000000000E+00  0.00000000000E+00  0.14598257939E+04  0.14598257939E+04  0.50400001928E-02 0. -1.
        1   -1    0    0  501    0  0.00000000000E+00  0.00000000000E+00 -0.14224184807E+04  0.14224184807E+04  0.50400001928E-02 0.  1.
    10030    2    1    2    0    0  0.00000000000E+00  0.00000000000E+00  0.37407313219E+02  0.28822442746E+04  0.28820015183E+04 0.  0.
        4    1    3    3  502    0 -0.10073012628E+04 -0.85875744287E+03  0.58827897275E+03  0.14485143915E+04  0.12699999809E+01 0. -1.
       -4    1    3    3    0  502  0.10073012628E+04  0.85875744287E+03 -0.55087165953E+03  0.14337298831E+04  0.12699999809E+01 0.  1.
</event>
<event>
 5   0  0.2336512E-06  0.2873118E+04  0.7818609E-02  0.8280921E-01
        1   -1    0    0  501    0  0.00000000000E+00  0.00000000000E+00  0.24129866101E+04  0.24129866101E+04  0.50400001928E-02 0. -1.
       -1   -1    0    0    0  501  0.00000000000E+00  0.00000000000E+00 -0.85524786253E+03  0.85524786255E+03  0.50400001928E-02 0.  1.
    10030    2    1    2    0    0  0.00000000000E+00  0.00000000000E+00  0.15577387475E+04  0.32682344726E+04  0.28731179166E+04 0.  0.
        4    1    3    3  502    0  0.12091522400E+04 -0.59415508029E+03  0.21166826605E+03  0.13637721462E+04  0.12699999809E+01 0.  1.
       -4    1    3    3    0  502 -0.12091522400E+04  0.59415508029E+03  0.13460704815E+04  0.19044623265E+04  0.12699999809E+01 0. -1.
</event>
<event>
 5   0  0.2348684E-06  0.2924185E+04  0.7818609E-02  0.8265718E-01
        1   -1    0    0  501    0  0.00000000000E+00  0.00000000000E+00  0.13340709830E+04  0.13340709830E+04  0.50400001928E-02 0.  1.
       -1   -1    0    0    0  501  0.00000000000E+00  0.00000000000E+00 -0.16023997485E+04  0.16023997486E+04  0.50400001928E-02 0. -1.
    10030    2    1    2    0    0  0.00000000000E+00  0.00000000000E+00 -0.26832876557E+03  0.29364707315E+04  0.29241853619E+04 0.  0.
        5    1    3    3  502    0  0.11606543933E+03 -0.12875623387E+04  0.55164331546E+03  0.14055676432E+04  0.46999998093E+01 0.  1.
       -5    1    3    3    0  502 -0.11606543933E+03  0.12875623387E+04 -0.81997208103E+03  0.15309030883E+04  0.46999998093E+01 0. -1.
</event>
<event>
 5   0  0.6615403E-06  0.2898633E+04  0.7818609E-02  0.8273284E-01
       -2   -1    0    0    0  501  0.00000000000E+00  0.00000000000E+00  0.15787263086E+04  0.15787263086E+04  0.25500000920E-02 0. -1.
        2   -1    0    0  501    0  0.00000000000E+00  0.00000000000E+00 -0.13305145845E+04  0.13305145845E+04  0.25500000920E-02 0.  1.
    10030    2    1    2    0    0  0.00000000000E+00  0.00000000000E+00  0.24821172415E+03  0.29092408931E+04  0.28986330424E+04 0.  0.
        2    1    3    3  502    0  0.35787298274E+03  0.13816935895E+04  0.37675737061E+03  0.14761762643E+04  0.25500000920E-02 0. -1.
       -2    1    3    3    0  502 -0.35787298274E+03 -0.13816935895E+04 -0.12854564645E+03  0.14330646288E+04  0.25500000920E-02 0.  1.
</event>
<event>
 5   0  0.6393633E-06  0.2896436E+04  0.7818609E-02  0.8273939E-01
        2   -1    0    0  501    0  0.00000000000E+00  0.00000000000E+00  0.17007954676E+04  0.17007954676E+04  0.25500000920E-02 0.  1.
       -2   -1    0    0    0  501  0.00000000000E+00  0.00000000000E+00 -0.12331500657E+04  0.12331500657E+04  0.25500000920E-02 0. -1.
    10030    2    1    2    0    0  0.00000000000E+00  0.00000000000E+00  0.46764540191E+03  0.29339455332E+04  0.28964364606E+04 0.  0.
        4    1    3    3  502    0 -0.72203118733E+03  0.72283254895E+03 -0.80587988615E+03  0.13012532164E+04  0.12699999809E+01 0. -1.
       -4    1    3    3    0  502  0.72203118733E+03 -0.72283254895E+03  0.12735252881E+04  0.16326923169E+04  0.12699999809E+01 0.  1.
</event>
<event>
 5   0  0.6733688E-06  0.2884812E+04  0.7818609E-02  0.8277411E-01
       -2   -1    0    0    0  501  0.00000000000E+00  0.00000000000E+00  0.17757930440E+04  0.17757930440E+04  0.25500000920E-02 0.  1.
        2   -1    0    0  501    0  0.00000000000E+00  0.00000000000E+00 -0.11716088308E+04  0.11716088308E+04  0.25500000920E-02 0. -1.
    10030    2    1    2    0    0  0.00000000000E+00  0.00000000000E+00  0.60418421321E+03  0.29474018747E+04  0.28848118219E+04 0.  0.
        5    1    3    3  502    0 -0.30336343309E+03 -0.92709975814E+03 -0.78349068251E+03  0.12511686831E+04  0.46999998093E+01 0. -1.
       -5    1    3    3    0  502  0.30336343309E+03  0.92709975814E+03  0.13876748957E+04  0.16962331916E+04  0.46999998093E+01 0.  1.
</event>
<event>
 5   0  0.6612533E-06  0.2888901E+04  0.7818609E-02  0.8276187E-01
       -2   -1    0    0    0  501  0.00000000000E+00  0.00000000000E+00  0.12185405256E+04  0.12185405256E+04  0.25500000920E-02 0.  1.
        2   -1    0    0  501    0  0.00000000000E+00  0.00000000000E+00 -0.17122433832E+04  0.17122433832E+04  0.25500000920E-02 0. -1.
    10030    2    1    2    0    0  0.00000000000E+00  0.00000000000E+00 -0.49370285754E+03  0.29307839088E+04  0.28889014882E+04 0.  0.
        3    1    3    3  502    0 -0.25812515524E+03 -0.52419122067E+03 -0.15869997811E+04  0.16911455724E+04  0.10100000352E+00 0. -1.
       -3    1    3    3    0  502  0.25812515524E+03  0.52419122067E+03  0.10932969236E+04  0.12396383364E+04  0.10100000352E+00 0.  1.
</event>
<event>
 5   0  0.6733688E-06  0.2741532E+04  0.7818609E-02  0.8321654E-01
       -2   -1    0    0    0  501  0.00000000000E+00  0.00000000000E+00  0.14676397634E+04  0.14676397634E+04  0.25500000920E-02 0. -1.
        2   -1    0    0  501    0  0.00000000000E+00  0.00000000000E+00 -0.12802861591E+04  0.12802861591E+04  0.25500000920E-02 0.  1.
    10030    2    1    2    0    0  0.00000000000E+00  0.00000000000E+00  0.18735360426E+03  0.27479259225E+04  0.27415315980E+04 0.  0.
        5    1    3    3  502    0  0.41264529388E+03  0.21742553714E+03  0.13856466222E+04  0.14620494706E+04  0.46999998093E+01 0. -1.
       -5    1    3    3    0  502 -0.41264529388E+03 -0.21742553714E+03 -0.11982930180E+04  0.12858764519E+04  0.46999998093E+01 0.  1.
</event>
<event>
 5   0  0.6615403E-06  0.2897041E+04  0.7818609E-02  0.8273758E-01
        2   -1    0    0  501    0  0.00000000000E+00  0.00000000000E+00  0.11669840379E+04  0.11669840379E+04  0.25500000920E-02 0. -1.
       -2   -1    0    0    0  501  0.00000000000E+00  0.00000000000E+00 -0.17979782065E+04  0.17979782065E+04  0.25500000920E-02 0.  1.
    10030    2    1    2    0    0  0.00000000000E+00  0.00000000000E+00 -0.63099416859E+03  0.29649622443E+04  0.28970411577E+04 0.  0.
        2    1    3    3  502    0 -0.18829586738E+03 -0.14303530049E+04 -0.18265875426E+03  0.14542108763E+04  0.25500000920E-02 0. -1.
       -2    1    3    3    0  502  0.18829586738E+03  0.14303530049E+04 -0.44833541433E+03  0.15107513680E+04  0.25500000920E-02 0.  1.
</event>
<event>
 5   0  0.2474769E-06  0.2915521E+04  0.7818609E-02  0.8268275E-01
       -1   -1    0    0    0  501  0.00000000000E+00  0.00000000000E+00  0.16571900701E+04  0.16571900701E+04  0.50400001928E-02 0. -1.
        1   -1    0    0  501    0  0.00000000000E+00  0.00000000000E+00 -0.12823304275E+04  0.12823304276E+04  0.50400001928E-02 0.  1.
    10030    2    1    2    0    0  0.00000000000E+00  0.00000000000E+00  0.37485964254E+03  0.29395204976E+04  0.29155207090E+04 0.  0.
        1    1    3    3  502    0 -0.79834815613E+03  0.10586715334E+04  0.79815537014E+03  0.15476424616E+04  0.50400001928E-02 0. -1.
       -1    1    3    3    0  502  0.79834815613E+03 -0.10586715334E+04 -0.42329572760E+03  0.13918780360E+04  0.50400001928E-02 0.  1.
</event>
<event>
 5   0  0.2336512E-06  0.2946502E+04  0.7818609E-02  0.8259175E-01
       -1   -1    0    0    0  501  0.00000000000E+00  0.00000000000E+00  0.11801832093E+04  0.11801832093E+04  0.50400001928E-02 0. -1.
        1   -1    0    0  501    0  0.00000000000E+00  0.00000000000E+00 -0.18390947776E+04  0.18390947776E+04  0.50400001928E-02 0.  1.
    10030    2    1    2    0    0  0.00000000000E+00  0.00000000000E+00 -0.65891156832E+03  0.30192779870E+04  0.29465021819E+04 0.  0.
        4    1    3    3  502    0 -0.35602756314E+03  0.55715807908E+03 -0.16785165125E+04  0.18040510099E+04  0.12699999809E+01 0.  1.
       -4    1    3    3    0  502  0.35602756314E+03 -0.55715807908E+03  0.10196049441E+04  0.12152269771E+04  0.12699999809E+01 0. -1.
</event>
<event>
 5   0  0.6393633E-06  0.2897913E+04  0.7818609E-02  0.8273499E-01
       -2   -1    0    0    0  501  0.00000000000E+00  0.00000000000E+00  0.18289778927E+04  0.18289778927E+04  0.25500000920E-02 0.  1.
        2   -1    0    0  501    0  0.00000000000E+00  0.00000000000E+00 -0.11478954981E+04  0.11478954981E+04  0.25500000920E-02 0. -1.
    10030    2    1    2    0    0  0.00000000000E+00  0.00000000000E+00  0.68108239452E+03  0.29768733908E+04  0.28979133798E+04 0.  0.
        4    1    3    3  502    0  0.27197431122E+03  0.12927197462E+04 -0.27097683035E+03  0.13485267604E+04  0.12699999809E+01 0. -1.
       -4    1    3    3    0  502 -0.27197431122E+03 -0.12927197462E+04  0.95205922487E+03  0.16283466304E+04  0.12699999809E+01 0.  1.
</event>
<event>
 5   0  0.6393633E-06  0.2871410E+04  0.7818609E-02  0.8281435E-01
       -2   -1    0    0    0  501  0.00000000000E+00  0.00000000000E+00  0.11797759300E+04  0.11797759300E+04  0.25500000920E-02 0. -1.
        2   -1    0    0  501    0  0.00000000000E+00  0.00000000000E+00 -0.17471533377E+04  0.17471533377E+04  0.25500000920E-02 0.  1.
    10030    2    1    2    0    0  0.00000000000E+00  0.00000000000E+00 -0.56737740768E+03  0.29269292677E+04  0.28714104227E+04 0.  0.
        4    1    3    3  502    0 -0.12387886988E+04 -0.20429211811E+03  0.42613389657E+03  0.13258674219E+04  0.12699999809E+01 0. -1.
       -4    1    3    3    0  502  0.12387886988E+04  0.20429211811E+03 -0.99351130425E+03  0.16010618459E+04  0.12699999809E+01 0.  1.
</event>
<event>
 5   0  0.2429358E-06  0.2824468E+04  0.7818609E-02  0.8295712E-01
       -1   -1    0    0    0  501  0.00000000000E+00  0.00000000000E+00  0.86714101688E+03  0.86714101690E+03  0.50400001928E-02 0. -1.
        1   -1    0    0  501    0  0.00000000000E+00  0.00000000000E+00 -0.22999779213E+04  0.22999779213E+04  0.50400001928E-02 0.  1.
    10030    2    1    2    0    0  0.00000000000E+00  0.00000000000E+00 -0.14328369044E+04  0.31671189382E+04  0.28244682285E+04 0.  0.
        2    1    3    3  502    0  0.13731195245E+04  0.32340892189E+03 -0.79041364759E+03  0.16170356501E+04  0.25500000920E-02 0. -1.
       -2    1    3    3    0  502 -0.13731195245E+04 -0.32340892189E+03 -0.64242325682E+03  0.15500832881E+04  0.25500000920E-02 0.  1.
</event>
<event>
 5   0  0.2429358E-06  0.2892769E+04  0.7818609E-02  0.8275032E-01
       -1   -1    0    0    0  501  0.00000000000E+00  0.00000000000E+00  0.13771138359E+04  0.13771138359E+04  0.50400001928E-02 0. -1.
        1   -1    0    0  501    0  0.00000000000E+00  0.00000000000E+00 -0.15191398616E+04  0.15191398616E+04  0.50400001928E-02 0.  1.
    10030    2    1    2    0    0  0.00000000000E+00  0.00000000000E+00 -0.14202602569E+03  0.28962536975E+04  0.28927692767E+04 0.  0.
        2    1    3    3  502    0 -0.14359489035E+03 -0.46357517826E+03 -0.14351912291E+04  0.15150232020E+04  0.25500000920E-02 0.  1.
       -2    1    3    3    0  502  0.14359489035E+03  0.46357517826E+03  0.12931652034E+04  0.13812304955E+04  0.25500000920E-02 0. -1.
</event>
<event>
 5   0  0.6615403E-06  0.2902439E+04  0.7818609E-02  0.8272152E-01
        2   -1    0    0  501    0  0.00000000000E+00  0.00000000000E+00  0.28023516240E+04  0.28023516240E+04  0.25500000920E-02 0.  1.
       -2   -1    0    0    0  501  0.00000000000E+00  0.00000000000E+00 -0.75152523533E+03  0.75152523534E+03  0.25500000920E-02 0. -1.
    10030    2    1    2    0    0  0.00000000000E+00  0.00000000000E+00  0.20508263887E+04  0.35538768594E+04  0.29024389494E+04 0.  0.
        2    1    3    3  502    0 -0.19956557784E+03  0.13356042407E+03  0.27778558679E+04  0.27882159224E+04  0.25500000920E-02 0.  1.
       -2    1    3    3    0  502  0.19956557784E+03 -0.13356042407E+03 -0.72702947924E+03  0.76566093699E+03  0.25500000920E-02 0. -1.
</event>
<event>
 5   0  0.6612533E-06  0.2902868E+04  0.7818609E-02  0.8272025E-01
        2   -1    0    0  501    0  0.00000000000E+00  0.00000000000E+00  0.17276382176E+04  0.17276382176E+04  0.25500000920E-02 0. -1.
       -2   -1    0    0    0  501  0.00000000000E+00  0.00000000000E+00 -0.12193879655E+04  0.12193879655E+04  0.25500000920E-02 0.  1.
    10030    2    1    2    0    0  0.00000000000E+00  0.00000000000E+00  0.50825025213E+03  0.29470261831E+04  0.29028684099E+04 0.  0.
        3    1    3    3  502    0  0.26001084073E+03 -0.90036374831E+03 -0.87106698116E+03  0.12794601254E+04  0.10100000352E+00 0.  1.
       -3    1    3    3    0  502 -0.26001084073E+03  0.90036374831E+03  0.13793172333E+04  0.16675660577E+04  0.10100000352E+00 0. -1.
</event>
<event>
 5   0  0.6615403E-06  0.3009840E+04  0.7818609E-02  0.8240927E-01
        2   -1    0    0  501    0  0.00000000000E+00  0.00000000000E+00  0.24670222577E+04  0.24670222577E+04  0.25500000920E-02 0. -1.
       -2   -1    0    0    0  501  0.00000000000E+00  0.00000000000E+00 -0.91802340401E+03  0.91802340401E+03  0.25500000920E-02 0.  1.
    10030    2    1    2    0    0  0.00000000000E+00  0.00000000000E+00  0.15489988537E+04  0.33850456617E+04  0.30098399764E+04 0.  0.
        2    1    3    3  502    0 -0.14642296502E+04 -0.29678240963E+03  0.57101400901E+03  0.15994077859E+04  0.25500000920E-02 0.  1.
       -2    1    3    3    0  502  0.14642296502E+04  0.29678240963E+03  0.97798484471E+03  0.17856378758E+04  0.25500000920E-02 0. -1.
</event>
<event>
 5   0  0.6513041E-06  0.2894486E+04  0.7818609E-02  0.8274520E-01
        2   -1    0    0  501    0  0.00000000000E+00  0.00000000000E+00  0.12059037187E+04  0.12059037187E+04  0.25500000920E-02 0. -1.
       -2   -1    0    0    0  501  0.00000000000E+00  0.00000000000E+00 -0.17368824362E+04  0.17368824362E+04  0.25500000920E-02 0.  1.
    10030    2    1    2    0    0  0.00000000000E+00  0.00000000000E+00 -0.53097871749E+03  0.29427861549E+04  0.28944864752E+04 0.  0.
        1    1    3    3  502    0  0.12287827651E+04  0.43574932446E+03  0.37326868739E+03  0.13561393994E+04  0.50400001928E-02 0. -1.
       -1    1    3    3    0  502 -0.12287827651E+04 -0.43574932446E+03 -0.90424740488E+03  0.15866467555E+04  0.50400001928E-02 0.  1.
</event>
<event>
 5   0  0.2348684E-06  0.3023747E+04  0.7818609E-02  0.8236982E-01
       -1   -1    0    0    0  501  0.00000000000E+00  0.00000000000E+00  0.10381207628E+04  0.10381207628E+04  0.50400001928E-02 0.  1.
        1   -1    0    0  501    0  0.00000000000E+00  0.00000000000E+00 -0.22018264095E+04  0.22018264095E+04  0.50400001928E-02 0. -1.
    10030    2    1    2    0    0  0.00000000000E+00  0.00000000000E+00 -0.11637056467E+04  0.32399471724E+04  0.30237471534E+04 0.  0.
        5    1    3    3  502    0  0.14572670302E+04  0.39936269269E+03 -0.63671809960E+03  0.16396797815E+04  0.46999998093E+01 0.  1.
       -5    1    3    3    0  502 -0.14572670302E+04 -0.39936269269E+03 -0.52698754709E+03  0.16002673909E+04  0.46999998093E+01 0. -1.
</event>
<event>
 5   0  0.6733688E-06  0.2886518E+04  0.7818609E-02  0.8276900E-01
        2   -1    0    0  501    0  0.00000000000E+00  0.00000000000E+00  0.22605407901E+04  0.22605407901E+04  0.25500000920E-02 0. -1.
       -2   -1    0    0    0  501  0.00000000000E+00  0.00000000000E+00 -0.92145910301E+03  0.92145910301E+03  0.25500000920E-02 0.  1.
    10030    2    1    2    0    0  0.00000000000E+00  0.00000000000E+00  0.13390816871E+04  0.31819998932E+04  0.28865175481E+04 0.  0.
        5    1    3    3  502    0 -0.70886526478E+03  0.91224837854E+03  0.16231270947E+04  0.19922978501E+04  0.46999998093E+01 0. -1.
       -5    1    3    3    0  502  0.70886526478E+03 -0.91224837854E+03 -0.28404540758E+03  0.11897020431E+04  0.46999998093E+01 0.  1.
</event>
<event>
 5   0  0.6393633E-06  0.2892504E+04  0.7818609E-02  0.8275111E-01
        2   -1    0    0  501    0  0.00000000000E+00  0.00000000000E+00  0.18604471494E+04  0.18604471494E+04  0.25500000920E-02 0.  1.
       -2   -1    0    0    0  501  0.00000000000E+00  0.00000000000E+00 -0.11242702808E+04  0.11242702808E+04  0.25500000920E-02 0. -1.
    10030    2    1    2    0    0  0.00000000000E+00  0.00000000000E+00  0.73617686861E+03  0.29847174302E+04  0.28925044090E+04 0.  0.
        4    1    3    3  502    0 -0.55955958928E+03 -0.66437789568E+03 -0.82512313211E+03  0.11980545556E+04  0.12699999809E+01 0. -1.
       -4    1    3    3    0  502  0.55955958928E+03  0.66437789568E+03  0.15613000007E+04  0.17866628746E+04  0.12699999809E+01 0.  1.
</event>
<event>
 5   0  0.6615403E-06  0.2723311E+04  0.7818609E-02  0.8327481E-01
        2   -1    0    0  501    0  0.00000000000E+00  0.00000000000E+00  0.18456439225E+04  0.18456439225E+04  0.25500000920E-02 0. -1.
       -2   -1    0    0    0  501  0.00000000000E+00  0.00000000000E+00 -0.10045846411E+04  0.10045846412E+04  0.25500000920E-02 0.  1.
    10030    2    1    2    0    0  0.00000000000E+00  0.00000000000E+00  0.84105928136E+03  0.28502285637E+04  0.27233108802E+04 0.  0.
        2    1    3    3  502    0  0.22471035164E+02  0.10301750089E+04  0.13521484939E+04  0.17000208957E+04  0.25500000920E-02 0. -1.
       -2    1    3    3    0  502 -0.22471035164E+02 -0.10301750089E+04 -0.51108921251E+03  0.11502076680E+04  0.25500000920E-02 0.  1.
</event>
<event>
 5   0  0.2348684E-06  0.2873177E+04  0.7818609E-02  0.8280903E-01
       -1   -1    0    0    0  501  0.00000000000E+00  0.00000000000E+00  0.11256959943E+04  0.11256959943E+04  0.50400001928E-02 0.  1.
        1   -1    0    0  501    0  0.00000000000E+00  0.00000000000E+00 -0.18333426354E+04  0.18333426354E+04  0.50400001928E-02 0. -1.
    10030    2    1    2    0    0  0.00000000000E+00  0.00000000000E+00 -0.70764664113E+03  0.29590386298E+04  0.28731769600E+04 0.  0.
        5    1    3    3  502    0  0.13131653282E+04  0.53649310645E+03 -0.58762360751E+03  0.15354320651E+04  0.46999998093E+01 0.  1.
       -5    1    3    3    0  502 -0.13131653282E+04 -0.53649310645E+03 -0.12002303361E+03  0.14236065647E+04  0.46999998093E+01 0. -1.
</event>
<event>
 5   0  0.2348684E-06  0.2914764E+04  0.7818609E-02  0.8268498E-01
       -1   -1    0    0    0  501  0.00000000000E+00  0.00000000000E+00  0.12863198889E+04  0.12863198889E+04  0.50400001928E-02 0. -1.
        1   -1    0    0  501    0  0.00000000000E+00  0.00000000000E+00 -0.16511930134E+04  0.16511930134E+04  0.50400001928E-02 0.  1.
    10030    2    1    2    0    0  0.00000000000E+00  0.00000000000E+00 -0.36487312452E+03  0.29375129023E+04  0.29147640821E+04 0.  0.
        5    1    3    3  502    0  0.64168542044E+03 -0.78964533088E+03 -0.12339591264E+04  0.15993677323E+04  0.46999998093E+01 0.  1.
       -5    1    3    3    0  502 -0.64168542044E+03  0.78964533088E+03  0.86908600189E+03  0.13381451700E+04  0.46999998093E+01 0. -1.
</event>
<event>
 5   0  0.6513041E-06  0.2896795E+04  0.7818609E-02  0.8273832E-01
       -2   -1    0    0    0  501  0.00000000000E+00  0.00000000000E+00  0.63936303994E+03  0.63936303994E+03  0.25500000920E-02 0. -1.
        2   -1    0    0  501    0  0.00000000000E+00  0.00000000000E+00 -0.32811643034E+04  0.32811643034E+04  0.25500000920E-02 0.  1.
    10030    2    1    2    0    0  0.00000000000E+00  0.00000000000E+00 -0.26418012635E+04  0.39205273434E+04  0.28967949072E+04 0.  0.
        1    1    3    3  502    0  0.28055070225E+03 -0.13605701351E+04 -0.76617858478E+03  0.15864707412E+04  0.50400001928E-02 0. -1.
       -1    1    3    3    0  502 -0.28055070225E+03  0.13605701351E+04 -0.18756226787E+04  0.23340566021E+04  0.50400001928E-02 0.  1.
</event>
<event>
 5   0  0.6733688E-06  0.2901177E+04  0.7818609E-02  0.8272527E-01
        2   -1    0    0  501    0  0.00000000000E+00  0.00000000000E+00  0.14720543596E+04  0.14720543596E+04  0.25500000920E-02 0. -1.
       -2   -1    0    0    0  501  0.00000000000E+00  0.00000000000E+00 -0.14294354732E+04  0.14294354732E+04  0.25500000920E-02 0.  1.
    10030    2    1    2    0    0  0.00000000000E+00  0.00000000000E+00  0.42618886385E+02  0.29014898328E+04  0.29011768096E+04 0.  0.
        5    1    3    3  502    0 -0.66021277150E+03 -0.38730052086E+03  0.12536363827E+04  0.14688461006E+04  0.46999998093E+01 0. -1.
       -5    1    3    3    0  502  0.66021277150E+03  0.38730052086E+03 -0.12110174963E+04  0.14326437322E+04  0.46999998093E+01 0.  1.
</event>
<event>
 5   0  0.6733688E-06  0.2893627E+04  0.7818609E-02  0.8274776E-01
        2   -1    0    0  501    0  0.00000000000E+00  0.00000000000E+00  0.18307554484E+04  0.18307554484E+04  0.25500000920E-02 0. -1.
       -2   -1    0    0    0  501  0.00000000000E+00  0.00000000000E+00 -0.11433909548E+04  0.11433909548E+04  0.25500000920E-02 0.  1.
    10030    2    1    2    0    0  0.00000000000E+00  0.00000000000E+00  0.68736449363E+03  0.29741464033E+04  0.28936269423E+04 0.  0.
        5    1    3    3  502    0  0.16525289838E+03 -0.21704151580E+03 -0.11167111126E+04  0.11495570186E+04  0.46999998093E+01 0.  1.
       -5    1    3    3    0  502 -0.16525289838E+03  0.21704151580E+03  0.18040756062E+04  0.18245893847E+04  0.46999998093E+01 0. -1.
</event>
<event>
 5   0  0.2336512E-06  0.3053706E+04  0.7818609E-02  0.8228559E-01
       -1   -1    0    0    0  501  0.00000000000E+00  0.00000000000E+00  0.11040313256E+04  0.11040313256E+04  0.50400001928E-02 0. -1.
        1   -1    0    0  501    0  0.00000000000E+00  0.00000000000E+00 -0.21116071403E+04  0.21116071403E+04  0.50400001928E-02 0.  1.
    10030    2    1    2    0    0  0.00000000000E+00  0.00000000000E+00 -0.10075758146E+04  0.32156384659E+04  0.30537062270E+04 0.  0.
        4    1    3    3  502    0 -0.14260545718E+04 -0.13274491104E+03  0.53448022101E+02  0.14332170656E+04  0.12699999809E+01 0. -1.
       -4    1    3    3    0  502  0.14260545718E+04  0.13274491104E+03 -0.10610238367E+04  0.17824214003E+04  0.12699999809E+01 0.  1.
</event>
<event>
 5   0  0.2336512E-06  0.2885019E+04  0.7818609E-02  0.8277349E-01
       -1   -1    0    0    0  501  0.00000000000E+00  0.00000000000E+00  0.13164321969E+04  0.13164321970E+04  0.50400001928E-02 0. -1.
        1   -1    0    0  501    0  0.00000000000E+00  0.00000000000E+00 -0.15806612204E+04  0.15806612204E+04  0.50400001928E-02 0.  1.
    10030    2    1    2    0    0  0.00000000000E+00  0.00000000000E+00 -0.26422902344E+03  0.28970934173E+04  0.28850187680E+04 0.  0.
        4    1    3    3  502    0  0.10029885567E+03 -0.58242495131E+03 -0.14535067589E+04  0.15690641145E+04  0.12699999809E+01 0.  1.
       -4    1    3    3    0  502 -0.10029885567E+03  0.58242495131E+03  0.11892777354E+04  0.13280293029E+04  0.12699999809E+01 0. -1.
</event>
<event>
 5   0  0.2429358E-06  0.2881543E+04  0.7818609E-02  0.8278390E-01
        1   -1    0    0  501    0  0.00000000000E+00  0.00000000000E+00  0.16478332254E+04  0.16478332254E+04  0.50400001928E-02 0. -1.
       -1   -1    0    0    0  501  0.00000000000E+00  0.00000000000E+00 -0.12597284413E+04  0.12597284414E+04  0.50400001928E-02 0.  1.
    10030    2    1    2    0    0  0.00000000000E+00  0.00000000000E+00  0.38810478408E+03  0.29075616668E+04  0.28815429066E+04 0.  0.
        2    1    3    3  502    0  0.88365744292E+03 -0.71645549171E+03  0.10861528074E+04  0.15728594562E+04  0.25500000920E-02 0. -1.
       -2    1    3    3    0  502 -0.88365744292E+03  0.71645549171E+03 -0.69804802331E+03  0.13347022106E+04  0.25500000920E-02 0.  1.
</event>
<event>
 5   0  0.6513041E-06  0.2924185E+04  0.7818609E-02  0.8265718E-01
       -2   -1    0    0    0  501  0.00000000000E+00  0.00000000000E+00  0.22490983309E+04  0.22490983309E+04  0.25500000920E-02 0.  1.
        2   -1    0    0  501    0  0.00000000000E+00  0.00000000000E+00 -0.95047646044E+03  0.95047646044E+03  0.25500000920E-02 0. -1.
    10030    2    1    2    0    0  0.00000000000E+00  0.00000000000E+00  0.12986218704E+04  0.31995747913E+04  0.29241853708E+04 0.  0.
        1    1    3    3  502    0 -0.83181700165E+03  0.10525094580E+04  0.13162974589E+02  0.13415919452E+04  0.50400001928E-02 0. -1.
       -1    1    3    3    0  502  0.83181700165E+03 -0.10525094580E+04  0.12854588958E+04  0.18579828461E+04  0.50400001928E-02 0.  1.
</event>
<event>
 5   0  0.6733688E-06  0.2834191E+04  0.7818609E-02  0.8292731E-01
        2   -1    0    0  501    0  0.00000000000E+00  0.00000000000E+00  0.75743201850E+03  0.75743201850E+03  0.25500000920E-02 0. -1.
       -2   -1    0    0    0  501  0.00000000000E+00  0.00000000000E+00 -0.26512735295E+04  0.26512735295E+04  0.25500000920E-02 0.  1.
    10030    2    1    2    0    0  0.00000000000E+00  0.00000000000E+00 -0.18938415110E+04  0.34087055480E+04  0.28341908623E+04 0.  0.
        5    1    3    3  502    0  0.40505392697E+03  0.35979539795E+03  0.62794603405E+03  0.82937309085E+03  0.46999998093E+01 0. -1.
       -5    1    3    3    0  502 -0.40505392697E+03 -0.35979539795E+03 -0.25217875450E+04  0.25793324571E+04  0.46999998093E+01 0.  1.
</event>
<event>
 5   0  0.6612533E-06  0.2900454E+04  0.7818609E-02  0.8272742E-01
       -2   -1    0    0    0  501  0.00000000000E+00  0.00000000000E+00  0.10731277560E+04  0.10731277560E+04  0.25500000920E-02 0.  1.
        2   -1    0    0  501    0  0.00000000000E+00  0.00000000000E+00 -0.19598398422E+04  0.19598398422E+04  0.25500000920E-02 0. -1.
    10030    2    1    2    0    0  0.00000000000E+00  0.00000000000E+00 -0.88671208621E+03  0.30329675982E+04  0.29004541245E+04 0.  0.
        3    1    3    3  502    0  0.65717978103E+03 -0.52003227512E+03  0.79428866432E+03  0.11546485717E+04  0.10100000352E+00 0.  1.
       -3    1    3    3    0  502 -0.65717978103E+03  0.52003227512E+03 -0.16810007505E+04  0.18783190265E+04  0.10100000352E+00 0. -1.
</event>
<event>
 5   0  0.2336512E-06  0.2899857E+04  0.7818609E-02  0.8272920E-01
        1   -1    0    0  501    0  0.00000000000E+00  0.00000000000E+00  0.17752275497E+04  0.17752275497E+04  0.50400001928E-02 0.  1.
       -1   -1    0    0    0  501  0.00000000000E+00  0.00000000000E+00 -0.11842380799E+04  0.11842380799E+04  0.50400001928E-02 0. -1.
    10030    2    1    2    0    0  0.00000000000E+00  0.00000000000E+00  0.59098946976E+03  0.29594656296E+04  0.28998565929E+04 0.  0.
        4    1    3    3  502    0 -0.66289623945E+03 -0.86147602302E+03  0.12747594748E+04  0.16752867498E+04  0.12699999809E+01 0.  1.
       -4    1    3    3    0  502  0.66289623945E+03  0.86147602302E+03 -0.68377000506E+03  0.12841788798E+04  0.12699999809E+01 0. -1.
</event>
<event>
 5   0  0.6513041E-06  0.2909154E+04  0.7818609E-02  0.8270159E-01
       -2   -1    0    0    0  501  0.00000000000E+00  0.00000000000E+00  0.72660829869E+03  0.72660829869E+03  0.25500000920E-02 0. -1.
        2   -1    0    0  501    0  0.00000000000E+00  0.00000000000E+00 -0.29118776695E+04  0.29118776695E+04  0.25500000920E-02 0.  1.
    10030    2    1    2    0    0  0.00000000000E+00  0.00000000000E+00 -0.21852693708E+04  0.36384859682E+04  0.29091541585E+04 0.  0.
        1    1    3    3  502    0  0.58305693678E+03  0.11555404031E+04 -0.19227896970E+04  0.23178328745E+04  0.50400001928E-02 0.  1.
       -1    1    3    3    0  502 -0.58305693678E+03 -0.11555404031E+04 -0.26247967373E+03  0.13206530937E+04  0.50400001928E-02 0. -1.
</event>
<event>
 5   0  0.2336512E-06  0.2840935E+04  0.7818609E-02  0.8290671E-01
       -1   -1    0    0    0  501  0.00000000000E+00  0.00000000000E+00  0.88639557569E+03  0.88639557571E+03  0.50400001928E-02 0.  1.
        1   -1    0    0  501    0  0.00000000000E+00  0.00000000000E+00 -0.22763288377E+04  0.22763288377E+04  0.50400001928E-02 0. -1.
    10030    2    1    2    0    0  0.00000000000E+00  0.00000000000E+00 -0.13899332620E+04  0.31627244134E+04  0.28409349240E+04 0.  0.
        4    1    3    3  502    0 -0.13993682885E+04 -0.18521585119E+02 -0.96572575445E+03  0.17003536402E+04  0.12699999809E+01 0. -1.
       -4    1    3    3    0  502  0.13993682885E+04  0.18521585119E+02 -0.42420750755E+03  0.14623707732E+04  0.12699999809E+01 0.  1.
</event>
<event>
 5   0  0.6612533E-06  0.2952140E+04  0.7818609E-02  0.8257531E-01
        2   -1    0    0  501    0  0.00000000000E+00  0.00000000000E+00  0.81703632248E+03  0.81703632248E+03  0.25500000920E-02 0. -1.
       -2   -1    0    0    0  501  0.00000000000E+00  0.00000000000E+00 -0.26666898967E+04  0.26666898967E+04  0.25500000920E-02 0.  1.
    10030    2    1    2    0    0  0.00000000000E+00  0.00000000000E+00 -0.18496535743E+04  0.34837262192E+04  0.29521399062E+04 0.  0.
        3    1    3    3  502    0  0.33406051662E+03  0.14179167399E+04 -0.12058173051E+04  0.18910525359E+04  0.10100000352E+00 0.  1.
       -3    1    3    3    0  502 -0.33406051662E+03 -0.14179167399E+04 -0.64383626912E+03  0.15926736833E+04  0.10100000352E+00 0. -1.
</event>
<event>
 5   0  0.6393633E-06  0.2862556E+04  0.7818609E-02  0.8284106E-01
       -2   -1    0    0    0  501  0.00000000000E+00  0.00000000000E+00  0.15854109655E+04  0.15854109655E+04  0.25500000920E-02 0. -1.
        2   -1    0    0  501    0  0.00000000000E+00  0.00000000000E+00 -0.12921294117E+04  0.12921294117E+04  0.25500000920E-02 0.  1.
    10030    2    1    2    0    0  0.00000000000E+00  0.00000000000E+00  0.29328155378E+03  0.28775403773E+04  0.28625555982E+04 0.  0.
        4    1    3    3  502    0 -0.21332272689E+02  0.22478322661E+03  0.15673942043E+04  0.15835746807E+04  0.12699999809E+01 0. -1.
       -4    1    3    3    0  502  0.21332272689E+02 -0.22478322661E+03 -0.12741126505E+04  0.12939656966E+04  0.12699999809E+01 0.  1.
</event>
<event>
 5   0  0.2474769E-06  0.2887758E+04  0.7818609E-02  0.8276529E-01
       -1   -1    0    0    0  501  0.00000000000E+00  0.00000000000E+00  0.11704691970E+04  0.11704691970E+04  0.50400001928E-02 0.  1.
        1   -1    0    0  501    0  0.00000000000E+00  0.00000000000E+00 -0.17811546478E+04  0.17811546478E+04  0.50400001928E-02 0. -1.
    10030    2    1    2    0    0  0.00000000000E+00  0.00000000000E+00 -0.61068545079E+03  0.29516238449E+04  0.28877580580E+04 0.  0.
        1    1    3    3  502    0 -0.36833195275E+03 -0.86967063543E+03  0.81096111948E+03  0.12448507456E+04  0.50400001928E-02 0.  1.
       -1    1    3    3    0  502  0.36833195275E+03  0.86967063543E+03 -0.14216465703E+04  0.17067730993E+04  0.50400001928E-02 0. -1.
</event>
<event>
 5   0  0.6513041E-06  0.2897307E+04  0.7818609E-02  0.8273679E-01
        2   -1    0    0  501    0  0.00000000000E+00  0.00000000000E+00  0.31256777079E+04  0.31256777079E+04  0.25500000920E-02 0. -1.
       -2   -1    0    0    0  501  0.00000000000E+00  0.00000000000E+00 -0.67140528802E+03  0.67140528802E+03  0.25500000920E-02 0.  1.
    10030    2    1    2    0    0  0.00000000000E+00  0.00000000000E+00  0.24542724199E+04  0.37970829960E+04  0.28973067092E+04 0.  0.
        1    1    3    3  502    0  0.29296599641E+03 -0.16984307713E+03 -0.61880464892E+03  0.70540409657E+03  0.50400001928E-02 0.  1.
       -1    1    3    3    0  502 -0.29296599641E+03  0.16984307713E+03  0.30730770688E+04  0.30916788994E+04  0.50400001928E-02 0. -1.
</event>
<event>
 5   0  0.2348684E-06  0.2886472E+04  0.7818609E-02  0.8276914E-01
        1   -1    0    0  501    0  0.00000000000E+00  0.00000000000E+00  0.19930736160E+04  0.19930736161E+04  0.50400001928E-02 0. -1.
       -1   -1    0    0    0  501  0.00000000000E+00  0.00000000000E+00 -0.10450842230E+04  0.10450842230E+04  0.50400001928E-02 0.  1.
    10030    2    1    2    0    0  0.00000000000E+00  0.00000000000E+00  0.94798939309E+03  0.30381578390E+04  0.28864717503E+04 0.  0.
        5    1    3    3  502    0 -0.30454241959E+03 -0.14100812828E+04  0.42893873949E+03  0.15050202130E+04  0.46999998093E+01 0.  1.
       -5    1    3    3    0  502  0.30454241959E+03  0.14100812828E+04  0.51905065359E+03  0.15331376260E+04  0.46999998093E+01 0. -1.
</event>
<event>
 5   0  0.2348684E-06  0.2933410E+04  0.7818609E-02  0.8263006E-01
       -1   -1    0    0    0  501  0.00000000000E+00  0.00000000000E+00  0.11099842307E+04  0.11099842307E+04  0.50400001928E-02 0.  1.
        1   -1    0    0  501    0  0.00000000000E+00  0.00000000000E+00 -0.19380670616E+04  0.19380670616E+04  0.50400001928E-02 0. -1.
    10030    2    1    2    0    0  0.00000000000E+00  0.00000000000E+00 -0.82808283082E+03  0.30480512923E+04  0.29334102178E+04 0.  0.
        5    1    3    3  502    0  0.12029301261E+04  0.74227436599E+03 -0.73507521598E+01  0.14135374938E+04  0.46999998093E+01 0.  1.
       -5    1    3    3    0  502 -0.12029301261E+04 -0.74227436599E+03 -0.82073207866E+03  0.16345137985E+04  0.46999998093E+01 0. -1.
</event>
<event>
 5   0  0.2474769E-06  0.2884900E+04  0.7818609E-02  0.8277384E-01
       -1   -1    0    0    0  501  0.00000000000E+00  0.00000000000E+00  0.14751324291E+04  0.14751324291E+04  0.50400001928E-02 0. -1.
        1   -1    0    0  501    0  0.00000000000E+00  0.00000000000E+00 -0.14104919464E+04  0.14104919464E+04  0.50400001928E-02 0.  1.
    10030    2    1    2    0    0  0.00000000000E+00  0.00000000000E+00  0.64640482669E+02  0.28856243755E+04  0.28849002833E+04 0.  0.
        1    1    3    3  502    0 -0.10092289088E+04  0.59279569008E+03 -0.81092913127E+03  0.14239226722E+04  0.50400001928E-02 0.  1.
       -1    1    3    3    0  502  0.10092289088E+04 -0.59279569008E+03  0.87556961394E+03  0.14617017033E+04  0.50400001928E-02 0. -1.
</event>
<event>
 5   0  0.2508094E-06  0.2888014E+04  0.7818609E-02  0.8276453E-01
        1   -1    0    0  501    0  0.00000000000E+00  0.00000000000E+00  0.16051314526E+04  0.16051314526E+04  0.50400001928E-02 0.  1.
       -1   -1    0    0    0  501  0.00000000000E+00  0.00000000000E+00 -0.12990561962E+04  0.12990561962E+04  0.50400001928E-02 0. -1.
    10030    2    1    2    0    0  0.00000000000E+00  0.00000000000E+00  0.30607525645E+03  0.29041876488E+04  0.28880138221E+04 0.  0.
        3    1    3    3  502    0 -0.13718367590E+04  0.44295073218E+03  0.23725930931E+03  0.14609700320E+04  0.10100000352E+00 0. -1.
       -3    1    3    3    0  502  0.13718367590E+04 -0.44295073218E+03  0.68815947141E+02  0.14432176167E+04  0.10100000352E+00 0.  1.
</event>
<event>
 5   0  0.2508094E-06  0.2880889E+04  0.7818609E-02  0.8278586E-01
       -1   -1    0    0    0  501  0.00000000000E+00  0.00000000000E+00  0.15023586472E+04  0.15023586472E+04  0.50400001928E-02 0. -1.
        1   -1    0    0  501    0  0.00000000000E+00  0.00000000000E+00 -0.13810815664E+04  0.13810815664E+04  0.50400001928E-02 0.  1.
    10030    2    1    2    0    0  0.00000000000E+00  0.00000000000E+00  0.12127708087E+03  0.28834402136E+04  0.28808886363E+04 0.  0.
        3    1    3    3  502    0 -0.13202803231E+03  0.13249538945E+04  0.61062099246E+03  0.14648522897E+04  0.10100000352E+00 0. -1.
       -3    1    3    3    0  502  0.13202803231E+03 -0.13249538945E+04 -0.48934391159E+03  0.14185879239E+04  0.10100000352E+00 0.  1.
</event>
<event>
 5   0  0.2336512E-06  0.2892278E+04  0.7818609E-02  0.8275179E-01
        1   -1    0    0  501    0  0.00000000000E+00  0.00000000000E+00  0.22470117090E+04  0.22470117090E+04  0.50400001928E-02 0.  1.
       -1   -1    0    0    0  501  0.00000000000E+00  0.00000000000E+00 -0.93071100841E+03  0.93071100843E+03  0.50400001928E-02 0. -1.
    10030    2    1    2    0    0  0.00000000000E+00  0.00000000000E+00  0.13163007006E+04  0.31777227174E+04  0.28922783639E+04 0.  0.
        4    1    3    3  502    0 -0.13748056093E+04 -0.44807950301E+03  0.68148860036E+03  0.15985287078E+04  0.12699999809E+01 0. -1.
       -4    1    3    3    0  502  0.13748056093E+04  0.44807950301E+03  0.63481210023E+03  0.15791940096E+04  0.12699999809E+01 0.  1.
</event>
<event>
 5   0  0.2508094E-06  0.2810087E+04  0.7818609E-02  0.8300144E-01
       -1   -1    0    0    0  501  0.00000000000E+00  0.00000000000E+00  0.13204902287E+04  0.13204902287E+04  0.50400001928E-02 0. -1.
        1   -1    0    0  501    0  0.00000000000E+00  0.00000000000E+00 -0.14950104031E+04  0.14950104031E+04  0.50400001928E-02 0.  1.
    10030    2    1    2    0    0  0.00000000000E+00  0.00000000000E+00 -0.17452017443E+03  0.28155006318E+04  0.28100865674E+04 0.  0.
        3    1    3    3  502    0  0.10236375272E+04 -0.18592202206E+03  0.85888224610E+03  0.13491032237E+04  0.10100000352E+00 0. -1.
       -3    1    3    3    0  502 -0.10236375272E+04  0.18592202206E+03 -0.10334024205E+04  0.14663974081E+04  0.10100000352E+00 0.  1.
</event>
<event>
 5   0  0.2474769E-06  0.2880564E+04  0.7818609E-02  0.8278684E-01
        1   -1    0    0  501    0  0.00000000000E+00  0.00000000000E+00  0.20901464672E+04  0.20901464672E+04  0.50400001928E-02 0.  1.
       -1   -1    0    0    0  501  0.00000000000E+00  0.00000000000E+00 -0.99247232227E+03  0.99247232228E+03  0.50400001928E-02 0. -1.
    10030    2    1    2    0    0  0.00000000000E+00  0.00000000000E+00  0.10976741449E+04  0.30826187895E+04  0.28805641935E+04 0.  0.
        1    1    3    3  502    0  0.11138718337E+04  0.81372670983E+03  0.99207688370E+03  0.16991404190E+04  0.50400001928E-02 0.  1.
       -1    1    3    3    0  502 -0.11138718337E+04 -0.81372670983E+03  0.10559726124E+03  0.13834783705E+04  0.50400001928E-02 0. -1.
</event>
<event>
 5   0  0.2348684E-06  0.2881206E+04  0.7818609E-02  0.8278491E-01
        1   -1    0    0  501    0  0.00000000000E+00  0.00000000000E+00  0.85985396669E+03  0.85985396670E+03  0.50400001928E-02 0.  1.
       -1   -1    0    0    0  501  0.00000000000E+00  0.00000000000E+00 -0.24135932207E+04  0.24135932207E+04  0.50400001928E-02 0. -1.
    10030    2    1    2    0    0  0.00000000000E+00  0.00000000000E+00 -0.15537392540E+04  0.32734471874E+04  0.28812064868E+04 0.  0.
        5    1    3    3  502    0  0.46088245543E+03 -0.10872386610E+04  0.16057480789E+03  0.11917662953E+04  0.46999998093E+01 0.  1.
       -5    1    3    3    0  502 -0.46088245543E+03  0.10872386610E+04 -0.17143140619E+04  0.20816808921E+04  0.46999998093E+01 0. -1.
</event>
<event>
 5   0  0.6612533E-06  0.2912735E+04  0.7818609E-02  0.8269098E-01
       -2   -1    0    0    0  501  0.00000000000E+00  0.00000000000E+00  0.83052624099E+03  0.83052624100E+03  0.25500000920E-02 0.  1.
        2   -1    0    0  501    0  0.00000000000E+00  0.00000000000E+00 -0.25538104923E+04  0.25538104923E+04  0.25500000920E-02 0. -1.
    10030    2    1    2    0    0  0.00000000000E+00  0.00000000000E+00 -0.17232842513E+04  0.33843367333E+04  0.29127352289E+04 0.  0.
        3    1    3    3  502    0  0.92252610914E+03 -0.54480422622E+03  0.28455771653E+03  0.11085301851E+04  0.10100000352E+00 0.  1.
       -3    1    3    3    0  502 -0.92252610914E+03  0.54480422622E+03 -0.20078419678E+04  0.22758065482E+04  0.10100000352E+00 0. -1.
</event>
<event>
 5   0  0.6615403E-06  0.2954750E+04  0.7818609E-02  0.8256772E-01
        2   -1    0    0  501    0  0.00000000000E+00  0.00000000000E+00  0.15081942488E+04  0.15081942488E+04  0.25500000920E-02 0. -1.
       -2   -1    0    0    0  501  0.00000000000E+00  0.00000000000E+00 -0.14471854188E+04  0.14471854188E+04  0.25500000920E-02 0.  1.
    10030    2    1    2    0    0  0.00000000000E+00  0.00000000000E+00  0.61008829975E+02  0.29553796676E+04  0.29547498883E+04 0.  0.
        2    1    3    3  502    0 -0.27726975907E+03 -0.84689117088E+03 -0.11481072776E+04  0.14533593828E+04  0.25500000920E-02 0.  1.
       -2    1    3    3    0  502  0.27726975907E+03  0.84689117088E+03  0.12091161076E+04  0.15020202849E+04  0.25500000920E-02 0. -1.
</event>
<event>
 5   0  0.2348684E-06  0.2975614E+04  0.7818609E-02  0.8250729E-01
       -1   -1    0    0    0  501  0.00000000000E+00  0.00000000000E+00  0.12314660684E+04  0.12314660684E+04  0.50400001928E-02 0. -1.
        1   -1    0    0  501    0  0.00000000000E+00  0.00000000000E+00 -0.17975072817E+04  0.17975072817E+04  0.50400001928E-02 0.  1.
    10030    2    1    2    0    0  0.00000000000E+00  0.00000000000E+00 -0.56604121335E+03  0.30289733501E+04  0.29756137015E+04 0.  0.
        5    1    3    3  502    0  0.12273209713E+04 -0.12760945045E+03 -0.11291582524E+04  0.16726091556E+04  0.46999998093E+01 0.  1.
       -5    1    3    3    0  502 -0.12273209713E+04  0.12760945045E+03  0.56311703902E+03  0.13563641945E+04  0.46999998093E+01 0. -1.
</event>
<event>
 5   0  0.6612533E-06  0.2919917E+04  0.7818609E-02  0.8266976E-01
       -2   -1    0    0    0  501  0.00000000000E+00  0.00000000000E+00  0.15746989811E+04  0.15746989811E+04  0.25500000920E-02 0.  1.
        2   -1    0    0  501    0  0.00000000000E+00  0.00000000000E+00 -0.13535782850E+04  0.13535782850E+04  0.25500000920E-02 0. -1.
    10030    2    1    2    0    0  0.00000000000E+00  0.00000000000E+00  0.22112069613E+03  0.29282772661E+04  0.29199166743E+04 0.  0.
        3    1    3    3  502    0 -0.91202709615E+03 -0.10711089370E+04 -0.28095542449E+03  0.14345744107E+04  0.10100000352E+00 0. -1.
       -3    1    3    3    0  502  0.91202709615E+03  0.10711089370E+04  0.50207612062E+03  0.14937028554E+04  0.10100000352E+00 0.  1.
</event>
<event>
 5   0  0.6513041E-06  0.2899612E+04  0.7818609E-02  0.8272993E-01
       -2   -1    0    0    0  501  0.00000000000E+00  0.00000000000E+00  0.10099097931E+04  0.10099097931E+04  0.25500000920E-02 0.  1.
        2   -1    0    0  501    0  0.00000000000E+00  0.00000000000E+00 -0.20813117969E+04  0.20813117969E+04  0.25500000920E-02 0. -1.
    10030    2    1    2    0    0  0.00000000000E+00  0.00000000000E+00 -0.10714020038E+04  0.30912215901E+04  0.28996118128E+04 0.  0.
        1    1    3    3  502    0  0.26122943598E+03  0.10943267542E+04 -0.15105360948E+04  0.18834837820E+04  0.50400001928E-02 0. -1.
       -1    1    3    3    0  502 -0.26122943598E+03 -0.10943267542E+04  0.43913409100E+03  0.12077378081E+04  0.50400001928E-02 0.  1.
</event>
<event>
 5   0  0.6393633E-06  0.2791774E+04  0.7818609E-02  0.8305827E-01
       -2   -1    0    0    0  501  0.00000000000E+00  0.00000000000E+00  0.90803108540E+03  0.90803108541E+03  0.25500000920E-02 0.  1.
        2   -1    0    0  501    0  0.00000000000E+00  0.00000000000E+00 -0.21458519871E+04  0.21458519871E+04  0.25500000920E-02 0. -1.
    10030    2    1    2    0    0  0.00000000000E+00  0.00000000000E+00 -0.12378209017E+04  0.30538830725E+04  0.27917738511E+04 0.  0.
        4    1    3    3  502    0 -0.85256443745E+03  0.82690852438E+03  0.18333030516E+03  0.12017717926E+04  0.12699999809E+01 0.  1.
       -4    1    3    3    0  502  0.85256443745E+03 -0.82690852438E+03 -0.14211512069E+04  0.18521112800E+04  0.12699999809E+01 0. -1.
</event>
<event>
 5   0  0.6615403E-06  0.2914204E+04  0.7818609E-02  0.8268664E-01
       -2   -1    0    0    0  501  0.00000000000E+00  0.00000000000E+00  0.13771160101E+04  0.13771160101E+04  0.25500000920E-02 0.  1.
        2   -1    0    0  501    0  0.00000000000E+00  0.00000000000E+00 -0.15417340382E+04  0.15417340382E+04  0.25500000920E-02 0. -1.
    10030    2    1    2    0    0  0.00000000000E+00  0.00000000000E+00 -0.16461802810E+03  0.29188500483E+04  0.29142042670E+04 0.  0.
        2    1    3    3  502    0  0.36259383702E+02 -0.23183460774E+03 -0.15226852409E+04  0.15406597194E+04  0.25500000920E-02 0. -1.
       -2    1    3    3    0  502 -0.36259383702E+02  0.23183460774E+03  0.13580672128E+04  0.13781903289E+04  0.25500000920E-02 0.  1.
</event>
<event>
 5   0  0.2348684E-06  0.2926600E+04  0.7818609E-02  0.8265007E-01
       -1   -1    0    0    0  501  0.00000000000E+00  0.00000000000E+00  0.26486638765E+04  0.26486638765E+04  0.50400001928E-02 0. -1.
        1   -1    0    0  501    0  0.00000000000E+00  0.00000000000E+00 -0.80842539358E+03  0.80842539359E+03  0.50400001928E-02 0.  1.
    10030    2    1    2    0    0  0.00000000000E+00  0.00000000000E+00  0.18402384829E+04  0.34570892701E+04  0.29266001687E+04 0.  0.
        5    1    3    3  502    0  0.14271113000E+04  0.29313430747E+03  0.10814415122E+04  0.18144178734E+04  0.46999998093E+01 0. -1.
       -5    1    3    3    0  502 -0.14271113000E+04 -0.29313430747E+03  0.75879697072E+03  0.16426713967E+04  0.46999998093E+01 0.  1.
</event>
<event>
 5   0  0.6615403E-06  0.2946155E+04  0.7818609E-02  0.8259276E-01
        2   -1    0    0  501    0  0.00000000000E+00  0.00000000000E+00  0.20433704481E+04  0.20433704481E+04  0.25500000920E-02 0. -1.
       -2   -1    0    0    0  501  0.00000000000E+00  0.00000000000E+00 -0.10619500395E+04  0.10619500395E+04  0.25500000920E-02 0.  1.
    10030    2    1    2    0    0  0.00000000000E+00  0.00000000000E+00  0.98142040862E+03  0.31053204876E+04  0.29461550048E+04 0.  0.
        2    1    3    3  502    0 -0.66638846036E+03  0.63090846871E+03 -0.72386224030E+03  0.11688009321E+04  0.25500000920E-02 0.  1.
       -2    1    3    3    0  502  0.66638846036E+03 -0.63090846871E+03  0.17052826489E+04  0.19365195555E+04  0.25500000920E-02 0. -1.
</event>
<event>
 5   0  0.2348684E-06  0.2903488E+04  0.7818609E-02  0.8271840E-01
        1   -1    0    0  501    0  0.00000000000E+00  0.00000000000E+00  0.20188358283E+04  0.20188358283E+04  0.50400001928E-02 0. -1.
       -1   -1    0    0    0  501  0.00000000000E+00  0.00000000000E+00 -0.10439485078E+04  0.10439485078E+04  0.50400001928E-02 0.  1.
    10030    2    1    2    0    0  0.00000000000E+00  0.00000000000E+00  0.97488732052E+03  0.30627843361E+04  0.29034880061E+04 0.  0.
        5    1    3    3  502    0 -0.12395298827E+04  0.29165295152E+03  0.12228606044E+04  0.17654761176E+04  0.46999998093E+01 0. -1.
       -5    1    3    3    0  502  0.12395298827E+04 -0.29165295152E+03 -0.24797328387E+03  0.12973082184E+04  0.46999998093E+01 0.  1.
</event>
<event>
 5   0  0.2336512E-06  0.2873852E+04  0.7818609E-02  0.8280700E-01
        1   -1    0    0  501    0  0.00000000000E+00  0.00000000000E+00  0.19218690600E+04  0.19218690600E+04  0.50400001928E-02 0. -1.
       -1   -1    0    0    0  501  0.00000000000E+00  0.00000000000E+00 -0.10743482080E+04  0.10743482080E+04  0.50400001928E-02 0.  1.
    10030    2    1    2    0    0  0.00000000000E+00  0.00000000000E+00  0.84752085195E+03  0.29962172680E+04  0.28738521748E+04 0.  0.
        4    1    3    3  502    0 -0.95961772779E+03 -0.19616691707E+03  0.15199105733E+04  0.18081696288E+04  0.12699999809E+01 0. -1.
       -4    1    3    3    0  502  0.95961772779E+03  0.19616691707E+03 -0.67238972132E+03  0.11880476392E+04  0.12699999809E+01 0.  1.
</event>
<event>
 5   0  0.2429358E-06  0.2914433E+04  0.7818609E-02  0.8268596E-01
        1   -1    0    0  501    0  0.00000000000E+00  0.00000000000E+00  0.11975860513E+04  0.11975860513E+04  0.50400001928E-02 0.  1.
       -1   -1    0    0    0  501  0.00000000000E+00  0.00000000000E+00 -0.17731332745E+04  0.17731332745E+04  0.50400001928E-02 0. -1.
    10030    2    1    2    0    0  0.00000000000E+00  0.00000000000E+00 -0.57554722316E+03  0.29707193258E+04  0.29144328276E+04 0.  0.
        2    1    3    3  502    0  0.48964736164E+03 -0.12622441010E+04  0.26158312127E+03  0.13789272782E+04  0.25500000920E-02 0.  1.
       -2    1    3    3    0  502 -0.48964736164E+03  0.12622441010E+04 -0.83713034443E+03  0.15917920476E+04  0.25500000920E-02 0. -1.
</event>
<event>
 5   0  0.2336512E-06  0.2906704E+04  0.7818609E-02  0.8270886E-01
       -1   -1    0    0    0  501  0.00000000000E+00  0.00000000000E+00  0.91406585506E+03  0.91406585507E+03  0.50400001928E-02 0. -1.
        1   -1    0    0  501    0  0.00000000000E+00  0.00000000000E+00 -0.23108086818E+04  0.23108086818E+04  0.50400001928E-02 0.  1.
    10030    2    1    2    0    0  0.00000000000E+00  0.00000000000E+00 -0.13967428268E+04  0.32248745369E+04  0.29067035030E+04 0.  0.
        4    1    3    3  502    0 -0.12984568675E+04 -0.61579915961E+03 -0.45776702482E+03  0.15082278023E+04  0.12699999809E+01 0.  1.
       -4    1    3    3    0  502  0.12984568675E+04  0.61579915961E+03 -0.93897580194E+03  0.17166467346E+04  0.12699999809E+01 0. -1.
</event>
<event>
 5   0  0.6513041E-06  0.2958202E+04  0.7818609E-02  0.8255768E-01
        2   -1    0    0  501    0  0.00000000000E+00  0.00000000000E+00  0.16213706929E+04  0.16213706929E+04  0.25500000920E-02 0. -1.
       -2   -1    0    0    0  501  0.00000000000E+00  0.00000000000E+00 -0.13493145866E+04  0.13493145866E+04  0.25500000920E-02 0.  1.
    10030    2    1    2    0    0  0.00000000000E+00  0.00000000000E+00  0.27205610630E+03  0.29706852795E+04  0.29582015660E+04 0.  0.
        1    1    3    3  502    0  0.68458830797E+03  0.22614963119E+03 -0.11609073749E+04  0.13665689665E+04  0.50400001928E-02 0.  1.
       -1    1    3    3    0  502 -0.68458830797E+03 -0.22614963119E+03  0.14329634812E+04  0.16041163130E+04  0.50400001928E-02 0. -1.
</event>
<event>
 5   0  0.6393633E-06  0.2927812E+04  0.7818609E-02  0.8264650E-01
       -2   -1    0    0    0  501  0.00000000000E+00  0.00000000000E+00  0.14720344452E+04  0.14720344452E+04  0.25500000920E-02 0.  1.
        2   -1    0    0  501    0  0.00000000000E+00  0.00000000000E+00 -0.14558226281E+04  0.14558226281E+04  0.25500000920E-02 0. -1.
    10030    2    1    2    0    0  0.00000000000E+00  0.00000000000E+00  0.16211817087E+02  0.29278570733E+04  0.29278121898E+04 0.  0.
        4    1    3    3  502    0 -0.53423539210E+03 -0.85301786491E+03  0.10711238553E+04  0.14698145660E+04  0.12699999809E+01 0.  1.
       -4    1    3    3    0  502  0.53423539210E+03  0.85301786491E+03 -0.10549120382E+04  0.14580425074E+04  0.12699999809E+01 0. -1.
</event>
<event>
 5   0  0.2508094E-06  0.2898733E+04  0.7818609E-02  0.8273254E-01
        1   -1    0    0  501    0  0.00000000000E+00  0.00000000000E+00  0.23329059534E+04  0.23329059534E+04  0.50400001928E-02 0. -1.
       -1   -1    0    0    0  501  0.00000000000E+00  0.00000000000E+00 -0.90044933104E+03  0.90044933106E+03  0.50400001928E-02 0.  1.
    10030    2    1    2    0    0  0.00000000000E+00  0.00000000000E+00  0.14324566223E+04  0.32333552844E+04  0.28987332441E+04 0.  0.
        3    1    3    3  502    0 -0.11275832470E+04  0.55789885976E+03  0.15190088619E+04  0.19723293461E+04  0.10100000352E+00 0. -1.
       -3    1    3    3    0  502  0.11275832470E+04 -0.55789885976E+03 -0.86552239612E+02  0.12610259383E+04  0.10100000352E+00 0.  1.
</event>
<event>
 5   0  0.6612533E-06  0.2863529E+04  0.7818609E-02  0.8283812E-01
        2   -1    0    0  501    0  0.00000000000E+00  0.00000000000E+00  0.22765127481E+04  0.22765127481E+04  0.25500000920E-02 0.  1.
       -2   -1    0    0    0  501  0.00000000000E+00  0.00000000000E+00 -0.90047783921E+03  0.90047783921E+03  0.25500000920E-02 0. -1.
    10030    2    1    2    0    0  0.00000000000E+00  0.00000000000E+00  0.13760349089E+04  0.31769905873E+04  0.28635287883E+04 0.  0.
        3    1    3    3  502    0  0.67979044154E+03  0.17846308942E+03 -0.69592202520E+03  0.98907613157E+03  0.10100000352E+00 0. -1.
       -3    1    3    3    0  502 -0.67979044154E+03 -0.17846308942E+03  0.20719569341E+04  0.21879144557E+04  0.10100000352E+00 0.  1.
</event>
<event>
 5   0  0.2508094E-06  0.2610594E+04  0.7818609E-02  0.8364612E-01
        1   -1    0    0  501    0  0.00000000000E+00  0.00000000000E+00  0.21599795077E+04  0.21599795077E+04  0.50400001928E-02 0.  1.
       -1   -1    0    0    0  501  0.00000000000E+00  0.00000000000E+00 -0.78880372952E+03  0.78880372954E+03  0.50400001928E-02 0. -1.
    10030    2    1    2    0    0  0.00000000000E+00  0.00000000000E+00  0.13711757782E+04  0.29487832373E+04  0.26105937190E+04 0.  0.
        3    1    3    3  502    0 -0.53888478561E+03  0.23441289721E+03 -0.63092760543E+03  0.86221567605E+03  0.10100000352E+00 0. -1.
       -3    1    3    3    0  502  0.53888478561E+03 -0.23441289721E+03  0.20021033837E+04  0.20865675612E+04  0.10100000352E+00 0.  1.
</event>
<event>
 5   0  0.2429358E-06  0.2922174E+04  0.7818609E-02  0.8266310E-01
        1   -1    0    0  501    0  0.00000000000E+00  0.00000000000E+00  0.20772028342E+04  0.20772028342E+04  0.50400001928E-02 0.  1.
       -1   -1    0    0    0  501  0.00000000000E+00  0.00000000000E+00 -0.10277165194E+04  0.10277165194E+04  0.50400001928E-02 0. -1.
    10030    2    1    2    0    0  0.00000000000E+00  0.00000000000E+00  0.10494863147E+04  0.31049193536E+04  0.29221743048E+04 0.  0.
        2    1    3    3  502    0  0.20407192085E+03 -0.11124870117E+04  0.15075201182E+04  0.18846457510E+04  0.25500000920E-02 0.  1.
       -2    1    3    3    0  502 -0.20407192085E+03  0.11124870117E+04 -0.45803380342E+03  0.12202736026E+04  0.25500000920E-02 0. -1.
</event>
<event>
 5   0  0.6615403E-06  0.2882398E+04  0.7818609E-02  0.8278134E-01
       -2   -1    0    0    0  501  0.00000000000E+00  0.00000000000E+00  0.13223554646E+04  0.13223554646E+04  0.25500000920E-02 0.  1.
        2   -1    0    0  501    0  0.00000000000E+00  0.00000000000E+00 -0.15707235227E+04  0.15707235227E+04  0.25500000920E-02 0. -1.
    10030    2    1    2    0    0  0.00000000000E+00  0.00000000000E+00 -0.24836805803E+03  0.28930789873E+04  0.28823981915E+04 0.  0.
        2    1    3    3  502    0 -0.74111080036E+03  0.12360241571E+04 -0.11681528139E+03  0.14459068937E+04  0.25500000920E-02 0.  1.
       -2    1    3    3    0  502  0.74111080036E+03 -0.12360241571E+04 -0.13155277664E+03  0.14471720936E+04  0.25500000920E-02 0. -1.
</event>
<event>
 5   0  0.2348684E-06  0.2892707E+04  0.7818609E-02  0.8275051E-01
       -1   -1    0    0    0  501  0.00000000000E+00  0.00000000000E+00  0.15854526809E+04  0.15854526809E+04  0.50400001928E-02 0. -1.
        1   -1    0    0  501    0  0.00000000000E+00  0.00000000000E+00 -0.13194579549E+04  0.13194579549E+04  0.50400001928E-02 0.  1.
    10030    2    1    2    0    0  0.00000000000E+00  0.00000000000E+00  0.26599472598E+03  0.29049106357E+04  0.28927067960E+04 0.  0.
        5    1    3    3  502    0 -0.46347307534E+03  0.20746076910E+03 -0.12269940687E+04  0.13279246202E+04  0.46999998093E+01 0.  1.
       -5    1    3    3    0  502  0.46347307534E+03 -0.20746076910E+03  0.14929887947E+04  0.15769860156E+04  0.46999998093E+01 0. -1.
</event>
<event>
 5   0  0.2474769E-06  0.2890996E+04  0.7818609E-02  0.8275562E-01
       -1   -1    0    0    0  501  0.00000000000E+00  0.00000000000E+00  0.13179334058E+04  0.13179334058E+04  0.50400001928E-02 0.  1.
        1   -1    0    0  501    0  0.00000000000E+00  0.00000000000E+00 -0.15854093531E+04  0.15854093531E+04  0.50400001928E-02 0. -1.
    10030    2    1    2    0    0  0.00000000000E+00  0.00000000000E+00 -0.26747594726E+03  0.29033427589E+04  0.28909956405E+04 0.  0.
        1    1    3    3  502    0 -0.41063043647E+03  0.13711558467E+04  0.69060693805E+02  0.14329881684E+04  0.50400001928E-02 0.  1.
       -1    1    3    3    0  502  0.41063043647E+03 -0.13711558467E+04 -0.33653664106E+03  0.14703545906E+04  0.50400001928E-02 0. -1.
</event>
<event>
 5   0  0.6393633E-06  0.2848777E+04  0.7818609E-02  0.8288283E-01
       -2   -1    0    0    0  501  0.00000000000E+00  0.00000000000E+00  0.10830245601E+04  0.10830245601E+04  0.25500000920E-02 0.  1.
        2   -1    0    0  501    0  0.00000000000E+00  0.00000000000E+00 -0.18733481259E+04  0.18733481259E+04  0.25500000920E-02 0. -1.
    10030    2    1    2    0    0  0.00000000000E+00  0.00000000000E+00 -0.79032356574E+03  0.29563726860E+04  0.28487766006E+04 0.  0.
        4    1    3    3  502    0  0.62992779714E+03 -0.16283593084E+03 -0.17101246709E+04  0.18297137953E+04  0.12699999809E+01 0. -1.
       -4    1    3    3    0  502 -0.62992779714E+03  0.16283593084E+03  0.91980110516E+03  0.11266588907E+04  0.12699999809E+01 0.  1.
</event>
<event>
 5   0  0.2474769E-06  0.2744139E+04  0.7818609E-02  0.8320824E-01
       -1   -1    0    0    0  501  0.00000000000E+00  0.00000000000E+00  0.72783814414E+03  0.72783814416E+03  0.50400001928E-02 0.  1.
        1   -1    0    0  501    0  0.00000000000E+00  0.00000000000E+00 -0.25865286743E+04  0.25865286743E+04  0.50400001928E-02 0. -1.
    10030    2    1    2    0    0  0.00000000000E+00  0.00000000000E+00 -0.18586905302E+04  0.33143668185E+04  0.27441386482E+04 0.  0.
        1    1    3    3  502    0 -0.13629969843E+04  0.13780498150E+00 -0.73908944956E+03  0.15504883142E+04  0.50400001928E-02 0. -1.
       -1    1    3    3    0  502  0.13629969843E+04 -0.13780498150E+00 -0.11196010806E+04  0.17638785043E+04  0.50400001928E-02 0.  1.
</event>
<event>
 5   0  0.6393633E-06  0.2852825E+04  0.7818609E-02  0.8287053E-01
       -2   -1    0    0    0  501  0.00000000000E+00  0.00000000000E+00  0.74157555296E+03  0.74157555296E+03  0.25500000920E-02 0.  1.
        2   -1    0    0  501    0  0.00000000000E+00  0.00000000000E+00 -0.27436884709E+04  0.27436884709E+04  0.25500000920E-02 0. -1.
    10030    2    1    2    0    0  0.00000000000E+00  0.00000000000E+00 -0.20021129180E+04  0.34852640239E+04  0.28528247720E+04 0.  0.
        4    1    3    3  502    0 -0.12786176029E+04  0.55903989961E+03 -0.64016765230E+03  0.15353191264E+04  0.12699999809E+01 0.  1.
       -4    1    3    3    0  502  0.12786176029E+04 -0.55903989961E+03 -0.13619452657E+04  0.19499448975E+04  0.12699999809E+01 0. -1.
</event>
<event>
 5   0  0.6733688E-06  0.2939487E+04  0.7818609E-02  0.8261225E-01
       -2   -1    0    0    0  501  0.00000000000E+00  0.00000000000E+00  0.10289129670E+04  0.10289129670E+04  0.25500000920E-02 0. -1.
        2   -1    0    0  501    0  0.00000000000E+00  0.00000000000E+00 -0.20994451972E+04  0.20994451972E+04  0.25500000920E-02 0.  1.
    10030    2    1    2    0    0  0.00000000000E+00  0.00000000000E+00 -0.10705322302E+04  0.31283581642E+04  0.29394872933E+04 0.  0.
        5    1    3    3  502    0 -0.29144563378E+03 -0.95063820592E+03  0.61662281648E+03  0.11699997196E+04  0.46999998093E+01 0. -1.
       -5    1    3    3    0  502  0.29144563378E+03  0.95063820592E+03 -0.16871550467E+04  0.19583584446E+04  0.46999998093E+01 0.  1.
</event>
<event>
 5   0  0.2336512E-06  0.2956350E+04  0.7818609E-02  0.8256306E-01
        1   -1    0    0  501    0  0.00000000000E+00  0.00000000000E+00  0.17054476615E+04  0.17054476615E+04  0.50400001928E-02 0. -1.
       -1   -1    0    0    0  501  0.00000000000E+00  0.00000000000E+00 -0.12811889755E+04  0.12811889756E+04  0.50400001928E-02 0.  1.
    10030    2    1    2    0    0  0.00000000000E+00  0.00000000000E+00  0.42425868597E+03  0.29866366371E+04  0.29563496020E+04 0.  0.
        4    1    3    3  502    0 -0.42354002449E+02  0.30270313711E+03 -0.12489151151E+04  0.12857735525E+04  0.12699999809E+01 0.  1.
       -4    1    3    3    0  502  0.42354002449E+02 -0.30270313711E+03  0.16731738011E+04  0.17008630845E+04  0.12699999809E+01 0. -1.
</event>
<event>
 5   0  0.6733688E-06  0.2880123E+04  0.7818609E-02  0.8278816E-01
       -2   -1    0    0    0  501  0.00000000000E+00  0.00000000000E+00  0.27263704919E+04  0.27263704919E+04  0.25500000920E-02 0.  1.
        2   -1    0    0  501    0  0.00000000000E+00  0.00000000000E+00 -0.76063677639E+03  0.76063677639E+03  0.25500000920E-02 0. -1.
    10030    2    1    2    0    0  0.00000000000E+00  0.00000000000E+00  0.19657337155E+04  0.34870072683E+04  0.28801233739E+04 0.  0.
        5    1    3    3  502    0 -0.28279501064E+03 -0.11893251609E+04  0.19043536351E+04  0.22629741965E+04  0.46999998093E+01 0.  1.
       -5    1    3    3    0  502  0.28279501064E+03  0.11893251609E+04  0.61380080368E+02  0.12240330718E+04  0.46999998093E+01 0. -1.
</event>
<event>
 5   0  0.2429358E-06  0.2932559E+04  0.7818609E-02  0.8263256E-01
       -1   -1    0    0    0  501  0.00000000000E+00  0.00000000000E+00  0.13618694342E+04  0.13618694342E+04  0.50400001928E-02 0.  1.
        1   -1    0    0  501    0  0.00000000000E+00  0.00000000000E+00 -0.15786946818E+04  0.15786946818E+04  0.50400001928E-02 0. -1.
    10030    2    1    2    0    0  0.00000000000E+00  0.00000000000E+00 -0.21682524765E+03  0.29405641160E+04  0.29325593144E+04 0.  0.
        2    1    3    3  502    0  0.32572816705E+03  0.43023205329E+03 -0.14755040523E+04  0.15710858242E+04  0.25500000920E-02 0. -1.
       -2    1    3    3    0  502 -0.32572816705E+03 -0.43023205329E+03  0.12586788047E+04  0.13694782918E+04  0.25500000920E-02 0.  1.
</event>
<event>
 5   0  0.6615403E-06  0.2905333E+04  0.7818609E-02  0.8271293E-01
       -2   -1    0    0    0  501  0.00000000000E+00  0.00000000000E+00  0.11859817584E+04  0.11859817584E+04  0.25500000920E-02 0. -1.
        2   -1    0    0  501    0  0.00000000000E+00  0.00000000000E+00 -0.17793186671E+04  0.17793186671E+04  0.25500000920E-02 0.  1.
    10030    2    1    2    0    0  0.00000000000E+00  0.00000000000E+00 -0.59333690868E+03  0.29653004255E+04  0.29053326705E+04 0.  0.
        2    1    3    3  502    0  0.85826834690E+02  0.71184498927E+03  0.99279689455E+03  0.12246367658E+04  0.25500000920E-02 0. -1.
       -2    1    3    3    0  502 -0.85826834690E+02 -0.71184498927E+03 -0.15861338032E+04  0.17406636597E+04  0.25500000920E-02 0.  1.
</event>
<event>
 5   0  0.2348684E-06  0.2894110E+04  0.7818609E-02  0.8274632E-01
       -1   -1    0    0    0  501  0.00000000000E+00  0.00000000000E+00  0.12186576474E+04  0.12186576474E+04  0.50400001928E-02 0. -1.
        1   -1    0    0  501    0  0.00000000000E+00  0.00000000000E+00 -0.17182576486E+04  0.17182576486E+04  0.50400001928E-02 0.  1.
    10030    2    1    2    0    0  0.00000000000E+00  0.00000000000E+00 -0.49960000115E+03  0.29369152960E+04  0.28941097586E+04 0.  0.
        5    1    3    3  502    0 -0.10325062573E+04  0.89428409938E+03  0.23489664572E+03  0.13860056803E+04  0.46999998093E+01 0.  1.
       -5    1    3    3    0  502  0.10325062573E+04 -0.89428409938E+03 -0.73449664687E+03  0.15509096157E+04  0.46999998093E+01 0. -1.
</event>
</LesHouchesEvents>
